 Entering Gaussian System, Link 0=g16
 Input=ihocl_35_sp.gjf
 Output=ihocl_35_sp.log
 Initial command:
 /sw/contrib/gaussian/g16/B01/g16/l1.exe "/scr/Gau-159216.inp" -scrdir="/scr/"
 Entering Link 1 = /sw/contrib/gaussian/g16/B01/g16/l1.exe PID=    159217.
  
 Copyright (c) 1988-2017, Gaussian, Inc.  All Rights Reserved.
  
 This is part of the Gaussian(R) 16 program.  It is based on
 the Gaussian(R) 09 system (copyright 2009, Gaussian, Inc.),
 the Gaussian(R) 03 system (copyright 2003, Gaussian, Inc.),
 the Gaussian(R) 98 system (copyright 1998, Gaussian, Inc.),
 the Gaussian(R) 94 system (copyright 1995, Gaussian, Inc.),
 the Gaussian 92(TM) system (copyright 1992, Gaussian, Inc.),
 the Gaussian 90(TM) system (copyright 1990, Gaussian, Inc.),
 the Gaussian 88(TM) system (copyright 1988, Gaussian, Inc.),
 the Gaussian 86(TM) system (copyright 1986, Carnegie Mellon
 University), and the Gaussian 82(TM) system (copyright 1983,
 Carnegie Mellon University). Gaussian is a federally registered
 trademark of Gaussian, Inc.
  
 This software contains proprietary and confidential information,
 including trade secrets, belonging to Gaussian, Inc.
  
 This software is provided under written license and may be
 used, copied, transmitted, or stored only in accord with that
 written license.
  
 The following legend is applicable only to US Government
 contracts under FAR:
  
                    RESTRICTED RIGHTS LEGEND
  
 Use, reproduction and disclosure by the US Government is
 subject to restrictions as set forth in subparagraphs (a)
 and (c) of the Commercial Computer Software - Restricted
 Rights clause in FAR 52.227-19.
  
 Gaussian, Inc.
 340 Quinnipiac St., Bldg. 40, Wallingford CT 06492
  
  
 ---------------------------------------------------------------
 Warning -- This program may not be used in any manner that
 competes with the business of Gaussian, Inc. or will provide
 assistance to any competitor of Gaussian, Inc.  The licensee
 of this program is prohibited from giving any competitor of
 Gaussian, Inc. access to this program.  By using this program,
 the user acknowledges that Gaussian, Inc. is engaged in the
 business of creating and licensing software in the field of
 computational chemistry and represents and warrants to the
 licensee that it is not a competitor of Gaussian, Inc. and that
 it will not use this program in any manner prohibited above.
 ---------------------------------------------------------------
  

 Cite this work as:
 Gaussian 16, Revision B.01,
 M. J. Frisch, G. W. Trucks, H. B. Schlegel, G. E. Scuseria, 
 M. A. Robb, J. R. Cheeseman, G. Scalmani, V. Barone, 
 G. A. Petersson, H. Nakatsuji, X. Li, M. Caricato, A. V. Marenich, 
 J. Bloino, B. G. Janesko, R. Gomperts, B. Mennucci, H. P. Hratchian, 
 J. V. Ortiz, A. F. Izmaylov, J. L. Sonnenberg, D. Williams-Young, 
 F. Ding, F. Lipparini, F. Egidi, J. Goings, B. Peng, A. Petrone, 
 T. Henderson, D. Ranasinghe, V. G. Zakrzewski, J. Gao, N. Rega, 
 G. Zheng, W. Liang, M. Hada, M. Ehara, K. Toyota, R. Fukuda, 
 J. Hasegawa, M. Ishida, T. Nakajima, Y. Honda, O. Kitao, H. Nakai, 
 T. Vreven, K. Throssell, J. A. Montgomery, Jr., J. E. Peralta, 
 F. Ogliaro, M. J. Bearpark, J. J. Heyd, E. N. Brothers, K. N. Kudin, 
 V. N. Staroverov, T. A. Keith, R. Kobayashi, J. Normand, 
 K. Raghavachari, A. P. Rendell, J. C. Burant, S. S. Iyengar, 
 J. Tomasi, M. Cossi, J. M. Millam, M. Klene, C. Adamo, R. Cammi, 
 J. W. Ochterski, R. L. Martin, K. Morokuma, O. Farkas, 
 J. B. Foresman, and D. J. Fox, Gaussian, Inc., Wallingford CT, 2016.
 
 ******************************************
 Gaussian 16:  ES64L-G16RevB.01 20-Dec-2017
                28-Sep-2021 
 ******************************************
 %nproc=28
 Will use up to   28 processors via shared memory.
 %mem=120GB
 %chk=/gscratch/ilahie/mccoygrp/coire_hocl/ihocl/ihocl_35_sp.chk
 --------------------------------------------------------
 #p pop=NBO SP NoSymm mp2/gen Pseudo=read density=current
 --------------------------------------------------------
 1/30=1,38=1,172=1/1;
 2/12=2,15=1,17=6,18=5,40=1/2;
 3/5=7,11=9,16=1,17=8,25=1,30=1,71=1/1,2,3;
 4//1;
 5/5=2,38=5/2;
 8/6=4,10=1/1;
 9/15=1,16=-3/6;
 10/5=1,13=10,31=1/2;
 6/7=2,8=2,9=2,10=2,22=-1,40=1/1,7;
 99/5=1,9=1/99;
 Leave Link    1 at Tue Sep 28 09:17:05 2021, MaxMem= 16106127360 cpu:               2.0 elap:               0.1
 (Enter /sw/contrib/gaussian/g16/B01/g16/l101.exe)
 -----
 title
 -----
 Symbolic Z-matrix:
 Charge = -1 Multiplicity = 1
 O                     0.        0.        0. 
 I                     3.3123    0.        0. 
 Cl                   -0.38642   1.64166   0. 
 H                     0.80922   0.        0.56662 
 
 ITRead=  0  0  0  0
 MicOpt= -1 -1 -1 -1
 NAtoms=      4 NQM=        4 NQMF=       0 NMMI=      0 NMMIF=      0
                NMic=       0 NMicF=      0.
                    Isotopes and Nuclear Properties:
 (Nuclear quadrupole moments (NQMom) in fm**2, nuclear magnetic moments (NMagM)
  in nuclear magnetons)

  Atom         1           2           3           4
 IAtWgt=          16         127          35           1
 AtmWgt=  15.9949146 126.9004000  34.9688527   1.0078250
 NucSpn=           0           5           3           1
 AtZEff=  -0.0000000  -0.0000000  -0.0000000  -0.0000000
 NQMom=    0.0000000 -71.0000000  -8.1650000   0.0000000
 NMagM=    0.0000000   2.8132800   0.8218740   2.7928460
 AtZNuc=   8.0000000  53.0000000  17.0000000   1.0000000
 Leave Link  101 at Tue Sep 28 09:17:06 2021, MaxMem= 16106127360 cpu:               3.5 elap:               0.2
 (Enter /sw/contrib/gaussian/g16/B01/g16/l202.exe)
                          Input orientation:                          
 ---------------------------------------------------------------------
 Center     Atomic      Atomic             Coordinates (Angstroms)
 Number     Number       Type             X           Y           Z
 ---------------------------------------------------------------------
      1          8           0        0.000000    0.000000    0.000000
      2         53           0        3.312298    0.000000    0.000000
      3         17           0       -0.386419    1.641657    0.000000
      4          1           0        0.809224    0.000000    0.566625
 ---------------------------------------------------------------------
                    Distance matrix (angstroms):
                    1          2          3          4
     1  O    0.000000
     2  I    3.312298   0.000000
     3  Cl   1.686522   4.046671   0.000000
     4  H    0.987880   2.566407   2.108474   0.000000
 Symmetry turned off by external request.
 Stoichiometry    ClHIO(1-)
 Framework group  C1[X(ClHIO)]
 Deg. of freedom     6
 Full point group                 C1      NOp   1
 Rotational constants (GHZ):          21.3862271           0.9681586           0.9272888
 Leave Link  202 at Tue Sep 28 09:17:06 2021, MaxMem= 16106127360 cpu:               0.7 elap:               0.0
 (Enter /sw/contrib/gaussian/g16/B01/g16/l301.exe)
 General basis read from cards:  (5D, 7F)
 Centers:       4      1      3
 aug-cc-pVTZ
 ****
 Centers:       2
 S 11 1.00
     Exponent=  5.5465000000D+03 Coefficients=  1.5600000000D-04
     Exponent=  8.3821400000D+02 Coefficients=  9.8600000000D-04
     Exponent=  1.8218700000D+02 Coefficients=  2.7920000000D-03
     Exponent=  3.1212300000D+01 Coefficients= -4.3251000000D-02
     Exponent=  1.9531400000D+01 Coefficients=  2.3413400000D-01
     Exponent=  8.2409900000D+00 Coefficients= -7.5094300000D-01
     Exponent=  2.1945500000D+00 Coefficients=  8.8296800000D-01
     Exponent=  1.1091100000D+00 Coefficients=  4.6206100000D-01
     Exponent=  3.7464100000D-01 Coefficients=  2.2286000000D-02
     Exponent=  1.7708000000D-01 Coefficients= -4.3530000000D-03
     Exponent=  8.1061000000D-02 Coefficients=  1.1020000000D-03
 S 11 1.00
     Exponent=  5.5465000000D+03 Coefficients= -7.3000000000D-05
     Exponent=  8.3821400000D+02 Coefficients= -5.0800000000D-04
     Exponent=  1.8218700000D+02 Coefficients= -1.1580000000D-03
     Exponent=  3.1212300000D+01 Coefficients=  1.2193000000D-02
     Exponent=  1.9531400000D+01 Coefficients= -8.7854000000D-02
     Exponent=  8.2409900000D+00 Coefficients=  3.3820000000D-01
     Exponent=  2.1945500000D+00 Coefficients= -5.7655000000D-01
     Exponent=  1.1091100000D+00 Coefficients= -4.0929800000D-01
     Exponent=  3.7464100000D-01 Coefficients=  5.6745900000D-01
     Exponent=  1.7708000000D-01 Coefficients=  6.1248900000D-01
     Exponent=  8.1061000000D-02 Coefficients=  1.4323100000D-01
 S 1 1.00
     Exponent=  3.7464100000D-01 Coefficients=  1.0000000000D+00
 S 1 1.00
     Exponent=  1.7708000000D-01 Coefficients=  1.0000000000D+00
 S 1 1.00
     Exponent=  1.0010000000D-01 Coefficients=  1.0000000000D+00
 S 1 1.00
     Exponent=  4.1200000000D-02 Coefficients=  1.0000000000D+00
 P 9 1.00
     Exponent=  1.8898800000D+02 Coefficients=  5.8500000000D-04
     Exponent=  2.1286800000D+01 Coefficients=  3.6923000000D-02
     Exponent=  1.0039600000D+01 Coefficients= -2.3532400000D-01
     Exponent=  3.4518000000D+00 Coefficients=  3.4148300000D-01
     Exponent=  1.9745600000D+00 Coefficients=  5.3478800000D-01
     Exponent=  1.0242000000D+00 Coefficients=  2.6514100000D-01
     Exponent=  4.4943700000D-01 Coefficients=  2.5787000000D-02
     Exponent=  1.8664800000D-01 Coefficients=  5.2200000000D-04
     Exponent=  7.3481000000D-02 Coefficients=  6.0600000000D-04
 P 9 1.00
     Exponent=  1.8898800000D+02 Coefficients= -2.5600000000D-04
     Exponent=  2.1286800000D+01 Coefficients= -1.1682000000D-02
     Exponent=  1.0039600000D+01 Coefficients=  8.3192000000D-02
     Exponent=  3.4518000000D+00 Coefficients= -1.5697000000D-01
     Exponent=  1.9745600000D+00 Coefficients= -2.2451800000D-01
     Exponent=  1.0242000000D+00 Coefficients= -1.1445100000D-01
     Exponent=  4.4943700000D-01 Coefficients=  3.7535600000D-01
     Exponent=  1.8664800000D-01 Coefficients=  5.7513600000D-01
     Exponent=  7.3481000000D-02 Coefficients=  2.4591700000D-01
 P 1 1.00
     Exponent=  5.9810000000D-01 Coefficients=  1.0000000000D+00
 P 1 1.00
     Exponent=  9.6180000000D-02 Coefficients=  1.0000000000D+00
 P 1 1.00
     Exponent=  3.5900000000D-02 Coefficients=  1.0000000000D+00
 D 9 1.00
     Exponent=  1.3266200000D+02 Coefficients=  5.7200000000D-04
     Exponent=  3.7605400000D+01 Coefficients=  4.4020000000D-03
     Exponent=  1.0389100000D+01 Coefficients= -4.0922000000D-02
     Exponent=  6.4901700000D+00 Coefficients=  9.9661000000D-02
     Exponent=  3.4545100000D+00 Coefficients=  3.2266300000D-01
     Exponent=  1.8441300000D+00 Coefficients=  4.0034300000D-01
     Exponent=  9.6247800000D-01 Coefficients=  2.6830600000D-01
     Exponent=  4.7285300000D-01 Coefficients=  8.4847000000D-02
     Exponent=  1.9320000000D-01 Coefficients=  7.6320000000D-03
 D 1 1.00
     Exponent=  4.7285300000D-01 Coefficients=  1.0000000000D+00
 D 1 1.00
     Exponent=  1.9320000000D-01 Coefficients=  1.0000000000D+00
 D 1 1.00
     Exponent=  7.8200000000D-02 Coefficients=  1.0000000000D+00
 F 1 1.00
     Exponent=  4.0640000000D-01 Coefficients=  1.0000000000D+00
 F 1 1.00
     Exponent=  1.8480000000D-01 Coefficients=  1.0000000000D+00
 ****
 ======================================================================================================
                                       Pseudopotential Parameters
 ======================================================================================================
  Center     Atomic      Valence      Angular      Power
  Number     Number     Electrons     Momentum     of R      Exponent        Coefficient   SO-Coeffient
 ======================================================================================================
    1          8
                                   No pseudopotential on this center.
    2         53           25
                                      G and up 
                                                     2        1.0000000        0.00000000    0.00000000
                                      S - G
                                                     2       40.0333760       49.98964900    0.00000000
                                                     2       17.3005760      281.00655600    0.00000000
                                                     2        8.8517200       61.41673900    0.00000000
                                      P - G
                                                     2       15.7201410       67.41623900    0.00000000
                                                     2       15.2082220      134.80769600    0.00000000
                                                     2        8.2941860       14.56654800    0.00000000
                                                     2        7.7539490       28.96842200    0.00000000
                                      D - G
                                                     2       13.8177510       35.53875600    0.00000000
                                                     2       13.5878050       53.33975900    0.00000000
                                                     2        6.9476300        9.71646600    0.00000000
                                                     2        6.9600990       14.97750000    0.00000000
                                      F - G
                                                     2       18.5229500      -20.17661800    0.00000000
                                                     2       18.2510350      -26.08807700    0.00000000
                                                     2        7.5579010       -0.22043400    0.00000000
                                                     2        7.5974040       -0.22164600    0.00000000
    3         17
                                   No pseudopotential on this center.
    4          1
                                   No pseudopotential on this center.
 ======================================================================================================
 Ernie: Thresh=  0.10000D-02 Tol=  0.10000D-05 Strict=F.
 Ernie:  23 primitive shells out of 166 were deleted.
   174 basis functions,   383 primitive gaussians,   204 cartesian basis functions
    26 alpha electrons       26 beta electrons
       nuclear repulsion energy       143.9081950240 Hartrees.
 IExCor=    0 DFT=F Ex=HF Corr=None ExCW=0 ScaHFX=  1.000000
 ScaDFX=  1.000000  1.000000  1.000000  1.000000 ScalE2=  1.000000  1.000000
 IRadAn=      5 IRanWt=     -1 IRanGd=            0 ICorTp=0 IEmpDi=  4
 NAtoms=    4 NActive=    4 NUniq=    4 SFac= 1.00D+00 NAtFMM=   60 NAOKFM=F Big=F
 Integral buffers will be    131072 words long.
 Raffenetti 1 integral format.
 Two-electron integral symmetry is turned off.
 Leave Link  301 at Tue Sep 28 09:17:06 2021, MaxMem= 16106127360 cpu:               3.2 elap:               0.1
 (Enter /sw/contrib/gaussian/g16/B01/g16/l302.exe)
 NPDir=0 NMtPBC=     1 NCelOv=     1 NCel=       1 NClECP=     1 NCelD=      1
         NCelK=      1 NCelE2=     1 NClLst=     1 CellRange=     0.0.
 One-electron integrals computed using PRISM.
   1 Symmetry operations used in ECPInt.
 ECPInt:  NShTT=    1596 NPrTT=   10643 LenC2=    1597 LenP2D=    8415.
 LDataN:  DoStor=T MaxTD1= 7 Len=  274
 NBasis=   174 RedAO= T EigKep=  2.82D-04  NBF=   174
 NBsUse=   174 1.00D-06 EigRej= -1.00D+00 NBFU=   174
 Leave Link  302 at Tue Sep 28 09:17:06 2021, MaxMem= 16106127360 cpu:               6.1 elap:               0.2
 (Enter /sw/contrib/gaussian/g16/B01/g16/l303.exe)
 DipDrv:  MaxL=1.
 Leave Link  303 at Tue Sep 28 09:17:06 2021, MaxMem= 16106127360 cpu:               2.7 elap:               0.1
 (Enter /sw/contrib/gaussian/g16/B01/g16/l401.exe)
 ExpMin= 2.53D-02 ExpMax= 4.56D+05 ExpMxC= 1.44D+03 IAcc=3 IRadAn=         5 AccDes= 0.00D+00
 Harris functional with IExCor=  205 and IRadAn=       5 diagonalized for initial guess.
 HarFok:  IExCor=  205 AccDes= 0.00D+00 IRadAn=         5 IDoV= 1 UseB2=F ITyADJ=14
 ICtDFT=  3500011 ScaDFX=  1.000000  1.000000  1.000000  1.000000
 Defaulting to unpruned grid for atomic number  53.
 FoFCou: FMM=F IPFlag=           0 FMFlag=      100000 FMFlg1=           0
         NFxFlg=           0 DoJE=T BraDBF=F KetDBF=T FulRan=T
         wScrn=  0.000000 ICntrl=       500 IOpCl=  0 I1Cent=   200000004 NGrid=           0
         NMat0=    1 NMatS0=      1 NMatT0=    0 NMatD0=    1 NMtDS0=    0 NMtDT0=    0
 Symmetry not used in FoFCou.
 Harris En= -831.052707755247    
 JPrj=0 DoOrth=F DoCkMO=F.
 Leave Link  401 at Tue Sep 28 09:17:06 2021, MaxMem= 16106127360 cpu:               6.5 elap:               0.3
 (Enter /sw/contrib/gaussian/g16/B01/g16/l502.exe)
 Keep R1 ints in memory in canonical form, NReq=173963957.
 FoFCou: FMM=F IPFlag=           0 FMFlag=           0 FMFlg1=           0
         NFxFlg=           0 DoJE=F BraDBF=F KetDBF=F FulRan=T
         wScrn=  0.000000 ICntrl=       600 IOpCl=  0 I1Cent=           0 NGrid=           0
         NMat0=    1 NMatS0=  15225 NMatT0=    0 NMatD0=    1 NMtDS0=    0 NMtDT0=    0
 Symmetry not used in FoFCou.
 Two-electron integral symmetry not used.
 Closed shell SCF:
 Using DIIS extrapolation, IDIIS=  1040.
 NGot= 16106127360 LenX= 15990129197 LenY= 15990087140
 Requested convergence on RMS density matrix=1.00D-08 within 128 cycles.
 Requested convergence on MAX density matrix=1.00D-06.
 Requested convergence on             energy=1.00D-06.
 No special actions if energy rises.

 Cycle   1  Pass 1  IDiag  1:
 E= -829.527139878651    
 DIIS: error= 2.41D-02 at cycle   1 NSaved=   1.
 NSaved= 1 IEnMin= 1 EnMin= -829.527139878651     IErMin= 1 ErrMin= 2.41D-02
 ErrMax= 2.41D-02  0.00D+00 EMaxC= 1.00D-01 BMatC= 4.47D-01 BMatP= 4.47D-01
 IDIUse=3 WtCom= 7.59D-01 WtEn= 2.41D-01
 Coeff-Com:  0.100D+01
 Coeff-En:   0.100D+01
 Coeff:      0.100D+01
 Gap=     0.399 Goal=   None    Shift=    0.000
 GapD=    0.399 DampG=1.000 DampE=0.500 DampFc=0.5000 IDamp=-1.
 Damping current iteration by 5.00D-01
 RMSDP=3.05D-03 MaxDP=9.66D-02              OVMax= 1.17D-01

 Cycle   2  Pass 1  IDiag  1:
 E= -829.603080044989     Delta-E=       -0.075940166338 Rises=F Damp=T
 DIIS: error= 1.15D-02 at cycle   2 NSaved=   2.
 NSaved= 2 IEnMin= 2 EnMin= -829.603080044989     IErMin= 2 ErrMin= 1.15D-02
 ErrMax= 1.15D-02  0.00D+00 EMaxC= 1.00D-01 BMatC= 8.89D-02 BMatP= 4.47D-01
 IDIUse=3 WtCom= 8.85D-01 WtEn= 1.15D-01
 Coeff-Com: -0.617D+00 0.162D+01
 Coeff-En:   0.000D+00 0.100D+01
 Coeff:     -0.546D+00 0.155D+01
 Gap=     0.283 Goal=   None    Shift=    0.000
 RMSDP=1.48D-03 MaxDP=8.46D-02 DE=-7.59D-02 OVMax= 6.85D-02

 Cycle   3  Pass 1  IDiag  1:
 E= -829.673784738511     Delta-E=       -0.070704693521 Rises=F Damp=F
 DIIS: error= 4.06D-03 at cycle   3 NSaved=   3.
 NSaved= 3 IEnMin= 3 EnMin= -829.673784738511     IErMin= 3 ErrMin= 4.06D-03
 ErrMax= 4.06D-03  0.00D+00 EMaxC= 1.00D-01 BMatC= 6.98D-03 BMatP= 8.89D-02
 IDIUse=3 WtCom= 9.59D-01 WtEn= 4.06D-02
 Coeff-Com: -0.257D+00 0.517D+00 0.740D+00
 Coeff-En:   0.000D+00 0.000D+00 0.100D+01
 Coeff:     -0.247D+00 0.496D+00 0.751D+00
 Gap=     0.289 Goal=   None    Shift=    0.000
 RMSDP=3.51D-04 MaxDP=1.54D-02 DE=-7.07D-02 OVMax= 2.72D-02

 Cycle   4  Pass 1  IDiag  1:
 E= -829.678751064223     Delta-E=       -0.004966325712 Rises=F Damp=F
 DIIS: error= 7.08D-04 at cycle   4 NSaved=   4.
 NSaved= 4 IEnMin= 4 EnMin= -829.678751064223     IErMin= 4 ErrMin= 7.08D-04
 ErrMax= 7.08D-04  0.00D+00 EMaxC= 1.00D-01 BMatC= 1.77D-04 BMatP= 6.98D-03
 IDIUse=3 WtCom= 9.93D-01 WtEn= 7.08D-03
 Coeff-Com: -0.373D-02-0.859D-02 0.116D+00 0.896D+00
 Coeff-En:   0.000D+00 0.000D+00 0.000D+00 0.100D+01
 Coeff:     -0.370D-02-0.853D-02 0.115D+00 0.897D+00
 Gap=     0.293 Goal=   None    Shift=    0.000
 RMSDP=9.22D-05 MaxDP=6.02D-03 DE=-4.97D-03 OVMax= 3.23D-03

 Cycle   5  Pass 1  IDiag  1:
 E= -829.678928581906     Delta-E=       -0.000177517683 Rises=F Damp=F
 DIIS: error= 1.38D-04 at cycle   5 NSaved=   5.
 NSaved= 5 IEnMin= 5 EnMin= -829.678928581906     IErMin= 5 ErrMin= 1.38D-04
 ErrMax= 1.38D-04  0.00D+00 EMaxC= 1.00D-01 BMatC= 1.27D-05 BMatP= 1.77D-04
 IDIUse=3 WtCom= 9.99D-01 WtEn= 1.38D-03
 Coeff-Com:  0.253D-01-0.475D-01-0.686D-01-0.702D-01 0.116D+01
 Coeff-En:   0.000D+00 0.000D+00 0.000D+00 0.000D+00 0.100D+01
 Coeff:      0.253D-01-0.474D-01-0.685D-01-0.701D-01 0.116D+01
 Gap=     0.292 Goal=   None    Shift=    0.000
 RMSDP=4.52D-05 MaxDP=2.12D-03 DE=-1.78D-04 OVMax= 2.61D-03

 Cycle   6  Pass 1  IDiag  1:
 E= -829.678959112037     Delta-E=       -0.000030530132 Rises=F Damp=F
 DIIS: error= 5.12D-05 at cycle   6 NSaved=   6.
 NSaved= 6 IEnMin= 6 EnMin= -829.678959112037     IErMin= 6 ErrMin= 5.12D-05
 ErrMax= 5.12D-05  0.00D+00 EMaxC= 1.00D-01 BMatC= 1.46D-06 BMatP= 1.27D-05
 IDIUse=1 WtCom= 1.00D+00 WtEn= 0.00D+00
 Coeff-Com: -0.711D-02 0.146D-01 0.114D-01-0.870D-01-0.235D+00 0.130D+01
 Coeff:     -0.711D-02 0.146D-01 0.114D-01-0.870D-01-0.235D+00 0.130D+01
 Gap=     0.292 Goal=   None    Shift=    0.000
 RMSDP=1.49D-05 MaxDP=5.70D-04 DE=-3.05D-05 OVMax= 1.22D-03

 Cycle   7  Pass 1  IDiag  1:
 E= -829.678963870092     Delta-E=       -0.000004758054 Rises=F Damp=F
 DIIS: error= 1.80D-05 at cycle   7 NSaved=   7.
 NSaved= 7 IEnMin= 7 EnMin= -829.678963870092     IErMin= 7 ErrMin= 1.80D-05
 ErrMax= 1.80D-05  0.00D+00 EMaxC= 1.00D-01 BMatC= 1.40D-07 BMatP= 1.46D-06
 IDIUse=1 WtCom= 1.00D+00 WtEn= 0.00D+00
 Coeff-Com: -0.594D-03 0.929D-03 0.447D-02 0.176D-01-0.775D-01-0.179D+00
 Coeff-Com:  0.123D+01
 Coeff:     -0.594D-03 0.929D-03 0.447D-02 0.176D-01-0.775D-01-0.179D+00
 Coeff:      0.123D+01
 Gap=     0.292 Goal=   None    Shift=    0.000
 RMSDP=4.94D-06 MaxDP=1.63D-04 DE=-4.76D-06 OVMax= 4.34D-04

 Cycle   8  Pass 1  IDiag  1:
 E= -829.678964397505     Delta-E=       -0.000000527413 Rises=F Damp=F
 DIIS: error= 7.41D-06 at cycle   8 NSaved=   8.
 NSaved= 8 IEnMin= 8 EnMin= -829.678964397505     IErMin= 8 ErrMin= 7.41D-06
 ErrMax= 7.41D-06  0.00D+00 EMaxC= 1.00D-01 BMatC= 1.71D-08 BMatP= 1.40D-07
 IDIUse=1 WtCom= 1.00D+00 WtEn= 0.00D+00
 Coeff-Com:  0.108D-02-0.220D-02-0.124D-02 0.125D-01 0.261D-01-0.180D+00
 Coeff-Com:  0.605D-01 0.108D+01
 Coeff:      0.108D-02-0.220D-02-0.124D-02 0.125D-01 0.261D-01-0.180D+00
 Coeff:      0.605D-01 0.108D+01
 Gap=     0.292 Goal=   None    Shift=    0.000
 RMSDP=1.63D-06 MaxDP=4.27D-05 DE=-5.27D-07 OVMax= 1.52D-04

 Cycle   9  Pass 1  IDiag  1:
 E= -829.678964453478     Delta-E=       -0.000000055973 Rises=F Damp=F
 DIIS: error= 2.60D-06 at cycle   9 NSaved=   9.
 NSaved= 9 IEnMin= 9 EnMin= -829.678964453478     IErMin= 9 ErrMin= 2.60D-06
 ErrMax= 2.60D-06  0.00D+00 EMaxC= 1.00D-01 BMatC= 1.58D-09 BMatP= 1.71D-08
 IDIUse=1 WtCom= 1.00D+00 WtEn= 0.00D+00
 Coeff-Com: -0.249D-03 0.530D-03-0.702D-04-0.563D-02 0.164D-02 0.680D-01
 Coeff-Com: -0.113D+00-0.419D+00 0.147D+01
 Coeff:     -0.249D-03 0.530D-03-0.702D-04-0.563D-02 0.164D-02 0.680D-01
 Coeff:     -0.113D+00-0.419D+00 0.147D+01
 Gap=     0.292 Goal=   None    Shift=    0.000
 RMSDP=7.19D-07 MaxDP=2.33D-05 DE=-5.60D-08 OVMax= 7.35D-05

 Cycle  10  Pass 1  IDiag  1:
 E= -829.678964461339     Delta-E=       -0.000000007861 Rises=F Damp=F
 DIIS: error= 1.03D-06 at cycle  10 NSaved=  10.
 NSaved=10 IEnMin=10 EnMin= -829.678964461339     IErMin=10 ErrMin= 1.03D-06
 ErrMax= 1.03D-06  0.00D+00 EMaxC= 1.00D-01 BMatC= 1.68D-10 BMatP= 1.58D-09
 IDIUse=1 WtCom= 1.00D+00 WtEn= 0.00D+00
 Coeff-Com: -0.400D-04 0.762D-04 0.120D-03 0.300D-03-0.326D-02 0.794D-03
 Coeff-Com:  0.247D-01-0.596D-02-0.364D+00 0.135D+01
 Coeff:     -0.400D-04 0.762D-04 0.120D-03 0.300D-03-0.326D-02 0.794D-03
 Coeff:      0.247D-01-0.596D-02-0.364D+00 0.135D+01
 Gap=     0.292 Goal=   None    Shift=    0.000
 RMSDP=2.28D-07 MaxDP=5.17D-06 DE=-7.86D-09 OVMax= 2.65D-05

 Cycle  11  Pass 1  IDiag  1:
 E= -829.678964462216     Delta-E=       -0.000000000878 Rises=F Damp=F
 DIIS: error= 4.23D-07 at cycle  11 NSaved=  11.
 NSaved=11 IEnMin=11 EnMin= -829.678964462216     IErMin=11 ErrMin= 4.23D-07
 ErrMax= 4.23D-07  0.00D+00 EMaxC= 1.00D-01 BMatC= 2.06D-11 BMatP= 1.68D-10
 IDIUse=1 WtCom= 1.00D+00 WtEn= 0.00D+00
 Coeff-Com:  0.398D-04-0.841D-04-0.563D-05 0.778D-03 0.595D-04-0.957D-02
 Coeff-Com:  0.133D-01 0.577D-01-0.159D+00-0.193D+00 0.129D+01
 Coeff:      0.398D-04-0.841D-04-0.563D-05 0.778D-03 0.595D-04-0.957D-02
 Coeff:      0.133D-01 0.577D-01-0.159D+00-0.193D+00 0.129D+01
 Gap=     0.292 Goal=   None    Shift=    0.000
 RMSDP=8.96D-08 MaxDP=2.17D-06 DE=-8.78D-10 OVMax= 1.00D-05

 Cycle  12  Pass 1  IDiag  1:
 E= -829.678964462327     Delta-E=       -0.000000000111 Rises=F Damp=F
 DIIS: error= 1.07D-07 at cycle  12 NSaved=  12.
 NSaved=12 IEnMin=12 EnMin= -829.678964462327     IErMin=12 ErrMin= 1.07D-07
 ErrMax= 1.07D-07  0.00D+00 EMaxC= 1.00D-01 BMatC= 1.41D-12 BMatP= 2.06D-11
 IDIUse=1 WtCom= 1.00D+00 WtEn= 0.00D+00
 Coeff-Com: -0.244D-05 0.585D-05-0.113D-04-0.131D-03 0.324D-03 0.121D-02
 Coeff-Com: -0.386D-02-0.891D-02 0.524D-01-0.630D-01-0.249D+00 0.127D+01
 Coeff:     -0.244D-05 0.585D-05-0.113D-04-0.131D-03 0.324D-03 0.121D-02
 Coeff:     -0.386D-02-0.891D-02 0.524D-01-0.630D-01-0.249D+00 0.127D+01
 Gap=     0.292 Goal=   None    Shift=    0.000
 RMSDP=2.56D-08 MaxDP=9.93D-07 DE=-1.11D-10 OVMax= 2.12D-06

 Cycle  13  Pass 1  IDiag  1:
 E= -829.678964462335     Delta-E=       -0.000000000008 Rises=F Damp=F
 DIIS: error= 3.03D-08 at cycle  13 NSaved=  13.
 NSaved=13 IEnMin=13 EnMin= -829.678964462335     IErMin=13 ErrMin= 3.03D-08
 ErrMax= 3.03D-08  0.00D+00 EMaxC= 1.00D-01 BMatC= 1.55D-13 BMatP= 1.41D-12
 IDIUse=1 WtCom= 1.00D+00 WtEn= 0.00D+00
 Coeff-Com: -0.306D-05 0.644D-05 0.543D-06-0.512D-04-0.360D-04 0.678D-03
 Coeff-Com: -0.708D-03-0.393D-02 0.780D-02 0.292D-01-0.111D+00-0.859D-01
 Coeff-Com:  0.116D+01
 Coeff:     -0.306D-05 0.644D-05 0.543D-06-0.512D-04-0.360D-04 0.678D-03
 Coeff:     -0.708D-03-0.393D-02 0.780D-02 0.292D-01-0.111D+00-0.859D-01
 Coeff:      0.116D+01
 Gap=     0.292 Goal=   None    Shift=    0.000
 RMSDP=7.78D-09 MaxDP=4.32D-07 DE=-8.07D-12 OVMax= 4.68D-07

 SCF Done:  E(RHF) =  -829.678964462     A.U. after   13 cycles
            NFock= 13  Conv=0.78D-08     -V/T= 2.2850
 KE= 6.456577970023D+02 PE=-2.196179046291D+03 EE= 5.769340898019D+02
 Leave Link  502 at Tue Sep 28 09:17:10 2021, MaxMem= 16106127360 cpu:              34.3 elap:               3.7
 (Enter /sw/contrib/gaussian/g16/B01/g16/l801.exe)
 ExpMin= 2.53D-02 ExpMax= 4.56D+05 ExpMxC= 1.44D+03 IAcc=3 IRadAn=         5 AccDes= 0.00D+00
 HarFok:  IExCor=  205 AccDes= 0.00D+00 IRadAn=         5 IDoV=-2 UseB2=F ITyADJ=14
 ICtDFT= 12500011 ScaDFX=  1.000000  1.000000  1.000000  1.000000
 Defaulting to unpruned grid for atomic number  53.
 Largest valence mixing into a core orbital is  4.48D-04
 Largest core mixing into a valence orbital is  1.60D-04
 Range of M.O.s used for correlation:    11   174
 NBasis=   174 NAE=    26 NBE=    26 NFC=    10 NFV=     0
 NROrb=    164 NOA=    16 NOB=    16 NVA=   148 NVB=   148

 **** Warning!!: The largest alpha MO coefficient is  0.10843341D+02

 Leave Link  801 at Tue Sep 28 09:17:10 2021, MaxMem= 16106127360 cpu:               1.4 elap:               0.1
 (Enter /sw/contrib/gaussian/g16/B01/g16/l906.exe)
 Frozen-core derivative calculation, NFC=  10 NFV=   0.
 FulOut=F Deriv=T AODrv=F NAtomX=     4
   MMem=         130  MDisk=          16 MDiskD=          16
  W3Min=      922896 MinDsk=     1491158 NBas6D=         204
 NBas2D=       21411    NTT=       20910    LW2=    26219120
    MDV= 16105723435 MDiskM=      394699 NBas2p=       21407
 Fully in-core method, ICMem=   539779449.
 IMap=   1   2   3   4   5   6   7   8   9  10  11  12  13  14  15  16  17  18  19  20
 IMap=  21  22  23  24  25  26
 JobTyp=1 Pass  1 fully in-core, NPsUse= 28.
 Compute canonical integrals.
 FoFCou: FMM=F IPFlag=           0 FMFlag=           0 FMFlg1=           0
         NFxFlg=           0 DoJE=F BraDBF=F KetDBF=F FulRan=T
         wScrn=  0.000000 ICntrl=       600 IOpCl=  1 I1Cent=           0 NGrid=           0
         NMat0=    1 NMatS0=  21411 NMatT0=    0 NMatD0=    1 NMtDS0=    0 NMtDT0=    0
 Symmetry not used in FoFCou.
 Spin components of T(2) and E(2):
     alpha-alpha T2 =       0.3125471612D-01 E2=     -0.9109789906D-01
     alpha-beta  T2 =       0.1656018338D+00 E2=     -0.4973181941D+00
     beta-beta   T2 =       0.3125471612D-01 E2=     -0.9109789906D-01
 The integrals were generated   1 times.
 ANorm=    0.1108201816D+01
 E2 =    -0.6795139923D+00 EUMP2 =    -0.83035847845459D+03
 Leave Link  906 at Tue Sep 28 09:17:16 2021, MaxMem= 16106127360 cpu:             167.7 elap:               6.0
 (Enter /sw/contrib/gaussian/g16/B01/g16/l1002.exe)
 Minotr:  Closed shell wavefunction.
          Computing MP2/KS-MP2 derivatives.
          Using Z-Vector for PSCF gradient.
          Skipping F1 and S1 gradient terms here.
          Frozen-core window.
          Direct CPHF calculation.
          Differentiating once with respect to electric field.
                with respect to dipole field.
          Electric field/nuclear overlap derivatives assumed to be zero.
          Requested convergence is 1.0D-10 RMS, and 1.0D-09 maximum.
          NewPWx=F KeepS1=T KeepF1=T KeepIn=T MapXYZ=F SortEE=F KeepMc=T.
 Keep R1 ints in memory in canonical form, NReq=173968481.
 FoFCou: FMM=F IPFlag=           0 FMFlag=           0 FMFlg1=           0
         NFxFlg=           0 DoJE=F BraDBF=F KetDBF=F FulRan=T
         wScrn=  0.000000 ICntrl=       600 IOpCl=  0 I1Cent=           0 NGrid=           0
         NMat0=    1 NMatS0=  15225 NMatT0=    0 NMatD0=    1 NMtDS0=    0 NMtDT0=    0
 Symmetry not used in FoFCou.
 Two-electron integral symmetry not used.
          MDV=   16106127360 using IRadAn=       5.
          Solving linear equations separately, MaxMat=       0.
          There are     1 degrees of freedom in the 1st order CPHF.  IDoFFX=0 NUNeed=     1.
 LinEq1:  Iter=  0 NonCon=     1 RMS=2.86D-03 Max=5.10D-02 NDo=     1
 AX will form     1 AO Fock derivatives at one time.
 LinEq1:  Iter=  1 NonCon=     1 RMS=4.47D-04 Max=3.72D-03 NDo=     1
 LinEq1:  Iter=  2 NonCon=     1 RMS=2.02D-04 Max=3.05D-03 NDo=     1
 LinEq1:  Iter=  3 NonCon=     1 RMS=6.09D-05 Max=9.36D-04 NDo=     1
 LinEq1:  Iter=  4 NonCon=     1 RMS=2.84D-05 Max=6.80D-04 NDo=     1
 LinEq1:  Iter=  5 NonCon=     1 RMS=9.32D-06 Max=1.90D-04 NDo=     1
 LinEq1:  Iter=  6 NonCon=     1 RMS=2.85D-06 Max=5.96D-05 NDo=     1
 LinEq1:  Iter=  7 NonCon=     1 RMS=7.94D-07 Max=1.22D-05 NDo=     1
 LinEq1:  Iter=  8 NonCon=     1 RMS=1.88D-07 Max=2.11D-06 NDo=     1
 LinEq1:  Iter=  9 NonCon=     1 RMS=6.24D-08 Max=1.08D-06 NDo=     1
 LinEq1:  Iter= 10 NonCon=     1 RMS=1.66D-08 Max=3.03D-07 NDo=     1
 LinEq1:  Iter= 11 NonCon=     1 RMS=3.89D-09 Max=7.14D-08 NDo=     1
 LinEq1:  Iter= 12 NonCon=     1 RMS=1.16D-09 Max=1.86D-08 NDo=     1
 LinEq1:  Iter= 13 NonCon=     1 RMS=3.71D-10 Max=4.31D-09 NDo=     1
 LinEq1:  Iter= 14 NonCon=     1 RMS=7.39D-11 Max=1.05D-09 NDo=     1
 LinEq1:  Iter= 15 NonCon=     0 RMS=1.63D-11 Max=2.68D-10 NDo=     1
 Linear equations converged to 1.000D-10 1.000D-09 after    15 iterations.
 End of Minotr F.D. properties file   721 does not exist.
 End of Minotr F.D. properties file   722 does not exist.
 End of Minotr F.D. properties file   788 does not exist.
 Leave Link 1002 at Tue Sep 28 09:17:21 2021, MaxMem= 16106127360 cpu:              35.8 elap:               4.3
 (Enter /sw/contrib/gaussian/g16/B01/g16/l601.exe)
 Copying SCF densities to generalized density rwf, IOpCl= 0 IROHF=0.

 **********************************************************************

            Population analysis using the MP2 Density.

 **********************************************************************

 Alpha  occ. eigenvalues -- -104.74850 -20.48888 -10.46808  -7.93526  -7.93250
 Alpha  occ. eigenvalues --   -7.93236  -7.46960  -5.29536  -5.29483  -5.29470
 Alpha  occ. eigenvalues --   -2.02283  -2.02262  -2.02251  -2.02189  -2.02188
 Alpha  occ. eigenvalues --   -1.25773  -0.91484  -0.63242  -0.56376  -0.46454
 Alpha  occ. eigenvalues --   -0.45562  -0.32587  -0.29988  -0.15121  -0.14484
 Alpha  occ. eigenvalues --   -0.14401
 Alpha virt. eigenvalues --    0.14814   0.17304   0.21512   0.22296   0.24142
 Alpha virt. eigenvalues --    0.25191   0.25416   0.27012   0.27715   0.29629
 Alpha virt. eigenvalues --    0.31109   0.32002   0.34231   0.37072   0.38081
 Alpha virt. eigenvalues --    0.38502   0.42132   0.43527   0.45558   0.49480
 Alpha virt. eigenvalues --    0.50412   0.53134   0.54001   0.56604   0.57089
 Alpha virt. eigenvalues --    0.58269   0.63385   0.63917   0.66989   0.74381
 Alpha virt. eigenvalues --    0.75510   0.78076   0.78302   0.79562   0.79677
 Alpha virt. eigenvalues --    0.79887   0.80888   0.82052   0.83338   0.84466
 Alpha virt. eigenvalues --    0.87718   0.87886   0.88685   0.89347   0.90375
 Alpha virt. eigenvalues --    0.92485   0.93749   0.95937   0.98004   0.99510
 Alpha virt. eigenvalues --    1.01593   1.05163   1.06412   1.09503   1.10791
 Alpha virt. eigenvalues --    1.13650   1.15318   1.19313   1.21656   1.23402
 Alpha virt. eigenvalues --    1.28806   1.31081   1.33108   1.35929   1.38990
 Alpha virt. eigenvalues --    1.42097   1.50872   1.52384   1.58960   1.61868
 Alpha virt. eigenvalues --    1.64039   1.67074   1.69941   1.72741   1.75303
 Alpha virt. eigenvalues --    1.75307   1.77269   1.77974   1.80477   1.83985
 Alpha virt. eigenvalues --    1.84861   1.86782   1.90932   1.96070   2.05223
 Alpha virt. eigenvalues --    2.05938   2.08365   2.11660   2.12615   2.26288
 Alpha virt. eigenvalues --    2.34067   2.40329   2.49113   2.50352   2.52664
 Alpha virt. eigenvalues --    2.58345   2.60246   2.62708   2.66585   2.68716
 Alpha virt. eigenvalues --    2.69957   2.71801   2.75617   2.77091   2.79738
 Alpha virt. eigenvalues --    2.93720   2.97940   3.08365   3.16329   3.18463
 Alpha virt. eigenvalues --    3.20249   3.21660   3.22362   3.24031   3.28272
 Alpha virt. eigenvalues --    3.33747   3.48843   3.52671   3.53458   3.82319
 Alpha virt. eigenvalues --    3.90738   4.00643   4.33009   4.45884   4.53103
 Alpha virt. eigenvalues --    4.59290   4.70882   4.90833   4.98444   5.33878
 Alpha virt. eigenvalues --    5.41731   5.67100   6.36205   6.59496   6.84361
 Alpha virt. eigenvalues --    6.88383   6.89649   6.96462   7.30858   7.33907
 Alpha virt. eigenvalues --    7.34762   7.42917   7.49034   7.67314   7.71823
 Alpha virt. eigenvalues --    8.35856  14.44712  59.20278
          Condensed to atoms (all electrons):
               1          2          3          4
     1  O    8.540387  -0.067179  -0.119613   0.050903
     2  I   -0.067179  25.882182   0.004686   0.071621
     3  Cl  -0.119613   0.004686  17.043807  -0.000304
     4  H    0.050903   0.071621  -0.000304   0.653395
 Mulliken charges:
               1
     1  O   -0.404499
     2  I   -0.891311
     3  Cl   0.071425
     4  H    0.224385
 Sum of Mulliken charges =  -1.00000
 Mulliken charges with hydrogens summed into heavy atoms:
               1
     1  O   -0.180114
     2  I   -0.891311
     3  Cl   0.071425
 Electronic spatial extent (au):  <R**2>=           1308.9175
 Charge=             -1.0000 electrons
 Dipole moment (field-independent basis, Debye):
    X=            -12.7802    Y=             -0.4427    Z=              0.4157  Tot=             12.7946
 Quadrupole moment (field-independent basis, Debye-Ang):
   XX=            -99.9935   YY=            -53.2758   ZZ=            -52.8902
   XY=              0.3976   XZ=             -0.0205   YZ=             -0.1795
 Traceless Quadrupole moment (field-independent basis, Debye-Ang):
   XX=            -31.2737   YY=             15.4441   ZZ=             15.8296
   XY=              0.3976   XZ=             -0.0205   YZ=             -0.1795
 Octapole moment (field-independent basis, Debye-Ang**2):
  XXX=           -473.7675  YYY=            -61.3399  ZZZ=             -2.0969  XYY=           -107.1828
  XXY=            -21.4681  XXZ=             -3.8353  XZZ=           -106.1235  YZZ=            -22.0933
  YYZ=             -1.1028  XYZ=              0.1066
 Hexadecapole moment (field-independent basis, Debye-Ang**3):
 XXXX=          -2818.5917 YYYY=           -282.3332 ZZZZ=            -90.4568 XXXY=             28.4560
 XXXZ=            -15.8713 YYYX=             21.5985 YYYZ=             -0.8263 ZZZX=             -3.7072
 ZZZY=             -0.2607 XXYY=           -436.7506 XXZZ=           -401.1226 YYZZ=            -66.8711
 XXYZ=             -0.1713 YYXZ=             -1.0105 ZZXY=              9.1336
 N-N= 1.439081950240D+02 E-N=-2.195729232049D+03  KE= 6.460343954401D+02
 No NMR shielding tensors so no spin-rotation constants.
 Leave Link  601 at Tue Sep 28 09:17:21 2021, MaxMem= 16106127360 cpu:               3.1 elap:               0.1
 (Enter /sw/contrib/gaussian/g16/B01/g16/l607.exe)
 ******************************Gaussian NBO Version 3.1******************************
             N A T U R A L   A T O M I C   O R B I T A L   A N D
          N A T U R A L   B O N D   O R B I T A L   A N A L Y S I S
 ******************************Gaussian NBO Version 3.1******************************
       /RESON  / : Allow strongly delocalized NBO set

 Analyzing the MP2 density

 Job title: title                                                           

 Storage needed:     91686 in NPA,    121697 in NBO (********** available)
 GSVD:  LWork=        2436 too small for GESVD, short by       52200 words or       52200 for optimal perf.


 NATURAL POPULATIONS:  Natural atomic orbital occupancies 
                                                          
   NAO  Atom  No  lang   Type(AO)    Occupancy
 --------------------------------------------
     1    O    1  S      Cor( 1S)     1.99971
     2    O    1  S      Val( 2S)     1.79286
     3    O    1  S      Ryd( 3S)     0.00884
     4    O    1  S      Ryd( 4S)     0.00109
     5    O    1  S      Ryd( 5S)     0.00018
     6    O    1  px     Val( 2p)     1.70346
     7    O    1  px     Ryd( 3p)     0.01360
     8    O    1  px     Ryd( 4p)     0.00071
     9    O    1  px     Ryd( 5p)     0.00042
    10    O    1  py     Val( 2p)     1.27794
    11    O    1  py     Ryd( 3p)     0.00769
    12    O    1  py     Ryd( 4p)     0.00060
    13    O    1  py     Ryd( 5p)     0.00032
    14    O    1  pz     Val( 2p)     1.83815
    15    O    1  pz     Ryd( 3p)     0.01690
    16    O    1  pz     Ryd( 4p)     0.00069
    17    O    1  pz     Ryd( 5p)     0.00024
    18    O    1  dxy    Ryd( 3d)     0.00926
    19    O    1  dxy    Ryd( 4d)     0.00049
    20    O    1  dxy    Ryd( 5d)     0.00017
    21    O    1  dxz    Ryd( 3d)     0.01097
    22    O    1  dxz    Ryd( 4d)     0.00054
    23    O    1  dxz    Ryd( 5d)     0.00015
    24    O    1  dyz    Ryd( 3d)     0.00974
    25    O    1  dyz    Ryd( 4d)     0.00057
    26    O    1  dyz    Ryd( 5d)     0.00010
    27    O    1  dx2y2  Ryd( 3d)     0.01081
    28    O    1  dx2y2  Ryd( 4d)     0.00045
    29    O    1  dx2y2  Ryd( 5d)     0.00018
    30    O    1  dz2    Ryd( 3d)     0.00907
    31    O    1  dz2    Ryd( 4d)     0.00057
    32    O    1  dz2    Ryd( 5d)     0.00021
    33    O    1  f(0)   Ryd( 4f)     0.00061
    34    O    1  f(0)   Ryd( 5f)     0.00011
    35    O    1  f(C1)  Ryd( 4f)     0.00061
    36    O    1  f(C1)  Ryd( 5f)     0.00012
    37    O    1  f(S1)  Ryd( 4f)     0.00061
    38    O    1  f(S1)  Ryd( 5f)     0.00011
    39    O    1  f(C2)  Ryd( 4f)     0.00063
    40    O    1  f(C2)  Ryd( 5f)     0.00014
    41    O    1  f(S2)  Ryd( 4f)     0.00060
    42    O    1  f(S2)  Ryd( 5f)     0.00012
    43    O    1  f(C3)  Ryd( 4f)     0.00061
    44    O    1  f(C3)  Ryd( 5f)     0.00014
    45    O    1  f(S3)  Ryd( 4f)     0.00060
    46    O    1  f(S3)  Ryd( 5f)     0.00011

    47    I    2  S      Cor( 4S)     1.99999
    48    I    2  S      Val( 5S)     1.97737
    49    I    2  S      Ryd( 6S)     0.00317
    50    I    2  S      Ryd( 7S)     0.00056
    51    I    2  S      Ryd( 8S)     0.00017
    52    I    2  S      Ryd( 9S)     0.00000
    53    I    2  px     Cor( 4p)     1.99999
    54    I    2  px     Val( 5p)     1.90859
    55    I    2  px     Ryd( 6p)     0.00980
    56    I    2  px     Ryd( 7p)     0.00066
    57    I    2  px     Ryd( 8p)     0.00014
    58    I    2  py     Cor( 4p)     2.00006
    59    I    2  py     Val( 5p)     1.95087
    60    I    2  py     Ryd( 6p)     0.01097
    61    I    2  py     Ryd( 7p)     0.00075
    62    I    2  py     Ryd( 8p)     0.00010
    63    I    2  pz     Cor( 4p)     2.00005
    64    I    2  pz     Val( 5p)     1.94577
    65    I    2  pz     Ryd( 6p)     0.01093
    66    I    2  pz     Ryd( 7p)     0.00074
    67    I    2  pz     Ryd( 8p)     0.00010
    68    I    2  dxy    Cor( 4d)     1.99675
    69    I    2  dxy    Ryd( 5d)     0.02048
    70    I    2  dxy    Ryd( 6d)     0.00144
    71    I    2  dxy    Ryd( 7d)     0.00021
    72    I    2  dxz    Cor( 4d)     1.99674
    73    I    2  dxz    Ryd( 5d)     0.02074
    74    I    2  dxz    Ryd( 6d)     0.00149
    75    I    2  dxz    Ryd( 7d)     0.00021
    76    I    2  dyz    Cor( 4d)     1.99678
    77    I    2  dyz    Ryd( 5d)     0.02024
    78    I    2  dyz    Ryd( 6d)     0.00166
    79    I    2  dyz    Ryd( 7d)     0.00019
    80    I    2  dx2y2  Cor( 4d)     1.99671
    81    I    2  dx2y2  Ryd( 5d)     0.02010
    82    I    2  dx2y2  Ryd( 6d)     0.00161
    83    I    2  dx2y2  Ryd( 7d)     0.00024
    84    I    2  dz2    Cor( 4d)     1.99676
    85    I    2  dz2    Ryd( 5d)     0.02016
    86    I    2  dz2    Ryd( 6d)     0.00162
    87    I    2  dz2    Ryd( 7d)     0.00018
    88    I    2  f(0)   Ryd( 4f)     0.00276
    89    I    2  f(0)   Ryd( 5f)     0.00044
    90    I    2  f(C1)  Ryd( 4f)     0.00274
    91    I    2  f(C1)  Ryd( 5f)     0.00046
    92    I    2  f(S1)  Ryd( 4f)     0.00276
    93    I    2  f(S1)  Ryd( 5f)     0.00043
    94    I    2  f(C2)  Ryd( 4f)     0.00274
    95    I    2  f(C2)  Ryd( 5f)     0.00045
    96    I    2  f(S2)  Ryd( 4f)     0.00278
    97    I    2  f(S2)  Ryd( 5f)     0.00045
    98    I    2  f(C3)  Ryd( 4f)     0.00275
    99    I    2  f(C3)  Ryd( 5f)     0.00047
   100    I    2  f(S3)  Ryd( 4f)     0.00270
   101    I    2  f(S3)  Ryd( 5f)     0.00045

   102   Cl    3  S      Cor( 1S)     2.00000
   103   Cl    3  S      Cor( 2S)     1.99981
   104   Cl    3  S      Val( 3S)     1.88449
   105   Cl    3  S      Ryd( 4S)     0.00800
   106   Cl    3  S      Ryd( 5S)     0.00054
   107   Cl    3  S      Ryd( 6S)     0.00018
   108   Cl    3  px     Cor( 2p)     2.00003
   109   Cl    3  px     Val( 3p)     1.89362
   110   Cl    3  px     Ryd( 4p)     0.00960
   111   Cl    3  px     Ryd( 5p)     0.00057
   112   Cl    3  px     Ryd( 6p)     0.00010
   113   Cl    3  py     Cor( 2p)     1.99997
   114   Cl    3  py     Val( 3p)     0.95575
   115   Cl    3  py     Ryd( 4p)     0.00698
   116   Cl    3  py     Ryd( 5p)     0.00052
   117   Cl    3  py     Ryd( 6p)     0.00023
   118   Cl    3  pz     Cor( 2p)     2.00003
   119   Cl    3  pz     Val( 3p)     1.95434
   120   Cl    3  pz     Ryd( 4p)     0.01020
   121   Cl    3  pz     Ryd( 5p)     0.00061
   122   Cl    3  pz     Ryd( 6p)     0.00003
   123   Cl    3  dxy    Ryd( 3d)     0.01814
   124   Cl    3  dxy    Ryd( 4d)     0.00068
   125   Cl    3  dxy    Ryd( 5d)     0.00025
   126   Cl    3  dxz    Ryd( 3d)     0.01713
   127   Cl    3  dxz    Ryd( 4d)     0.00078
   128   Cl    3  dxz    Ryd( 5d)     0.00019
   129   Cl    3  dyz    Ryd( 3d)     0.01910
   130   Cl    3  dyz    Ryd( 4d)     0.00085
   131   Cl    3  dyz    Ryd( 5d)     0.00034
   132   Cl    3  dx2y2  Ryd( 3d)     0.01851
   133   Cl    3  dx2y2  Ryd( 4d)     0.00066
   134   Cl    3  dx2y2  Ryd( 5d)     0.00025
   135   Cl    3  dz2    Ryd( 3d)     0.01739
   136   Cl    3  dz2    Ryd( 4d)     0.00063
   137   Cl    3  dz2    Ryd( 5d)     0.00016
   138   Cl    3  f(0)   Ryd( 4f)     0.00129
   139   Cl    3  f(0)   Ryd( 5f)     0.00013
   140   Cl    3  f(C1)  Ryd( 4f)     0.00127
   141   Cl    3  f(C1)  Ryd( 5f)     0.00013
   142   Cl    3  f(S1)  Ryd( 4f)     0.00141
   143   Cl    3  f(S1)  Ryd( 5f)     0.00013
   144   Cl    3  f(C2)  Ryd( 4f)     0.00127
   145   Cl    3  f(C2)  Ryd( 5f)     0.00013
   146   Cl    3  f(S2)  Ryd( 4f)     0.00122
   147   Cl    3  f(S2)  Ryd( 5f)     0.00013
   148   Cl    3  f(C3)  Ryd( 4f)     0.00143
   149   Cl    3  f(C3)  Ryd( 5f)     0.00013
   150   Cl    3  f(S3)  Ryd( 4f)     0.00146
   151   Cl    3  f(S3)  Ryd( 5f)     0.00014

   152    H    4  S      Val( 1S)     0.48564
   153    H    4  S      Ryd( 2S)     0.00648
   154    H    4  S      Ryd( 3S)     0.00039
   155    H    4  S      Ryd( 4S)     0.00016
   156    H    4  px     Ryd( 2p)     0.00599
   157    H    4  px     Ryd( 3p)     0.00069
   158    H    4  px     Ryd( 4p)     0.00030
   159    H    4  py     Ryd( 2p)     0.00307
   160    H    4  py     Ryd( 3p)     0.00044
   161    H    4  py     Ryd( 4p)     0.00010
   162    H    4  pz     Ryd( 2p)     0.00395
   163    H    4  pz     Ryd( 3p)     0.00053
   164    H    4  pz     Ryd( 4p)     0.00017
   165    H    4  dxy    Ryd( 3d)     0.00028
   166    H    4  dxy    Ryd( 4d)     0.00009
   167    H    4  dxz    Ryd( 3d)     0.00033
   168    H    4  dxz    Ryd( 4d)     0.00009
   169    H    4  dyz    Ryd( 3d)     0.00019
   170    H    4  dyz    Ryd( 4d)     0.00007
   171    H    4  dx2y2  Ryd( 3d)     0.00029
   172    H    4  dx2y2  Ryd( 4d)     0.00011
   173    H    4  dz2    Ryd( 3d)     0.00028
   174    H    4  dz2    Ryd( 4d)     0.00011

 [ 28 electrons found in the effective core potential]

 WARNING:  5 low occupancy (<1.9990e) core orbitals found on  I    2


 Summary of Natural Population Analysis:                  
                                                          
                                       Natural Population 
                Natural  -----------------------------------------------
    Atom  No    Charge         Core      Valence    Rydberg      Total
 -----------------------------------------------------------------------
      O    1   -0.72182      1.99971     6.61242    0.10969     8.72182
      I    2   -0.93750     45.98384     7.78260    0.17106    53.93750
     Cl    3    0.16906      9.99983     6.68821    0.14290    16.83094
      H    4    0.49026      0.00000     0.48564    0.02410     0.50974
 =======================================================================
   * Total *   -1.00000     57.98338    21.56887    0.44775    80.00000

                                 Natural Population      
 --------------------------------------------------------
   Effective Core            28.00000
   Core                      29.98338 ( 99.9446% of  30)
   Valence                   21.56887 ( 98.0403% of  22)
   Natural Minimal Basis     79.55225 ( 99.4403% of  80)
   Natural Rydberg Basis      0.44775 (  0.5597% of  80)
 --------------------------------------------------------

    Atom  No          Natural Electron Configuration
 ----------------------------------------------------------------------------
      O    1      [core]2S( 1.79)2p( 4.82)3S( 0.01)3p( 0.04)3d( 0.05)
      I    2      [core]5S( 1.98)5p( 5.81)4f( 0.02)5d( 0.10)6p( 0.03)6d( 0.01)
     Cl    3      [core]3S( 1.88)3p( 4.80)4S( 0.01)3d( 0.09)4p( 0.03)4f( 0.01)
      H    4            1S( 0.49)2S( 0.01)2p( 0.01)


 NATURAL BOND ORBITAL ANALYSIS:

                       Occupancies       Lewis Structure    Low   High
           Occ.    -------------------  -----------------   occ   occ
  Cycle   Thresh.   Lewis   Non-Lewis     CR  BD  3C  LP    (L)   (NL)   Dev
 =============================================================================
   1(1)    1.90    79.47727   0.52273     15   2   0   9     0      0    0.06
 -----------------------------------------------------------------------------

 Structure accepted: No low occupancy Lewis orbitals

 WARNING:  5 low occupancy (<1.9990e) core orbitals found on  I    2

 --------------------------------------------------------
   Effective Core           28.00000
   Core                     29.98338 ( 99.945% of  30)
   Valence Lewis            21.49389 ( 97.700% of  22)
  ==================       ============================
   Total Lewis              79.47727 ( 99.347% of  80)
  -----------------------------------------------------
   Valence non-Lewis         0.12234 (  0.153% of  80)
   Rydberg non-Lewis         0.40038 (  0.500% of  80)
  ==================       ============================
   Total non-Lewis           0.52273 (  0.653% of  80)
 --------------------------------------------------------


       (Occupancy)   Bond orbital/ Coefficients/ Hybrids
 ---------------------------------------------------------------------------------
     1. (1.93964) BD ( 1) O   1 -Cl   3  
                ( 59.43%)   0.7709* O   1 s( 10.21%)p 8.74( 89.24%)d 0.05(  0.53%)
                                                  f 0.00(  0.02%)
                                            0.0003  0.3169 -0.0381 -0.0131 -0.0019
                                           -0.2095  0.0284  0.0061  0.0021  0.9199
                                           -0.0181 -0.0079 -0.0089  0.0254  0.0177
                                            0.0031 -0.0005 -0.0095 -0.0010 -0.0022
                                            0.0087  0.0012 -0.0009  0.0196  0.0027
                                           -0.0004 -0.0583 -0.0045 -0.0003 -0.0366
                                           -0.0030 -0.0003 -0.0001  0.0003  0.0020
                                            0.0003 -0.0080  0.0003 -0.0031  0.0017
                                            0.0054 -0.0011  0.0048  0.0012 -0.0064
                                            0.0008
                ( 40.57%)   0.6369*Cl   3 s(  8.30%)p10.89( 90.40%)d 0.14(  1.18%)
                                                  f 0.01(  0.11%)
                                           -0.0000  0.0005  0.2822 -0.0575 -0.0098
                                           -0.0032  0.0001  0.2241 -0.0138 -0.0046
                                            0.0013 -0.0004 -0.9214  0.0656  0.0128
                                           -0.0033  0.0000  0.0048 -0.0001 -0.0020
                                            0.0009 -0.0484  0.0051 -0.0002  0.0074
                                            0.0004 -0.0009 -0.0099 -0.0012 -0.0009
                                           -0.0787  0.0092  0.0006 -0.0547  0.0056
                                            0.0001 -0.0008  0.0002 -0.0048  0.0007
                                            0.0198 -0.0026  0.0002 -0.0007 -0.0018
                                            0.0013 -0.0175  0.0024  0.0195 -0.0022
     2. (1.96388) BD ( 1) O   1 - H   4  
                ( 77.75%)   0.8818* O   1 s( 24.96%)p 2.99( 74.51%)d 0.02(  0.52%)
                                                  f 0.00(  0.01%)
                                            0.0002  0.4995 -0.0067 -0.0075  0.0018
                                            0.6914 -0.0133 -0.0065 -0.0025 -0.0269
                                            0.0158  0.0015  0.0017  0.5155 -0.0052
                                           -0.0048 -0.0034  0.0208  0.0041  0.0012
                                            0.0589  0.0034 -0.0007  0.0172  0.0030
                                            0.0003  0.0313  0.0021  0.0021  0.0038
                                            0.0015  0.0019 -0.0080  0.0005  0.0025
                                            0.0008  0.0011 -0.0004  0.0048  0.0022
                                            0.0002 -0.0009 -0.0016  0.0024 -0.0018
                                           -0.0001
                ( 22.25%)   0.4717* H   4 s( 99.83%)p 0.00(  0.17%)d 0.00(  0.00%)
                                            0.9988  0.0261  0.0010  0.0001  0.0040
                                           -0.0252 -0.0070  0.0123  0.0015 -0.0038
                                            0.0220 -0.0185 -0.0035  0.0010  0.0013
                                            0.0011 -0.0003  0.0013  0.0016  0.0012
                                           -0.0015 -0.0015 -0.0016
     3. (1.99971) CR ( 1) O   1           s(100.00%)p 0.00(  0.00%)
                                            1.0000 -0.0004  0.0000  0.0000  0.0000
                                           -0.0000 -0.0000  0.0000  0.0000 -0.0002
                                            0.0000  0.0000  0.0000 -0.0000 -0.0000
                                            0.0000  0.0000  0.0000 -0.0000 -0.0000
                                           -0.0000 -0.0000  0.0000 -0.0000 -0.0000
                                           -0.0000  0.0000  0.0000 -0.0000  0.0000
                                            0.0000 -0.0000  0.0000 -0.0000 -0.0000
                                           -0.0000  0.0000 -0.0000 -0.0000 -0.0000
                                           -0.0000  0.0000 -0.0000 -0.0000  0.0000
                                           -0.0000
     4. (1.99999) CR ( 1) I   2           s(100.00%)p 0.00(  0.00%)
                                            1.0000  0.0000 -0.0000 -0.0000  0.0000
                                            0.0000  0.0000 -0.0003  0.0000  0.0000
                                           -0.0000 -0.0000  0.0000 -0.0000 -0.0000
                                            0.0000 -0.0000  0.0001  0.0000 -0.0000
                                            0.0000  0.0000 -0.0000  0.0000 -0.0000
                                            0.0000 -0.0000  0.0000 -0.0000 -0.0000
                                           -0.0000 -0.0000  0.0000 -0.0000  0.0000
                                           -0.0000 -0.0000  0.0000 -0.0000  0.0000
                                            0.0000 -0.0000 -0.0000  0.0000  0.0000
                                           -0.0000 -0.0000  0.0000  0.0000 -0.0000
                                           -0.0000 -0.0000 -0.0000  0.0000  0.0000
     5. (1.99999) CR ( 2) I   2           s(  0.00%)p 1.00(100.00%)
                                           -0.0000  0.0001 -0.0000 -0.0000  0.0000
                                            0.0000 -1.0000 -0.0003  0.0000  0.0000
                                           -0.0000 -0.0000 -0.0000 -0.0000 -0.0000
                                            0.0000 -0.0000  0.0001  0.0000 -0.0000
                                            0.0000  0.0000  0.0000  0.0000 -0.0000
                                            0.0000 -0.0000  0.0000 -0.0000 -0.0000
                                           -0.0000  0.0000  0.0000 -0.0000  0.0000
                                           -0.0000 -0.0000  0.0000 -0.0000  0.0000
                                            0.0000 -0.0000 -0.0000  0.0000  0.0000
                                           -0.0000 -0.0000  0.0000  0.0000  0.0000
                                           -0.0000 -0.0000 -0.0000  0.0000  0.0000
     6. (2.00006) CR ( 3) I   2           s(  0.00%)p 1.00(100.00%)
                                           -0.0000  0.0000  0.0000  0.0000 -0.0000
                                            0.0000  0.0000 -0.0000  0.0000  0.0000
                                           -0.0000  1.0000 -0.0002 -0.0000 -0.0000
                                            0.0000 -0.0000  0.0000  0.0000  0.0000
                                           -0.0000 -0.0000  0.0000 -0.0000 -0.0000
                                            0.0000 -0.0000 -0.0000  0.0000  0.0000
                                           -0.0000  0.0000 -0.0000 -0.0000 -0.0000
                                            0.0000 -0.0000  0.0000 -0.0000  0.0000
                                           -0.0000 -0.0000  0.0000  0.0000  0.0000
                                            0.0000  0.0000 -0.0000 -0.0000  0.0000
                                            0.0000  0.0000  0.0000 -0.0000 -0.0000
     7. (2.00005) CR ( 4) I   2           s(  0.00%)p 1.00(100.00%)
                                           -0.0000  0.0000  0.0000 -0.0000  0.0000
                                            0.0000  0.0000 -0.0001  0.0000  0.0000
                                           -0.0000 -0.0000 -0.0000 -0.0000 -0.0000
                                            0.0000  1.0000 -0.0001  0.0000 -0.0000
                                            0.0000  0.0000 -0.0000  0.0000 -0.0000
                                            0.0000 -0.0000  0.0000 -0.0000 -0.0000
                                            0.0000 -0.0000  0.0000 -0.0000  0.0000
                                           -0.0000 -0.0000  0.0000 -0.0000  0.0000
                                           -0.0000 -0.0000 -0.0000  0.0000  0.0000
                                            0.0000 -0.0000  0.0000  0.0000  0.0000
                                            0.0000 -0.0000 -0.0000  0.0000  0.0000
     8. (1.99675) CR ( 5) I   2           s(  0.00%)p 0.00(  0.00%)d 1.00(100.00%)
                                            0.0000 -0.0000  0.0000  0.0000 -0.0000
                                           -0.0000 -0.0000  0.0000 -0.0000 -0.0000
                                            0.0000 -0.0000 -0.0000 -0.0000 -0.0000
                                           -0.0000  0.0000 -0.0000 -0.0000  0.0000
                                           -0.0000  1.0000  0.0000 -0.0000 -0.0000
                                           -0.0000  0.0000 -0.0000  0.0000  0.0000
                                           -0.0000  0.0000 -0.0000  0.0000 -0.0000
                                            0.0000 -0.0000 -0.0000  0.0000 -0.0000
                                           -0.0000  0.0000  0.0000 -0.0000 -0.0000
                                            0.0000  0.0000 -0.0000 -0.0000  0.0000
                                            0.0000  0.0000  0.0000 -0.0000 -0.0000
     9. (1.99674) CR ( 6) I   2           s(  0.00%)p 0.00(  0.00%)d 1.00(100.00%)
                                            0.0000 -0.0000  0.0000  0.0000 -0.0000
                                           -0.0000 -0.0000  0.0001 -0.0000 -0.0000
                                            0.0000  0.0000 -0.0000  0.0000  0.0000
                                           -0.0000  0.0000 -0.0001 -0.0000  0.0000
                                           -0.0000 -0.0000 -0.0000 -0.0000  0.0000
                                            1.0000  0.0000 -0.0000  0.0000  0.0000
                                            0.0000  0.0000 -0.0000  0.0000 -0.0000
                                            0.0000  0.0000 -0.0000  0.0000 -0.0000
                                           -0.0000  0.0000  0.0000 -0.0000 -0.0000
                                            0.0000  0.0000 -0.0000 -0.0000 -0.0000
                                            0.0000  0.0000  0.0000 -0.0000 -0.0000
    10. (1.99678) CR ( 7) I   2           s(  0.00%)p 0.00(  0.00%)d 1.00(100.00%)
                                           -0.0000 -0.0000 -0.0000 -0.0000  0.0000
                                           -0.0000  0.0000 -0.0000  0.0000  0.0000
                                           -0.0000  0.0000  0.0000  0.0000  0.0000
                                           -0.0000 -0.0000 -0.0000  0.0000 -0.0000
                                            0.0000  0.0000 -0.0000  0.0000  0.0000
                                            0.0000 -0.0000  0.0000 -0.0000  1.0000
                                            0.0000 -0.0000  0.0000 -0.0000  0.0000
                                           -0.0000  0.0000  0.0000 -0.0000 -0.0000
                                            0.0000 -0.0000 -0.0000  0.0000  0.0000
                                           -0.0000 -0.0000  0.0000  0.0000 -0.0000
                                           -0.0000 -0.0000 -0.0000  0.0000  0.0000
    11. (1.99671) CR ( 8) I   2           s(  0.00%)p 0.00(  0.00%)d 1.00(100.00%)
                                           -0.0000  0.0001 -0.0000 -0.0000  0.0000
                                            0.0000  0.0000 -0.0002  0.0000  0.0000
                                           -0.0000 -0.0000 -0.0000 -0.0000 -0.0000
                                            0.0000 -0.0000  0.0001  0.0000 -0.0000
                                            0.0000  0.0000  0.0000  0.0000 -0.0000
                                            0.0000 -0.0000  0.0000 -0.0000 -0.0000
                                           -0.0000 -0.0000  0.0000  1.0000  0.0000
                                           -0.0000 -0.0000  0.0000 -0.0000  0.0000
                                            0.0000 -0.0000 -0.0000  0.0000  0.0000
                                           -0.0000 -0.0000  0.0000  0.0000  0.0000
                                           -0.0000 -0.0000 -0.0000  0.0000  0.0000
    12. (1.99676) CR ( 9) I   2           s(  0.00%)p 0.00(  0.00%)d 1.00(100.00%)
                                            0.0000 -0.0000  0.0000  0.0000 -0.0000
                                           -0.0000 -0.0000  0.0001 -0.0000 -0.0000
                                            0.0000  0.0000  0.0000  0.0000  0.0000
                                           -0.0000  0.0000 -0.0000 -0.0000  0.0000
                                           -0.0000 -0.0000 -0.0000 -0.0000  0.0000
                                           -0.0000  0.0000 -0.0000  0.0000  0.0000
                                            0.0000  0.0000 -0.0000  0.0000 -0.0000
                                            0.0000  0.0000  1.0000  0.0000 -0.0000
                                           -0.0000  0.0000  0.0000 -0.0000 -0.0000
                                            0.0000  0.0000 -0.0000 -0.0000 -0.0000
                                            0.0000  0.0000  0.0000 -0.0000 -0.0000
    13. (2.00000) CR ( 1)Cl   3           s(100.00%)
                                            1.0000  0.0000  0.0000 -0.0000 -0.0000
                                           -0.0000  0.0000  0.0000 -0.0000 -0.0000
                                            0.0000 -0.0000 -0.0000  0.0000  0.0000
                                           -0.0000 -0.0000  0.0000  0.0000 -0.0000
                                            0.0000 -0.0000  0.0000 -0.0000  0.0000
                                            0.0000 -0.0000 -0.0000 -0.0000 -0.0000
                                           -0.0000  0.0000  0.0000 -0.0000  0.0000
                                            0.0000 -0.0000  0.0000 -0.0000  0.0000
                                            0.0000 -0.0000 -0.0000 -0.0000 -0.0000
                                            0.0000 -0.0000  0.0000  0.0000 -0.0000
    14. (1.99981) CR ( 2)Cl   3           s(100.00%)p 0.00(  0.00%)
                                            0.0000  1.0000 -0.0004  0.0000  0.0000
                                            0.0000 -0.0000 -0.0001  0.0000  0.0000
                                           -0.0000  0.0000  0.0004 -0.0000 -0.0000
                                            0.0000 -0.0000 -0.0000 -0.0000  0.0000
                                           -0.0000  0.0000 -0.0000 -0.0000 -0.0000
                                           -0.0000  0.0000  0.0000  0.0000  0.0000
                                            0.0000 -0.0000 -0.0000  0.0000 -0.0000
                                           -0.0000  0.0000 -0.0000  0.0000 -0.0000
                                           -0.0000  0.0000 -0.0000  0.0000  0.0000
                                           -0.0000  0.0000 -0.0000 -0.0000  0.0000
    15. (2.00003) CR ( 3)Cl   3           s(  0.00%)p 1.00(100.00%)
                                            0.0000 -0.0000 -0.0000  0.0000  0.0000
                                            0.0000  1.0000  0.0001  0.0000  0.0000
                                           -0.0000  0.0000  0.0001 -0.0000 -0.0000
                                            0.0000 -0.0000  0.0000  0.0000  0.0000
                                            0.0000  0.0000  0.0000  0.0000 -0.0000
                                            0.0000  0.0000  0.0000 -0.0000  0.0000
                                            0.0000 -0.0000 -0.0000  0.0000 -0.0000
                                            0.0000 -0.0000  0.0000  0.0000 -0.0000
                                           -0.0000  0.0000  0.0000 -0.0000  0.0000
                                           -0.0000  0.0000 -0.0000 -0.0000  0.0000
    16. (1.99997) CR ( 4)Cl   3           s(  0.00%)p 1.00(100.00%)
                                           -0.0000  0.0000  0.0001 -0.0000 -0.0000
                                           -0.0000  0.0000  0.0001 -0.0000 -0.0000
                                            0.0000  1.0000 -0.0003  0.0000  0.0000
                                           -0.0000 -0.0000  0.0000  0.0000 -0.0000
                                            0.0000 -0.0000  0.0000  0.0000  0.0000
                                            0.0000 -0.0000 -0.0000 -0.0000 -0.0000
                                           -0.0000  0.0000 -0.0000 -0.0000  0.0000
                                            0.0000 -0.0000  0.0000 -0.0000  0.0000
                                            0.0000 -0.0000  0.0000 -0.0000 -0.0000
                                            0.0000 -0.0000  0.0000  0.0000 -0.0000
    17. (2.00003) CR ( 5)Cl   3           s(  0.00%)p 1.00(100.00%)
                                           -0.0000 -0.0000 -0.0000  0.0000  0.0000
                                           -0.0000 -0.0000  0.0000  0.0000 -0.0000
                                            0.0000 -0.0000  0.0000 -0.0000  0.0000
                                           -0.0000  1.0000  0.0002  0.0000  0.0000
                                           -0.0000 -0.0000 -0.0000 -0.0000 -0.0000
                                           -0.0000 -0.0000  0.0000  0.0000  0.0000
                                            0.0000 -0.0000 -0.0000  0.0000  0.0000
                                            0.0000 -0.0000  0.0000  0.0000 -0.0000
                                           -0.0000  0.0000 -0.0000  0.0000 -0.0000
                                            0.0000  0.0000  0.0000 -0.0000 -0.0000
    18. (1.96847) LP ( 1) O   1           s( 64.93%)p 0.54( 34.97%)d 0.00(  0.09%)
                                                  f 0.00(  0.00%)
                                            0.0002  0.8057  0.0112  0.0069 -0.0007
                                           -0.3437 -0.0058 -0.0036 -0.0020 -0.3456
                                           -0.0046 -0.0053 -0.0025 -0.3346 -0.0048
                                           -0.0034 -0.0012 -0.0196 -0.0015  0.0036
                                           -0.0121 -0.0005  0.0006 -0.0193 -0.0023
                                            0.0012  0.0013  0.0006  0.0014 -0.0014
                                           -0.0003  0.0010  0.0029 -0.0005 -0.0002
                                           -0.0002 -0.0013  0.0009  0.0017 -0.0009
                                           -0.0019  0.0006  0.0041 -0.0019 -0.0001
                                            0.0006
    19. (1.95314) LP ( 2) O   1           s(  0.01%)p99.99( 99.76%)d20.50(  0.21%)
                                                  f 1.45(  0.01%)
                                           -0.0000  0.0046  0.0081  0.0039 -0.0006
                                           -0.5951 -0.0122 -0.0030 -0.0023 -0.1583
                                           -0.0041 -0.0010 -0.0020  0.7861  0.0160
                                            0.0055  0.0050 -0.0231 -0.0017  0.0030
                                           -0.0036 -0.0037 -0.0045  0.0248  0.0033
                                           -0.0015 -0.0033  0.0029  0.0044  0.0285
                                           -0.0005 -0.0064 -0.0024  0.0006  0.0073
                                           -0.0003  0.0009 -0.0005 -0.0070  0.0013
                                           -0.0035  0.0001  0.0033 -0.0017  0.0033
                                           -0.0005
    20. (1.97943) LP ( 1) I   2           s( 97.38%)p 0.03(  2.62%)d 0.00(  0.00%)
                                                  f 0.00(  0.00%)
                                            0.0000  0.9868  0.0000  0.0003 -0.0001
                                           -0.0001  0.0001  0.1545 -0.0006  0.0005
                                           -0.0002 -0.0000 -0.0042 -0.0000  0.0000
                                           -0.0001 -0.0000 -0.0482  0.0004 -0.0001
                                            0.0002 -0.0000 -0.0000 -0.0000 -0.0001
                                            0.0000 -0.0004  0.0004  0.0002  0.0000
                                           -0.0000  0.0000 -0.0000 -0.0000  0.0010
                                           -0.0005  0.0000  0.0000 -0.0006  0.0003
                                           -0.0000 -0.0003 -0.0003  0.0003  0.0002
                                            0.0000 -0.0000  0.0004  0.0004  0.0000
                                            0.0001 -0.0005 -0.0004  0.0000  0.0000
    21. (1.95105) LP ( 2) I   2           s(  0.00%)p 1.00( 99.99%)d 0.00(  0.01%)
                                                  f 0.00(  0.00%)
                                           -0.0000  0.0060 -0.0001 -0.0009  0.0012
                                           -0.0001 -0.0000 -0.0827  0.0003  0.0001
                                           -0.0001  0.0002  0.9704  0.0009  0.0009
                                           -0.0000 -0.0000 -0.2265 -0.0000 -0.0003
                                            0.0002  0.0000 -0.0065  0.0011  0.0011
                                           -0.0000  0.0007  0.0003 -0.0006 -0.0000
                                            0.0034 -0.0015  0.0011 -0.0000  0.0011
                                           -0.0006  0.0004  0.0000 -0.0009  0.0003
                                           -0.0001  0.0000 -0.0001  0.0006  0.0005
                                           -0.0003 -0.0001 -0.0001  0.0002 -0.0018
                                           -0.0014 -0.0004 -0.0002  0.0023  0.0013
    22. (1.95072) LP ( 3) I   2           s(  0.00%)p 1.00( 99.99%)d 0.00(  0.00%)
                                                  f 0.00(  0.00%)
                                            0.0000  0.0025  0.0001 -0.0022  0.0025
                                           -0.0002 -0.0001 -0.3097  0.0011  0.0003
                                           -0.0003 -0.0000 -0.2411 -0.0002 -0.0002
                                            0.0001 -0.0001 -0.9197 -0.0002 -0.0010
                                            0.0004 -0.0000  0.0016 -0.0002 -0.0004
                                           -0.0000  0.0032  0.0003 -0.0017  0.0000
                                           -0.0008  0.0003 -0.0003 -0.0000  0.0005
                                            0.0001 -0.0011  0.0000 -0.0042  0.0017
                                           -0.0009  0.0003 -0.0001  0.0025  0.0019
                                            0.0001  0.0000 -0.0008 -0.0000  0.0005
                                            0.0005 -0.0005 -0.0001 -0.0005 -0.0002
    23. (1.90265) LP ( 4) I   2           s(  2.62%)p37.20( 97.33%)d 0.02(  0.04%)
                                                  f 0.00(  0.01%)
                                           -0.0003  0.1617 -0.0000 -0.0020  0.0008
                                            0.0005  0.0003 -0.9343  0.0015  0.0018
                                           -0.0003 -0.0000 -0.0067 -0.0003 -0.0001
                                            0.0007 -0.0001  0.3168  0.0021 -0.0007
                                            0.0005  0.0000  0.0001  0.0004 -0.0002
                                            0.0001 -0.0149  0.0031 -0.0006 -0.0000
                                           -0.0001 -0.0000  0.0000 -0.0003  0.0130
                                           -0.0017 -0.0016  0.0001 -0.0052  0.0008
                                            0.0007 -0.0029 -0.0017  0.0017  0.0015
                                           -0.0000 -0.0001  0.0039  0.0022  0.0000
                                           -0.0001 -0.0037 -0.0019  0.0001  0.0005
    24. (1.97413) LP ( 1)Cl   3           s( 91.83%)p 0.09(  8.14%)d 0.00(  0.02%)
                                                  f 0.00(  0.00%)
                                            0.0000  0.0003  0.9583  0.0066  0.0011
                                            0.0004 -0.0000 -0.0413 -0.0000  0.0003
                                            0.0003  0.0000  0.2808 -0.0065 -0.0028
                                            0.0011  0.0000  0.0286  0.0008  0.0001
                                            0.0001  0.0049 -0.0000  0.0004  0.0007
                                            0.0001 -0.0003  0.0005  0.0005  0.0005
                                            0.0107 -0.0005 -0.0001  0.0081  0.0007
                                            0.0003 -0.0003  0.0001  0.0006 -0.0000
                                           -0.0023 -0.0003  0.0000 -0.0001 -0.0005
                                            0.0003  0.0017  0.0003 -0.0028  0.0000
    25. (1.95616) LP ( 2)Cl   3           s(  0.02%)p99.99( 99.93%)d 2.24(  0.04%)
                                                  f 0.43(  0.01%)
                                            0.0000  0.0000  0.0125 -0.0055 -0.0026
                                            0.0014 -0.0001  0.4805  0.0065  0.0023
                                           -0.0002 -0.0000  0.1167  0.0016 -0.0002
                                            0.0006  0.0002 -0.8686 -0.0133 -0.0040
                                            0.0018  0.0026  0.0070  0.0034  0.0053
                                            0.0074  0.0032 -0.0033 -0.0129 -0.0072
                                           -0.0031 -0.0050 -0.0030 -0.0007  0.0001
                                            0.0000  0.0040  0.0000 -0.0019  0.0007
                                            0.0003 -0.0004  0.0058 -0.0012  0.0031
                                           -0.0006 -0.0027  0.0002 -0.0032  0.0009
    26. (1.95461) LP ( 3)Cl   3           s(  0.14%)p99.99( 99.82%)d 0.27(  0.04%)
                                                  f 0.06(  0.01%)
                                            0.0000 -0.0000  0.0363  0.0047  0.0038
                                           -0.0016  0.0002 -0.8455 -0.0111 -0.0013
                                            0.0001  0.0001 -0.1981 -0.0027 -0.0006
                                           -0.0008  0.0001 -0.4938 -0.0076 -0.0011
                                            0.0003  0.0055 -0.0088 -0.0050 -0.0007
                                            0.0026  0.0018  0.0028 -0.0058 -0.0037
                                            0.0054  0.0096  0.0058 -0.0016 -0.0028
                                           -0.0003  0.0032 -0.0005  0.0010  0.0005
                                            0.0008  0.0002  0.0024  0.0001  0.0022
                                           -0.0005  0.0054 -0.0008  0.0058 -0.0008
    27. (0.01955) RY*( 1) O   1           s(  0.18%)p99.99( 98.12%)d 9.21(  1.65%)
                                                  f 0.31(  0.06%)
                                           -0.0000 -0.0004  0.0420  0.0047  0.0010
                                            0.0152 -0.5934  0.0241  0.0096  0.0065
                                           -0.1598  0.0057 -0.0026 -0.0207  0.7753
                                           -0.0314 -0.0016 -0.0652 -0.0144 -0.0012
                                           -0.0044 -0.0081 -0.0087  0.0683  0.0205
                                            0.0060 -0.0109  0.0054  0.0060  0.0806
                                            0.0065 -0.0058 -0.0057  0.0046  0.0075
                                           -0.0073  0.0031 -0.0016 -0.0104  0.0087
                                           -0.0040  0.0034  0.0093 -0.0068  0.0040
                                           -0.0045
    28. (0.01546) RY*( 2) O   1           s( 28.97%)p 2.34( 67.82%)d 0.10(  2.91%)
                                                  f 0.01(  0.29%)
                                           -0.0000  0.0012  0.5362 -0.0466 -0.0056
                                            0.0060 -0.4526  0.0026  0.0296  0.0409
                                           -0.4924 -0.0032  0.0308  0.0077 -0.4763
                                            0.0068  0.0229 -0.1041 -0.0198 -0.0071
                                           -0.0347  0.0017  0.0100 -0.1176 -0.0209
                                           -0.0076  0.0443  0.0020 -0.0020  0.0153
                                            0.0039  0.0021  0.0033 -0.0040  0.0179
                                           -0.0095 -0.0141  0.0059  0.0269 -0.0127
                                           -0.0082  0.0053  0.0303 -0.0143 -0.0109
                                            0.0041
    29. (0.00783) RY*( 3) O   1           s( 14.09%)p 0.40(  5.68%)d 5.59( 78.72%)
                                                  f 0.11(  1.51%)
                                            0.0000  0.0141  0.3712 -0.0528  0.0132
                                            0.0084  0.1836 -0.0114  0.0621 -0.0173
                                           -0.0874  0.0022  0.0347 -0.0016  0.0985
                                           -0.0063  0.0111  0.6249 -0.0054 -0.0004
                                           -0.1726  0.0036 -0.0081  0.2977  0.0095
                                            0.0078 -0.4777 -0.0116 -0.0308  0.2206
                                           -0.0053  0.0059 -0.0033  0.0013 -0.0001
                                           -0.0066  0.0020  0.0025 -0.0561  0.0217
                                            0.0305 -0.0135 -0.0881  0.0324 -0.0343
                                            0.0179
    30. (0.00711) RY*( 4) O   1           s(  0.85%)p 0.36(  0.31%)d99.99( 97.10%)
                                                  f 2.06(  1.74%)
                                            0.0000  0.0052  0.0916 -0.0052 -0.0035
                                            0.0102  0.0353  0.0065  0.0010 -0.0018
                                           -0.0065  0.0051  0.0080 -0.0134 -0.0348
                                           -0.0090  0.0094 -0.1841  0.0159 -0.0018
                                           -0.3523  0.0180 -0.0046  0.7897 -0.0356
                                            0.0057  0.3253 -0.0212  0.0016 -0.2844
                                            0.0145 -0.0083 -0.0710  0.0301 -0.0304
                                            0.0132  0.0150 -0.0062 -0.0745  0.0305
                                           -0.0147  0.0065  0.0388 -0.0192  0.0363
                                           -0.0134
    31. (0.00632) RY*( 5) O   1           s(  0.25%)p27.71(  7.00%)d99.99( 91.21%)
                                                  f 6.06(  1.53%)
                                           -0.0000  0.0020  0.0456 -0.0210 -0.0024
                                            0.0438  0.2399 -0.0144  0.0049 -0.0024
                                           -0.0933 -0.0027  0.0286 -0.0134  0.0245
[...]
                                            0.0075 -0.0266  0.4705  0.1204 -0.0264
                                            0.4018 -0.0595 -0.0129  0.4546 -0.0966
                                            0.0274 -0.0491 -0.2357 -0.1007 -0.1149
                                            0.0966  0.1575  0.2256 -0.1145 -0.4450
                                            0.0480  0.0220  0.0209
   159. (0.00028) RY*( 9) H   4           s(  1.87%)p 6.77( 12.63%)d45.81( 85.50%)
                                            0.0018 -0.0206 -0.0824  0.1070  0.0413
                                           -0.1482  0.0042 -0.0912  0.1784 -0.0330
                                           -0.0449  0.2021 -0.1361  0.5952 -0.0784
                                            0.4330 -0.0453 -0.4990 -0.0394 -0.2304
                                            0.0308  0.0156 -0.0121
   160. (0.00024) RY*(10) H   4           s(  4.70%)p 9.25( 43.46%)d11.03( 51.84%)
                                           -0.0021 -0.0037 -0.0609  0.2080  0.0749
                                           -0.2425 -0.3283  0.0989 -0.0305  0.0699
                                           -0.0685  0.4043 -0.2806 -0.3706 -0.0366
                                            0.4930  0.0796  0.2359  0.0022  0.2178
                                            0.1256 -0.0301 -0.1030
   161. (0.00021) RY*(11) H   4           s( 14.92%)p 4.07( 60.69%)d 1.63( 24.39%)
                                           -0.0212 -0.0833  0.3763 -0.0158 -0.0990
                                           -0.4423 -0.0717 -0.0013  0.1493 -0.0398
                                           -0.0376 -0.5966 -0.1230  0.0738 -0.0126
                                            0.1847  0.0500 -0.0134 -0.0517  0.3434
                                           -0.0992 -0.1931  0.1839
   162. (0.00017) RY*(12) H   4           s(  5.63%)p 4.25( 23.93%)d12.52( 70.44%)
                                            0.0037 -0.0406  0.0249  0.2323 -0.0567
                                            0.1785  0.1110  0.0678  0.1397  0.2189
                                            0.1221 -0.0157 -0.3236 -0.0702 -0.0274
                                           -0.1463 -0.0064 -0.2887 -0.0124  0.4045
                                            0.0403  0.6330  0.1668
   163. (0.00013) RY*(13) H   4           s( 23.57%)p 1.13( 26.54%)d 2.12( 49.90%)
                                            0.0114  0.0715  0.1847  0.4431  0.0178
                                            0.2043  0.2838  0.0140  0.0452  0.2230
                                           -0.0593  0.2772  0.1020  0.0528 -0.1193
                                           -0.0562 -0.2172 -0.0068 -0.0583  0.2611
                                           -0.2720 -0.5044  0.1777
   164. (0.00014) RY*(14) H   4           s( 23.71%)p 1.54( 36.58%)d 1.67( 39.71%)
                                           -0.0040  0.0136  0.2656  0.4079  0.0359
                                           -0.0279 -0.1961  0.0361  0.0370 -0.0482
                                           -0.0139 -0.1472  0.5463 -0.1131  0.0881
                                            0.0798 -0.3518 -0.1594  0.0647 -0.0180
                                            0.2589  0.1880 -0.3377
   165. (0.00010) RY*(15) H   4           s(  0.30%)p99.99( 53.69%)d99.99( 46.01%)
                                            0.0021  0.0138 -0.0030  0.0532 -0.0086
                                            0.1115  0.1365  0.0265  0.1439 -0.6780
                                           -0.0263  0.1472 -0.0482 -0.0035  0.5959
                                            0.0827 -0.0532  0.0106  0.1753  0.1960
                                           -0.1038  0.0103  0.1233
   166. (0.00010) RY*(16) H   4           s(  1.52%)p 1.79(  2.71%)d63.00( 95.77%)
                                            0.0011 -0.0245  0.1035 -0.0623 -0.0311
                                            0.0108 -0.0467  0.0082 -0.0763  0.0220
                                           -0.0049 -0.0024 -0.1322 -0.5242  0.1064
                                           -0.0803  0.1800 -0.6995  0.1349 -0.1767
                                           -0.0635 -0.2962 -0.0465
   167. (0.00007) RY*(17) H   4           s( 43.30%)p 0.42( 18.21%)d 0.89( 38.49%)
   168. (0.00006) RY*(18) H   4           s(  4.40%)p 3.15( 13.89%)d18.56( 81.71%)
   169. (0.00006) RY*(19) H   4           s(  0.01%)p 1.00(  2.73%)d35.61( 97.26%)
   170. (0.00004) RY*(20) H   4           s(  3.59%)p 6.96( 24.99%)d19.90( 71.42%)
   171. (0.00005) RY*(21) H   4           s(  1.98%)p13.38( 26.43%)d36.24( 71.60%)
   172. (0.00003) RY*(22) H   4           s(  2.96%)p12.94( 38.32%)d19.83( 58.72%)
   173. (0.05912) BD*( 1) O   1 -Cl   3  
                ( 40.57%)   0.6369* O   1 s( 10.21%)p 8.74( 89.24%)d 0.05(  0.53%)
                                                  f 0.00(  0.02%)
                                           -0.0003 -0.3169  0.0381  0.0131  0.0019
                                            0.2095 -0.0284 -0.0061 -0.0021 -0.9199
                                            0.0181  0.0079  0.0089 -0.0254 -0.0177
                                           -0.0031  0.0005  0.0095  0.0010  0.0022
                                           -0.0087 -0.0012  0.0009 -0.0196 -0.0027
                                            0.0004  0.0583  0.0045  0.0003  0.0366
                                            0.0030  0.0003  0.0001 -0.0003 -0.0020
                                           -0.0003  0.0080 -0.0003  0.0031 -0.0017
                                           -0.0054  0.0011 -0.0048 -0.0012  0.0064
                                           -0.0008
                ( 59.43%)  -0.7709*Cl   3 s(  8.30%)p10.89( 90.40%)d 0.14(  1.18%)
                                                  f 0.01(  0.11%)
                                            0.0000 -0.0005 -0.2822  0.0575  0.0098
                                            0.0032 -0.0001 -0.2241  0.0138  0.0046
                                           -0.0013  0.0004  0.9214 -0.0656 -0.0128
                                            0.0033 -0.0000 -0.0048  0.0001  0.0020
                                           -0.0009  0.0484 -0.0051  0.0002 -0.0074
                                           -0.0004  0.0009  0.0099  0.0012  0.0009
                                            0.0787 -0.0092 -0.0006  0.0547 -0.0056
                                           -0.0001  0.0008 -0.0002  0.0048 -0.0007
                                           -0.0198  0.0026 -0.0002  0.0007  0.0018
                                           -0.0013  0.0175 -0.0024 -0.0195  0.0022
   174. (0.06323) BD*( 1) O   1 - H   4  
                ( 22.25%)   0.4717* O   1 s( 24.96%)p 2.99( 74.51%)d 0.02(  0.52%)
                                                  f 0.00(  0.01%)
                                           -0.0002 -0.4995  0.0067  0.0075 -0.0018
                                           -0.6914  0.0133  0.0065  0.0025  0.0269
                                           -0.0158 -0.0015 -0.0017 -0.5155  0.0052
                                            0.0048  0.0034 -0.0208 -0.0041 -0.0012
                                           -0.0589 -0.0034  0.0007 -0.0172 -0.0030
                                           -0.0003 -0.0313 -0.0021 -0.0021 -0.0038
                                           -0.0015 -0.0019  0.0080 -0.0005 -0.0025
                                           -0.0008 -0.0011  0.0004 -0.0048 -0.0022
                                           -0.0002  0.0009  0.0016 -0.0024  0.0018
                                            0.0001
                ( 77.75%)  -0.8818* H   4 s( 99.83%)p 0.00(  0.17%)d 0.00(  0.00%)
                                           -0.9988 -0.0261 -0.0010 -0.0001 -0.0040
                                            0.0252  0.0070 -0.0123 -0.0015  0.0038
                                           -0.0220  0.0185  0.0035 -0.0010 -0.0013
                                           -0.0011  0.0003 -0.0013 -0.0016 -0.0012
                                            0.0015  0.0015  0.0016


 NHO Directionality and "Bond Bending" (deviations from line of nuclear centers)

         [Thresholds for printing:  angular deviation  >  1.0 degree]
                                    hybrid p-character > 25.0%
                                    orbital occupancy  >  0.10e

                                Line of Centers        Hybrid 1              Hybrid 2
                                ---------------  -------------------   ------------------
                NBO               Theta   Phi    Theta   Phi    Dev    Theta   Phi    Dev
 ========================================================================================
     1. BD (   1) O   1 -Cl   3    90.0  103.2    87.1  101.1   3.6      --     --    --
     2. BD (   1) O   1 - H   4    55.0    0.0    53.1  359.3   2.0      --     --    --
    18. LP (   1) O   1             --     --    124.3  225.2   --       --     --    --
    19. LP (   2) O   1             --     --     38.0  195.1   --       --     --    --
    21. LP (   2) I   2             --     --    103.1   94.8   --       --     --    --
    22. LP (   3) I   2             --     --    156.9  218.0   --       --     --    --
    23. LP (   4) I   2             --     --     71.1  180.4   --       --     --    --
    25. LP (   2)Cl   3             --     --    150.3   13.6   --       --     --    --
    26. LP (   3)Cl   3             --     --    119.7  193.3   --       --     --    --


 Natural Bond Orbitals (Summary):

           NBO                  Occupancy  
 -----------------------------------------------
 Molecular unit  1  (HOCl)
     1. BD (   1) O   1 -Cl   3          1.93964
     2. BD (   1) O   1 - H   4          1.96388
     3. CR (   1) O   1                  1.99971
    13. CR (   1)Cl   3                  2.00000
    14. CR (   2)Cl   3                  1.99981
    15. CR (   3)Cl   3                  2.00003
    16. CR (   4)Cl   3                  1.99997
    17. CR (   5)Cl   3                  2.00003
    18. LP (   1) O   1                  1.96847
    19. LP (   2) O   1                  1.95314
    24. LP (   1)Cl   3                  1.97413
    25. LP (   2)Cl   3                  1.95616
    26. LP (   3)Cl   3                  1.95461
    27. RY*(   1) O   1                  0.01955
    28. RY*(   2) O   1                  0.01546
    29. RY*(   3) O   1                  0.00783
    30. RY*(   4) O   1                  0.00711
    31. RY*(   5) O   1                  0.00632
    32. RY*(   6) O   1                  0.00607
    33. RY*(   7) O   1                  0.00573
    34. RY*(   8) O   1                  0.00280
    35. RY*(   9) O   1                  0.00256
    36. RY*(  10) O   1                  0.00083
    37. RY*(  11) O   1                  0.00069
    38. RY*(  12) O   1                  0.00063
    39. RY*(  13) O   1                  0.00058
    40. RY*(  14) O   1                  0.00050
    41. RY*(  15) O   1                  0.00050
    42. RY*(  16) O   1                  0.00050
    43. RY*(  17) O   1                  0.00047
    44. RY*(  18) O   1                  0.00048
    45. RY*(  19) O   1                  0.00045
    46. RY*(  20) O   1                  0.00045
    47. RY*(  21) O   1                  0.00045
    48. RY*(  22) O   1                  0.00041
    49. RY*(  23) O   1                  0.00034
    50. RY*(  24) O   1                  0.00031
    51. RY*(  25) O   1                  0.00024
    52. RY*(  26) O   1                  0.00022
    53. RY*(  27) O   1                  0.00015
    54. RY*(  28) O   1                  0.00013
    55. RY*(  29) O   1                  0.00013
    56. RY*(  30) O   1                  0.00011
    57. RY*(  31) O   1                  0.00009
    58. RY*(  32) O   1                  0.00009
    59. RY*(  33) O   1                  0.00007
    60. RY*(  34) O   1                  0.00008
    61. RY*(  35) O   1                  0.00008
    62. RY*(  36) O   1                  0.00008
    63. RY*(  37) O   1                  0.00006
    64. RY*(  38) O   1                  0.00006
    65. RY*(  39) O   1                  0.00005
    66. RY*(  40) O   1                  0.00004
    67. RY*(  41) O   1                  0.00002
   110. RY*(   1)Cl   3                  0.02208
   111. RY*(   2)Cl   3                  0.01738
   112. RY*(   3)Cl   3                  0.01684
   113. RY*(   4)Cl   3                  0.01633
   114. RY*(   5)Cl   3                  0.01166
   115. RY*(   6)Cl   3                  0.00913
   116. RY*(   7)Cl   3                  0.00893
   117. RY*(   8)Cl   3                  0.00623
   118. RY*(   9)Cl   3                  0.00170
   119. RY*(  10)Cl   3                  0.00127
   120. RY*(  11)Cl   3                  0.00127
   121. RY*(  12)Cl   3                  0.00119
   122. RY*(  13)Cl   3                  0.00119
   123. RY*(  14)Cl   3                  0.00116
   124. RY*(  15)Cl   3                  0.00109
   125. RY*(  16)Cl   3                  0.00093
   126. RY*(  17)Cl   3                  0.00077
   127. RY*(  18)Cl   3                  0.00075
   128. RY*(  19)Cl   3                  0.00061
   129. RY*(  20)Cl   3                  0.00055
   130. RY*(  21)Cl   3                  0.00043
   131. RY*(  22)Cl   3                  0.00039
   132. RY*(  23)Cl   3                  0.00033
   133. RY*(  24)Cl   3                  0.00033
   134. RY*(  25)Cl   3                  0.00019
   135. RY*(  26)Cl   3                  0.00015
   136. RY*(  27)Cl   3                  0.00016
   137. RY*(  28)Cl   3                  0.00012
   138. RY*(  29)Cl   3                  0.00012
   139. RY*(  30)Cl   3                  0.00012
   140. RY*(  31)Cl   3                  0.00012
   141. RY*(  32)Cl   3                  0.00012
   142. RY*(  33)Cl   3                  0.00010
   143. RY*(  34)Cl   3                  0.00009
   144. RY*(  35)Cl   3                  0.00010
   145. RY*(  36)Cl   3                  0.00009
   146. RY*(  37)Cl   3                  0.00006
   147. RY*(  38)Cl   3                  0.00007
   148. RY*(  39)Cl   3                  0.00003
   149. RY*(  40)Cl   3                  0.00004
   150. RY*(  41)Cl   3                  0.00001
   151. RY*(   1) H   4                  0.00880
   152. RY*(   2) H   4                  0.00495
   153. RY*(   3) H   4                  0.00353
   154. RY*(   4) H   4                  0.00291
   155. RY*(   5) H   4                  0.00060
   156. RY*(   6) H   4                  0.00048
   157. RY*(   7) H   4                  0.00040
   158. RY*(   8) H   4                  0.00030
   159. RY*(   9) H   4                  0.00028
   160. RY*(  10) H   4                  0.00024
   161. RY*(  11) H   4                  0.00021
   162. RY*(  12) H   4                  0.00017
   163. RY*(  13) H   4                  0.00013
   164. RY*(  14) H   4                  0.00014
   165. RY*(  15) H   4                  0.00010
   166. RY*(  16) H   4                  0.00010
   167. RY*(  17) H   4                  0.00007
   168. RY*(  18) H   4                  0.00006
   169. RY*(  19) H   4                  0.00006
   170. RY*(  20) H   4                  0.00004
   171. RY*(  21) H   4                  0.00005
   172. RY*(  22) H   4                  0.00003
   173. BD*(   1) O   1 -Cl   3          0.05912
   174. BD*(   1) O   1 - H   4          0.06323
       -------------------------------
              Total Lewis   25.70959  ( 98.6459%)
        Valence non-Lewis    0.12234  (  0.4694%)
        Rydberg non-Lewis    0.23057  (  0.8847%)
       -------------------------------
            Total unit  1   26.06250  (100.0000%)
           Charge unit  1   -0.06250

 Molecular unit  2  (I)
     4. CR (   1) I   2                  1.99999
     5. CR (   2) I   2                  1.99999
     6. CR (   3) I   2                  2.00006
     7. CR (   4) I   2                  2.00005
     8. CR (   5) I   2                  1.99675
     9. CR (   6) I   2                  1.99674
    10. CR (   7) I   2                  1.99678
    11. CR (   8) I   2                  1.99671
    12. CR (   9) I   2                  1.99676
    20. LP (   1) I   2                  1.97943
    21. LP (   2) I   2                  1.95105
    22. LP (   3) I   2                  1.95072
    23. LP (   4) I   2                  1.90265
    68. RY*(   1) I   2                  0.02044
    69. RY*(   2) I   2                  0.02039
    70. RY*(   3) I   2                  0.02021
    71. RY*(   4) I   2                  0.02021
    72. RY*(   5) I   2                  0.01972
    73. RY*(   6) I   2                  0.01099
    74. RY*(   7) I   2                  0.01096
    75. RY*(   8) I   2                  0.00970
    76. RY*(   9) I   2                  0.00369
    77. RY*(  10) I   2                  0.00279
    78. RY*(  11) I   2                  0.00279
    79. RY*(  12) I   2                  0.00277
    80. RY*(  13) I   2                  0.00277
    81. RY*(  14) I   2                  0.00271
    82. RY*(  15) I   2                  0.00272
    83. RY*(  16) I   2                  0.00268
    84. RY*(  17) I   2                  0.00168
    85. RY*(  18) I   2                  0.00167
    86. RY*(  19) I   2                  0.00143
    87. RY*(  20) I   2                  0.00143
    88. RY*(  21) I   2                  0.00125
    89. RY*(  22) I   2                  0.00074
    90. RY*(  23) I   2                  0.00074
    91. RY*(  24) I   2                  0.00069
    92. RY*(  25) I   2                  0.00048
    93. RY*(  26) I   2                  0.00045
    94. RY*(  27) I   2                  0.00045
    95. RY*(  28) I   2                  0.00042
    96. RY*(  29) I   2                  0.00043
    97. RY*(  30) I   2                  0.00042
    98. RY*(  31) I   2                  0.00041
    99. RY*(  32) I   2                  0.00035
   100. RY*(  33) I   2                  0.00023
   101. RY*(  34) I   2                  0.00021
   102. RY*(  35) I   2                  0.00017
   103. RY*(  36) I   2                  0.00015
   104. RY*(  37) I   2                  0.00012
   105. RY*(  38) I   2                  0.00012
   106. RY*(  39) I   2                  0.00009
   107. RY*(  40) I   2                  0.00008
   108. RY*(  41) I   2                  0.00007
   109. RY*(  42) I   2                  0.00000
       -------------------------------
              Total Lewis   53.76769  ( 99.6852%)
        Valence non-Lewis    0.00000  (  0.0000%)
        Rydberg non-Lewis    0.16982  (  0.3148%)
       -------------------------------
            Total unit  2   53.93750  (100.0000%)
           Charge unit  2   -0.93750
 Leave Link  607 at Tue Sep 28 09:17:23 2021, MaxMem= 16106127360 cpu:              60.4 elap:               2.2
 (Enter /sw/contrib/gaussian/g16/B01/g16/l9999.exe)
 1\1\GINC-N2398\SP\RMP2-FC\Gen\Cl1H1I1O1(1-)\CGAVINH\28-Sep-2021\0\\#p 
 pop=NBO SP NoSymm mp2/gen Pseudo=read density=current\\title\\-1,1\O,0
 ,0.,0.,0.\I,0,3.31229841,0.,0.\Cl,0,-0.386418759,1.641656518,0.\H,0,0.
 809223922,0.,0.56662469\\Version=ES64L-G16RevB.01\HF=-829.6789645\MP2=
 -830.3584785\RMSD=7.778e-09\Dipole=-2.1732351,0.8599209,0.1845409\Quad
 rupole=-23.2512102,11.4822757,11.7689345,0.2956006,-0.0152652,-0.13346
 05\PG=C01 [X(Cl1H1I1O1)]\\@


 Just remember, when you're over the hill, you begin to pick up speed.
 -- Charles Schulz
 Job cpu time:       0 days  0 hours  5 minutes 29.9 seconds.
 Elapsed time:       0 days  0 hours  0 minutes 17.7 seconds.
 File lengths (MBytes):  RWF=     15 Int=      0 D2E=      0 Chk=      8 Scr=      1
 Normal termination of Gaussian 16 at Tue Sep 28 09:17:23 2021.
