 Entering Gaussian System, Link 0=g16
 Input=ihocl_15_sp.gjf
 Output=ihocl_15_sp.log
 Initial command:
 /sw/contrib/gaussian/g16/B01/g16/l1.exe "/scr/Gau-157594.inp" -scrdir="/scr/"
 Entering Link 1 = /sw/contrib/gaussian/g16/B01/g16/l1.exe PID=    157595.
  
 Copyright (c) 1988-2017, Gaussian, Inc.  All Rights Reserved.
  
 This is part of the Gaussian(R) 16 program.  It is based on
 the Gaussian(R) 09 system (copyright 2009, Gaussian, Inc.),
 the Gaussian(R) 03 system (copyright 2003, Gaussian, Inc.),
 the Gaussian(R) 98 system (copyright 1998, Gaussian, Inc.),
 the Gaussian(R) 94 system (copyright 1995, Gaussian, Inc.),
 the Gaussian 92(TM) system (copyright 1992, Gaussian, Inc.),
 the Gaussian 90(TM) system (copyright 1990, Gaussian, Inc.),
 the Gaussian 88(TM) system (copyright 1988, Gaussian, Inc.),
 the Gaussian 86(TM) system (copyright 1986, Carnegie Mellon
 University), and the Gaussian 82(TM) system (copyright 1983,
 Carnegie Mellon University). Gaussian is a federally registered
 trademark of Gaussian, Inc.
  
 This software contains proprietary and confidential information,
 including trade secrets, belonging to Gaussian, Inc.
  
 This software is provided under written license and may be
 used, copied, transmitted, or stored only in accord with that
 written license.
  
 The following legend is applicable only to US Government
 contracts under FAR:
  
                    RESTRICTED RIGHTS LEGEND
  
 Use, reproduction and disclosure by the US Government is
 subject to restrictions as set forth in subparagraphs (a)
 and (c) of the Commercial Computer Software - Restricted
 Rights clause in FAR 52.227-19.
  
 Gaussian, Inc.
 340 Quinnipiac St., Bldg. 40, Wallingford CT 06492
  
  
 ---------------------------------------------------------------
 Warning -- This program may not be used in any manner that
 competes with the business of Gaussian, Inc. or will provide
 assistance to any competitor of Gaussian, Inc.  The licensee
 of this program is prohibited from giving any competitor of
 Gaussian, Inc. access to this program.  By using this program,
 the user acknowledges that Gaussian, Inc. is engaged in the
 business of creating and licensing software in the field of
 computational chemistry and represents and warrants to the
 licensee that it is not a competitor of Gaussian, Inc. and that
 it will not use this program in any manner prohibited above.
 ---------------------------------------------------------------
  

 Cite this work as:
 Gaussian 16, Revision B.01,
 M. J. Frisch, G. W. Trucks, H. B. Schlegel, G. E. Scuseria, 
 M. A. Robb, J. R. Cheeseman, G. Scalmani, V. Barone, 
 G. A. Petersson, H. Nakatsuji, X. Li, M. Caricato, A. V. Marenich, 
 J. Bloino, B. G. Janesko, R. Gomperts, B. Mennucci, H. P. Hratchian, 
 J. V. Ortiz, A. F. Izmaylov, J. L. Sonnenberg, D. Williams-Young, 
 F. Ding, F. Lipparini, F. Egidi, J. Goings, B. Peng, A. Petrone, 
 T. Henderson, D. Ranasinghe, V. G. Zakrzewski, J. Gao, N. Rega, 
 G. Zheng, W. Liang, M. Hada, M. Ehara, K. Toyota, R. Fukuda, 
 J. Hasegawa, M. Ishida, T. Nakajima, Y. Honda, O. Kitao, H. Nakai, 
 T. Vreven, K. Throssell, J. A. Montgomery, Jr., J. E. Peralta, 
 F. Ogliaro, M. J. Bearpark, J. J. Heyd, E. N. Brothers, K. N. Kudin, 
 V. N. Staroverov, T. A. Keith, R. Kobayashi, J. Normand, 
 K. Raghavachari, A. P. Rendell, J. C. Burant, S. S. Iyengar, 
 J. Tomasi, M. Cossi, J. M. Millam, M. Klene, C. Adamo, R. Cammi, 
 J. W. Ochterski, R. L. Martin, K. Morokuma, O. Farkas, 
 J. B. Foresman, and D. J. Fox, Gaussian, Inc., Wallingford CT, 2016.
 
 ******************************************
 Gaussian 16:  ES64L-G16RevB.01 20-Dec-2017
                28-Sep-2021 
 ******************************************
 %nproc=28
 Will use up to   28 processors via shared memory.
 %mem=120GB
 %chk=/gscratch/ilahie/mccoygrp/coire_hocl/ihocl/ihocl_15_sp.chk
 --------------------------------------------------------
 #p pop=NBO SP NoSymm mp2/gen Pseudo=read density=current
 --------------------------------------------------------
 1/30=1,38=1,172=1/1;
 2/12=2,15=1,17=6,18=5,40=1/2;
 3/5=7,11=9,16=1,17=8,25=1,30=1,71=1/1,2,3;
 4//1;
 5/5=2,38=5/2;
 8/6=4,10=1/1;
 9/15=1,16=-3/6;
 10/5=1,13=10,31=1/2;
 6/7=2,8=2,9=2,10=2,22=-1,40=1/1,7;
 99/5=1,9=1/99;
 Leave Link    1 at Tue Sep 28 09:15:53 2021, MaxMem= 16106127360 cpu:               0.8 elap:               0.0
 (Enter /sw/contrib/gaussian/g16/B01/g16/l101.exe)
 -----
 title
 -----
 Symbolic Z-matrix:
 Charge = -1 Multiplicity = 1
 O                     0.        0.        0. 
 I                     3.3123    0.        0. 
 Cl                   -0.38642   1.64166   0. 
 H                     0.96883   0.        0.2596 
 
 ITRead=  0  0  0  0
 MicOpt= -1 -1 -1 -1
 NAtoms=      4 NQM=        4 NQMF=       0 NMMI=      0 NMMIF=      0
                NMic=       0 NMicF=      0.
                    Isotopes and Nuclear Properties:
 (Nuclear quadrupole moments (NQMom) in fm**2, nuclear magnetic moments (NMagM)
  in nuclear magnetons)

  Atom         1           2           3           4
 IAtWgt=          16         127          35           1
 AtmWgt=  15.9949146 126.9004000  34.9688527   1.0078250
 NucSpn=           0           5           3           1
 AtZEff=  -0.0000000  -0.0000000  -0.0000000  -0.0000000
 NQMom=    0.0000000 -71.0000000  -8.1650000   0.0000000
 NMagM=    0.0000000   2.8132800   0.8218740   2.7928460
 AtZNuc=   8.0000000  53.0000000  17.0000000   1.0000000
 Leave Link  101 at Tue Sep 28 09:15:53 2021, MaxMem= 16106127360 cpu:               3.4 elap:               0.2
 (Enter /sw/contrib/gaussian/g16/B01/g16/l202.exe)
                          Input orientation:                          
 ---------------------------------------------------------------------
 Center     Atomic      Atomic             Coordinates (Angstroms)
 Number     Number       Type             X           Y           Z
 ---------------------------------------------------------------------
      1          8           0        0.000000    0.000000    0.000000
      2         53           0        3.312298    0.000000    0.000000
      3         17           0       -0.386419    1.641657    0.000000
      4          1           0        0.968833    0.000000    0.259598
 ---------------------------------------------------------------------
                    Distance matrix (angstroms):
                    1          2          3          4
     1  O    0.000000
     2  I    3.312298   0.000000
     3  Cl   1.686522   4.046671   0.000000
     4  H    1.003010   2.357800   2.144559   0.000000
 Symmetry turned off by external request.
 Stoichiometry    ClHIO(1-)
 Framework group  C1[X(ClHIO)]
 Deg. of freedom     6
 Full point group                 C1      NOp   1
 Rotational constants (GHZ):          21.6911950           0.9693016           0.9280640
 Leave Link  202 at Tue Sep 28 09:15:53 2021, MaxMem= 16106127360 cpu:               0.3 elap:               0.0
 (Enter /sw/contrib/gaussian/g16/B01/g16/l301.exe)
 General basis read from cards:  (5D, 7F)
 Centers:       4      1      3
 aug-cc-pVTZ
 ****
 Centers:       2
 S 11 1.00
     Exponent=  5.5465000000D+03 Coefficients=  1.5600000000D-04
     Exponent=  8.3821400000D+02 Coefficients=  9.8600000000D-04
     Exponent=  1.8218700000D+02 Coefficients=  2.7920000000D-03
     Exponent=  3.1212300000D+01 Coefficients= -4.3251000000D-02
     Exponent=  1.9531400000D+01 Coefficients=  2.3413400000D-01
     Exponent=  8.2409900000D+00 Coefficients= -7.5094300000D-01
     Exponent=  2.1945500000D+00 Coefficients=  8.8296800000D-01
     Exponent=  1.1091100000D+00 Coefficients=  4.6206100000D-01
     Exponent=  3.7464100000D-01 Coefficients=  2.2286000000D-02
     Exponent=  1.7708000000D-01 Coefficients= -4.3530000000D-03
     Exponent=  8.1061000000D-02 Coefficients=  1.1020000000D-03
 S 11 1.00
     Exponent=  5.5465000000D+03 Coefficients= -7.3000000000D-05
     Exponent=  8.3821400000D+02 Coefficients= -5.0800000000D-04
     Exponent=  1.8218700000D+02 Coefficients= -1.1580000000D-03
     Exponent=  3.1212300000D+01 Coefficients=  1.2193000000D-02
     Exponent=  1.9531400000D+01 Coefficients= -8.7854000000D-02
     Exponent=  8.2409900000D+00 Coefficients=  3.3820000000D-01
     Exponent=  2.1945500000D+00 Coefficients= -5.7655000000D-01
     Exponent=  1.1091100000D+00 Coefficients= -4.0929800000D-01
     Exponent=  3.7464100000D-01 Coefficients=  5.6745900000D-01
     Exponent=  1.7708000000D-01 Coefficients=  6.1248900000D-01
     Exponent=  8.1061000000D-02 Coefficients=  1.4323100000D-01
 S 1 1.00
     Exponent=  3.7464100000D-01 Coefficients=  1.0000000000D+00
 S 1 1.00
     Exponent=  1.7708000000D-01 Coefficients=  1.0000000000D+00
 S 1 1.00
     Exponent=  1.0010000000D-01 Coefficients=  1.0000000000D+00
 S 1 1.00
     Exponent=  4.1200000000D-02 Coefficients=  1.0000000000D+00
 P 9 1.00
     Exponent=  1.8898800000D+02 Coefficients=  5.8500000000D-04
     Exponent=  2.1286800000D+01 Coefficients=  3.6923000000D-02
     Exponent=  1.0039600000D+01 Coefficients= -2.3532400000D-01
     Exponent=  3.4518000000D+00 Coefficients=  3.4148300000D-01
     Exponent=  1.9745600000D+00 Coefficients=  5.3478800000D-01
     Exponent=  1.0242000000D+00 Coefficients=  2.6514100000D-01
     Exponent=  4.4943700000D-01 Coefficients=  2.5787000000D-02
     Exponent=  1.8664800000D-01 Coefficients=  5.2200000000D-04
     Exponent=  7.3481000000D-02 Coefficients=  6.0600000000D-04
 P 9 1.00
     Exponent=  1.8898800000D+02 Coefficients= -2.5600000000D-04
     Exponent=  2.1286800000D+01 Coefficients= -1.1682000000D-02
     Exponent=  1.0039600000D+01 Coefficients=  8.3192000000D-02
     Exponent=  3.4518000000D+00 Coefficients= -1.5697000000D-01
     Exponent=  1.9745600000D+00 Coefficients= -2.2451800000D-01
     Exponent=  1.0242000000D+00 Coefficients= -1.1445100000D-01
     Exponent=  4.4943700000D-01 Coefficients=  3.7535600000D-01
     Exponent=  1.8664800000D-01 Coefficients=  5.7513600000D-01
     Exponent=  7.3481000000D-02 Coefficients=  2.4591700000D-01
 P 1 1.00
     Exponent=  5.9810000000D-01 Coefficients=  1.0000000000D+00
 P 1 1.00
     Exponent=  9.6180000000D-02 Coefficients=  1.0000000000D+00
 P 1 1.00
     Exponent=  3.5900000000D-02 Coefficients=  1.0000000000D+00
 D 9 1.00
     Exponent=  1.3266200000D+02 Coefficients=  5.7200000000D-04
     Exponent=  3.7605400000D+01 Coefficients=  4.4020000000D-03
     Exponent=  1.0389100000D+01 Coefficients= -4.0922000000D-02
     Exponent=  6.4901700000D+00 Coefficients=  9.9661000000D-02
     Exponent=  3.4545100000D+00 Coefficients=  3.2266300000D-01
     Exponent=  1.8441300000D+00 Coefficients=  4.0034300000D-01
     Exponent=  9.6247800000D-01 Coefficients=  2.6830600000D-01
     Exponent=  4.7285300000D-01 Coefficients=  8.4847000000D-02
     Exponent=  1.9320000000D-01 Coefficients=  7.6320000000D-03
 D 1 1.00
     Exponent=  4.7285300000D-01 Coefficients=  1.0000000000D+00
 D 1 1.00
     Exponent=  1.9320000000D-01 Coefficients=  1.0000000000D+00
 D 1 1.00
     Exponent=  7.8200000000D-02 Coefficients=  1.0000000000D+00
 F 1 1.00
     Exponent=  4.0640000000D-01 Coefficients=  1.0000000000D+00
 F 1 1.00
     Exponent=  1.8480000000D-01 Coefficients=  1.0000000000D+00
 ****
 ======================================================================================================
                                       Pseudopotential Parameters
 ======================================================================================================
  Center     Atomic      Valence      Angular      Power
  Number     Number     Electrons     Momentum     of R      Exponent        Coefficient   SO-Coeffient
 ======================================================================================================
    1          8
                                   No pseudopotential on this center.
    2         53           25
                                      G and up 
                                                     2        1.0000000        0.00000000    0.00000000
                                      S - G
                                                     2       40.0333760       49.98964900    0.00000000
                                                     2       17.3005760      281.00655600    0.00000000
                                                     2        8.8517200       61.41673900    0.00000000
                                      P - G
                                                     2       15.7201410       67.41623900    0.00000000
                                                     2       15.2082220      134.80769600    0.00000000
                                                     2        8.2941860       14.56654800    0.00000000
                                                     2        7.7539490       28.96842200    0.00000000
                                      D - G
                                                     2       13.8177510       35.53875600    0.00000000
                                                     2       13.5878050       53.33975900    0.00000000
                                                     2        6.9476300        9.71646600    0.00000000
                                                     2        6.9600990       14.97750000    0.00000000
                                      F - G
                                                     2       18.5229500      -20.17661800    0.00000000
                                                     2       18.2510350      -26.08807700    0.00000000
                                                     2        7.5579010       -0.22043400    0.00000000
                                                     2        7.5974040       -0.22164600    0.00000000
    3         17
                                   No pseudopotential on this center.
    4          1
                                   No pseudopotential on this center.
 ======================================================================================================
 Ernie: Thresh=  0.10000D-02 Tol=  0.10000D-05 Strict=F.
 Ernie:  23 primitive shells out of 166 were deleted.
   174 basis functions,   383 primitive gaussians,   204 cartesian basis functions
    26 alpha electrons       26 beta electrons
       nuclear repulsion energy       144.2278363444 Hartrees.
 IExCor=    0 DFT=F Ex=HF Corr=None ExCW=0 ScaHFX=  1.000000
 ScaDFX=  1.000000  1.000000  1.000000  1.000000 ScalE2=  1.000000  1.000000
 IRadAn=      5 IRanWt=     -1 IRanGd=            0 ICorTp=0 IEmpDi=  4
 NAtoms=    4 NActive=    4 NUniq=    4 SFac= 1.00D+00 NAtFMM=   60 NAOKFM=F Big=F
 Integral buffers will be    131072 words long.
 Raffenetti 1 integral format.
 Two-electron integral symmetry is turned off.
 Leave Link  301 at Tue Sep 28 09:15:53 2021, MaxMem= 16106127360 cpu:               3.7 elap:               0.2
 (Enter /sw/contrib/gaussian/g16/B01/g16/l302.exe)
 NPDir=0 NMtPBC=     1 NCelOv=     1 NCel=       1 NClECP=     1 NCelD=      1
         NCelK=      1 NCelE2=     1 NClLst=     1 CellRange=     0.0.
 One-electron integrals computed using PRISM.
   1 Symmetry operations used in ECPInt.
 ECPInt:  NShTT=    1596 NPrTT=   10643 LenC2=    1597 LenP2D=    8416.
 LDataN:  DoStor=T MaxTD1= 7 Len=  274
 NBasis=   174 RedAO= T EigKep=  2.47D-04  NBF=   174
 NBsUse=   174 1.00D-06 EigRej= -1.00D+00 NBFU=   174
 Leave Link  302 at Tue Sep 28 09:15:54 2021, MaxMem= 16106127360 cpu:               7.1 elap:               0.3
 (Enter /sw/contrib/gaussian/g16/B01/g16/l303.exe)
 DipDrv:  MaxL=1.
 Leave Link  303 at Tue Sep 28 09:15:54 2021, MaxMem= 16106127360 cpu:               0.9 elap:               0.1
 (Enter /sw/contrib/gaussian/g16/B01/g16/l401.exe)
 ExpMin= 2.53D-02 ExpMax= 4.56D+05 ExpMxC= 1.44D+03 IAcc=3 IRadAn=         5 AccDes= 0.00D+00
 Harris functional with IExCor=  205 and IRadAn=       5 diagonalized for initial guess.
 HarFok:  IExCor=  205 AccDes= 0.00D+00 IRadAn=         5 IDoV= 1 UseB2=F ITyADJ=14
 ICtDFT=  3500011 ScaDFX=  1.000000  1.000000  1.000000  1.000000
 Defaulting to unpruned grid for atomic number  53.
 FoFCou: FMM=F IPFlag=           0 FMFlag=      100000 FMFlg1=           0
         NFxFlg=           0 DoJE=T BraDBF=F KetDBF=T FulRan=T
         wScrn=  0.000000 ICntrl=       500 IOpCl=  0 I1Cent=   200000004 NGrid=           0
         NMat0=    1 NMatS0=      1 NMatT0=    0 NMatD0=    1 NMtDS0=    0 NMtDT0=    0
 Symmetry not used in FoFCou.
 Harris En= -831.056441453128    
 JPrj=0 DoOrth=F DoCkMO=F.
 Leave Link  401 at Tue Sep 28 09:15:54 2021, MaxMem= 16106127360 cpu:               9.2 elap:               0.4
 (Enter /sw/contrib/gaussian/g16/B01/g16/l502.exe)
 Keep R1 ints in memory in canonical form, NReq=173964221.
 FoFCou: FMM=F IPFlag=           0 FMFlag=           0 FMFlg1=           0
         NFxFlg=           0 DoJE=F BraDBF=F KetDBF=F FulRan=T
         wScrn=  0.000000 ICntrl=       600 IOpCl=  0 I1Cent=           0 NGrid=           0
         NMat0=    1 NMatS0=  15225 NMatT0=    0 NMatD0=    1 NMtDS0=    0 NMtDT0=    0
 Symmetry not used in FoFCou.
 Two-electron integral symmetry not used.
 Closed shell SCF:
 Using DIIS extrapolation, IDIIS=  1040.
 NGot= 16106127360 LenX= 15990129197 LenY= 15990087140
 Requested convergence on RMS density matrix=1.00D-08 within 128 cycles.
 Requested convergence on MAX density matrix=1.00D-06.
 Requested convergence on             energy=1.00D-06.
 No special actions if energy rises.

 Cycle   1  Pass 1  IDiag  1:
 E= -829.532075622214    
 DIIS: error= 2.58D-02 at cycle   1 NSaved=   1.
 NSaved= 1 IEnMin= 1 EnMin= -829.532075622214     IErMin= 1 ErrMin= 2.58D-02
 ErrMax= 2.58D-02  0.00D+00 EMaxC= 1.00D-01 BMatC= 4.51D-01 BMatP= 4.51D-01
 IDIUse=3 WtCom= 7.42D-01 WtEn= 2.58D-01
 Coeff-Com:  0.100D+01
 Coeff-En:   0.100D+01
 Coeff:      0.100D+01
 Gap=     0.409 Goal=   None    Shift=    0.000
 GapD=    0.409 DampG=2.000 DampE=0.500 DampFc=1.0000 IDamp=-1.
 RMSDP=3.29D-03 MaxDP=1.01D-01              OVMax= 1.17D-01

 Cycle   2  Pass 1  IDiag  1:
 E= -829.649346129516     Delta-E=       -0.117270507302 Rises=F Damp=F
 DIIS: error= 1.31D-02 at cycle   2 NSaved=   2.
 NSaved= 2 IEnMin= 2 EnMin= -829.649346129516     IErMin= 2 ErrMin= 1.31D-02
 ErrMax= 1.31D-02  0.00D+00 EMaxC= 1.00D-01 BMatC= 5.27D-02 BMatP= 4.51D-01
 IDIUse=3 WtCom= 8.69D-01 WtEn= 1.31D-01
 Coeff-Com:  0.191D+00 0.809D+00
 Coeff-En:   0.000D+00 0.100D+01
 Coeff:      0.166D+00 0.834D+00
 Gap=     0.300 Goal=   None    Shift=    0.000
 RMSDP=1.45D-03 MaxDP=7.35D-02 DE=-1.17D-01 OVMax= 7.57D-02

 Cycle   3  Pass 1  IDiag  1:
 E= -829.675726926602     Delta-E=       -0.026380797086 Rises=F Damp=F
 DIIS: error= 5.75D-03 at cycle   3 NSaved=   3.
 NSaved= 3 IEnMin= 3 EnMin= -829.675726926602     IErMin= 3 ErrMin= 5.75D-03
 ErrMax= 5.75D-03  0.00D+00 EMaxC= 1.00D-01 BMatC= 1.21D-02 BMatP= 5.27D-02
 IDIUse=3 WtCom= 9.43D-01 WtEn= 5.75D-02
 Coeff-Com: -0.142D-02 0.315D+00 0.686D+00
 Coeff-En:   0.000D+00 0.831D-01 0.917D+00
 Coeff:     -0.134D-02 0.302D+00 0.700D+00
 Gap=     0.301 Goal=   None    Shift=    0.000
 RMSDP=3.92D-04 MaxDP=1.85D-02 DE=-2.64D-02 OVMax= 3.33D-02

 Cycle   4  Pass 1  IDiag  1:
 E= -829.684099231502     Delta-E=       -0.008372304900 Rises=F Damp=F
 DIIS: error= 1.05D-03 at cycle   4 NSaved=   4.
 NSaved= 4 IEnMin= 4 EnMin= -829.684099231502     IErMin= 4 ErrMin= 1.05D-03
 ErrMax= 1.05D-03  0.00D+00 EMaxC= 1.00D-01 BMatC= 1.96D-04 BMatP= 1.21D-02
 IDIUse=3 WtCom= 9.90D-01 WtEn= 1.05D-02
 Coeff-Com: -0.871D-02 0.434D-03 0.104D+00 0.904D+00
 Coeff-En:   0.000D+00 0.000D+00 0.000D+00 0.100D+01
 Coeff:     -0.862D-02 0.429D-03 0.103D+00 0.905D+00
 Gap=     0.304 Goal=   None    Shift=    0.000
 RMSDP=9.30D-05 MaxDP=6.11D-03 DE=-8.37D-03 OVMax= 3.38D-03

 Cycle   5  Pass 1  IDiag  1:
 E= -829.684293629684     Delta-E=       -0.000194398182 Rises=F Damp=F
 DIIS: error= 1.71D-04 at cycle   5 NSaved=   5.
 NSaved= 5 IEnMin= 5 EnMin= -829.684293629684     IErMin= 5 ErrMin= 1.71D-04
 ErrMax= 1.71D-04  0.00D+00 EMaxC= 1.00D-01 BMatC= 1.39D-05 BMatP= 1.96D-04
 IDIUse=3 WtCom= 9.98D-01 WtEn= 1.71D-03
 Coeff-Com:  0.170D-02-0.278D-01-0.587D-01-0.408D-01 0.113D+01
 Coeff-En:   0.000D+00 0.000D+00 0.000D+00 0.000D+00 0.100D+01
 Coeff:      0.169D-02-0.278D-01-0.586D-01-0.407D-01 0.113D+01
 Gap=     0.303 Goal=   None    Shift=    0.000
 RMSDP=4.60D-05 MaxDP=2.13D-03 DE=-1.94D-04 OVMax= 2.63D-03

 Cycle   6  Pass 1  IDiag  1:
 E= -829.684325584171     Delta-E=       -0.000031954487 Rises=F Damp=F
 DIIS: error= 7.86D-05 at cycle   6 NSaved=   6.
 NSaved= 6 IEnMin= 6 EnMin= -829.684325584171     IErMin= 6 ErrMin= 7.86D-05
 ErrMax= 7.86D-05  0.00D+00 EMaxC= 1.00D-01 BMatC= 1.71D-06 BMatP= 1.39D-05
 IDIUse=1 WtCom= 1.00D+00 WtEn= 0.00D+00
 Coeff-Com:  0.122D-03 0.821D-02 0.109D-01-0.969D-01-0.281D+00 0.136D+01
 Coeff:      0.122D-03 0.821D-02 0.109D-01-0.969D-01-0.281D+00 0.136D+01
 Gap=     0.303 Goal=   None    Shift=    0.000
 RMSDP=1.64D-05 MaxDP=6.68D-04 DE=-3.20D-05 OVMax= 1.34D-03

 Cycle   7  Pass 1  IDiag  1:
 E= -829.684331252075     Delta-E=       -0.000005667903 Rises=F Damp=F
 DIIS: error= 2.93D-05 at cycle   7 NSaved=   7.
 NSaved= 7 IEnMin= 7 EnMin= -829.684331252075     IErMin= 7 ErrMin= 2.93D-05
 ErrMax= 2.93D-05  0.00D+00 EMaxC= 1.00D-01 BMatC= 1.36D-07 BMatP= 1.71D-06
 IDIUse=1 WtCom= 1.00D+00 WtEn= 0.00D+00
 Coeff-Com: -0.150D-03 0.879D-03 0.394D-02 0.197D-01-0.633D-01-0.201D+00
 Coeff-Com:  0.124D+01
 Coeff:     -0.150D-03 0.879D-03 0.394D-02 0.197D-01-0.633D-01-0.201D+00
 Coeff:      0.124D+01
 Gap=     0.303 Goal=   None    Shift=    0.000
 RMSDP=5.02D-06 MaxDP=1.69D-04 DE=-5.67D-06 OVMax= 4.43D-04

 Cycle   8  Pass 1  IDiag  1:
 E= -829.684331800399     Delta-E=       -0.000000548324 Rises=F Damp=F
 DIIS: error= 1.01D-05 at cycle   8 NSaved=   8.
 NSaved= 8 IEnMin= 8 EnMin= -829.684331800399     IErMin= 8 ErrMin= 1.01D-05
 ErrMax= 1.01D-05  0.00D+00 EMaxC= 1.00D-01 BMatC= 1.89D-08 BMatP= 1.36D-07
 IDIUse=1 WtCom= 1.00D+00 WtEn= 0.00D+00
 Coeff-Com: -0.142D-04-0.120D-02-0.121D-02 0.141D-01 0.336D-01-0.192D+00
 Coeff-Com:  0.543D-01 0.109D+01
 Coeff:     -0.142D-04-0.120D-02-0.121D-02 0.141D-01 0.336D-01-0.192D+00
 Coeff:      0.543D-01 0.109D+01
 Gap=     0.303 Goal=   None    Shift=    0.000
 RMSDP=1.76D-06 MaxDP=4.58D-05 DE=-5.48D-07 OVMax= 1.70D-04

 Cycle   9  Pass 1  IDiag  1:
 E= -829.684331864456     Delta-E=       -0.000000064057 Rises=F Damp=F
 DIIS: error= 3.88D-06 at cycle   9 NSaved=   9.
 NSaved= 9 IEnMin= 9 EnMin= -829.684331864456     IErMin= 9 ErrMin= 3.88D-06
 ErrMax= 3.88D-06  0.00D+00 EMaxC= 1.00D-01 BMatC= 1.91D-09 BMatP= 1.89D-08
 IDIUse=1 WtCom= 1.00D+00 WtEn= 0.00D+00
 Coeff-Com:  0.161D-04 0.270D-03 0.139D-04-0.703D-02-0.339D-02 0.808D-01
 Coeff-Com: -0.122D+00-0.429D+00 0.148D+01
 Coeff:      0.161D-04 0.270D-03 0.139D-04-0.703D-02-0.339D-02 0.808D-01
 Coeff:     -0.122D+00-0.429D+00 0.148D+01
 Gap=     0.303 Goal=   None    Shift=    0.000
 RMSDP=7.95D-07 MaxDP=2.70D-05 DE=-6.41D-08 OVMax= 8.35D-05

 Cycle  10  Pass 1  IDiag  1:
 E= -829.684331873845     Delta-E=       -0.000000009389 Rises=F Damp=F
 DIIS: error= 1.31D-06 at cycle  10 NSaved=  10.
 NSaved=10 IEnMin=10 EnMin= -829.684331873845     IErMin=10 ErrMin= 1.31D-06
 ErrMax= 1.31D-06  0.00D+00 EMaxC= 1.00D-01 BMatC= 2.02D-10 BMatP= 1.91D-09
 IDIUse=1 WtCom= 1.00D+00 WtEn= 0.00D+00
 Coeff-Com: -0.293D-05 0.513D-04 0.101D-03 0.656D-03-0.264D-02-0.183D-02
 Coeff-Com:  0.284D-01-0.300D-02-0.378D+00 0.136D+01
 Coeff:     -0.293D-05 0.513D-04 0.101D-03 0.656D-03-0.264D-02-0.183D-02
 Coeff:      0.284D-01-0.300D-02-0.378D+00 0.136D+01
 Gap=     0.303 Goal=   None    Shift=    0.000
 RMSDP=2.46D-07 MaxDP=6.21D-06 DE=-9.39D-09 OVMax= 2.88D-05

 Cycle  11  Pass 1  IDiag  1:
 E= -829.684331874879     Delta-E=       -0.000000001033 Rises=F Damp=F
 DIIS: error= 5.66D-07 at cycle  11 NSaved=  11.
 NSaved=11 IEnMin=11 EnMin= -829.684331874879     IErMin=11 ErrMin= 5.66D-07
 ErrMax= 5.66D-07  0.00D+00 EMaxC= 1.00D-01 BMatC= 2.31D-11 BMatP= 2.02D-10
 IDIUse=1 WtCom= 1.00D+00 WtEn= 0.00D+00
 Coeff-Com: -0.213D-05-0.371D-04-0.739D-05 0.885D-03 0.496D-03-0.103D-01
 Coeff-Com:  0.143D-01 0.536D-01-0.160D+00-0.156D+00 0.126D+01
 Coeff:     -0.213D-05-0.371D-04-0.739D-05 0.885D-03 0.496D-03-0.103D-01
 Coeff:      0.143D-01 0.536D-01-0.160D+00-0.156D+00 0.126D+01
 Gap=     0.303 Goal=   None    Shift=    0.000
 RMSDP=9.40D-08 MaxDP=2.42D-06 DE=-1.03D-09 OVMax= 1.02D-05

 Cycle  12  Pass 1  IDiag  1:
 E= -829.684331874998     Delta-E=       -0.000000000120 Rises=F Damp=F
 DIIS: error= 1.50D-07 at cycle  12 NSaved=  12.
 NSaved=12 IEnMin=12 EnMin= -829.684331874998     IErMin=12 ErrMin= 1.50D-07
 ErrMax= 1.50D-07  0.00D+00 EMaxC= 1.00D-01 BMatC= 1.43D-12 BMatP= 2.31D-11
 IDIUse=1 WtCom= 1.00D+00 WtEn= 0.00D+00
 Coeff-Com:  0.359D-06-0.299D-05-0.981D-05-0.101D-03 0.243D-03 0.637D-03
 Coeff-Com: -0.307D-02-0.348D-02 0.410D-01-0.845D-01-0.139D+00 0.119D+01
 Coeff:      0.359D-06-0.299D-05-0.981D-05-0.101D-03 0.243D-03 0.637D-03
 Coeff:     -0.307D-02-0.348D-02 0.410D-01-0.845D-01-0.139D+00 0.119D+01
 Gap=     0.303 Goal=   None    Shift=    0.000
 RMSDP=2.60D-08 MaxDP=1.36D-06 DE=-1.20D-10 OVMax= 1.95D-06

 Cycle  13  Pass 1  IDiag  1:
 E= -829.684331875001     Delta-E=       -0.000000000003 Rises=F Damp=F
 DIIS: error= 4.22D-08 at cycle  13 NSaved=  13.
 NSaved=13 IEnMin=13 EnMin= -829.684331875001     IErMin=13 ErrMin= 4.22D-08
 ErrMax= 4.22D-08  0.00D+00 EMaxC= 1.00D-01 BMatC= 1.60D-13 BMatP= 1.43D-12
 IDIUse=1 WtCom= 1.00D+00 WtEn= 0.00D+00
 Coeff-Com:  0.176D-06 0.320D-05 0.420D-06-0.640D-04-0.545D-04 0.789D-03
 Coeff-Com: -0.916D-03-0.405D-02 0.923D-02 0.259D-01-0.115D+00-0.880D-01
 Coeff-Com:  0.117D+01
 Coeff:      0.176D-06 0.320D-05 0.420D-06-0.640D-04-0.545D-04 0.789D-03
 Coeff:     -0.916D-03-0.405D-02 0.923D-02 0.259D-01-0.115D+00-0.880D-01
 Coeff:      0.117D+01
 Gap=     0.303 Goal=   None    Shift=    0.000
 RMSDP=8.46D-09 MaxDP=5.33D-07 DE=-3.18D-12 OVMax= 5.60D-07

 SCF Done:  E(RHF) =  -829.684331875     A.U. after   13 cycles
            NFock= 13  Conv=0.85D-08     -V/T= 2.2850
 KE= 6.456470889720D+02 PE=-2.196819212475D+03 EE= 5.772599552839D+02
 Leave Link  502 at Tue Sep 28 09:15:57 2021, MaxMem= 16106127360 cpu:              29.9 elap:               3.3
 (Enter /sw/contrib/gaussian/g16/B01/g16/l801.exe)
 ExpMin= 2.53D-02 ExpMax= 4.56D+05 ExpMxC= 1.44D+03 IAcc=3 IRadAn=         5 AccDes= 0.00D+00
 HarFok:  IExCor=  205 AccDes= 0.00D+00 IRadAn=         5 IDoV=-2 UseB2=F ITyADJ=14
 ICtDFT= 12500011 ScaDFX=  1.000000  1.000000  1.000000  1.000000
 Defaulting to unpruned grid for atomic number  53.
 Largest valence mixing into a core orbital is  4.48D-04
 Largest core mixing into a valence orbital is  1.59D-04
 Range of M.O.s used for correlation:    11   174
 NBasis=   174 NAE=    26 NBE=    26 NFC=    10 NFV=     0
 NROrb=    164 NOA=    16 NOB=    16 NVA=   148 NVB=   148

 **** Warning!!: The largest alpha MO coefficient is  0.15301334D+02

 Leave Link  801 at Tue Sep 28 09:15:58 2021, MaxMem= 16106127360 cpu:               1.6 elap:               0.1
 (Enter /sw/contrib/gaussian/g16/B01/g16/l906.exe)
 Frozen-core derivative calculation, NFC=  10 NFV=   0.
 FulOut=F Deriv=T AODrv=F NAtomX=     4
   MMem=         130  MDisk=          16 MDiskD=          16
  W3Min=      922896 MinDsk=     1491158 NBas6D=         204
 NBas2D=       21411    NTT=       20910    LW2=    26219120
    MDV= 16105723211 MDiskM=      394699 NBas2p=       21407
 Fully in-core method, ICMem=   539779449.
 IMap=   1   2   3   4   5   6   7   8   9  10  11  12  13  14  15  16  17  18  19  20
 IMap=  21  22  23  24  25  26
 JobTyp=1 Pass  1 fully in-core, NPsUse= 28.
 Compute canonical integrals.
 FoFCou: FMM=F IPFlag=           0 FMFlag=           0 FMFlg1=           0
         NFxFlg=           0 DoJE=F BraDBF=F KetDBF=F FulRan=T
         wScrn=  0.000000 ICntrl=       600 IOpCl=  1 I1Cent=           0 NGrid=           0
         NMat0=    1 NMatS0=  21411 NMatT0=    0 NMatD0=    1 NMtDS0=    0 NMtDT0=    0
 Symmetry not used in FoFCou.
 Spin components of T(2) and E(2):
     alpha-alpha T2 =       0.3142570830D-01 E2=     -0.9159600687D-01
     alpha-beta  T2 =       0.1659305015D+00 E2=     -0.4988036542D+00
     beta-beta   T2 =       0.3142570830D-01 E2=     -0.9159600687D-01
 The integrals were generated   1 times.
 ANorm=    0.1108504361D+01
 E2 =    -0.6819956679D+00 EUMP2 =    -0.83036632754291D+03
 Leave Link  906 at Tue Sep 28 09:16:04 2021, MaxMem= 16106127360 cpu:             166.3 elap:               6.0
 (Enter /sw/contrib/gaussian/g16/B01/g16/l1002.exe)
 Minotr:  Closed shell wavefunction.
          Computing MP2/KS-MP2 derivatives.
          Using Z-Vector for PSCF gradient.
          Skipping F1 and S1 gradient terms here.
          Frozen-core window.
          Direct CPHF calculation.
          Differentiating once with respect to electric field.
                with respect to dipole field.
          Electric field/nuclear overlap derivatives assumed to be zero.
          Requested convergence is 1.0D-10 RMS, and 1.0D-09 maximum.
          NewPWx=F KeepS1=T KeepF1=T KeepIn=T MapXYZ=F SortEE=F KeepMc=T.
 Keep R1 ints in memory in canonical form, NReq=173968745.
 FoFCou: FMM=F IPFlag=           0 FMFlag=           0 FMFlg1=           0
         NFxFlg=           0 DoJE=F BraDBF=F KetDBF=F FulRan=T
         wScrn=  0.000000 ICntrl=       600 IOpCl=  0 I1Cent=           0 NGrid=           0
         NMat0=    1 NMatS0=  15225 NMatT0=    0 NMatD0=    1 NMtDS0=    0 NMtDT0=    0
 Symmetry not used in FoFCou.
 Two-electron integral symmetry not used.
          MDV=   16106127360 using IRadAn=       5.
          Solving linear equations separately, MaxMat=       0.
          There are     1 degrees of freedom in the 1st order CPHF.  IDoFFX=0 NUNeed=     1.
 LinEq1:  Iter=  0 NonCon=     1 RMS=2.89D-03 Max=4.28D-02 NDo=     1
 AX will form     1 AO Fock derivatives at one time.
 LinEq1:  Iter=  1 NonCon=     1 RMS=4.54D-04 Max=4.12D-03 NDo=     1
 LinEq1:  Iter=  2 NonCon=     1 RMS=2.02D-04 Max=3.54D-03 NDo=     1
 LinEq1:  Iter=  3 NonCon=     1 RMS=6.17D-05 Max=9.37D-04 NDo=     1
 LinEq1:  Iter=  4 NonCon=     1 RMS=2.89D-05 Max=7.91D-04 NDo=     1
 LinEq1:  Iter=  5 NonCon=     1 RMS=8.16D-06 Max=1.11D-04 NDo=     1
 LinEq1:  Iter=  6 NonCon=     1 RMS=2.23D-06 Max=4.41D-05 NDo=     1
 LinEq1:  Iter=  7 NonCon=     1 RMS=6.47D-07 Max=1.49D-05 NDo=     1
 LinEq1:  Iter=  8 NonCon=     1 RMS=1.64D-07 Max=2.82D-06 NDo=     1
 LinEq1:  Iter=  9 NonCon=     1 RMS=5.27D-08 Max=6.13D-07 NDo=     1
 LinEq1:  Iter= 10 NonCon=     1 RMS=1.42D-08 Max=1.86D-07 NDo=     1
 LinEq1:  Iter= 11 NonCon=     1 RMS=3.17D-09 Max=6.80D-08 NDo=     1
 LinEq1:  Iter= 12 NonCon=     1 RMS=8.11D-10 Max=1.69D-08 NDo=     1
 LinEq1:  Iter= 13 NonCon=     1 RMS=2.67D-10 Max=3.43D-09 NDo=     1
 LinEq1:  Iter= 14 NonCon=     0 RMS=6.53D-11 Max=7.90D-10 NDo=     1
 Linear equations converged to 1.000D-10 1.000D-09 after    14 iterations.
 End of Minotr F.D. properties file   721 does not exist.
 End of Minotr F.D. properties file   722 does not exist.
 End of Minotr F.D. properties file   788 does not exist.
 Leave Link 1002 at Tue Sep 28 09:16:07 2021, MaxMem= 16106127360 cpu:              35.1 elap:               4.0
 (Enter /sw/contrib/gaussian/g16/B01/g16/l601.exe)
 Copying SCF densities to generalized density rwf, IOpCl= 0 IROHF=0.

 **********************************************************************

            Population analysis using the MP2 Density.

 **********************************************************************

 Alpha  occ. eigenvalues -- -104.74283 -20.47848 -10.46231  -7.92948  -7.92677
 Alpha  occ. eigenvalues --   -7.92666  -7.47678  -5.30261  -5.30195  -5.30193
 Alpha  occ. eigenvalues --   -2.03017  -2.02979  -2.02978  -2.02906  -2.02906
 Alpha  occ. eigenvalues --   -1.24514  -0.90809  -0.64230  -0.55236  -0.45596
 Alpha  occ. eigenvalues --   -0.44742  -0.31933  -0.29325  -0.16124  -0.15176
 Alpha  occ. eigenvalues --   -0.15161
 Alpha virt. eigenvalues --    0.15175   0.17598   0.21551   0.22526   0.24030
 Alpha virt. eigenvalues --    0.25019   0.25270   0.27500   0.29303   0.29761
 Alpha virt. eigenvalues --    0.30849   0.31968   0.34672   0.37256   0.37928
 Alpha virt. eigenvalues --    0.38437   0.42048   0.43023   0.45278   0.50030
 Alpha virt. eigenvalues --    0.52458   0.53722   0.54778   0.56243   0.57395
 Alpha virt. eigenvalues --    0.58707   0.64067   0.65785   0.72101   0.75139
 Alpha virt. eigenvalues --    0.76114   0.77109   0.77439   0.79137   0.79215
 Alpha virt. eigenvalues --    0.80040   0.81542   0.83664   0.83830   0.85380
 Alpha virt. eigenvalues --    0.86739   0.87428   0.88042   0.88865   0.90200
 Alpha virt. eigenvalues --    0.92900   0.94918   0.97071   0.97947   1.00291
 Alpha virt. eigenvalues --    1.04268   1.06516   1.07694   1.09860   1.12349
 Alpha virt. eigenvalues --    1.15834   1.18810   1.20108   1.22356   1.23190
 Alpha virt. eigenvalues --    1.25489   1.28924   1.37002   1.38916   1.43361
 Alpha virt. eigenvalues --    1.44401   1.52615   1.56585   1.59614   1.61279
 Alpha virt. eigenvalues --    1.66795   1.67962   1.72484   1.73787   1.74493
 Alpha virt. eigenvalues --    1.74668   1.76408   1.77406   1.79840   1.84908
 Alpha virt. eigenvalues --    1.85569   1.88696   1.90982   1.96637   2.05313
 Alpha virt. eigenvalues --    2.05336   2.10242   2.13136   2.14813   2.25972
 Alpha virt. eigenvalues --    2.39005   2.46711   2.49620   2.52118   2.55362
 Alpha virt. eigenvalues --    2.59256   2.60510   2.64613   2.67444   2.69701
 Alpha virt. eigenvalues --    2.71351   2.72450   2.75920   2.76965   2.81212
 Alpha virt. eigenvalues --    2.99103   3.01715   3.08384   3.16566   3.19327
 Alpha virt. eigenvalues --    3.20942   3.22164   3.26068   3.28062   3.30296
 Alpha virt. eigenvalues --    3.36166   3.51270   3.53055   3.53606   3.82054
 Alpha virt. eigenvalues --    3.91415   4.30399   4.35643   4.49677   4.56341
 Alpha virt. eigenvalues --    4.63662   4.74311   4.97011   5.04441   5.34260
 Alpha virt. eigenvalues --    5.39537   5.65905   6.39489   6.56464   6.84125
 Alpha virt. eigenvalues --    6.88920   6.90370   6.97340   7.28800   7.33716
 Alpha virt. eigenvalues --    7.34002   7.42260   7.53353   7.71170   7.76674
 Alpha virt. eigenvalues --    8.33738  14.47910  59.20817
          Condensed to atoms (all electrons):
               1          2          3          4
     1  O    8.647545  -0.074961  -0.120848   0.014939
     2  I   -0.074961  25.860265   0.007868   0.052592
     3  Cl  -0.120848   0.007868  17.056184  -0.001649
     4  H    0.014939   0.052592  -0.001649   0.680124
 Mulliken charges:
               1
     1  O   -0.466675
     2  I   -0.845764
     3  Cl   0.058445
     4  H    0.253994
 Sum of Mulliken charges =  -1.00000
 Mulliken charges with hydrogens summed into heavy atoms:
               1
     1  O   -0.212681
     2  I   -0.845764
     3  Cl   0.058445
 Electronic spatial extent (au):  <R**2>=           1306.7919
 Charge=             -1.0000 electrons
 Dipole moment (field-independent basis, Debye):
    X=            -11.9868    Y=             -0.5184    Z=              0.1513  Tot=             11.9990
 Quadrupole moment (field-independent basis, Debye-Ang):
   XX=            -96.7467   YY=            -53.2020   ZZ=            -53.2073
   XY=              0.3913   XZ=             -0.0378   YZ=             -0.0783
 Traceless Quadrupole moment (field-independent basis, Debye-Ang):
   XX=            -29.0280   YY=             14.5167   ZZ=             14.5114
   XY=              0.3913   XZ=             -0.0378   YZ=             -0.0783
 Octapole moment (field-independent basis, Debye-Ang**2):
  XXX=           -460.0926  YYY=            -62.0876  ZZZ=             -1.1373  XYY=           -106.0476
  XXY=            -21.4710  XXZ=             -2.0719  XZZ=           -105.3019  YZZ=            -22.1893
  YYZ=             -0.5250  XYZ=              0.0521
 Hexadecapole moment (field-independent basis, Debye-Ang**3):
 XXXX=          -2750.2606 YYYY=           -282.4863 ZZZZ=            -87.9451 XXXY=             28.4404
 XXXZ=             -9.1115 YYYX=             21.5823 YYYZ=             -0.3896 ZZZX=             -2.0309
 ZZZY=             -0.1251 XXYY=           -431.9030 XXZZ=           -396.5212 YYZZ=            -66.3837
 XXYZ=             -0.0793 YYXZ=             -0.5294 ZZXY=              9.1655
 N-N= 1.442278363444D+02 E-N=-2.196373085179D+03  KE= 6.460236471613D+02
 No NMR shielding tensors so no spin-rotation constants.
 Leave Link  601 at Tue Sep 28 09:16:08 2021, MaxMem= 16106127360 cpu:               3.2 elap:               0.1
 (Enter /sw/contrib/gaussian/g16/B01/g16/l607.exe)
 ******************************Gaussian NBO Version 3.1******************************
             N A T U R A L   A T O M I C   O R B I T A L   A N D
          N A T U R A L   B O N D   O R B I T A L   A N A L Y S I S
 ******************************Gaussian NBO Version 3.1******************************
       /RESON  / : Allow strongly delocalized NBO set

 Analyzing the MP2 density

 Job title: title                                                           

 Storage needed:     91686 in NPA,    121697 in NBO (********** available)
 GSVD:  LWork=        2436 too small for GESVD, short by       52200 words or       52200 for optimal perf.


 NATURAL POPULATIONS:  Natural atomic orbital occupancies 
                                                          
   NAO  Atom  No  lang   Type(AO)    Occupancy
 --------------------------------------------
     1    O    1  S      Cor( 1S)     1.99970
     2    O    1  S      Val( 2S)     1.79060
     3    O    1  S      Ryd( 3S)     0.00960
     4    O    1  S      Ryd( 4S)     0.00115
     5    O    1  S      Ryd( 5S)     0.00020
     6    O    1  px     Val( 2p)     1.65683
     7    O    1  px     Ryd( 3p)     0.01160
     8    O    1  px     Ryd( 4p)     0.00075
     9    O    1  px     Ryd( 5p)     0.00051
    10    O    1  py     Val( 2p)     1.27144
    11    O    1  py     Ryd( 3p)     0.00779
    12    O    1  py     Ryd( 4p)     0.00062
    13    O    1  py     Ryd( 5p)     0.00036
    14    O    1  pz     Val( 2p)     1.92679
    15    O    1  pz     Ryd( 3p)     0.01944
    16    O    1  pz     Ryd( 4p)     0.00067
    17    O    1  pz     Ryd( 5p)     0.00019
    18    O    1  dxy    Ryd( 3d)     0.00944
    19    O    1  dxy    Ryd( 4d)     0.00047
    20    O    1  dxy    Ryd( 5d)     0.00016
    21    O    1  dxz    Ryd( 3d)     0.00841
    22    O    1  dxz    Ryd( 4d)     0.00059
    23    O    1  dxz    Ryd( 5d)     0.00026
    24    O    1  dyz    Ryd( 3d)     0.00938
    25    O    1  dyz    Ryd( 4d)     0.00058
    26    O    1  dyz    Ryd( 5d)     0.00011
    27    O    1  dx2y2  Ryd( 3d)     0.01233
    28    O    1  dx2y2  Ryd( 4d)     0.00037
    29    O    1  dx2y2  Ryd( 5d)     0.00016
    30    O    1  dz2    Ryd( 3d)     0.00940
    31    O    1  dz2    Ryd( 4d)     0.00057
    32    O    1  dz2    Ryd( 5d)     0.00018
    33    O    1  f(0)   Ryd( 4f)     0.00070
    34    O    1  f(0)   Ryd( 5f)     0.00011
    35    O    1  f(C1)  Ryd( 4f)     0.00060
    36    O    1  f(C1)  Ryd( 5f)     0.00011
    37    O    1  f(S1)  Ryd( 4f)     0.00066
    38    O    1  f(S1)  Ryd( 5f)     0.00011
    39    O    1  f(C2)  Ryd( 4f)     0.00059
    40    O    1  f(C2)  Ryd( 5f)     0.00013
    41    O    1  f(S2)  Ryd( 4f)     0.00057
    42    O    1  f(S2)  Ryd( 5f)     0.00012
    43    O    1  f(C3)  Ryd( 4f)     0.00057
    44    O    1  f(C3)  Ryd( 5f)     0.00015
    45    O    1  f(S3)  Ryd( 4f)     0.00057
    46    O    1  f(S3)  Ryd( 5f)     0.00012

    47    I    2  S      Cor( 4S)     1.99987
    48    I    2  S      Val( 5S)     1.97056
    49    I    2  S      Ryd( 6S)     0.00220
    50    I    2  S      Ryd( 7S)     0.00054
    51    I    2  S      Ryd( 8S)     0.00014
    52    I    2  S      Ryd( 9S)     0.00001
    53    I    2  px     Cor( 4p)     1.99987
    54    I    2  px     Val( 5p)     1.86593
    55    I    2  px     Ryd( 6p)     0.00925
    56    I    2  px     Ryd( 7p)     0.00063
    57    I    2  px     Ryd( 8p)     0.00015
    58    I    2  py     Cor( 4p)     2.00004
    59    I    2  py     Val( 5p)     1.95089
    60    I    2  py     Ryd( 6p)     0.01061
    61    I    2  py     Ryd( 7p)     0.00073
    62    I    2  py     Ryd( 8p)     0.00010
    63    I    2  pz     Cor( 4p)     2.00003
    64    I    2  pz     Val( 5p)     1.94894
    65    I    2  pz     Ryd( 6p)     0.01063
    66    I    2  pz     Ryd( 7p)     0.00073
    67    I    2  pz     Ryd( 8p)     0.00010
    68    I    2  dxy    Cor( 4d)     1.99674
    69    I    2  dxy    Ryd( 5d)     0.02028
    70    I    2  dxy    Ryd( 6d)     0.00131
    71    I    2  dxy    Ryd( 7d)     0.00022
    72    I    2  dxz    Cor( 4d)     1.99673
    73    I    2  dxz    Ryd( 5d)     0.02040
    74    I    2  dxz    Ryd( 6d)     0.00136
    75    I    2  dxz    Ryd( 7d)     0.00019
    76    I    2  dyz    Cor( 4d)     1.99678
    77    I    2  dyz    Ryd( 5d)     0.02011
    78    I    2  dyz    Ryd( 6d)     0.00165
    79    I    2  dyz    Ryd( 7d)     0.00019
    80    I    2  dx2y2  Cor( 4d)     1.99662
    81    I    2  dx2y2  Ryd( 5d)     0.01963
    82    I    2  dx2y2  Ryd( 6d)     0.00158
    83    I    2  dx2y2  Ryd( 7d)     0.00021
    84    I    2  dz2    Cor( 4d)     1.99673
    85    I    2  dz2    Ryd( 5d)     0.01994
    86    I    2  dz2    Ryd( 6d)     0.00161
    87    I    2  dz2    Ryd( 7d)     0.00017
    88    I    2  f(0)   Ryd( 4f)     0.00272
    89    I    2  f(0)   Ryd( 5f)     0.00043
    90    I    2  f(C1)  Ryd( 4f)     0.00275
    91    I    2  f(C1)  Ryd( 5f)     0.00046
    92    I    2  f(S1)  Ryd( 4f)     0.00275
    93    I    2  f(S1)  Ryd( 5f)     0.00043
    94    I    2  f(C2)  Ryd( 4f)     0.00270
    95    I    2  f(C2)  Ryd( 5f)     0.00044
    96    I    2  f(S2)  Ryd( 4f)     0.00278
    97    I    2  f(S2)  Ryd( 5f)     0.00044
    98    I    2  f(C3)  Ryd( 4f)     0.00276
    99    I    2  f(C3)  Ryd( 5f)     0.00046
   100    I    2  f(S3)  Ryd( 4f)     0.00264
   101    I    2  f(S3)  Ryd( 5f)     0.00043

   102   Cl    3  S      Cor( 1S)     2.00000
   103   Cl    3  S      Cor( 2S)     1.99979
   104   Cl    3  S      Val( 3S)     1.88299
   105   Cl    3  S      Ryd( 4S)     0.00758
   106   Cl    3  S      Ryd( 5S)     0.00052
   107   Cl    3  S      Ryd( 6S)     0.00018
   108   Cl    3  px     Cor( 2p)     2.00003
   109   Cl    3  px     Val( 3p)     1.89163
   110   Cl    3  px     Ryd( 4p)     0.00943
   111   Cl    3  px     Ryd( 5p)     0.00053
   112   Cl    3  px     Ryd( 6p)     0.00010
   113   Cl    3  py     Cor( 2p)     1.99996
   114   Cl    3  py     Val( 3p)     0.96223
   115   Cl    3  py     Ryd( 4p)     0.00682
   116   Cl    3  py     Ryd( 5p)     0.00052
   117   Cl    3  py     Ryd( 6p)     0.00024
   118   Cl    3  pz     Cor( 2p)     2.00003
   119   Cl    3  pz     Val( 3p)     1.95461
   120   Cl    3  pz     Ryd( 4p)     0.01042
   121   Cl    3  pz     Ryd( 5p)     0.00066
   122   Cl    3  pz     Ryd( 6p)     0.00003
   123   Cl    3  dxy    Ryd( 3d)     0.01731
   124   Cl    3  dxy    Ryd( 4d)     0.00065
   125   Cl    3  dxy    Ryd( 5d)     0.00025
   126   Cl    3  dxz    Ryd( 3d)     0.01714
   127   Cl    3  dxz    Ryd( 4d)     0.00076
   128   Cl    3  dxz    Ryd( 5d)     0.00018
   129   Cl    3  dyz    Ryd( 3d)     0.02038
   130   Cl    3  dyz    Ryd( 4d)     0.00097
   131   Cl    3  dyz    Ryd( 5d)     0.00036
   132   Cl    3  dx2y2  Ryd( 3d)     0.01807
   133   Cl    3  dx2y2  Ryd( 4d)     0.00062
   134   Cl    3  dx2y2  Ryd( 5d)     0.00024
   135   Cl    3  dz2    Ryd( 3d)     0.01749
   136   Cl    3  dz2    Ryd( 4d)     0.00061
   137   Cl    3  dz2    Ryd( 5d)     0.00016
   138   Cl    3  f(0)   Ryd( 4f)     0.00131
   139   Cl    3  f(0)   Ryd( 5f)     0.00013
   140   Cl    3  f(C1)  Ryd( 4f)     0.00128
   141   Cl    3  f(C1)  Ryd( 5f)     0.00013
   142   Cl    3  f(S1)  Ryd( 4f)     0.00143
   143   Cl    3  f(S1)  Ryd( 5f)     0.00014
   144   Cl    3  f(C2)  Ryd( 4f)     0.00129
   145   Cl    3  f(C2)  Ryd( 5f)     0.00013
   146   Cl    3  f(S2)  Ryd( 4f)     0.00123
   147   Cl    3  f(S2)  Ryd( 5f)     0.00013
   148   Cl    3  f(C3)  Ryd( 4f)     0.00139
   149   Cl    3  f(C3)  Ryd( 5f)     0.00013
   150   Cl    3  f(S3)  Ryd( 4f)     0.00143
   151   Cl    3  f(S3)  Ryd( 5f)     0.00014

   152    H    4  S      Val( 1S)     0.49504
   153    H    4  S      Ryd( 2S)     0.00906
   154    H    4  S      Ryd( 3S)     0.00037
   155    H    4  S      Ryd( 4S)     0.00015
   156    H    4  px     Ryd( 2p)     0.00557
   157    H    4  px     Ryd( 3p)     0.00094
   158    H    4  px     Ryd( 4p)     0.00037
   159    H    4  py     Ryd( 2p)     0.00386
   160    H    4  py     Ryd( 3p)     0.00046
   161    H    4  py     Ryd( 4p)     0.00012
   162    H    4  pz     Ryd( 2p)     0.00523
   163    H    4  pz     Ryd( 3p)     0.00044
   164    H    4  pz     Ryd( 4p)     0.00019
   165    H    4  dxy    Ryd( 3d)     0.00033
   166    H    4  dxy    Ryd( 4d)     0.00009
   167    H    4  dxz    Ryd( 3d)     0.00043
   168    H    4  dxz    Ryd( 4d)     0.00012
   169    H    4  dyz    Ryd( 3d)     0.00023
   170    H    4  dyz    Ryd( 4d)     0.00006
   171    H    4  dx2y2  Ryd( 3d)     0.00028
   172    H    4  dx2y2  Ryd( 4d)     0.00013
   173    H    4  dz2    Ryd( 3d)     0.00029
   174    H    4  dz2    Ryd( 4d)     0.00009

 [ 28 electrons found in the effective core potential]

 WARNING:  5 low occupancy (<1.9990e) core orbitals found on  I    2


 Summary of Natural Population Analysis:                  
                                                          
                                       Natural Population 
                Natural  -----------------------------------------------
    Atom  No    Charge         Core      Valence    Rydberg      Total
 -----------------------------------------------------------------------
      O    1   -0.75573      1.99970     6.64566    0.11037     8.75573
      I    2   -0.88661     45.98341     7.73632    0.16688    53.88661
     Cl    3    0.16620      9.99981     6.69146    0.14253    16.83380
      H    4    0.47613      0.00000     0.49504    0.02883     0.52387
 =======================================================================
   * Total *   -1.00000     57.98292    21.56847    0.44861    80.00000

                                 Natural Population      
 --------------------------------------------------------
   Effective Core            28.00000
   Core                      29.98292 ( 99.9431% of  30)
   Valence                   21.56847 ( 98.0385% of  22)
   Natural Minimal Basis     79.55139 ( 99.4392% of  80)
   Natural Rydberg Basis      0.44861 (  0.5608% of  80)
 --------------------------------------------------------

    Atom  No          Natural Electron Configuration
 ----------------------------------------------------------------------------
      O    1      [core]2S( 1.79)2p( 4.86)3S( 0.01)3p( 0.04)3d( 0.05)
      I    2      [core]5S( 1.97)5p( 5.77)4f( 0.02)5d( 0.10)6p( 0.03)6d( 0.01)
     Cl    3      [core]3S( 1.88)3p( 4.81)4S( 0.01)3d( 0.09)4p( 0.03)4f( 0.01)
      H    4            1S( 0.50)2S( 0.01)2p( 0.01)


 NATURAL BOND ORBITAL ANALYSIS:

                       Occupancies       Lewis Structure    Low   High
           Occ.    -------------------  -----------------   occ   occ
  Cycle   Thresh.   Lewis   Non-Lewis     CR  BD  3C  LP    (L)   (NL)   Dev
 =============================================================================
   1(1)    1.90    79.42796   0.57204     15   2   0   9     1      1    0.13
   2(2)    1.90    79.42796   0.57204     15   2   0   9     1      1    0.13
   3(1)    1.80    79.42796   0.57204     15   2   0   9     0      1    0.13
   4(2)    1.80    79.42796   0.57204     15   2   0   9     0      1    0.13
   5(1)    1.70    79.42796   0.57204     15   2   0   9     0      1    0.13
   6(2)    1.70    79.42796   0.57204     15   2   0   9     0      1    0.13
   7(1)    1.60    79.42796   0.57204     15   2   0   9     0      1    0.13
   8(2)    1.60    79.42796   0.57204     15   2   0   9     0      1    0.13
   9(1)    1.50    79.04353   0.95647     15   1   0  10     0      1    0.58
  10(2)    1.50    79.04353   0.95647     15   1   0  10     0      1    0.58
  11(1)    1.90    79.42796   0.57204     15   2   0   9     1      1    0.13
 -----------------------------------------------------------------------------

 Structure accepted: RESONANCE keyword permits strongly delocalized structure

 WARNING:  5 low occupancy (<1.9990e) core orbitals found on  I    2

 --------------------------------------------------------
   Effective Core           28.00000
   Core                     29.98292 ( 99.943% of  30)
   Valence Lewis            21.44504 ( 97.477% of  22)
  ==================       ============================
   Total Lewis              79.42796 ( 99.285% of  80)
  -----------------------------------------------------
   Valence non-Lewis         0.16880 (  0.211% of  80)
   Rydberg non-Lewis         0.40324 (  0.504% of  80)
  ==================       ============================
   Total non-Lewis           0.57204 (  0.715% of  80)
 --------------------------------------------------------


       (Occupancy)   Bond orbital/ Coefficients/ Hybrids
 ---------------------------------------------------------------------------------
     1. (1.93920) BD ( 1) O   1 -Cl   3  
                ( 59.25%)   0.7697* O   1 s( 10.41%)p 8.56( 89.06%)d 0.05(  0.51%)
                                                  f 0.00(  0.02%)
                                            0.0003  0.3201 -0.0383 -0.0136 -0.0011
                                           -0.1921  0.0339  0.0069  0.0023  0.9228
                                           -0.0225 -0.0086 -0.0101  0.0150  0.0081
                                            0.0014 -0.0002 -0.0042 -0.0001 -0.0025
                                            0.0041  0.0004 -0.0008  0.0088  0.0012
                                           -0.0003 -0.0570 -0.0044 -0.0008 -0.0410
                                           -0.0034  0.0006 -0.0001  0.0000  0.0026
                                           -0.0002 -0.0105  0.0010 -0.0015  0.0009
                                            0.0028 -0.0007  0.0036  0.0019 -0.0048
                                            0.0004
                ( 40.75%)   0.6384*Cl   3 s(  8.36%)p10.81( 90.36%)d 0.14(  1.17%)
                                                  f 0.01(  0.11%)
                                           -0.0000  0.0005  0.2840 -0.0531 -0.0096
                                            0.0031  0.0001  0.2281 -0.0128 -0.0054
                                            0.0017 -0.0004 -0.9204  0.0636  0.0128
                                           -0.0035  0.0000  0.0031  0.0001 -0.0010
                                            0.0004 -0.0514  0.0046 -0.0004  0.0038
                                            0.0000 -0.0006 -0.0047 -0.0006 -0.0005
                                           -0.0754  0.0091  0.0007 -0.0567  0.0056
                                            0.0009 -0.0004  0.0001 -0.0053  0.0010
                                            0.0204 -0.0030  0.0001 -0.0003 -0.0009
                                            0.0006 -0.0175  0.0020  0.0189 -0.0019
     2. (1.96413) BD ( 1) O   1 - H   4  
                ( 79.24%)   0.8902* O   1 s( 27.76%)p 2.58( 71.73%)d 0.02(  0.50%)
                                                  f 0.00(  0.01%)
                                            0.0003  0.5267 -0.0096 -0.0086  0.0017
                                            0.8125 -0.0102 -0.0068 -0.0050 -0.0154
                                            0.0161  0.0016  0.0019  0.2377 -0.0011
                                           -0.0021 -0.0022  0.0253  0.0047  0.0012
                                            0.0328  0.0020 -0.0009  0.0082  0.0014
                                            0.0002  0.0483  0.0035  0.0018 -0.0286
                                           -0.0011  0.0023 -0.0055 -0.0000 -0.0065
                                            0.0000 -0.0000  0.0003  0.0035  0.0012
                                            0.0003 -0.0005  0.0005  0.0029 -0.0017
                                           -0.0004
                ( 20.76%)   0.4556* H   4 s( 99.83%)p 0.00(  0.17%)d 0.00(  0.00%)
                                            0.9982  0.0436  0.0025 -0.0012  0.0113
                                           -0.0311 -0.0104  0.0146  0.0012 -0.0036
                                            0.0120 -0.0094 -0.0012  0.0010  0.0019
                                           -0.0004 -0.0004  0.0007  0.0007  0.0026
                                           -0.0006 -0.0015 -0.0024
     3. (1.99970) CR ( 1) O   1           s(100.00%)p 0.00(  0.00%)
                                            1.0000 -0.0004  0.0000  0.0000  0.0000
                                           -0.0001 -0.0000  0.0000  0.0000 -0.0002
                                            0.0000  0.0000  0.0000 -0.0000 -0.0000
                                            0.0000  0.0000 -0.0000 -0.0000 -0.0000
                                           -0.0000 -0.0000  0.0000 -0.0000 -0.0000
                                           -0.0000  0.0000  0.0000 -0.0000  0.0000
                                            0.0000 -0.0000  0.0000  0.0000  0.0000
                                            0.0000  0.0000 -0.0000 -0.0000 -0.0000
                                           -0.0000  0.0000 -0.0000 -0.0000  0.0000
                                           -0.0000
     4. (1.99987) CR ( 1) I   2           s(100.00%)
                                            1.0000 -0.0002  0.0000 -0.0000  0.0000
                                            0.0000 -0.0000 -0.0000  0.0000 -0.0000
                                           -0.0000  0.0000  0.0000  0.0000  0.0000
                                            0.0000  0.0000  0.0000  0.0000  0.0000
                                           -0.0000  0.0000 -0.0000  0.0000  0.0000
                                           -0.0000 -0.0000 -0.0000  0.0000 -0.0000
                                            0.0000 -0.0000  0.0000  0.0000  0.0000
                                            0.0000 -0.0000 -0.0000  0.0000 -0.0000
                                            0.0000 -0.0000  0.0000 -0.0000 -0.0000
                                           -0.0000 -0.0000  0.0000 -0.0000 -0.0000
                                           -0.0000  0.0000  0.0000  0.0000  0.0000
     5. (1.99987) CR ( 2) I   2           s(  0.00%)p 1.00(100.00%)
                                            0.0000  0.0002  0.0000  0.0000 -0.0000
                                           -0.0000 -1.0000  0.0001 -0.0000  0.0000
                                            0.0000  0.0000  0.0000  0.0000  0.0000
                                           -0.0000  0.0000  0.0000  0.0000  0.0000
                                           -0.0000 -0.0000 -0.0000 -0.0000  0.0000
                                            0.0000 -0.0000  0.0000  0.0000  0.0000
                                           -0.0000  0.0000 -0.0000 -0.0000 -0.0000
                                           -0.0000  0.0000  0.0000  0.0000 -0.0000
                                            0.0000 -0.0000 -0.0000 -0.0000 -0.0000
                                           -0.0000  0.0000  0.0000  0.0000 -0.0000
                                           -0.0000 -0.0000 -0.0000  0.0000 -0.0000
     6. (2.00004) CR ( 3) I   2           s(  0.00%)p 1.00(100.00%)
                                            0.0000 -0.0000  0.0000  0.0000 -0.0000
                                            0.0000 -0.0000  0.0000 -0.0000 -0.0000
                                            0.0000  1.0000 -0.0003 -0.0000 -0.0000
                                            0.0000 -0.0000 -0.0000 -0.0000  0.0000
                                           -0.0000 -0.0000  0.0000 -0.0000 -0.0000
                                           -0.0000  0.0000 -0.0000  0.0000  0.0000
                                           -0.0000  0.0000 -0.0000  0.0000 -0.0000
                                            0.0000 -0.0000 -0.0000 -0.0000  0.0000
                                           -0.0000  0.0000  0.0000 -0.0000 -0.0000
                                            0.0000  0.0000 -0.0000 -0.0000  0.0000
                                            0.0000  0.0000  0.0000 -0.0000 -0.0000
     7. (2.00003) CR ( 4) I   2           s(  0.00%)p 1.00(100.00%)
                                            0.0000  0.0000 -0.0000 -0.0000  0.0000
                                           -0.0000 -0.0000 -0.0000  0.0000  0.0000
                                           -0.0000 -0.0000  0.0000 -0.0000 -0.0000
                                            0.0000  1.0000 -0.0003 -0.0000 -0.0000
                                            0.0000  0.0000 -0.0000 -0.0000 -0.0000
                                           -0.0000  0.0000 -0.0000 -0.0000 -0.0000
                                            0.0000 -0.0000  0.0000 -0.0000  0.0000
                                           -0.0000 -0.0000  0.0000 -0.0000  0.0000
                                           -0.0000  0.0000  0.0000  0.0000  0.0000
                                            0.0000  0.0000 -0.0000 -0.0000  0.0000
                                            0.0000 -0.0000 -0.0000  0.0000  0.0000
     8. (1.99674) CR ( 5) I   2           s(  0.00%)p 0.00(  0.00%)d 1.00(100.00%)
                                            0.0000  0.0000  0.0000  0.0000 -0.0000
                                            0.0000  0.0000  0.0000 -0.0000 -0.0000
                                            0.0000 -0.0000 -0.0000 -0.0000 -0.0000
                                            0.0000  0.0000  0.0000  0.0000  0.0000
                                           -0.0000  1.0000  0.0000 -0.0000 -0.0000
                                            0.0000 -0.0000 -0.0000  0.0000  0.0000
                                           -0.0000  0.0000 -0.0000  0.0000 -0.0000
                                            0.0000 -0.0000 -0.0000 -0.0000  0.0000
                                           -0.0000  0.0000  0.0000 -0.0000 -0.0000
                                            0.0000  0.0000 -0.0000 -0.0000  0.0000
                                            0.0000  0.0000  0.0000 -0.0000 -0.0000
     9. (1.99673) CR ( 6) I   2           s(  0.00%)p 0.00(  0.00%)d 1.00(100.00%)
                                           -0.0000 -0.0000 -0.0000 -0.0000  0.0000
                                           -0.0000 -0.0000 -0.0000  0.0000 -0.0000
                                           -0.0000 -0.0000 -0.0000 -0.0000 -0.0000
                                            0.0000 -0.0000 -0.0000 -0.0000 -0.0000
                                            0.0000  0.0000  0.0000  0.0000 -0.0000
                                            1.0000  0.0000 -0.0000 -0.0000 -0.0000
                                            0.0000 -0.0000  0.0000  0.0000  0.0000
                                            0.0000 -0.0000 -0.0000 -0.0000  0.0000
                                           -0.0000  0.0000  0.0000  0.0000  0.0000
                                            0.0000 -0.0000 -0.0000 -0.0000  0.0000
                                            0.0000 -0.0000  0.0000 -0.0000  0.0000
    10. (1.99678) CR ( 7) I   2           s(  0.00%)p 0.00(  0.00%)d 1.00(100.00%)
                                           -0.0000 -0.0000 -0.0000 -0.0000  0.0000
                                           -0.0000 -0.0000 -0.0000  0.0000  0.0000
                                           -0.0000  0.0000  0.0000  0.0000  0.0000
                                           -0.0000 -0.0000 -0.0000 -0.0000 -0.0000
                                            0.0000  0.0000 -0.0000  0.0000  0.0000
                                           -0.0000  0.0000  0.0000 -0.0000  1.0000
                                            0.0000 -0.0000  0.0000 -0.0000  0.0000
                                           -0.0000  0.0000  0.0000  0.0000 -0.0000
                                            0.0000  0.0000 -0.0000  0.0000  0.0000
                                           -0.0000 -0.0000 -0.0000  0.0000 -0.0000
                                           -0.0000 -0.0000 -0.0000  0.0000  0.0000
    11. (1.99662) CR ( 8) I   2           s(  0.00%)p 0.00(  0.00%)d 1.00(100.00%)
                                            0.0000  0.0001 -0.0000  0.0000 -0.0000
                                           -0.0000  0.0000  0.0000 -0.0000  0.0000
                                            0.0000  0.0000  0.0000  0.0000  0.0000
                                           -0.0000 -0.0000 -0.0000  0.0000 -0.0000
                                            0.0000  0.0000 -0.0000 -0.0000  0.0000
                                            0.0000  0.0000  0.0000  0.0000 -0.0000
                                            0.0000 -0.0000  0.0000  1.0000 -0.0000
                                           -0.0000  0.0000  0.0000  0.0000  0.0000
                                            0.0000  0.0000 -0.0000  0.0000  0.0000
                                           -0.0000  0.0000 -0.0000  0.0000 -0.0000
                                            0.0000 -0.0000 -0.0000  0.0000  0.0000
    12. (1.99673) CR ( 9) I   2           s(  0.00%)p 0.00(  0.00%)d 1.00(100.00%)
                                           -0.0000 -0.0000  0.0000 -0.0000  0.0000
                                            0.0000 -0.0000 -0.0000  0.0000 -0.0000
                                            0.0000 -0.0000 -0.0000 -0.0000 -0.0000
                                            0.0000  0.0000  0.0000  0.0000  0.0000
                                           -0.0000 -0.0000  0.0000  0.0000 -0.0000
                                           -0.0000 -0.0000 -0.0000  0.0000  0.0000
                                           -0.0000  0.0000 -0.0000  0.0000 -0.0000
                                            0.0000  0.0000  1.0000  0.0000 -0.0000
                                            0.0000 -0.0000 -0.0000 -0.0000 -0.0000
                                            0.0000 -0.0000  0.0000  0.0000  0.0000
                                           -0.0000  0.0000  0.0000 -0.0000 -0.0000
    13. (2.00000) CR ( 1)Cl   3           s(100.00%)
                                            1.0000  0.0000 -0.0000 -0.0000 -0.0000
                                            0.0000  0.0000  0.0000 -0.0000 -0.0000
                                            0.0000 -0.0000 -0.0000  0.0000  0.0000
                                           -0.0000 -0.0000  0.0000  0.0000 -0.0000
                                            0.0000 -0.0000  0.0000 -0.0000  0.0000
                                           -0.0000 -0.0000 -0.0000 -0.0000 -0.0000
                                           -0.0000  0.0000  0.0000 -0.0000  0.0000
                                            0.0000 -0.0000  0.0000 -0.0000  0.0000
                                            0.0000 -0.0000 -0.0000 -0.0000 -0.0000
                                            0.0000 -0.0000  0.0000  0.0000 -0.0000
    14. (1.99979) CR ( 2)Cl   3           s(100.00%)p 0.00(  0.00%)
                                            0.0000  1.0000 -0.0004  0.0000  0.0000
                                           -0.0000 -0.0000 -0.0001  0.0000  0.0000
                                           -0.0000  0.0000  0.0004 -0.0000 -0.0000
                                            0.0000 -0.0000 -0.0000 -0.0000  0.0000
                                           -0.0000  0.0000 -0.0000 -0.0000 -0.0000
                                           -0.0000  0.0000  0.0000  0.0000  0.0000
                                            0.0000 -0.0000 -0.0000  0.0000 -0.0000
                                           -0.0000  0.0000 -0.0000  0.0000 -0.0000
                                           -0.0000  0.0000 -0.0000  0.0000  0.0000
                                           -0.0000  0.0000 -0.0000 -0.0000  0.0000
    15. (2.00003) CR ( 3)Cl   3           s(  0.00%)p 1.00(100.00%)
                                            0.0000 -0.0000 -0.0000  0.0000  0.0000
                                           -0.0000  1.0000  0.0001  0.0000  0.0000
                                           -0.0000  0.0000  0.0001 -0.0000 -0.0000
                                            0.0000 -0.0000 -0.0000 -0.0000  0.0000
                                            0.0000  0.0000  0.0000  0.0000 -0.0000
                                            0.0000  0.0000  0.0000 -0.0000  0.0000
                                            0.0000 -0.0000 -0.0000  0.0000 -0.0000
                                           -0.0000 -0.0000  0.0000  0.0000 -0.0000
                                           -0.0000  0.0000  0.0000 -0.0000  0.0000
                                           -0.0000  0.0000 -0.0000 -0.0000  0.0000
    16. (1.99996) CR ( 4)Cl   3           s(  0.00%)p 1.00(100.00%)
                                           -0.0000  0.0000  0.0001 -0.0000 -0.0000
                                            0.0000  0.0000  0.0002 -0.0000 -0.0000
                                            0.0000  1.0000 -0.0003  0.0000  0.0000
                                           -0.0000 -0.0000  0.0000  0.0000 -0.0000
                                            0.0000 -0.0000  0.0000  0.0000  0.0000
                                           -0.0000 -0.0000 -0.0000 -0.0000 -0.0000
                                           -0.0000  0.0000 -0.0000 -0.0000  0.0000
                                            0.0000 -0.0000  0.0000 -0.0000  0.0000
                                            0.0000 -0.0000  0.0000 -0.0000 -0.0000
                                            0.0000 -0.0000  0.0000  0.0000 -0.0000
    17. (2.00003) CR ( 5)Cl   3           s(  0.00%)p 1.00(100.00%)
                                           -0.0000 -0.0000 -0.0000  0.0000  0.0000
                                            0.0000 -0.0000  0.0000  0.0000 -0.0000
                                            0.0000 -0.0000  0.0000 -0.0000  0.0000
                                            0.0000  1.0000  0.0002  0.0000  0.0000
                                           -0.0000 -0.0000 -0.0000 -0.0000 -0.0000
                                           -0.0000 -0.0000  0.0000  0.0000  0.0000
                                            0.0000 -0.0000 -0.0000  0.0000  0.0000
                                            0.0000 -0.0000  0.0000  0.0000 -0.0000
                                           -0.0000  0.0000 -0.0000  0.0000 -0.0000
                                            0.0000 -0.0000  0.0000 -0.0000 -0.0000
    18. (1.96699) LP ( 1) O   1           s( 61.93%)p 0.61( 37.97%)d 0.00(  0.10%)
                                                  f 0.00(  0.00%)
                                            0.0002  0.7868  0.0125  0.0081 -0.0011
                                           -0.4623 -0.0072 -0.0044 -0.0012 -0.3653
                                           -0.0050 -0.0054 -0.0025 -0.1800 -0.0028
                                           -0.0017 -0.0005 -0.0259 -0.0023  0.0041
                                           -0.0090 -0.0005  0.0005 -0.0099 -0.0012
                                            0.0007 -0.0032  0.0004  0.0016  0.0089
                                            0.0006  0.0010  0.0021 -0.0003  0.0020
                                           -0.0004  0.0002  0.0006  0.0006 -0.0005
                                           -0.0011  0.0004  0.0050 -0.0025 -0.0006
                                            0.0008
    19. (1.95264) LP ( 2) O   1           s(  0.02%)p99.99( 99.78%)d12.29(  0.19%)
                                                  f 0.92(  0.01%)
                                           -0.0000  0.0120  0.0029  0.0016 -0.0003
                                           -0.2878 -0.0063 -0.0013 -0.0015 -0.0794
                                           -0.0015 -0.0003 -0.0010  0.9530  0.0185
                                            0.0057  0.0069 -0.0117 -0.0007  0.0018
                                            0.0149 -0.0040 -0.0091  0.0334  0.0040
                                           -0.0027 -0.0037  0.0014  0.0028  0.0160
                                           -0.0003 -0.0039 -0.0087  0.0010  0.0054
                                           -0.0002  0.0007 -0.0003 -0.0042  0.0018
                                           -0.0031 -0.0001  0.0012 -0.0010  0.0014
                                           -0.0002
    20. (1.97812) LP ( 1) I   2           s( 93.79%)p 0.07(  6.21%)d 0.00(  0.00%)
                                                  f 0.00(  0.00%)
                                            0.0002  0.9685 -0.0001  0.0011 -0.0003
                                           -0.0002  0.0002  0.2461 -0.0010  0.0005
                                            0.0000 -0.0000 -0.0064 -0.0001  0.0000
                                           -0.0001 -0.0000 -0.0386  0.0002 -0.0001
                                            0.0001 -0.0000  0.0000 -0.0001 -0.0000
                                            0.0000  0.0006  0.0001  0.0001  0.0000
                                           -0.0000  0.0000 -0.0000 -0.0001 -0.0001
                                           -0.0004  0.0001  0.0000  0.0001  0.0001
                                            0.0000 -0.0000 -0.0001  0.0002  0.0001
                                            0.0000  0.0000  0.0000  0.0001  0.0000
                                            0.0000 -0.0002 -0.0002 -0.0000 -0.0001
    21. (1.95129) LP ( 2) I   2           s(  0.00%)p 1.00( 99.99%)d 0.00(  0.01%)
                                                  f 0.00(  0.00%)
                                            0.0000  0.0016 -0.0006 -0.0011  0.0015
                                           -0.0003 -0.0001 -0.1555  0.0001  0.0004
                                           -0.0002  0.0000  0.1499  0.0004  0.0002
                                           -0.0000 -0.0003 -0.9763 -0.0028 -0.0016
                                            0.0003  0.0000 -0.0012  0.0001  0.0003
                                           -0.0000  0.0065 -0.0005 -0.0022 -0.0000
                                            0.0005 -0.0003  0.0001 -0.0000  0.0013
                                           -0.0001 -0.0006  0.0000 -0.0029  0.0010
                                           -0.0003  0.0018  0.0009  0.0018  0.0013
                                           -0.0001 -0.0001 -0.0024 -0.0011 -0.0002
                                            0.0000 -0.0006 -0.0001  0.0005  0.0003
    22. (1.95108) LP ( 3) I   2           s(  0.00%)p 1.00( 99.99%)d 0.00(  0.01%)
                                                  f 0.00(  0.00%)
                                           -0.0000  0.0064 -0.0001 -0.0002  0.0005
                                           -0.0001  0.0000  0.0238  0.0001  0.0001
                                           -0.0000  0.0003  0.9886  0.0030  0.0014
                                           -0.0003  0.0000  0.1480  0.0004  0.0002
                                            0.0000  0.0000 -0.0079  0.0005  0.0023
                                            0.0000 -0.0010  0.0003  0.0002 -0.0000
                                            0.0019 -0.0007  0.0005 -0.0000  0.0008
                                           -0.0006  0.0008  0.0000  0.0006 -0.0002
                                            0.0002 -0.0003 -0.0002 -0.0002 -0.0001
                                           -0.0008 -0.0004  0.0004  0.0003 -0.0011
                                           -0.0008 -0.0002 -0.0002  0.0032  0.0015
    23. (1.85746) LP ( 4) I   2           s(  6.20%)p15.11( 93.74%)d 0.01(  0.05%)
                                                  f 0.00(  0.01%)
                                            0.0000  0.2490  0.0005 -0.0045  0.0013
                                            0.0007 -0.0000 -0.9561  0.0062  0.0033
                                           -0.0006 -0.0000 -0.0014 -0.0001  0.0001
                                            0.0004 -0.0000  0.1525  0.0005 -0.0006
                                            0.0003  0.0000  0.0001  0.0003 -0.0004
                                            0.0000 -0.0089  0.0018 -0.0002  0.0000
                                           -0.0001  0.0000 -0.0000  0.0000  0.0177
                                           -0.0020 -0.0024  0.0000 -0.0103  0.0015
                                            0.0007 -0.0022 -0.0011  0.0046  0.0026
                                           -0.0000 -0.0001  0.0028  0.0014  0.0000
                                            0.0000 -0.0062 -0.0027 -0.0000  0.0003
    24. (1.97351) LP ( 1)Cl   3           s( 91.67%)p 0.09(  8.31%)d 0.00(  0.02%)
                                                  f 0.00(  0.00%)
                                            0.0000  0.0002  0.9574  0.0060  0.0010
                                           -0.0004 -0.0000 -0.0254  0.0003  0.0005
                                            0.0003  0.0000  0.2866 -0.0063 -0.0030
                                            0.0012 -0.0000  0.0156  0.0004  0.0001
                                            0.0000  0.0052  0.0002  0.0005  0.0003
                                            0.0001 -0.0001  0.0003  0.0003  0.0002
                                            0.0108 -0.0005 -0.0003  0.0077  0.0006
                                            0.0004 -0.0002  0.0001  0.0004  0.0001
                                           -0.0021 -0.0004  0.0000 -0.0001 -0.0003
                                            0.0001  0.0017  0.0002 -0.0030  0.0001
    25. (1.95613) LP ( 2)Cl   3           s(  0.01%)p 1.00( 99.94%)d 0.00(  0.04%)
                                                  f 0.00(  0.01%)
                                            0.0000  0.0000  0.0071 -0.0022 -0.0011
                                           -0.0007 -0.0000  0.1916  0.0026  0.0011
                                           -0.0000 -0.0000  0.0466  0.0006 -0.0001
                                            0.0002  0.0002 -0.9799 -0.0146 -0.0049
                                            0.0021  0.0016  0.0030  0.0014  0.0046
                                            0.0067  0.0029 -0.0054 -0.0152 -0.0081
                                           -0.0012 -0.0018 -0.0010 -0.0004 -0.0003
                                           -0.0001  0.0053 -0.0008 -0.0011  0.0006
                                            0.0002 -0.0002  0.0055 -0.0006  0.0037
                                           -0.0010 -0.0009 -0.0001 -0.0012  0.0004
    26. (1.95449) LP ( 3)Cl   3           s(  0.21%)p99.99( 99.75%)d 0.17(  0.04%)
                                                  f 0.04(  0.01%)
                                            0.0000 -0.0000  0.0449  0.0053  0.0040
                                            0.0017  0.0002 -0.9531 -0.0123 -0.0013
                                           -0.0002  0.0001 -0.2241 -0.0032 -0.0007
                                           -0.0007  0.0000 -0.1967 -0.0030 -0.0004
                                            0.0001  0.0054 -0.0103 -0.0057 -0.0005
                                            0.0008  0.0006  0.0012 -0.0023 -0.0015
                                            0.0055  0.0101  0.0062 -0.0005 -0.0025
                                           -0.0004  0.0015 -0.0003  0.0022 -0.0002
                                            0.0006  0.0003  0.0007  0.0002  0.0009
                                           -0.0002  0.0058 -0.0008  0.0064 -0.0009
    27. (0.01960) RY*( 1) O   1           s(  0.07%)p99.99( 98.50%)d18.86(  1.37%)
                                                  f 0.73(  0.05%)
                                           -0.0000  0.0001  0.0268  0.0025 -0.0002
                                            0.0068 -0.2835  0.0106  0.0069  0.0033
                                           -0.0786  0.0029 -0.0008 -0.0232  0.9466
                                           -0.0389 -0.0074 -0.0312 -0.0064  0.0003
                                            0.0396 -0.0054 -0.0144  0.0913  0.0255
                                            0.0060 -0.0076  0.0033  0.0040  0.0420
                                            0.0034 -0.0030 -0.0119  0.0103  0.0046
                                           -0.0045  0.0016 -0.0008 -0.0103  0.0085
                                           -0.0027  0.0033  0.0047 -0.0036  0.0019
                                           -0.0022
    28. (0.01617) RY*( 2) O   1           s( 31.27%)p 2.12( 66.37%)d 0.07(  2.14%)
                                                  f 0.01(  0.22%)
                                           -0.0000  0.0028  0.5581 -0.0338 -0.0074
                                            0.0114 -0.5933  0.0001  0.0549  0.0396
                                           -0.5002 -0.0047  0.0332  0.0048 -0.2352
                                            0.0038  0.0165 -0.1189 -0.0250 -0.0095
                                           -0.0195  0.0037  0.0070 -0.0504 -0.0104
                                           -0.0043  0.0278  0.0068 -0.0013  0.0506
                                            0.0051 -0.0006 -0.0040  0.0004  0.0021
                                           -0.0040 -0.0060  0.0011  0.0167 -0.0081
                                           -0.0042  0.0027  0.0367 -0.0172 -0.0112
                                            0.0040
    29. (0.00806) RY*( 3) O   1           s( 17.02%)p 0.55(  9.40%)d 4.25( 72.30%)
                                                  f 0.07(  1.28%)
                                           -0.0000  0.0164  0.4063 -0.0668  0.0184
                                            0.0142  0.2767 -0.0227  0.0739 -0.0168
                                           -0.0680  0.0011  0.0485  0.0009  0.0630
                                           -0.0039  0.0050  0.6490  0.0058  0.0061
                                           -0.0299  0.0044 -0.0013  0.1216  0.0062
                                            0.0050 -0.4830 -0.0136 -0.0382  0.2258
                                           -0.0074  0.0068 -0.0070  0.0038  0.0059
                                           -0.0069 -0.0169  0.0109 -0.0175  0.0066
                                            0.0187 -0.0088 -0.0964  0.0385 -0.0228
                                            0.0119
    30. (0.00709) RY*( 4) O   1           s(  0.18%)p 1.73(  0.32%)d99.99( 97.76%)
                                                  f 9.41(  1.73%)
                                            0.0000  0.0025  0.0426 -0.0042 -0.0016
                                            0.0037  0.0093  0.0033  0.0020 -0.0013
                                           -0.0003  0.0025  0.0039 -0.0168 -0.0517
                                           -0.0096 -0.0020 -0.0423  0.0061 -0.0008
                                           -0.5143  0.0258 -0.0088  0.8159 -0.0345
                                            0.0122  0.1450 -0.0105  0.0006 -0.1493
[...]
                                            0.2404  0.0589 -0.0545 -0.0498 -0.2586
                                            0.1386  0.0606 -0.0742
   159. (0.00031) RY*( 9) H   4           s(  3.24%)p24.16( 78.24%)d 5.72( 18.52%)
                                            0.0008 -0.0157  0.1704  0.0557 -0.0489
                                            0.1959  0.1868 -0.0247  0.1092 -0.0318
                                            0.1193 -0.8238  0.0160  0.0397 -0.0134
                                           -0.2611  0.1677  0.0772 -0.0389 -0.2425
                                           -0.0720  0.0421  0.1180
   160. (0.00028) RY*(10) H   4           s(  5.48%)p 2.11( 11.54%)d15.14( 82.98%)
                                            0.0060  0.0072  0.2172  0.0869  0.0008
                                            0.1976 -0.0310  0.1091  0.1058  0.1163
                                            0.0005  0.1890 -0.0551 -0.6224 -0.0139
                                           -0.1177  0.0426  0.6015 -0.0409 -0.1044
                                            0.0798  0.1875 -0.1032
   161. (0.00026) RY*(11) H   4           s(  6.58%)p 7.63( 50.17%)d 6.57( 43.25%)
                                            0.0193  0.0815 -0.1433  0.1955  0.0834
                                            0.4265  0.4197 -0.0566 -0.0573 -0.0231
                                           -0.0285  0.3338  0.1321  0.1164 -0.0128
                                           -0.0581 -0.1049 -0.0551  0.0112 -0.5782
                                           -0.0759 -0.2448  0.0360
   162. (0.00022) RY*(12) H   4           s(  0.50%)p30.91( 15.59%)d99.99( 83.91%)
                                            0.0115  0.0042 -0.0297  0.0633  0.0024
                                            0.2823  0.1854  0.0562  0.0575  0.1219
                                            0.0597  0.0949 -0.0888 -0.0868  0.0172
                                           -0.0739 -0.0212 -0.4758  0.0451  0.1091
                                           -0.0271  0.7642  0.0171
   163. (0.00018) RY*(13) H   4           s(  7.36%)p 0.65(  4.80%)d11.93( 87.84%)
                                           -0.0035 -0.0227  0.2687  0.0301 -0.0230
                                           -0.0823 -0.1547  0.0356 -0.0558  0.0769
                                           -0.0094 -0.0768  0.0225 -0.5672  0.0284
                                            0.0636  0.0509 -0.6089  0.0578 -0.2281
                                            0.0881 -0.3237 -0.1028
   164. (0.00013) RY*(14) H   4           s( 59.94%)p 0.13(  7.51%)d 0.54( 32.55%)
                                            0.0008  0.0033  0.2867  0.7191 -0.0161
                                           -0.0156  0.2052  0.0226  0.1470 -0.0341
                                           -0.0289  0.0611 -0.0685  0.0041  0.0589
                                            0.0009 -0.0139 -0.0329 -0.0069  0.4466
                                           -0.2191 -0.2096  0.1711
   165. (0.00014) RY*(15) H   4           s(  3.90%)p11.38( 44.34%)d13.28( 51.76%)
                                           -0.0032 -0.0025  0.0893  0.1760  0.0180
                                           -0.0230 -0.0578  0.0072  0.0357 -0.1267
                                           -0.0263 -0.1996  0.6175 -0.0162  0.1068
                                            0.3076 -0.5708  0.0621  0.0301 -0.0337
                                            0.1043  0.1863 -0.1845
   166. (0.00011) RY*(16) H   4           s(  1.92%)p22.49( 43.25%)d28.51( 54.83%)
                                            0.0021  0.0061  0.1243  0.0612  0.0128
                                           -0.0252  0.0106 -0.0151 -0.1431  0.6321
                                            0.0014 -0.0440  0.0970  0.1240 -0.7125
                                            0.0408 -0.1034  0.0089 -0.0936  0.0296
                                            0.0018 -0.0267 -0.0499
   167. (0.00007) RY*(17) H   4           s( 47.53%)p 0.56( 26.39%)d 0.55( 26.09%)
   168. (0.00006) RY*(18) H   4           s(  0.01%)p73.10(  0.97%)d99.99( 99.02%)
   169. (0.00005) RY*(19) H   4           s(  0.05%)p99.99( 23.72%)d99.99( 76.23%)
   170. (0.00005) RY*(20) H   4           s(  3.28%)p 9.42( 30.95%)d20.02( 65.76%)
   171. (0.00005) RY*(21) H   4           s(  3.88%)p 2.26(  8.76%)d22.51( 87.36%)
   172. (0.00004) RY*(22) H   4           s(  1.94%)p23.63( 45.84%)d26.91( 52.22%)
   173. (0.05907) BD*( 1) O   1 -Cl   3  
                ( 40.75%)   0.6384* O   1 s( 10.41%)p 8.56( 89.06%)d 0.05(  0.51%)
                                                  f 0.00(  0.02%)
                                           -0.0003 -0.3201  0.0383  0.0136  0.0011
                                            0.1921 -0.0339 -0.0069 -0.0023 -0.9228
                                            0.0225  0.0086  0.0101 -0.0150 -0.0081
                                           -0.0014  0.0002  0.0042  0.0001  0.0025
                                           -0.0041 -0.0004  0.0008 -0.0088 -0.0012
                                            0.0003  0.0570  0.0044  0.0008  0.0410
                                            0.0034 -0.0006  0.0001 -0.0000 -0.0026
                                            0.0002  0.0105 -0.0010  0.0015 -0.0009
                                           -0.0028  0.0007 -0.0036 -0.0019  0.0048
                                           -0.0004
                ( 59.25%)  -0.7697*Cl   3 s(  8.36%)p10.81( 90.36%)d 0.14(  1.17%)
                                                  f 0.01(  0.11%)
                                            0.0000 -0.0005 -0.2840  0.0531  0.0096
                                           -0.0031 -0.0001 -0.2281  0.0128  0.0054
                                           -0.0017  0.0004  0.9204 -0.0636 -0.0128
                                            0.0035 -0.0000 -0.0031 -0.0001  0.0010
                                           -0.0004  0.0514 -0.0046  0.0004 -0.0038
                                           -0.0000  0.0006  0.0047  0.0006  0.0005
                                            0.0754 -0.0091 -0.0007  0.0567 -0.0056
                                           -0.0009  0.0004 -0.0001  0.0053 -0.0010
                                           -0.0204  0.0030 -0.0001  0.0003  0.0009
                                           -0.0006  0.0175 -0.0020 -0.0189  0.0019
   174. (0.10973) BD*( 1) O   1 - H   4  
                ( 20.76%)   0.4556* O   1 s( 27.76%)p 2.58( 71.73%)d 0.02(  0.50%)
                                                  f 0.00(  0.01%)
                                           -0.0003 -0.5267  0.0096  0.0086 -0.0017
                                           -0.8125  0.0102  0.0068  0.0050  0.0154
                                           -0.0161 -0.0016 -0.0019 -0.2377  0.0011
                                            0.0021  0.0022 -0.0253 -0.0047 -0.0012
                                           -0.0328 -0.0020  0.0009 -0.0082 -0.0014
                                           -0.0002 -0.0483 -0.0035 -0.0018  0.0286
                                            0.0011 -0.0023  0.0055  0.0000  0.0065
                                           -0.0000  0.0000 -0.0003 -0.0035 -0.0012
                                           -0.0003  0.0005 -0.0005 -0.0029  0.0017
                                            0.0004
                ( 79.24%)  -0.8902* H   4 s( 99.83%)p 0.00(  0.17%)d 0.00(  0.00%)
                                           -0.9982 -0.0436 -0.0025  0.0012 -0.0113
                                            0.0311  0.0104 -0.0146 -0.0012  0.0036
                                           -0.0120  0.0094  0.0012 -0.0010 -0.0019
                                            0.0004  0.0004 -0.0007 -0.0007 -0.0026
                                            0.0006  0.0015  0.0024


 NHO Directionality and "Bond Bending" (deviations from line of nuclear centers)

         [Thresholds for printing:  angular deviation  >  1.0 degree]
                                    hybrid p-character > 25.0%
                                    orbital occupancy  >  0.10e

                                Line of Centers        Hybrid 1              Hybrid 2
                                ---------------  -------------------   ------------------
                NBO               Theta   Phi    Theta   Phi    Dev    Theta   Phi    Dev
 ========================================================================================
     1. BD (   1) O   1 -Cl   3    90.0  103.2    88.4   99.6   4.0      --     --    --
     2. BD (   1) O   1 - H   4    75.0    0.0    73.6    0.3   1.4      --     --    --
    18. LP (   1) O   1             --     --    106.9  218.5   --       --     --    --
    19. LP (   2) O   1             --     --     17.4  195.5   --       --     --    --
    21. LP (   2) I   2             --     --    167.6  135.9   --       --     --    --
    22. LP (   3) I   2             --     --     81.5   88.6   --       --     --    --
    23. LP (   4) I   2             --     --     80.8  180.1   --       --     --    --
    25. LP (   2)Cl   3             --     --    168.6   13.6   --       --     --    --
    26. LP (   3)Cl   3             --     --    101.4  193.3   --       --     --    --
   174. BD*(   1) O   1 - H   4    75.0    0.0    73.6    0.3   1.4      --     --    --


 Natural Bond Orbitals (Summary):

           NBO                  Occupancy  
 -----------------------------------------------
 Molecular unit  1  (HOCl)
     1. BD (   1) O   1 -Cl   3          1.93920
     2. BD (   1) O   1 - H   4          1.96413
     3. CR (   1) O   1                  1.99970
    13. CR (   1)Cl   3                  2.00000
    14. CR (   2)Cl   3                  1.99979
    15. CR (   3)Cl   3                  2.00003
    16. CR (   4)Cl   3                  1.99996
    17. CR (   5)Cl   3                  2.00003
    18. LP (   1) O   1                  1.96699
    19. LP (   2) O   1                  1.95264
    24. LP (   1)Cl   3                  1.97351
    25. LP (   2)Cl   3                  1.95613
    26. LP (   3)Cl   3                  1.95449
    27. RY*(   1) O   1                  0.01960
    28. RY*(   2) O   1                  0.01617
    29. RY*(   3) O   1                  0.00806
    30. RY*(   4) O   1                  0.00709
    31. RY*(   5) O   1                  0.00633
    32. RY*(   6) O   1                  0.00612
    33. RY*(   7) O   1                  0.00575
    34. RY*(   8) O   1                  0.00333
    35. RY*(   9) O   1                  0.00254
    36. RY*(  10) O   1                  0.00087
    37. RY*(  11) O   1                  0.00065
    38. RY*(  12) O   1                  0.00061
    39. RY*(  13) O   1                  0.00059
    40. RY*(  14) O   1                  0.00051
    41. RY*(  15) O   1                  0.00050
    42. RY*(  16) O   1                  0.00049
    43. RY*(  17) O   1                  0.00049
    44. RY*(  18) O   1                  0.00047
    45. RY*(  19) O   1                  0.00045
    46. RY*(  20) O   1                  0.00045
    47. RY*(  21) O   1                  0.00045
    48. RY*(  22) O   1                  0.00042
    49. RY*(  23) O   1                  0.00035
    50. RY*(  24) O   1                  0.00031
    51. RY*(  25) O   1                  0.00025
    52. RY*(  26) O   1                  0.00020
    53. RY*(  27) O   1                  0.00015
    54. RY*(  28) O   1                  0.00013
    55. RY*(  29) O   1                  0.00012
    56. RY*(  30) O   1                  0.00010
    57. RY*(  31) O   1                  0.00008
    58. RY*(  32) O   1                  0.00008
    59. RY*(  33) O   1                  0.00008
    60. RY*(  34) O   1                  0.00009
    61. RY*(  35) O   1                  0.00006
    62. RY*(  36) O   1                  0.00006
    63. RY*(  37) O   1                  0.00006
    64. RY*(  38) O   1                  0.00006
    65. RY*(  39) O   1                  0.00004
    66. RY*(  40) O   1                  0.00002
    67. RY*(  41) O   1                  0.00003
   110. RY*(   1)Cl   3                  0.02222
   111. RY*(   2)Cl   3                  0.01735
   112. RY*(   3)Cl   3                  0.01679
   113. RY*(   4)Cl   3                  0.01651
   114. RY*(   5)Cl   3                  0.01162
   115. RY*(   6)Cl   3                  0.00918
   116. RY*(   7)Cl   3                  0.00900
   117. RY*(   8)Cl   3                  0.00624
   118. RY*(   9)Cl   3                  0.00167
   119. RY*(  10)Cl   3                  0.00127
   120. RY*(  11)Cl   3                  0.00127
   121. RY*(  12)Cl   3                  0.00119
   122. RY*(  13)Cl   3                  0.00119
   123. RY*(  14)Cl   3                  0.00116
   124. RY*(  15)Cl   3                  0.00110
   125. RY*(  16)Cl   3                  0.00094
   126. RY*(  17)Cl   3                  0.00077
   127. RY*(  18)Cl   3                  0.00076
   128. RY*(  19)Cl   3                  0.00062
   129. RY*(  20)Cl   3                  0.00056
   130. RY*(  21)Cl   3                  0.00045
   131. RY*(  22)Cl   3                  0.00038
   132. RY*(  23)Cl   3                  0.00035
   133. RY*(  24)Cl   3                  0.00032
   134. RY*(  25)Cl   3                  0.00018
   135. RY*(  26)Cl   3                  0.00016
   136. RY*(  27)Cl   3                  0.00016
   137. RY*(  28)Cl   3                  0.00013
   138. RY*(  29)Cl   3                  0.00013
   139. RY*(  30)Cl   3                  0.00012
   140. RY*(  31)Cl   3                  0.00011
   141. RY*(  32)Cl   3                  0.00009
   142. RY*(  33)Cl   3                  0.00010
   143. RY*(  34)Cl   3                  0.00010
   144. RY*(  35)Cl   3                  0.00010
   145. RY*(  36)Cl   3                  0.00010
   146. RY*(  37)Cl   3                  0.00008
   147. RY*(  38)Cl   3                  0.00006
   148. RY*(  39)Cl   3                  0.00004
   149. RY*(  40)Cl   3                  0.00003
   150. RY*(  41)Cl   3                  0.00000
   151. RY*(   1) H   4                  0.01113
   152. RY*(   2) H   4                  0.00557
   153. RY*(   3) H   4                  0.00476
   154. RY*(   4) H   4                  0.00371
   155. RY*(   5) H   4                  0.00064
   156. RY*(   6) H   4                  0.00054
   157. RY*(   7) H   4                  0.00048
   158. RY*(   8) H   4                  0.00037
   159. RY*(   9) H   4                  0.00031
   160. RY*(  10) H   4                  0.00028
   161. RY*(  11) H   4                  0.00026
   162. RY*(  12) H   4                  0.00022
   163. RY*(  13) H   4                  0.00018
   164. RY*(  14) H   4                  0.00013
   165. RY*(  15) H   4                  0.00014
   166. RY*(  16) H   4                  0.00011
   167. RY*(  17) H   4                  0.00007
   168. RY*(  18) H   4                  0.00006
   169. RY*(  19) H   4                  0.00005
   170. RY*(  20) H   4                  0.00005
   171. RY*(  21) H   4                  0.00005
   172. RY*(  22) H   4                  0.00004
   173. BD*(   1) O   1 -Cl   3          0.05907
   174. BD*(   1) O   1 - H   4          0.10973
       -------------------------------
              Total Lewis   25.70660  ( 98.4422%)
        Valence non-Lewis    0.16880  (  0.6464%)
        Rydberg non-Lewis    0.23799  (  0.9114%)
       -------------------------------
            Total unit  1   26.11339  (100.0000%)
           Charge unit  1   -0.11339

 Molecular unit  2  (I)
     4. CR (   1) I   2                  1.99987
     5. CR (   2) I   2                  1.99987
     6. CR (   3) I   2                  2.00004
     7. CR (   4) I   2                  2.00003
     8. CR (   5) I   2                  1.99674
     9. CR (   6) I   2                  1.99673
    10. CR (   7) I   2                  1.99678
    11. CR (   8) I   2                  1.99662
    12. CR (   9) I   2                  1.99673
    20. LP (   1) I   2                  1.97812
    21. LP (   2) I   2                  1.95129
    22. LP (   3) I   2                  1.95108
    23. LP (   4) I   2                  1.85746
    68. RY*(   1) I   2                  0.02027
    69. RY*(   2) I   2                  0.02017
    70. RY*(   3) I   2                  0.02011
    71. RY*(   4) I   2                  0.02010
    72. RY*(   5) I   2                  0.01897
    73. RY*(   6) I   2                  0.01064
    74. RY*(   7) I   2                  0.01059
    75. RY*(   8) I   2                  0.00899
    76. RY*(   9) I   2                  0.00290
    77. RY*(  10) I   2                  0.00278
    78. RY*(  11) I   2                  0.00278
    79. RY*(  12) I   2                  0.00276
    80. RY*(  13) I   2                  0.00276
    81. RY*(  14) I   2                  0.00268
    82. RY*(  15) I   2                  0.00268
    83. RY*(  16) I   2                  0.00251
    84. RY*(  17) I   2                  0.00166
    85. RY*(  18) I   2                  0.00166
    86. RY*(  19) I   2                  0.00132
    87. RY*(  20) I   2                  0.00131
    88. RY*(  21) I   2                  0.00112
    89. RY*(  22) I   2                  0.00072
    90. RY*(  23) I   2                  0.00072
    91. RY*(  24) I   2                  0.00061
    92. RY*(  25) I   2                  0.00046
    93. RY*(  26) I   2                  0.00045
    94. RY*(  27) I   2                  0.00044
    95. RY*(  28) I   2                  0.00042
    96. RY*(  29) I   2                  0.00042
    97. RY*(  30) I   2                  0.00040
    98. RY*(  31) I   2                  0.00038
    99. RY*(  32) I   2                  0.00032
   100. RY*(  33) I   2                  0.00020
   101. RY*(  34) I   2                  0.00020
   102. RY*(  35) I   2                  0.00015
   103. RY*(  36) I   2                  0.00013
   104. RY*(  37) I   2                  0.00012
   105. RY*(  38) I   2                  0.00011
   106. RY*(  39) I   2                  0.00009
   107. RY*(  40) I   2                  0.00007
   108. RY*(  41) I   2                  0.00007
   109. RY*(  42) I   2                  0.00000
       -------------------------------
              Total Lewis   53.72136  ( 99.6933%)
        Valence non-Lewis    0.00000  (  0.0000%)
        Rydberg non-Lewis    0.16524  (  0.3067%)
       -------------------------------
            Total unit  2   53.88661  (100.0000%)
           Charge unit  2   -0.88661
 Leave Link  607 at Tue Sep 28 09:16:10 2021, MaxMem= 16106127360 cpu:              72.2 elap:               2.6
 (Enter /sw/contrib/gaussian/g16/B01/g16/l9999.exe)
 1\1\GINC-N2398\SP\RMP2-FC\Gen\Cl1H1I1O1(1-)\CGAVINH\28-Sep-2021\0\\#p 
 pop=NBO SP NoSymm mp2/gen Pseudo=read density=current\\title\\-1,1\O,0
 ,0.,0.,0.\I,0,3.31229841,0.,0.\Cl,0,-0.386418759,1.641656518,0.\H,0,0.
 968833263,0.,0.25959809\\Version=ES64L-G16RevB.01\HF=-829.6843319\MP2=
 -830.3663275\RMSD=8.461e-09\Dipole=-1.855197,0.8301572,0.0691545\Quadr
 upole=-21.5816196,10.7927823,10.7888373,0.2909163,-0.0281315,-0.058248
 6\PG=C01 [X(Cl1H1I1O1)]\\@


 FROM AN ANONYMOUS WRITER, ON PERSPECTIVE:

 MAN, DESPITE HIS ARTISTIC PRETENSIONS, HIS SOPHISTICATION AND MANY 
 ACCOMPLISHMENTS, OWES THE FACT OF HIS EXISTENCE TO A SIX-INCH LAYER OF 
 TOPSOIL AND THE FACT THAT IT RAINS.
 Job cpu time:       0 days  0 hours  5 minutes 34.6 seconds.
 Elapsed time:       0 days  0 hours  0 minutes 17.4 seconds.
 File lengths (MBytes):  RWF=     15 Int=      0 D2E=      0 Chk=      8 Scr=      1
 Normal termination of Gaussian 16 at Tue Sep 28 09:16:11 2021.
