 Entering Gaussian System, Link 0=g16
 Input=ihocl_45_sp.gjf
 Output=ihocl_45_sp.log
 Initial command:
 /sw/contrib/gaussian/g16/B01/g16/l1.exe "/scr/Gau-160037.inp" -scrdir="/scr/"
 Entering Link 1 = /sw/contrib/gaussian/g16/B01/g16/l1.exe PID=    160038.
  
 Copyright (c) 1988-2017, Gaussian, Inc.  All Rights Reserved.
  
 This is part of the Gaussian(R) 16 program.  It is based on
 the Gaussian(R) 09 system (copyright 2009, Gaussian, Inc.),
 the Gaussian(R) 03 system (copyright 2003, Gaussian, Inc.),
 the Gaussian(R) 98 system (copyright 1998, Gaussian, Inc.),
 the Gaussian(R) 94 system (copyright 1995, Gaussian, Inc.),
 the Gaussian 92(TM) system (copyright 1992, Gaussian, Inc.),
 the Gaussian 90(TM) system (copyright 1990, Gaussian, Inc.),
 the Gaussian 88(TM) system (copyright 1988, Gaussian, Inc.),
 the Gaussian 86(TM) system (copyright 1986, Carnegie Mellon
 University), and the Gaussian 82(TM) system (copyright 1983,
 Carnegie Mellon University). Gaussian is a federally registered
 trademark of Gaussian, Inc.
  
 This software contains proprietary and confidential information,
 including trade secrets, belonging to Gaussian, Inc.
  
 This software is provided under written license and may be
 used, copied, transmitted, or stored only in accord with that
 written license.
  
 The following legend is applicable only to US Government
 contracts under FAR:
  
                    RESTRICTED RIGHTS LEGEND
  
 Use, reproduction and disclosure by the US Government is
 subject to restrictions as set forth in subparagraphs (a)
 and (c) of the Commercial Computer Software - Restricted
 Rights clause in FAR 52.227-19.
  
 Gaussian, Inc.
 340 Quinnipiac St., Bldg. 40, Wallingford CT 06492
  
  
 ---------------------------------------------------------------
 Warning -- This program may not be used in any manner that
 competes with the business of Gaussian, Inc. or will provide
 assistance to any competitor of Gaussian, Inc.  The licensee
 of this program is prohibited from giving any competitor of
 Gaussian, Inc. access to this program.  By using this program,
 the user acknowledges that Gaussian, Inc. is engaged in the
 business of creating and licensing software in the field of
 computational chemistry and represents and warrants to the
 licensee that it is not a competitor of Gaussian, Inc. and that
 it will not use this program in any manner prohibited above.
 ---------------------------------------------------------------
  

 Cite this work as:
 Gaussian 16, Revision B.01,
 M. J. Frisch, G. W. Trucks, H. B. Schlegel, G. E. Scuseria, 
 M. A. Robb, J. R. Cheeseman, G. Scalmani, V. Barone, 
 G. A. Petersson, H. Nakatsuji, X. Li, M. Caricato, A. V. Marenich, 
 J. Bloino, B. G. Janesko, R. Gomperts, B. Mennucci, H. P. Hratchian, 
 J. V. Ortiz, A. F. Izmaylov, J. L. Sonnenberg, D. Williams-Young, 
 F. Ding, F. Lipparini, F. Egidi, J. Goings, B. Peng, A. Petrone, 
 T. Henderson, D. Ranasinghe, V. G. Zakrzewski, J. Gao, N. Rega, 
 G. Zheng, W. Liang, M. Hada, M. Ehara, K. Toyota, R. Fukuda, 
 J. Hasegawa, M. Ishida, T. Nakajima, Y. Honda, O. Kitao, H. Nakai, 
 T. Vreven, K. Throssell, J. A. Montgomery, Jr., J. E. Peralta, 
 F. Ogliaro, M. J. Bearpark, J. J. Heyd, E. N. Brothers, K. N. Kudin, 
 V. N. Staroverov, T. A. Keith, R. Kobayashi, J. Normand, 
 K. Raghavachari, A. P. Rendell, J. C. Burant, S. S. Iyengar, 
 J. Tomasi, M. Cossi, J. M. Millam, M. Klene, C. Adamo, R. Cammi, 
 J. W. Ochterski, R. L. Martin, K. Morokuma, O. Farkas, 
 J. B. Foresman, and D. J. Fox, Gaussian, Inc., Wallingford CT, 2016.
 
 ******************************************
 Gaussian 16:  ES64L-G16RevB.01 20-Dec-2017
                28-Sep-2021 
 ******************************************
 %nproc=28
 Will use up to   28 processors via shared memory.
 %mem=120GB
 %chk=/gscratch/ilahie/mccoygrp/coire_hocl/ihocl/ihocl_45_sp.chk
 --------------------------------------------------------
 #p pop=NBO SP NoSymm mp2/gen Pseudo=read density=current
 --------------------------------------------------------
 1/30=1,38=1,172=1/1;
 2/12=2,15=1,17=6,18=5,40=1/2;
 3/5=7,11=9,16=1,17=8,25=1,30=1,71=1/1,2,3;
 4//1;
 5/5=2,38=5/2;
 8/6=4,10=1/1;
 9/15=1,16=-3/6;
 10/5=1,13=10,31=1/2;
 6/7=2,8=2,9=2,10=2,22=-1,40=1/1,7;
 99/5=1,9=1/99;
 Leave Link    1 at Tue Sep 28 09:17:41 2021, MaxMem= 16106127360 cpu:               0.7 elap:               0.0
 (Enter /sw/contrib/gaussian/g16/B01/g16/l101.exe)
 -----
 title
 -----
 Symbolic Z-matrix:
 Charge = -1 Multiplicity = 1
 O                     0.        0.        0. 
 I                     3.3123    0.        0. 
 Cl                   -0.38642   1.64166   0. 
 H                     0.69376   0.        0.6942 
 
 ITRead=  0  0  0  0
 MicOpt= -1 -1 -1 -1
 NAtoms=      4 NQM=        4 NQMF=       0 NMMI=      0 NMMIF=      0
                NMic=       0 NMicF=      0.
                    Isotopes and Nuclear Properties:
 (Nuclear quadrupole moments (NQMom) in fm**2, nuclear magnetic moments (NMagM)
  in nuclear magnetons)

  Atom         1           2           3           4
 IAtWgt=          16         127          35           1
 AtmWgt=  15.9949146 126.9004000  34.9688527   1.0078250
 NucSpn=           0           5           3           1
 AtZEff=  -0.0000000  -0.0000000  -0.0000000  -0.0000000
 NQMom=    0.0000000 -71.0000000  -8.1650000   0.0000000
 NMagM=    0.0000000   2.8132800   0.8218740   2.7928460
 AtZNuc=   8.0000000  53.0000000  17.0000000   1.0000000
 Leave Link  101 at Tue Sep 28 09:17:42 2021, MaxMem= 16106127360 cpu:               2.4 elap:               0.1
 (Enter /sw/contrib/gaussian/g16/B01/g16/l202.exe)
                          Input orientation:                          
 ---------------------------------------------------------------------
 Center     Atomic      Atomic             Coordinates (Angstroms)
 Number     Number       Type             X           Y           Z
 ---------------------------------------------------------------------
      1          8           0        0.000000    0.000000    0.000000
      2         53           0        3.312298    0.000000    0.000000
      3         17           0       -0.386419    1.641657    0.000000
      4          1           0        0.693757    0.000000    0.694195
 ---------------------------------------------------------------------
                    Distance matrix (angstroms):
                    1          2          3          4
     1  O    0.000000
     2  I    3.312298   0.000000
     3  Cl   1.686522   4.046671   0.000000
     4  H    0.981430   2.708998   2.084160   0.000000
 Symmetry turned off by external request.
 Stoichiometry    ClHIO(1-)
 Framework group  C1[X(ClHIO)]
 Deg. of freedom     6
 Full point group                 C1      NOp   1
 Rotational constants (GHZ):          21.1883074           0.9673235           0.9266736
 Leave Link  202 at Tue Sep 28 09:17:42 2021, MaxMem= 16106127360 cpu:               0.2 elap:               0.0
 (Enter /sw/contrib/gaussian/g16/B01/g16/l301.exe)
 General basis read from cards:  (5D, 7F)
 Centers:       4      1      3
 aug-cc-pVTZ
 ****
 Centers:       2
 S 11 1.00
     Exponent=  5.5465000000D+03 Coefficients=  1.5600000000D-04
     Exponent=  8.3821400000D+02 Coefficients=  9.8600000000D-04
     Exponent=  1.8218700000D+02 Coefficients=  2.7920000000D-03
     Exponent=  3.1212300000D+01 Coefficients= -4.3251000000D-02
     Exponent=  1.9531400000D+01 Coefficients=  2.3413400000D-01
     Exponent=  8.2409900000D+00 Coefficients= -7.5094300000D-01
     Exponent=  2.1945500000D+00 Coefficients=  8.8296800000D-01
     Exponent=  1.1091100000D+00 Coefficients=  4.6206100000D-01
     Exponent=  3.7464100000D-01 Coefficients=  2.2286000000D-02
     Exponent=  1.7708000000D-01 Coefficients= -4.3530000000D-03
     Exponent=  8.1061000000D-02 Coefficients=  1.1020000000D-03
 S 11 1.00
     Exponent=  5.5465000000D+03 Coefficients= -7.3000000000D-05
     Exponent=  8.3821400000D+02 Coefficients= -5.0800000000D-04
     Exponent=  1.8218700000D+02 Coefficients= -1.1580000000D-03
     Exponent=  3.1212300000D+01 Coefficients=  1.2193000000D-02
     Exponent=  1.9531400000D+01 Coefficients= -8.7854000000D-02
     Exponent=  8.2409900000D+00 Coefficients=  3.3820000000D-01
     Exponent=  2.1945500000D+00 Coefficients= -5.7655000000D-01
     Exponent=  1.1091100000D+00 Coefficients= -4.0929800000D-01
     Exponent=  3.7464100000D-01 Coefficients=  5.6745900000D-01
     Exponent=  1.7708000000D-01 Coefficients=  6.1248900000D-01
     Exponent=  8.1061000000D-02 Coefficients=  1.4323100000D-01
 S 1 1.00
     Exponent=  3.7464100000D-01 Coefficients=  1.0000000000D+00
 S 1 1.00
     Exponent=  1.7708000000D-01 Coefficients=  1.0000000000D+00
 S 1 1.00
     Exponent=  1.0010000000D-01 Coefficients=  1.0000000000D+00
 S 1 1.00
     Exponent=  4.1200000000D-02 Coefficients=  1.0000000000D+00
 P 9 1.00
     Exponent=  1.8898800000D+02 Coefficients=  5.8500000000D-04
     Exponent=  2.1286800000D+01 Coefficients=  3.6923000000D-02
     Exponent=  1.0039600000D+01 Coefficients= -2.3532400000D-01
     Exponent=  3.4518000000D+00 Coefficients=  3.4148300000D-01
     Exponent=  1.9745600000D+00 Coefficients=  5.3478800000D-01
     Exponent=  1.0242000000D+00 Coefficients=  2.6514100000D-01
     Exponent=  4.4943700000D-01 Coefficients=  2.5787000000D-02
     Exponent=  1.8664800000D-01 Coefficients=  5.2200000000D-04
     Exponent=  7.3481000000D-02 Coefficients=  6.0600000000D-04
 P 9 1.00
     Exponent=  1.8898800000D+02 Coefficients= -2.5600000000D-04
     Exponent=  2.1286800000D+01 Coefficients= -1.1682000000D-02
     Exponent=  1.0039600000D+01 Coefficients=  8.3192000000D-02
     Exponent=  3.4518000000D+00 Coefficients= -1.5697000000D-01
     Exponent=  1.9745600000D+00 Coefficients= -2.2451800000D-01
     Exponent=  1.0242000000D+00 Coefficients= -1.1445100000D-01
     Exponent=  4.4943700000D-01 Coefficients=  3.7535600000D-01
     Exponent=  1.8664800000D-01 Coefficients=  5.7513600000D-01
     Exponent=  7.3481000000D-02 Coefficients=  2.4591700000D-01
 P 1 1.00
     Exponent=  5.9810000000D-01 Coefficients=  1.0000000000D+00
 P 1 1.00
     Exponent=  9.6180000000D-02 Coefficients=  1.0000000000D+00
 P 1 1.00
     Exponent=  3.5900000000D-02 Coefficients=  1.0000000000D+00
 D 9 1.00
     Exponent=  1.3266200000D+02 Coefficients=  5.7200000000D-04
     Exponent=  3.7605400000D+01 Coefficients=  4.4020000000D-03
     Exponent=  1.0389100000D+01 Coefficients= -4.0922000000D-02
     Exponent=  6.4901700000D+00 Coefficients=  9.9661000000D-02
     Exponent=  3.4545100000D+00 Coefficients=  3.2266300000D-01
     Exponent=  1.8441300000D+00 Coefficients=  4.0034300000D-01
     Exponent=  9.6247800000D-01 Coefficients=  2.6830600000D-01
     Exponent=  4.7285300000D-01 Coefficients=  8.4847000000D-02
     Exponent=  1.9320000000D-01 Coefficients=  7.6320000000D-03
 D 1 1.00
     Exponent=  4.7285300000D-01 Coefficients=  1.0000000000D+00
 D 1 1.00
     Exponent=  1.9320000000D-01 Coefficients=  1.0000000000D+00
 D 1 1.00
     Exponent=  7.8200000000D-02 Coefficients=  1.0000000000D+00
 F 1 1.00
     Exponent=  4.0640000000D-01 Coefficients=  1.0000000000D+00
 F 1 1.00
     Exponent=  1.8480000000D-01 Coefficients=  1.0000000000D+00
 ****
 ======================================================================================================
                                       Pseudopotential Parameters
 ======================================================================================================
  Center     Atomic      Valence      Angular      Power
  Number     Number     Electrons     Momentum     of R      Exponent        Coefficient   SO-Coeffient
 ======================================================================================================
    1          8
                                   No pseudopotential on this center.
    2         53           25
                                      G and up 
                                                     2        1.0000000        0.00000000    0.00000000
                                      S - G
                                                     2       40.0333760       49.98964900    0.00000000
                                                     2       17.3005760      281.00655600    0.00000000
                                                     2        8.8517200       61.41673900    0.00000000
                                      P - G
                                                     2       15.7201410       67.41623900    0.00000000
                                                     2       15.2082220      134.80769600    0.00000000
                                                     2        8.2941860       14.56654800    0.00000000
                                                     2        7.7539490       28.96842200    0.00000000
                                      D - G
                                                     2       13.8177510       35.53875600    0.00000000
                                                     2       13.5878050       53.33975900    0.00000000
                                                     2        6.9476300        9.71646600    0.00000000
                                                     2        6.9600990       14.97750000    0.00000000
                                      F - G
                                                     2       18.5229500      -20.17661800    0.00000000
                                                     2       18.2510350      -26.08807700    0.00000000
                                                     2        7.5579010       -0.22043400    0.00000000
                                                     2        7.5974040       -0.22164600    0.00000000
    3         17
                                   No pseudopotential on this center.
    4          1
                                   No pseudopotential on this center.
 ======================================================================================================
 Ernie: Thresh=  0.10000D-02 Tol=  0.10000D-05 Strict=F.
 Ernie:  23 primitive shells out of 166 were deleted.
   174 basis functions,   383 primitive gaussians,   204 cartesian basis functions
    26 alpha electrons       26 beta electrons
       nuclear repulsion energy       143.7148029805 Hartrees.
 IExCor=    0 DFT=F Ex=HF Corr=None ExCW=0 ScaHFX=  1.000000
 ScaDFX=  1.000000  1.000000  1.000000  1.000000 ScalE2=  1.000000  1.000000
 IRadAn=      5 IRanWt=     -1 IRanGd=            0 ICorTp=0 IEmpDi=  4
 NAtoms=    4 NActive=    4 NUniq=    4 SFac= 1.00D+00 NAtFMM=   60 NAOKFM=F Big=F
 Integral buffers will be    131072 words long.
 Raffenetti 1 integral format.
 Two-electron integral symmetry is turned off.
 Leave Link  301 at Tue Sep 28 09:17:42 2021, MaxMem= 16106127360 cpu:               2.3 elap:               0.1
 (Enter /sw/contrib/gaussian/g16/B01/g16/l302.exe)
 NPDir=0 NMtPBC=     1 NCelOv=     1 NCel=       1 NClECP=     1 NCelD=      1
         NCelK=      1 NCelE2=     1 NClLst=     1 CellRange=     0.0.
 One-electron integrals computed using PRISM.
   1 Symmetry operations used in ECPInt.
 ECPInt:  NShTT=    1596 NPrTT=   10643 LenC2=    1597 LenP2D=    8415.
 LDataN:  DoStor=T MaxTD1= 7 Len=  274
 NBasis=   174 RedAO= T EigKep=  2.92D-04  NBF=   174
 NBsUse=   174 1.00D-06 EigRej= -1.00D+00 NBFU=   174
 Leave Link  302 at Tue Sep 28 09:17:42 2021, MaxMem= 16106127360 cpu:               7.7 elap:               0.3
 (Enter /sw/contrib/gaussian/g16/B01/g16/l303.exe)
 DipDrv:  MaxL=1.
 Leave Link  303 at Tue Sep 28 09:17:42 2021, MaxMem= 16106127360 cpu:               1.2 elap:               0.1
 (Enter /sw/contrib/gaussian/g16/B01/g16/l401.exe)
 ExpMin= 2.53D-02 ExpMax= 4.56D+05 ExpMxC= 1.44D+03 IAcc=3 IRadAn=         5 AccDes= 0.00D+00
 Harris functional with IExCor=  205 and IRadAn=       5 diagonalized for initial guess.
 HarFok:  IExCor=  205 AccDes= 0.00D+00 IRadAn=         5 IDoV= 1 UseB2=F ITyADJ=14
 ICtDFT=  3500011 ScaDFX=  1.000000  1.000000  1.000000  1.000000
 Defaulting to unpruned grid for atomic number  53.
 FoFCou: FMM=F IPFlag=           0 FMFlag=      100000 FMFlg1=           0
         NFxFlg=           0 DoJE=T BraDBF=F KetDBF=T FulRan=T
         wScrn=  0.000000 ICntrl=       500 IOpCl=  0 I1Cent=   200000004 NGrid=           0
         NMat0=    1 NMatS0=      1 NMatT0=    0 NMatD0=    1 NMtDS0=    0 NMtDT0=    0
 Symmetry not used in FoFCou.
 Harris En= -831.050589117435    
 JPrj=0 DoOrth=F DoCkMO=F.
 Leave Link  401 at Tue Sep 28 09:17:42 2021, MaxMem= 16106127360 cpu:               6.9 elap:               0.3
 (Enter /sw/contrib/gaussian/g16/B01/g16/l502.exe)
 Keep R1 ints in memory in canonical form, NReq=173963693.
 FoFCou: FMM=F IPFlag=           0 FMFlag=           0 FMFlg1=           0
         NFxFlg=           0 DoJE=F BraDBF=F KetDBF=F FulRan=T
         wScrn=  0.000000 ICntrl=       600 IOpCl=  0 I1Cent=           0 NGrid=           0
         NMat0=    1 NMatS0=  15225 NMatT0=    0 NMatD0=    1 NMtDS0=    0 NMtDT0=    0
 Symmetry not used in FoFCou.
 Two-electron integral symmetry not used.
 Closed shell SCF:
 Using DIIS extrapolation, IDIIS=  1040.
 NGot= 16106127360 LenX= 15990129197 LenY= 15990087140
 Requested convergence on RMS density matrix=1.00D-08 within 128 cycles.
 Requested convergence on MAX density matrix=1.00D-06.
 Requested convergence on             energy=1.00D-06.
 No special actions if energy rises.

 Cycle   1  Pass 1  IDiag  1:
 E= -829.522819393737    
 DIIS: error= 2.93D-02 at cycle   1 NSaved=   1.
 NSaved= 1 IEnMin= 1 EnMin= -829.522819393737     IErMin= 1 ErrMin= 2.93D-02
 ErrMax= 2.93D-02  0.00D+00 EMaxC= 1.00D-01 BMatC= 4.46D-01 BMatP= 4.46D-01
 IDIUse=3 WtCom= 7.07D-01 WtEn= 2.93D-01
 Coeff-Com:  0.100D+01
 Coeff-En:   0.100D+01
 Coeff:      0.100D+01
 Gap=     0.389 Goal=   None    Shift=    0.000
 GapD=    0.389 DampG=1.000 DampE=0.500 DampFc=0.5000 IDamp=-1.
 Damping current iteration by 5.00D-01
 RMSDP=3.00D-03 MaxDP=9.62D-02              OVMax= 1.18D-01

 Cycle   2  Pass 1  IDiag  1:
 E= -829.598966649262     Delta-E=       -0.076147255524 Rises=F Damp=T
 DIIS: error= 1.43D-02 at cycle   2 NSaved=   2.
 NSaved= 2 IEnMin= 2 EnMin= -829.598966649262     IErMin= 2 ErrMin= 1.43D-02
 ErrMax= 1.43D-02  0.00D+00 EMaxC= 1.00D-01 BMatC= 8.91D-02 BMatP= 4.46D-01
 IDIUse=3 WtCom= 8.57D-01 WtEn= 1.43D-01
 Coeff-Com: -0.621D+00 0.162D+01
 Coeff-En:   0.000D+00 0.100D+01
 Coeff:     -0.533D+00 0.153D+01
 Gap=     0.274 Goal=   None    Shift=    0.000
 RMSDP=1.47D-03 MaxDP=8.25D-02 DE=-7.61D-02 OVMax= 6.76D-02

 Cycle   3  Pass 1  IDiag  1:
 E= -829.670288586501     Delta-E=       -0.071321937240 Rises=F Damp=F
 DIIS: error= 3.64D-03 at cycle   3 NSaved=   3.
 NSaved= 3 IEnMin= 3 EnMin= -829.670288586501     IErMin= 3 ErrMin= 3.64D-03
 ErrMax= 3.64D-03  0.00D+00 EMaxC= 1.00D-01 BMatC= 6.44D-03 BMatP= 8.91D-02
 IDIUse=3 WtCom= 9.64D-01 WtEn= 3.64D-02
 Coeff-Com: -0.251D+00 0.503D+00 0.747D+00
 Coeff-En:   0.000D+00 0.000D+00 0.100D+01
 Coeff:     -0.241D+00 0.485D+00 0.756D+00
 Gap=     0.282 Goal=   None    Shift=    0.000
 RMSDP=3.47D-04 MaxDP=1.45D-02 DE=-7.13D-02 OVMax= 2.63D-02

 Cycle   4  Pass 1  IDiag  1:
 E= -829.674887448444     Delta-E=       -0.004598861943 Rises=F Damp=F
 DIIS: error= 6.51D-04 at cycle   4 NSaved=   4.
 NSaved= 4 IEnMin= 4 EnMin= -829.674887448444     IErMin= 4 ErrMin= 6.51D-04
 ErrMax= 6.51D-04  0.00D+00 EMaxC= 1.00D-01 BMatC= 1.66D-04 BMatP= 6.44D-03
 IDIUse=3 WtCom= 9.93D-01 WtEn= 6.51D-03
 Coeff-Com: -0.206D-02-0.116D-01 0.112D+00 0.902D+00
 Coeff-En:   0.000D+00 0.000D+00 0.000D+00 0.100D+01
 Coeff:     -0.204D-02-0.115D-01 0.111D+00 0.903D+00
 Gap=     0.286 Goal=   None    Shift=    0.000
 RMSDP=9.33D-05 MaxDP=6.03D-03 DE=-4.60D-03 OVMax= 3.19D-03

 Cycle   5  Pass 1  IDiag  1:
 E= -829.675055967898     Delta-E=       -0.000168519454 Rises=F Damp=F
 DIIS: error= 1.74D-04 at cycle   5 NSaved=   5.
 NSaved= 5 IEnMin= 5 EnMin= -829.675055967898     IErMin= 5 ErrMin= 1.74D-04
 ErrMax= 1.74D-04  0.00D+00 EMaxC= 1.00D-01 BMatC= 1.24D-05 BMatP= 1.66D-04
 IDIUse=3 WtCom= 9.98D-01 WtEn= 1.74D-03
 Coeff-Com:  0.244D-01-0.458D-01-0.673D-01-0.643D-01 0.115D+01
 Coeff-En:   0.000D+00 0.000D+00 0.000D+00 0.000D+00 0.100D+01
 Coeff:      0.243D-01-0.457D-01-0.672D-01-0.641D-01 0.115D+01
 Gap=     0.285 Goal=   None    Shift=    0.000
 RMSDP=4.43D-05 MaxDP=2.08D-03 DE=-1.69D-04 OVMax= 2.55D-03

 Cycle   6  Pass 1  IDiag  1:
 E= -829.675085170250     Delta-E=       -0.000029202352 Rises=F Damp=F
 DIIS: error= 5.30D-05 at cycle   6 NSaved=   6.
 NSaved= 6 IEnMin= 6 EnMin= -829.675085170250     IErMin= 6 ErrMin= 5.30D-05
 ErrMax= 5.30D-05  0.00D+00 EMaxC= 1.00D-01 BMatC= 1.43D-06 BMatP= 1.24D-05
 IDIUse=1 WtCom= 1.00D+00 WtEn= 0.00D+00
 Coeff-Com: -0.675D-02 0.138D-01 0.111D-01-0.905D-01-0.223D+00 0.130D+01
 Coeff:     -0.675D-02 0.138D-01 0.111D-01-0.905D-01-0.223D+00 0.130D+01
 Gap=     0.285 Goal=   None    Shift=    0.000
 RMSDP=1.45D-05 MaxDP=5.46D-04 DE=-2.92D-05 OVMax= 1.19D-03

 Cycle   7  Pass 1  IDiag  1:
 E= -829.675089728434     Delta-E=       -0.000004558183 Rises=F Damp=F
 DIIS: error= 1.76D-05 at cycle   7 NSaved=   7.
 NSaved= 7 IEnMin= 7 EnMin= -829.675089728434     IErMin= 7 ErrMin= 1.76D-05
 ErrMax= 1.76D-05  0.00D+00 EMaxC= 1.00D-01 BMatC= 1.34D-07 BMatP= 1.43D-06
 IDIUse=1 WtCom= 1.00D+00 WtEn= 0.00D+00
 Coeff-Com: -0.663D-03 0.108D-02 0.452D-02 0.163D-01-0.808D-01-0.163D+00
 Coeff-Com:  0.122D+01
 Coeff:     -0.663D-03 0.108D-02 0.452D-02 0.163D-01-0.808D-01-0.163D+00
 Coeff:      0.122D+01
 Gap=     0.285 Goal=   None    Shift=    0.000
 RMSDP=4.79D-06 MaxDP=1.56D-04 DE=-4.56D-06 OVMax= 4.22D-04

 Cycle   8  Pass 1  IDiag  1:
 E= -829.675090221998     Delta-E=       -0.000000493565 Rises=F Damp=F
 DIIS: error= 6.90D-06 at cycle   8 NSaved=   8.
 NSaved= 8 IEnMin= 8 EnMin= -829.675090221998     IErMin= 8 ErrMin= 6.90D-06
 ErrMax= 6.90D-06  0.00D+00 EMaxC= 1.00D-01 BMatC= 1.60D-08 BMatP= 1.34D-07
 IDIUse=1 WtCom= 1.00D+00 WtEn= 0.00D+00
 Coeff-Com:  0.102D-02-0.209D-02-0.119D-02 0.128D-01 0.245D-01-0.176D+00
 Coeff-Com:  0.506D-01 0.109D+01
 Coeff:      0.102D-02-0.209D-02-0.119D-02 0.128D-01 0.245D-01-0.176D+00
 Coeff:      0.506D-01 0.109D+01
 Gap=     0.285 Goal=   None    Shift=    0.000
 RMSDP=1.57D-06 MaxDP=4.07D-05 DE=-4.94D-07 OVMax= 1.40D-04

 Cycle   9  Pass 1  IDiag  1:
 E= -829.675090273443     Delta-E=       -0.000000051445 Rises=F Damp=F
 DIIS: error= 2.28D-06 at cycle   9 NSaved=   9.
 NSaved= 9 IEnMin= 9 EnMin= -829.675090273443     IErMin= 9 ErrMin= 2.28D-06
 ErrMax= 2.28D-06  0.00D+00 EMaxC= 1.00D-01 BMatC= 1.38D-09 BMatP= 1.60D-08
 IDIUse=1 WtCom= 1.00D+00 WtEn= 0.00D+00
 Coeff-Com: -0.214D-03 0.458D-03-0.811D-04-0.535D-02 0.225D-02 0.615D-01
 Coeff-Com: -0.102D+00-0.399D+00 0.144D+01
 Coeff:     -0.214D-03 0.458D-03-0.811D-04-0.535D-02 0.225D-02 0.615D-01
 Coeff:     -0.102D+00-0.399D+00 0.144D+01
 Gap=     0.285 Goal=   None    Shift=    0.000
 RMSDP=6.58D-07 MaxDP=2.09D-05 DE=-5.14D-08 OVMax= 6.53D-05

 Cycle  10  Pass 1  IDiag  1:
 E= -829.675090280188     Delta-E=       -0.000000006745 Rises=F Damp=F
 DIIS: error= 8.62D-07 at cycle  10 NSaved=  10.
 NSaved=10 IEnMin=10 EnMin= -829.675090280188     IErMin=10 ErrMin= 8.62D-07
 ErrMax= 8.62D-07  0.00D+00 EMaxC= 1.00D-01 BMatC= 1.54D-10 BMatP= 1.38D-09
 IDIUse=1 WtCom= 1.00D+00 WtEn= 0.00D+00
 Coeff-Com: -0.483D-04 0.942D-04 0.117D-03 0.548D-04-0.315D-02 0.318D-02
 Coeff-Com:  0.205D-01-0.199D-01-0.328D+00 0.133D+01
 Coeff:     -0.483D-04 0.942D-04 0.117D-03 0.548D-04-0.315D-02 0.318D-02
 Coeff:      0.205D-01-0.199D-01-0.328D+00 0.133D+01
 Gap=     0.285 Goal=   None    Shift=    0.000
 RMSDP=2.15D-07 MaxDP=4.97D-06 DE=-6.75D-09 OVMax= 2.47D-05

 Cycle  11  Pass 1  IDiag  1:
 E= -829.675090280982     Delta-E=       -0.000000000794 Rises=F Damp=F
 DIIS: error= 3.54D-07 at cycle  11 NSaved=  11.
 NSaved=11 IEnMin=11 EnMin= -829.675090280982     IErMin=11 ErrMin= 3.54D-07
 ErrMax= 3.54D-07  0.00D+00 EMaxC= 1.00D-01 BMatC= 1.97D-11 BMatP= 1.54D-10
 IDIUse=1 WtCom= 1.00D+00 WtEn= 0.00D+00
 Coeff-Com:  0.386D-04-0.816D-04-0.775D-05 0.787D-03 0.582D-04-0.923D-02
 Coeff-Com:  0.118D-01 0.594D-01-0.154D+00-0.235D+00 0.133D+01
 Coeff:      0.386D-04-0.816D-04-0.775D-05 0.787D-03 0.582D-04-0.923D-02
 Coeff:      0.118D-01 0.594D-01-0.154D+00-0.235D+00 0.133D+01
 Gap=     0.285 Goal=   None    Shift=    0.000
 RMSDP=8.79D-08 MaxDP=1.97D-06 DE=-7.94D-10 OVMax= 1.01D-05

 Cycle  12  Pass 1  IDiag  1:
 E= -829.675090281080     Delta-E=       -0.000000000098 Rises=F Damp=F
 DIIS: error= 1.11D-07 at cycle  12 NSaved=  12.
 NSaved=12 IEnMin=12 EnMin= -829.675090281080     IErMin=12 ErrMin= 1.11D-07
 ErrMax= 1.11D-07  0.00D+00 EMaxC= 1.00D-01 BMatC= 1.36D-12 BMatP= 1.97D-11
 IDIUse=1 WtCom= 1.00D+00 WtEn= 0.00D+00
 Coeff-Com: -0.285D-05 0.673D-05-0.110D-04-0.143D-03 0.318D-03 0.130D-02
 Coeff-Com: -0.379D-02-0.101D-01 0.545D-01-0.513D-01-0.293D+00 0.130D+01
 Coeff:     -0.285D-05 0.673D-05-0.110D-04-0.143D-03 0.318D-03 0.130D-02
 Coeff:     -0.379D-02-0.101D-01 0.545D-01-0.513D-01-0.293D+00 0.130D+01
 Gap=     0.285 Goal=   None    Shift=    0.000
 RMSDP=2.52D-08 MaxDP=7.67D-07 DE=-9.75D-11 OVMax= 2.27D-06

 Cycle  13  Pass 1  IDiag  1:
 E= -829.675090281091     Delta-E=       -0.000000000011 Rises=F Damp=F
 DIIS: error= 2.92D-08 at cycle  13 NSaved=  13.
 NSaved=13 IEnMin=13 EnMin= -829.675090281091     IErMin=13 ErrMin= 2.92D-08
 ErrMax= 2.92D-08  0.00D+00 EMaxC= 1.00D-01 BMatC= 1.38D-13 BMatP= 1.36D-12
 IDIUse=1 WtCom= 1.00D+00 WtEn= 0.00D+00
 Coeff-Com: -0.276D-05 0.581D-05 0.786D-06-0.464D-04-0.398D-04 0.596D-03
 Coeff-Com: -0.503D-03-0.365D-02 0.600D-02 0.322D-01-0.101D+00-0.108D+00
 Coeff-Com:  0.117D+01
 Coeff:     -0.276D-05 0.581D-05 0.786D-06-0.464D-04-0.398D-04 0.596D-03
 Coeff:     -0.503D-03-0.365D-02 0.600D-02 0.322D-01-0.101D+00-0.108D+00
 Coeff:      0.117D+01
 Gap=     0.285 Goal=   None    Shift=    0.000
 RMSDP=7.27D-09 MaxDP=3.75D-07 DE=-1.07D-11 OVMax= 4.13D-07

 SCF Done:  E(RHF) =  -829.675090281     A.U. after   13 cycles
            NFock= 13  Conv=0.73D-08     -V/T= 2.2850
 KE= 6.456651609019D+02 PE=-2.195802787358D+03 EE= 5.767477331947D+02
 Leave Link  502 at Tue Sep 28 09:17:46 2021, MaxMem= 16106127360 cpu:              32.8 elap:               3.7
 (Enter /sw/contrib/gaussian/g16/B01/g16/l801.exe)
 ExpMin= 2.53D-02 ExpMax= 4.56D+05 ExpMxC= 1.44D+03 IAcc=3 IRadAn=         5 AccDes= 0.00D+00
 HarFok:  IExCor=  205 AccDes= 0.00D+00 IRadAn=         5 IDoV=-2 UseB2=F ITyADJ=14
 ICtDFT= 12500011 ScaDFX=  1.000000  1.000000  1.000000  1.000000
 Defaulting to unpruned grid for atomic number  53.
 Largest valence mixing into a core orbital is  4.48D-04
 Largest core mixing into a valence orbital is  1.60D-04
 Range of M.O.s used for correlation:    11   174
 NBasis=   174 NAE=    26 NBE=    26 NFC=    10 NFV=     0
 NROrb=    164 NOA=    16 NOB=    16 NVA=   148 NVB=   148

 **** Warning!!: The largest alpha MO coefficient is  0.11871787D+02

 Leave Link  801 at Tue Sep 28 09:17:46 2021, MaxMem= 16106127360 cpu:               1.4 elap:               0.1
 (Enter /sw/contrib/gaussian/g16/B01/g16/l906.exe)
 Frozen-core derivative calculation, NFC=  10 NFV=   0.
 FulOut=F Deriv=T AODrv=F NAtomX=     4
   MMem=         130  MDisk=          16 MDiskD=          16
  W3Min=      922896 MinDsk=     1491158 NBas6D=         204
 NBas2D=       21411    NTT=       20910    LW2=    26219120
    MDV= 16105723561 MDiskM=      394699 NBas2p=       21407
 Fully in-core method, ICMem=   539779449.
 IMap=   1   2   3   4   5   6   7   8   9  10  11  12  13  14  15  16  17  18  19  20
 IMap=  21  22  23  24  25  26
 JobTyp=1 Pass  1 fully in-core, NPsUse= 28.
 Compute canonical integrals.
 FoFCou: FMM=F IPFlag=           0 FMFlag=           0 FMFlg1=           0
         NFxFlg=           0 DoJE=F BraDBF=F KetDBF=F FulRan=T
         wScrn=  0.000000 ICntrl=       600 IOpCl=  1 I1Cent=           0 NGrid=           0
         NMat0=    1 NMatS0=  21411 NMatT0=    0 NMatD0=    1 NMtDS0=    0 NMtDT0=    0
 Symmetry not used in FoFCou.
 Spin components of T(2) and E(2):
     alpha-alpha T2 =       0.3118221136D-01 E2=     -0.9087686099D-01
     alpha-beta  T2 =       0.1654922091D+00 E2=     -0.4966916004D+00
     beta-beta   T2 =       0.3118221136D-01 E2=     -0.9087686099D-01
 The integrals were generated   1 times.
 ANorm=    0.1108086924D+01
 E2 =    -0.6784453224D+00 EUMP2 =    -0.83035353560346D+03
 Leave Link  906 at Tue Sep 28 09:17:52 2021, MaxMem= 16106127360 cpu:             168.6 elap:               6.1
 (Enter /sw/contrib/gaussian/g16/B01/g16/l1002.exe)
 Minotr:  Closed shell wavefunction.
          Computing MP2/KS-MP2 derivatives.
          Using Z-Vector for PSCF gradient.
          Skipping F1 and S1 gradient terms here.
          Frozen-core window.
          Direct CPHF calculation.
          Differentiating once with respect to electric field.
                with respect to dipole field.
          Electric field/nuclear overlap derivatives assumed to be zero.
          Requested convergence is 1.0D-10 RMS, and 1.0D-09 maximum.
          NewPWx=F KeepS1=T KeepF1=T KeepIn=T MapXYZ=F SortEE=F KeepMc=T.
 Keep R1 ints in memory in canonical form, NReq=173968393.
 FoFCou: FMM=F IPFlag=           0 FMFlag=           0 FMFlg1=           0
         NFxFlg=           0 DoJE=F BraDBF=F KetDBF=F FulRan=T
         wScrn=  0.000000 ICntrl=       600 IOpCl=  0 I1Cent=           0 NGrid=           0
         NMat0=    1 NMatS0=  15225 NMatT0=    0 NMatD0=    1 NMtDS0=    0 NMtDT0=    0
 Symmetry not used in FoFCou.
 Two-electron integral symmetry not used.
          MDV=   16106127360 using IRadAn=       5.
          Solving linear equations separately, MaxMat=       0.
          There are     1 degrees of freedom in the 1st order CPHF.  IDoFFX=0 NUNeed=     1.
 LinEq1:  Iter=  0 NonCon=     1 RMS=2.84D-03 Max=4.21D-02 NDo=     1
 AX will form     1 AO Fock derivatives at one time.
 LinEq1:  Iter=  1 NonCon=     1 RMS=4.45D-04 Max=4.16D-03 NDo=     1
 LinEq1:  Iter=  2 NonCon=     1 RMS=2.03D-04 Max=2.85D-03 NDo=     1
 LinEq1:  Iter=  3 NonCon=     1 RMS=6.07D-05 Max=6.71D-04 NDo=     1
 LinEq1:  Iter=  4 NonCon=     1 RMS=2.82D-05 Max=6.04D-04 NDo=     1
 LinEq1:  Iter=  5 NonCon=     1 RMS=9.84D-06 Max=1.91D-04 NDo=     1
 LinEq1:  Iter=  6 NonCon=     1 RMS=3.05D-06 Max=5.65D-05 NDo=     1
 LinEq1:  Iter=  7 NonCon=     1 RMS=8.31D-07 Max=1.02D-05 NDo=     1
 LinEq1:  Iter=  8 NonCon=     1 RMS=2.01D-07 Max=2.57D-06 NDo=     1
 LinEq1:  Iter=  9 NonCon=     1 RMS=6.80D-08 Max=1.24D-06 NDo=     1
 LinEq1:  Iter= 10 NonCon=     1 RMS=1.79D-08 Max=3.17D-07 NDo=     1
 LinEq1:  Iter= 11 NonCon=     1 RMS=4.26D-09 Max=6.37D-08 NDo=     1
 LinEq1:  Iter= 12 NonCon=     1 RMS=1.31D-09 Max=1.62D-08 NDo=     1
 LinEq1:  Iter= 13 NonCon=     1 RMS=3.97D-10 Max=4.92D-09 NDo=     1
 LinEq1:  Iter= 14 NonCon=     1 RMS=7.39D-11 Max=1.03D-09 NDo=     1
 LinEq1:  Iter= 15 NonCon=     0 RMS=1.59D-11 Max=2.00D-10 NDo=     1
 Linear equations converged to 1.000D-10 1.000D-09 after    15 iterations.
 End of Minotr F.D. properties file   721 does not exist.
 End of Minotr F.D. properties file   722 does not exist.
 End of Minotr F.D. properties file   788 does not exist.
 Leave Link 1002 at Tue Sep 28 09:17:57 2021, MaxMem= 16106127360 cpu:              36.1 elap:               4.2
 (Enter /sw/contrib/gaussian/g16/B01/g16/l601.exe)
 Copying SCF densities to generalized density rwf, IOpCl= 0 IROHF=0.

 **********************************************************************

            Population analysis using the MP2 Density.

 **********************************************************************

 Alpha  occ. eigenvalues -- -104.75139 -20.49453 -10.47104  -7.93823  -7.93544
 Alpha  occ. eigenvalues --   -7.93528  -7.46540  -5.29112  -5.29067  -5.29048
 Alpha  occ. eigenvalues --   -2.01856  -2.01842  -2.01825  -2.01771  -2.01769
 Alpha  occ. eigenvalues --   -1.26451  -0.91810  -0.62693  -0.56977  -0.46904
 Alpha  occ. eigenvalues --   -0.45993  -0.32939  -0.30324  -0.14555  -0.14080
 Alpha  occ. eigenvalues --   -0.13961
 Alpha virt. eigenvalues --    0.14542   0.17125   0.21419   0.22268   0.24258
 Alpha virt. eigenvalues --    0.25257   0.25502   0.26724   0.27197   0.29614
 Alpha virt. eigenvalues --    0.31158   0.31435   0.34063   0.37084   0.38201
 Alpha virt. eigenvalues --    0.38715   0.42136   0.43510   0.45656   0.48918
 Alpha virt. eigenvalues --    0.49627   0.52919   0.53739   0.56256   0.57000
 Alpha virt. eigenvalues --    0.57921   0.61384   0.63369   0.66149   0.74041
 Alpha virt. eigenvalues --    0.75187   0.78417   0.78625   0.79501   0.79876
 Alpha virt. eigenvalues --    0.80250   0.80804   0.81749   0.82532   0.84579
 Alpha virt. eigenvalues --    0.87902   0.87955   0.88465   0.89714   0.90370
 Alpha virt. eigenvalues --    0.91907   0.93821   0.94996   0.97122   0.99743
 Alpha virt. eigenvalues --    1.00979   1.05079   1.05402   1.09151   1.10221
 Alpha virt. eigenvalues --    1.12471   1.13837   1.19137   1.22051   1.23413
 Alpha virt. eigenvalues --    1.26208   1.29467   1.33742   1.34215   1.39276
 Alpha virt. eigenvalues --    1.42337   1.48955   1.51489   1.55521   1.60740
 Alpha virt. eigenvalues --    1.62600   1.66502   1.68978   1.72119   1.75647
 Alpha virt. eigenvalues --    1.75662   1.77755   1.78488   1.80679   1.83753
 Alpha virt. eigenvalues --    1.84320   1.87160   1.89261   1.95501   2.05331
 Alpha virt. eigenvalues --    2.06248   2.08271   2.11088   2.12018   2.26682
 Alpha virt. eigenvalues --    2.33234   2.40297   2.48284   2.48713   2.51705
 Alpha virt. eigenvalues --    2.57659   2.59648   2.62365   2.66470   2.68705
 Alpha virt. eigenvalues --    2.69261   2.71608   2.75207   2.77794   2.81267
 Alpha virt. eigenvalues --    2.91399   2.97359   3.08646   3.16552   3.18665
 Alpha virt. eigenvalues --    3.19463   3.20638   3.22091   3.22956   3.28093
 Alpha virt. eigenvalues --    3.32475   3.47244   3.52524   3.53519   3.77186
 Alpha virt. eigenvalues --    3.89365   3.93611   4.33053   4.41752   4.51222
 Alpha virt. eigenvalues --    4.55323   4.70645   4.88820   4.98405   5.34728
 Alpha virt. eigenvalues --    5.43014   5.66983   6.35077   6.60529   6.83044
 Alpha virt. eigenvalues --    6.88368   6.89508   6.95118   7.31492   7.34415
 Alpha virt. eigenvalues --    7.35448   7.44255   7.45293   7.65832   7.69559
 Alpha virt. eigenvalues --    8.37142  14.56363  59.20099
          Condensed to atoms (all electrons):
               1          2          3          4
     1  O    8.501161  -0.069124  -0.120318   0.070749
     2  I   -0.069124  25.916346   0.003219   0.066724
     3  Cl  -0.120318   0.003219  17.040812  -0.000950
     4  H    0.070749   0.066724  -0.000950   0.641081
 Mulliken charges:
               1
     1  O   -0.382468
     2  I   -0.917164
     3  Cl   0.077236
     4  H    0.222396
 Sum of Mulliken charges =  -1.00000
 Mulliken charges with hydrogens summed into heavy atoms:
               1
     1  O   -0.160072
     2  I   -0.917164
     3  Cl   0.077236
 Electronic spatial extent (au):  <R**2>=           1310.1300
 Charge=             -1.0000 electrons
 Dipole moment (field-independent basis, Debye):
    X=            -13.2558    Y=             -0.4083    Z=              0.5740  Tot=             13.2745
 Quadrupole moment (field-independent basis, Debye-Ang):
   XX=           -101.8702   YY=            -53.3323   ZZ=            -52.6489
   XY=              0.4115   XZ=             -0.0204   YZ=             -0.2271
 Traceless Quadrupole moment (field-independent basis, Debye-Ang):
   XX=            -32.5864   YY=             15.9515   ZZ=             16.6349
   XY=              0.4115   XZ=             -0.0204   YZ=             -0.2271
 Octapole moment (field-independent basis, Debye-Ang**2):
  XXX=           -481.3776  YYY=            -60.9593  ZZZ=             -2.2124  XYY=           -107.7966
  XXY=            -21.4797  XXZ=             -4.2506  XZZ=           -106.6540  YZZ=            -22.0427
  YYZ=             -1.3028  XYZ=              0.1229
 Hexadecapole moment (field-independent basis, Debye-Ang**3):
 XXXX=          -2856.8994 YYYY=           -282.4168 ZZZZ=            -91.7752 XXXY=             28.4808
 XXXZ=            -16.7850 YYYX=             21.6610 YYYZ=             -0.9801 ZZZX=             -3.9743
 ZZZY=             -0.3139 XXYY=           -439.6123 XXZZ=           -404.0663 YYZZ=            -67.1802
 XXYZ=             -0.1998 YYXZ=             -1.1234 ZZXY=              9.1220
 N-N= 1.437148029805D+02 E-N=-2.195350124341D+03  KE= 6.460418927551D+02
 No NMR shielding tensors so no spin-rotation constants.
 Leave Link  601 at Tue Sep 28 09:17:57 2021, MaxMem= 16106127360 cpu:               3.1 elap:               0.1
 (Enter /sw/contrib/gaussian/g16/B01/g16/l607.exe)
 ******************************Gaussian NBO Version 3.1******************************
             N A T U R A L   A T O M I C   O R B I T A L   A N D
          N A T U R A L   B O N D   O R B I T A L   A N A L Y S I S
 ******************************Gaussian NBO Version 3.1******************************
       /RESON  / : Allow strongly delocalized NBO set

 Analyzing the MP2 density

 Job title: title                                                           

 Storage needed:     91686 in NPA,    121697 in NBO (********** available)
 GSVD:  LWork=        2436 too small for GESVD, short by       52200 words or       52200 for optimal perf.


 NATURAL POPULATIONS:  Natural atomic orbital occupancies 
                                                          
   NAO  Atom  No  lang   Type(AO)    Occupancy
 --------------------------------------------
     1    O    1  S      Cor( 1S)     1.99971
     2    O    1  S      Val( 2S)     1.79477
     3    O    1  S      Ryd( 3S)     0.00876
     4    O    1  S      Ryd( 4S)     0.00105
     5    O    1  S      Ryd( 5S)     0.00017
     6    O    1  px     Val( 2p)     1.74275
     7    O    1  px     Ryd( 3p)     0.01493
     8    O    1  px     Ryd( 4p)     0.00070
     9    O    1  px     Ryd( 5p)     0.00040
    10    O    1  py     Val( 2p)     1.28068
    11    O    1  py     Ryd( 3p)     0.00762
    12    O    1  py     Ryd( 4p)     0.00059
    13    O    1  py     Ryd( 5p)     0.00030
    14    O    1  pz     Val( 2p)     1.77456
    15    O    1  pz     Ryd( 3p)     0.01528
    16    O    1  pz     Ryd( 4p)     0.00070
    17    O    1  pz     Ryd( 5p)     0.00024
    18    O    1  dxy    Ryd( 3d)     0.00920
    19    O    1  dxy    Ryd( 4d)     0.00052
    20    O    1  dxy    Ryd( 5d)     0.00017
    21    O    1  dxz    Ryd( 3d)     0.01112
    22    O    1  dxz    Ryd( 4d)     0.00052
    23    O    1  dxz    Ryd( 5d)     0.00013
    24    O    1  dyz    Ryd( 3d)     0.00999
    25    O    1  dyz    Ryd( 4d)     0.00056
    26    O    1  dyz    Ryd( 5d)     0.00010
    27    O    1  dx2y2  Ryd( 3d)     0.01043
    28    O    1  dx2y2  Ryd( 4d)     0.00051
    29    O    1  dx2y2  Ryd( 5d)     0.00020
    30    O    1  dz2    Ryd( 3d)     0.00977
    31    O    1  dz2    Ryd( 4d)     0.00056
    32    O    1  dz2    Ryd( 5d)     0.00020
    33    O    1  f(0)   Ryd( 4f)     0.00057
    34    O    1  f(0)   Ryd( 5f)     0.00011
    35    O    1  f(C1)  Ryd( 4f)     0.00058
    36    O    1  f(C1)  Ryd( 5f)     0.00012
    37    O    1  f(S1)  Ryd( 4f)     0.00059
    38    O    1  f(S1)  Ryd( 5f)     0.00012
    39    O    1  f(C2)  Ryd( 4f)     0.00065
    40    O    1  f(C2)  Ryd( 5f)     0.00014
    41    O    1  f(S2)  Ryd( 4f)     0.00061
    42    O    1  f(S2)  Ryd( 5f)     0.00012
    43    O    1  f(C3)  Ryd( 4f)     0.00065
    44    O    1  f(C3)  Ryd( 5f)     0.00013
    45    O    1  f(S3)  Ryd( 4f)     0.00063
    46    O    1  f(S3)  Ryd( 5f)     0.00011

    47    I    2  S      Cor( 4S)     2.00002
    48    I    2  S      Val( 5S)     1.97928
    49    I    2  S      Ryd( 6S)     0.00377
    50    I    2  S      Ryd( 7S)     0.00058
    51    I    2  S      Ryd( 8S)     0.00018
    52    I    2  S      Ryd( 9S)     0.00000
    53    I    2  px     Cor( 4p)     2.00003
    54    I    2  px     Val( 5p)     1.92467
    55    I    2  px     Ryd( 6p)     0.01016
    56    I    2  px     Ryd( 7p)     0.00068
    57    I    2  px     Ryd( 8p)     0.00013
    58    I    2  py     Cor( 4p)     2.00007
    59    I    2  py     Val( 5p)     1.95088
    60    I    2  py     Ryd( 6p)     0.01118
    61    I    2  py     Ryd( 7p)     0.00076
    62    I    2  py     Ryd( 8p)     0.00010
    63    I    2  pz     Cor( 4p)     2.00006
    64    I    2  pz     Val( 5p)     1.94628
    65    I    2  pz     Ryd( 6p)     0.01116
    66    I    2  pz     Ryd( 7p)     0.00075
    67    I    2  pz     Ryd( 8p)     0.00010
    68    I    2  dxy    Cor( 4d)     1.99676
    69    I    2  dxy    Ryd( 5d)     0.02055
    70    I    2  dxy    Ryd( 6d)     0.00150
    71    I    2  dxy    Ryd( 7d)     0.00021
    72    I    2  dxz    Cor( 4d)     1.99675
    73    I    2  dxz    Ryd( 5d)     0.02092
    74    I    2  dxz    Ryd( 6d)     0.00154
    75    I    2  dxz    Ryd( 7d)     0.00022
    76    I    2  dyz    Cor( 4d)     1.99678
    77    I    2  dyz    Ryd( 5d)     0.02031
    78    I    2  dyz    Ryd( 6d)     0.00167
    79    I    2  dyz    Ryd( 7d)     0.00018
    80    I    2  dx2y2  Cor( 4d)     1.99673
    81    I    2  dx2y2  Ryd( 5d)     0.02028
    82    I    2  dx2y2  Ryd( 6d)     0.00161
    83    I    2  dx2y2  Ryd( 7d)     0.00025
    84    I    2  dz2    Cor( 4d)     1.99676
    85    I    2  dz2    Ryd( 5d)     0.02026
    86    I    2  dz2    Ryd( 6d)     0.00164
    87    I    2  dz2    Ryd( 7d)     0.00018
    88    I    2  f(0)   Ryd( 4f)     0.00277
    89    I    2  f(0)   Ryd( 5f)     0.00045
    90    I    2  f(C1)  Ryd( 4f)     0.00275
    91    I    2  f(C1)  Ryd( 5f)     0.00046
    92    I    2  f(S1)  Ryd( 4f)     0.00277
    93    I    2  f(S1)  Ryd( 5f)     0.00043
    94    I    2  f(C2)  Ryd( 4f)     0.00275
    95    I    2  f(C2)  Ryd( 5f)     0.00047
    96    I    2  f(S2)  Ryd( 4f)     0.00278
    97    I    2  f(S2)  Ryd( 5f)     0.00045
    98    I    2  f(C3)  Ryd( 4f)     0.00275
    99    I    2  f(C3)  Ryd( 5f)     0.00048
   100    I    2  f(S3)  Ryd( 4f)     0.00273
   101    I    2  f(S3)  Ryd( 5f)     0.00046

   102   Cl    3  S      Cor( 1S)     2.00000
   103   Cl    3  S      Cor( 2S)     1.99981
   104   Cl    3  S      Val( 3S)     1.88530
   105   Cl    3  S      Ryd( 4S)     0.00828
   106   Cl    3  S      Ryd( 5S)     0.00055
   107   Cl    3  S      Ryd( 6S)     0.00019
   108   Cl    3  px     Cor( 2p)     2.00003
   109   Cl    3  px     Val( 3p)     1.89500
   110   Cl    3  px     Ryd( 4p)     0.00972
   111   Cl    3  px     Ryd( 5p)     0.00059
   112   Cl    3  px     Ryd( 6p)     0.00011
   113   Cl    3  py     Cor( 2p)     1.99997
   114   Cl    3  py     Val( 3p)     0.95248
   115   Cl    3  py     Ryd( 4p)     0.00708
   116   Cl    3  py     Ryd( 5p)     0.00052
   117   Cl    3  py     Ryd( 6p)     0.00022
   118   Cl    3  pz     Cor( 2p)     2.00003
   119   Cl    3  pz     Val( 3p)     1.95413
   120   Cl    3  pz     Ryd( 4p)     0.01005
   121   Cl    3  pz     Ryd( 5p)     0.00059
   122   Cl    3  pz     Ryd( 6p)     0.00003
   123   Cl    3  dxy    Ryd( 3d)     0.01870
   124   Cl    3  dxy    Ryd( 4d)     0.00070
   125   Cl    3  dxy    Ryd( 5d)     0.00026
   126   Cl    3  dxz    Ryd( 3d)     0.01712
   127   Cl    3  dxz    Ryd( 4d)     0.00080
   128   Cl    3  dxz    Ryd( 5d)     0.00020
   129   Cl    3  dyz    Ryd( 3d)     0.01837
   130   Cl    3  dyz    Ryd( 4d)     0.00078
   131   Cl    3  dyz    Ryd( 5d)     0.00032
   132   Cl    3  dx2y2  Ryd( 3d)     0.01879
   133   Cl    3  dx2y2  Ryd( 4d)     0.00068
   134   Cl    3  dx2y2  Ryd( 5d)     0.00025
   135   Cl    3  dz2    Ryd( 3d)     0.01736
   136   Cl    3  dz2    Ryd( 4d)     0.00063
   137   Cl    3  dz2    Ryd( 5d)     0.00016
   138   Cl    3  f(0)   Ryd( 4f)     0.00127
   139   Cl    3  f(0)   Ryd( 5f)     0.00013
   140   Cl    3  f(C1)  Ryd( 4f)     0.00127
   141   Cl    3  f(C1)  Ryd( 5f)     0.00013
   142   Cl    3  f(S1)  Ryd( 4f)     0.00140
   143   Cl    3  f(S1)  Ryd( 5f)     0.00013
   144   Cl    3  f(C2)  Ryd( 4f)     0.00126
   145   Cl    3  f(C2)  Ryd( 5f)     0.00014
   146   Cl    3  f(S2)  Ryd( 4f)     0.00122
   147   Cl    3  f(S2)  Ryd( 5f)     0.00013
   148   Cl    3  f(C3)  Ryd( 4f)     0.00145
   149   Cl    3  f(C3)  Ryd( 5f)     0.00014
   150   Cl    3  f(S3)  Ryd( 4f)     0.00148
   151   Cl    3  f(S3)  Ryd( 5f)     0.00015

   152    H    4  S      Val( 1S)     0.48793
   153    H    4  S      Ryd( 2S)     0.00469
   154    H    4  S      Ryd( 3S)     0.00041
   155    H    4  S      Ryd( 4S)     0.00016
   156    H    4  px     Ryd( 2p)     0.00593
   157    H    4  px     Ryd( 3p)     0.00059
   158    H    4  px     Ryd( 4p)     0.00026
   159    H    4  py     Ryd( 2p)     0.00267
   160    H    4  py     Ryd( 3p)     0.00043
   161    H    4  py     Ryd( 4p)     0.00010
   162    H    4  pz     Ryd( 2p)     0.00353
   163    H    4  pz     Ryd( 3p)     0.00057
   164    H    4  pz     Ryd( 4p)     0.00017
   165    H    4  dxy    Ryd( 3d)     0.00025
   166    H    4  dxy    Ryd( 4d)     0.00008
   167    H    4  dxz    Ryd( 3d)     0.00030
   168    H    4  dxz    Ryd( 4d)     0.00009
   169    H    4  dyz    Ryd( 3d)     0.00016
   170    H    4  dyz    Ryd( 4d)     0.00007
   171    H    4  dx2y2  Ryd( 3d)     0.00029
   172    H    4  dx2y2  Ryd( 4d)     0.00011
   173    H    4  dz2    Ryd( 3d)     0.00025
   174    H    4  dz2    Ryd( 4d)     0.00011

 [ 28 electrons found in the effective core potential]

 WARNING:  5 low occupancy (<1.9990e) core orbitals found on  I    2


 Summary of Natural Population Analysis:                  
                                                          
                                       Natural Population 
                Natural  -----------------------------------------------
    Atom  No    Charge         Core      Valence    Rydberg      Total
 -----------------------------------------------------------------------
      O    1   -0.70232      1.99971     6.59276    0.10986     8.70232
      I    2   -0.95845     45.98396     7.80111    0.17338    53.95845
     Cl    3    0.16992      9.99984     6.68691    0.14333    16.83008
      H    4    0.49085      0.00000     0.48793    0.02122     0.50915
 =======================================================================
   * Total *   -1.00000     57.98351    21.56870    0.44779    80.00000

                                 Natural Population      
 --------------------------------------------------------
   Effective Core            28.00000
   Core                      29.98351 ( 99.9450% of  30)
   Valence                   21.56870 ( 98.0395% of  22)
   Natural Minimal Basis     79.55221 ( 99.4403% of  80)
   Natural Rydberg Basis      0.44779 (  0.5597% of  80)
 --------------------------------------------------------

    Atom  No          Natural Electron Configuration
 ----------------------------------------------------------------------------
      O    1      [core]2S( 1.79)2p( 4.80)3S( 0.01)3p( 0.04)3d( 0.05)
      I    2      [core]5S( 1.98)5p( 5.82)4f( 0.02)5d( 0.10)6p( 0.03)6d( 0.01)
     Cl    3      [core]3S( 1.89)3p( 4.80)4S( 0.01)3d( 0.09)4p( 0.03)4f( 0.01)
      H    4            1S( 0.49)2p( 0.01)


 NATURAL BOND ORBITAL ANALYSIS:

                       Occupancies       Lewis Structure    Low   High
           Occ.    -------------------  -----------------   occ   occ
  Cycle   Thresh.   Lewis   Non-Lewis     CR  BD  3C  LP    (L)   (NL)   Dev
 =============================================================================
   1(1)    1.90    79.49704   0.50296     15   2   0   9     0      0    0.04
 -----------------------------------------------------------------------------

 Structure accepted: No low occupancy Lewis orbitals

 WARNING:  5 low occupancy (<1.9990e) core orbitals found on  I    2

 --------------------------------------------------------
   Effective Core           28.00000
   Core                     29.98351 ( 99.945% of  30)
   Valence Lewis            21.51353 ( 97.789% of  22)
  ==================       ============================
   Total Lewis              79.49704 ( 99.371% of  80)
  -----------------------------------------------------
   Valence non-Lewis         0.10382 (  0.130% of  80)
   Rydberg non-Lewis         0.39913 (  0.499% of  80)
  ==================       ============================
   Total non-Lewis           0.50296 (  0.629% of  80)
 --------------------------------------------------------


       (Occupancy)   Bond orbital/ Coefficients/ Hybrids
 ---------------------------------------------------------------------------------
     1. (1.93987) BD ( 1) O   1 -Cl   3  
                ( 59.50%)   0.7714* O   1 s( 10.03%)p 8.92( 89.40%)d 0.06(  0.56%)
                                                  f 0.00(  0.02%)
                                            0.0003  0.3140 -0.0391 -0.0124 -0.0021
                                           -0.2209  0.0242  0.0054  0.0021  0.9183
                                           -0.0158 -0.0074 -0.0085  0.0236  0.0212
                                            0.0038 -0.0006 -0.0138 -0.0016 -0.0021
                                            0.0090  0.0011 -0.0009  0.0240  0.0033
                                           -0.0004 -0.0597 -0.0048 -0.0001 -0.0330
                                           -0.0025 -0.0005 -0.0002  0.0005  0.0015
                                            0.0005 -0.0062 -0.0000 -0.0036  0.0019
                                            0.0058 -0.0011  0.0057  0.0008 -0.0074
                                            0.0010
                ( 40.50%)   0.6364*Cl   3 s(  8.28%)p10.92( 90.42%)d 0.14(  1.19%)
                                                  f 0.01(  0.11%)
                                           -0.0000  0.0005  0.2812 -0.0599 -0.0098
                                           -0.0033  0.0001  0.2216 -0.0140 -0.0041
                                            0.0009 -0.0004 -0.9221  0.0666  0.0127
                                           -0.0028  0.0000  0.0039 -0.0003 -0.0024
                                            0.0012 -0.0465  0.0053  0.0000  0.0082
                                            0.0007 -0.0009 -0.0118 -0.0015 -0.0010
                                           -0.0808  0.0092  0.0006 -0.0533  0.0057
                                           -0.0003 -0.0008  0.0002 -0.0045  0.0005
                                            0.0193 -0.0023  0.0002 -0.0007 -0.0021
                                            0.0015 -0.0175  0.0027  0.0199 -0.0024
     2. (1.96369) BD ( 1) O   1 - H   4  
                ( 76.87%)   0.8767* O   1 s( 23.46%)p 3.24( 75.99%)d 0.02(  0.54%)
                                                  f 0.00(  0.01%)
                                            0.0002  0.4843 -0.0042 -0.0065  0.0018
                                            0.6003 -0.0139 -0.0060 -0.0012 -0.0354
                                            0.0149  0.0013  0.0016  0.6306 -0.0082
                                           -0.0061 -0.0032  0.0176  0.0037  0.0012
                                            0.0600  0.0030 -0.0005  0.0206  0.0037
                                            0.0003  0.0208  0.0015  0.0021  0.0240
                                            0.0030  0.0020 -0.0061  0.0009  0.0069
                                            0.0010  0.0017 -0.0008  0.0032  0.0024
                                           -0.0002 -0.0008 -0.0027  0.0020 -0.0017
                                            0.0001
                ( 23.13%)   0.4810* H   4 s( 99.82%)p 0.00(  0.18%)d 0.00(  0.00%)
                                            0.9990  0.0168  0.0007 -0.0002  0.0008
                                           -0.0210 -0.0056  0.0102  0.0018 -0.0040
                                            0.0257 -0.0216 -0.0053  0.0010  0.0008
                                            0.0020 -0.0003  0.0015  0.0019  0.0002
                                           -0.0020 -0.0007 -0.0014
     3. (1.99971) CR ( 1) O   1           s(100.00%)p 0.00(  0.00%)
                                            1.0000 -0.0004  0.0000  0.0000  0.0000
                                           -0.0000 -0.0000  0.0000  0.0000 -0.0002
                                            0.0000  0.0000  0.0000 -0.0001 -0.0000
                                            0.0000  0.0000  0.0000 -0.0000 -0.0000
                                           -0.0000 -0.0000  0.0000 -0.0000 -0.0000
                                           -0.0000  0.0000  0.0000 -0.0000  0.0000
                                            0.0000 -0.0000  0.0000 -0.0000 -0.0000
                                           -0.0000  0.0000 -0.0000 -0.0000 -0.0000
                                           -0.0000  0.0000 -0.0000 -0.0000  0.0000
                                           -0.0000
     4. (2.00002) CR ( 1) I   2           s(100.00%)p 0.00(  0.00%)
                                            1.0000  0.0000 -0.0000 -0.0000  0.0000
                                            0.0000  0.0000 -0.0001 -0.0000  0.0000
                                           -0.0000  0.0000  0.0000 -0.0000 -0.0000
                                            0.0000 -0.0000  0.0000  0.0000 -0.0000
                                            0.0000  0.0000 -0.0000  0.0000 -0.0000
                                            0.0000 -0.0000  0.0000 -0.0000 -0.0000
                                           -0.0000 -0.0000  0.0000 -0.0000  0.0000
                                           -0.0000 -0.0000  0.0000 -0.0000  0.0000
                                            0.0000 -0.0000 -0.0000  0.0000  0.0000
                                           -0.0000 -0.0000  0.0000  0.0000 -0.0000
                                           -0.0000 -0.0000 -0.0000  0.0000  0.0000
     5. (2.00003) CR ( 2) I   2           s(  0.00%)p 1.00(100.00%)
                                            0.0000 -0.0001  0.0000  0.0000  0.0000
                                           -0.0000  1.0000  0.0001  0.0000 -0.0000
                                            0.0000  0.0000  0.0000  0.0000  0.0000
                                           -0.0000  0.0000 -0.0001 -0.0000  0.0000
                                           -0.0000 -0.0000 -0.0000 -0.0000  0.0000
                                           -0.0000  0.0000 -0.0000  0.0000 -0.0000
                                            0.0000 -0.0000 -0.0000  0.0000 -0.0000
                                            0.0000  0.0000 -0.0000  0.0000  0.0000
                                           -0.0000  0.0000  0.0000 -0.0000 -0.0000
                                            0.0000  0.0000 -0.0000 -0.0000 -0.0000
                                            0.0000  0.0000  0.0000 -0.0000 -0.0000
     6. (2.00007) CR ( 3) I   2           s(  0.00%)p 1.00(100.00%)
                                            0.0000  0.0000  0.0000  0.0000 -0.0000
                                            0.0000  0.0000 -0.0000  0.0000  0.0000
                                           -0.0000  1.0000 -0.0001  0.0000 -0.0000
                                           -0.0000 -0.0000 -0.0000  0.0000  0.0000
                                           -0.0000 -0.0000  0.0000 -0.0000 -0.0000
                                            0.0000 -0.0000 -0.0000  0.0000  0.0000
                                           -0.0000  0.0000 -0.0000 -0.0000 -0.0000
                                            0.0000 -0.0000  0.0000 -0.0000  0.0000
                                           -0.0000 -0.0000  0.0000  0.0000  0.0000
                                            0.0000  0.0000 -0.0000 -0.0000  0.0000
                                            0.0000  0.0000  0.0000 -0.0000 -0.0000
     7. (2.00006) CR ( 4) I   2           s(  0.00%)p 1.00(100.00%)
                                           -0.0000  0.0000  0.0000 -0.0000  0.0000
                                            0.0000  0.0000 -0.0001  0.0000  0.0000
                                           -0.0000 -0.0000 -0.0000 -0.0000 -0.0000
                                            0.0000  1.0000 -0.0001  0.0000 -0.0000
                                            0.0000  0.0000 -0.0000  0.0000 -0.0000
                                            0.0000 -0.0000  0.0000 -0.0000 -0.0000
                                           -0.0000 -0.0000 -0.0000 -0.0000  0.0000
                                           -0.0000 -0.0000  0.0000 -0.0000  0.0000
                                           -0.0000 -0.0000 -0.0000  0.0000  0.0000
                                           -0.0000 -0.0000  0.0000  0.0000  0.0000
                                            0.0000 -0.0000 -0.0000  0.0000  0.0000
     8. (1.99676) CR ( 5) I   2           s(  0.00%)p 0.00(  0.00%)d 1.00(100.00%)
                                            0.0000 -0.0000  0.0000  0.0000 -0.0000
                                           -0.0000 -0.0000  0.0000 -0.0000 -0.0000
                                            0.0000 -0.0000 -0.0000  0.0000 -0.0000
                                           -0.0000  0.0000 -0.0000 -0.0000  0.0000
                                           -0.0000  1.0000  0.0000 -0.0000 -0.0000
                                           -0.0000  0.0000 -0.0000  0.0000  0.0000
                                           -0.0000  0.0000 -0.0000  0.0000 -0.0000
                                            0.0000 -0.0000 -0.0000  0.0000 -0.0000
                                           -0.0000  0.0000  0.0000 -0.0000 -0.0000
                                            0.0000  0.0000 -0.0000 -0.0000  0.0000
                                            0.0000  0.0000  0.0000 -0.0000 -0.0000
     9. (1.99675) CR ( 6) I   2           s(  0.00%)p 0.00(  0.00%)d 1.00(100.00%)
                                            0.0000 -0.0000  0.0000  0.0000  0.0000
                                           -0.0000 -0.0000  0.0001  0.0000 -0.0000
                                            0.0000  0.0000 -0.0000  0.0000  0.0000
                                           -0.0000  0.0000 -0.0000 -0.0000  0.0000
                                           -0.0000 -0.0000 -0.0000 -0.0000  0.0000
                                            1.0000  0.0000 -0.0000  0.0000  0.0000
                                            0.0000  0.0000 -0.0000  0.0000 -0.0000
                                            0.0000  0.0000 -0.0000  0.0000 -0.0000
                                           -0.0000  0.0000  0.0000 -0.0000 -0.0000
                                            0.0000  0.0000 -0.0000 -0.0000  0.0000
                                            0.0000  0.0000  0.0000 -0.0000 -0.0000
    10. (1.99678) CR ( 7) I   2           s(  0.00%)p 0.00(  0.00%)d 1.00(100.00%)
                                           -0.0000 -0.0000 -0.0000 -0.0000  0.0000
                                           -0.0000 -0.0000 -0.0000  0.0000 -0.0000
                                            0.0000  0.0000  0.0000 -0.0000  0.0000
                                            0.0000 -0.0000 -0.0000  0.0000 -0.0000
                                            0.0000  0.0000 -0.0000  0.0000  0.0000
                                            0.0000 -0.0000  0.0000 -0.0000  1.0000
                                            0.0000 -0.0000  0.0000 -0.0000  0.0000
                                           -0.0000  0.0000  0.0000 -0.0000 -0.0000
                                            0.0000 -0.0000 -0.0000  0.0000  0.0000
                                           -0.0000 -0.0000  0.0000  0.0000 -0.0000
                                           -0.0000 -0.0000 -0.0000  0.0000  0.0000
    11. (1.99673) CR ( 8) I   2           s(  0.00%)p 0.00(  0.00%)d 1.00(100.00%)
                                           -0.0000  0.0000 -0.0000 -0.0000  0.0000
                                            0.0000  0.0000 -0.0001 -0.0000  0.0000
                                           -0.0000 -0.0000 -0.0000 -0.0000 -0.0000
                                            0.0000 -0.0000  0.0000  0.0000 -0.0000
                                            0.0000  0.0000  0.0000  0.0000 -0.0000
                                            0.0000 -0.0000  0.0000 -0.0000 -0.0000
                                           -0.0000 -0.0000  0.0000  1.0000  0.0000
                                           -0.0000 -0.0000  0.0000 -0.0000  0.0000
                                            0.0000 -0.0000 -0.0000  0.0000  0.0000
                                           -0.0000 -0.0000  0.0000  0.0000  0.0000
                                           -0.0000 -0.0000 -0.0000  0.0000  0.0000
    12. (1.99676) CR ( 9) I   2           s(  0.00%)p 0.00(  0.00%)d 1.00(100.00%)
                                            0.0000 -0.0000  0.0000  0.0000 -0.0000
                                           -0.0000 -0.0000  0.0000 -0.0000 -0.0000
                                            0.0000  0.0000  0.0000  0.0000  0.0000
                                           -0.0000  0.0000 -0.0000 -0.0000  0.0000
                                           -0.0000 -0.0000 -0.0000 -0.0000  0.0000
                                           -0.0000  0.0000 -0.0000  0.0000  0.0000
                                            0.0000  0.0000 -0.0000  0.0000 -0.0000
                                            0.0000  0.0000  1.0000  0.0000 -0.0000
                                           -0.0000  0.0000  0.0000 -0.0000 -0.0000
                                            0.0000  0.0000 -0.0000 -0.0000 -0.0000
                                            0.0000  0.0000  0.0000 -0.0000 -0.0000
    13. (2.00000) CR ( 1)Cl   3           s(100.00%)
                                            1.0000  0.0000  0.0000 -0.0000 -0.0000
                                           -0.0000  0.0000  0.0000 -0.0000 -0.0000
                                            0.0000 -0.0000 -0.0000  0.0000  0.0000
                                           -0.0000  0.0000  0.0000 -0.0000 -0.0000
                                            0.0000 -0.0000  0.0000  0.0000  0.0000
                                            0.0000 -0.0000 -0.0000 -0.0000 -0.0000
                                           -0.0000  0.0000  0.0000 -0.0000  0.0000
                                           -0.0000 -0.0000  0.0000 -0.0000  0.0000
                                            0.0000 -0.0000 -0.0000 -0.0000 -0.0000
                                            0.0000 -0.0000  0.0000  0.0000 -0.0000
    14. (1.99982) CR ( 2)Cl   3           s(100.00%)p 0.00(  0.00%)
                                            0.0000  1.0000 -0.0004  0.0000  0.0000
                                            0.0000 -0.0000 -0.0001  0.0000  0.0000
                                           -0.0000  0.0000  0.0004 -0.0000 -0.0000
                                            0.0000 -0.0000 -0.0000 -0.0000  0.0000
                                           -0.0000  0.0000 -0.0000 -0.0000 -0.0000
                                           -0.0000  0.0000  0.0000  0.0000  0.0000
                                            0.0000 -0.0000 -0.0000  0.0000 -0.0000
                                            0.0000  0.0000 -0.0000  0.0000 -0.0000
                                           -0.0000  0.0000 -0.0000  0.0000  0.0000
                                           -0.0000  0.0000 -0.0000 -0.0000  0.0000
    15. (2.00003) CR ( 3)Cl   3           s(  0.00%)p 1.00(100.00%)
                                            0.0000 -0.0000 -0.0000  0.0000  0.0000
                                            0.0000  1.0000  0.0002  0.0000  0.0000
                                           -0.0000  0.0000  0.0001 -0.0000 -0.0000
                                            0.0000 -0.0000  0.0000  0.0000  0.0000
                                            0.0000  0.0000  0.0000  0.0000 -0.0000
                                            0.0000  0.0000  0.0000 -0.0000  0.0000
                                            0.0000 -0.0000 -0.0000  0.0000 -0.0000
                                            0.0000 -0.0000  0.0000  0.0000 -0.0000
                                           -0.0000  0.0000  0.0000 -0.0000  0.0000
                                           -0.0000  0.0000 -0.0000 -0.0000  0.0000
    16. (1.99997) CR ( 4)Cl   3           s(  0.00%)p 1.00(100.00%)
                                           -0.0000  0.0000  0.0001 -0.0000 -0.0000
                                           -0.0000  0.0000  0.0001 -0.0000 -0.0000
                                            0.0000  1.0000 -0.0003  0.0000  0.0000
                                           -0.0000  0.0000  0.0000  0.0000 -0.0000
                                            0.0000 -0.0000  0.0000  0.0000  0.0000
                                            0.0000 -0.0000 -0.0000 -0.0000 -0.0000
                                           -0.0000  0.0000 -0.0000 -0.0000  0.0000
                                           -0.0000 -0.0000  0.0000 -0.0000  0.0000
                                            0.0000 -0.0000  0.0000 -0.0000 -0.0000
                                            0.0000 -0.0000  0.0000  0.0000 -0.0000
    17. (2.00003) CR ( 5)Cl   3           s(  0.00%)p 1.00(100.00%)
                                            0.0000 -0.0000 -0.0000  0.0000  0.0000
                                           -0.0000 -0.0000  0.0000  0.0000 -0.0000
                                            0.0000  0.0000  0.0000 -0.0000  0.0000
                                           -0.0000  1.0000  0.0002  0.0000  0.0000
                                           -0.0000 -0.0000 -0.0000 -0.0000 -0.0000
                                           -0.0000 -0.0000 -0.0000  0.0000  0.0000
                                            0.0000 -0.0000 -0.0000  0.0000  0.0000
                                           -0.0000 -0.0000 -0.0000  0.0000 -0.0000
                                           -0.0000  0.0000 -0.0000  0.0000 -0.0000
                                            0.0000  0.0000  0.0000 -0.0000 -0.0000
    18. (1.96904) LP ( 1) O   1           s( 66.61%)p 0.50( 33.29%)d 0.00(  0.09%)
                                                  f 0.00(  0.00%)
                                            0.0002  0.8161  0.0104  0.0060 -0.0005
                                           -0.2751 -0.0053 -0.0031 -0.0025 -0.3343
                                           -0.0039 -0.0051 -0.0024 -0.3812 -0.0052
                                           -0.0040 -0.0016 -0.0158 -0.0009  0.0033
                                           -0.0099 -0.0000  0.0008 -0.0224 -0.0026
                                            0.0015  0.0030  0.0006  0.0013 -0.0062
                                           -0.0007  0.0010  0.0025 -0.0005 -0.0009
                                           -0.0002 -0.0022  0.0012  0.0025 -0.0011
                                           -0.0018  0.0006  0.0036 -0.0016  0.0001
                                            0.0005
    19. (1.95339) LP ( 2) O   1           s(  0.02%)p99.99( 99.74%)d13.87(  0.23%)
                                                  f 0.93(  0.02%)
                                           -0.0000 -0.0034  0.0112  0.0050 -0.0009
                                           -0.7140 -0.0142 -0.0039 -0.0025 -0.1871
                                           -0.0054 -0.0013 -0.0024  0.6724  0.0145
                                            0.0050  0.0039 -0.0268 -0.0021  0.0032
                                           -0.0144 -0.0034 -0.0021  0.0190  0.0029
                                           -0.0009 -0.0003  0.0036  0.0046  0.0296
                                           -0.0005 -0.0063  0.0006  0.0004  0.0057
                                           -0.0003  0.0007 -0.0006 -0.0079  0.0009
                                           -0.0036  0.0002  0.0046 -0.0019  0.0043
                                           -0.0005
    20. (1.98004) LP ( 1) I   2           s( 98.78%)p 0.01(  1.22%)d 0.00(  0.00%)
                                                  f 0.00(  0.00%)
                                            0.0000  0.9939  0.0001  0.0001 -0.0001
                                           -0.0000  0.0000  0.1048 -0.0006  0.0004
                                           -0.0002 -0.0000 -0.0028  0.0000  0.0000
                                           -0.0001 -0.0000 -0.0344  0.0006 -0.0002
                                            0.0002 -0.0000 -0.0001  0.0000 -0.0001
                                            0.0000 -0.0012  0.0005  0.0001  0.0000
                                           -0.0000  0.0000 -0.0000 -0.0000  0.0013
                                           -0.0006  0.0000  0.0000 -0.0006  0.0003
                                           -0.0001 -0.0004 -0.0004  0.0003  0.0002
                                           -0.0000 -0.0000  0.0006  0.0006  0.0000
                                            0.0001 -0.0005 -0.0004  0.0001  0.0001
    21. (1.95104) LP ( 2) I   2           s(  0.00%)p 1.00( 99.99%)d 0.00(  0.01%)
                                                  f 0.00(  0.00%)
                                           -0.0000  0.0051  0.0001 -0.0007  0.0010
                                           -0.0001 -0.0000 -0.0665  0.0002 -0.0000
                                           -0.0000  0.0001  0.9887 -0.0000  0.0006
                                            0.0001 -0.0000 -0.1339  0.0001 -0.0001
                                            0.0002  0.0000 -0.0059  0.0014  0.0005
                                           -0.0000  0.0002  0.0003 -0.0003 -0.0000
                                            0.0038 -0.0018  0.0014 -0.0000  0.0010
                                           -0.0005  0.0005  0.0000 -0.0005  0.0002
                                           -0.0000 -0.0001 -0.0002  0.0003  0.0003
                                           -0.0001 -0.0000  0.0001  0.0003 -0.0018
                                           -0.0016 -0.0003 -0.0002  0.0019  0.0012
    22. (1.95041) LP ( 3) I   2           s(  0.00%)p 1.00( 99.99%)d 0.00(  0.00%)
                                                  f 0.00(  0.00%)
                                            0.0000  0.0057  0.0006 -0.0027  0.0029
                                           -0.0002 -0.0000 -0.3606  0.0017  0.0002
                                           -0.0004 -0.0000 -0.1489  0.0000 -0.0001
                                            0.0002 -0.0001 -0.9207  0.0008 -0.0007
                                            0.0004 -0.0000  0.0008 -0.0001 -0.0002
                                           -0.0000  0.0023  0.0005 -0.0014  0.0000
                                           -0.0006  0.0002 -0.0003 -0.0000 -0.0002
                                            0.0001 -0.0009  0.0000 -0.0040  0.0019
                                           -0.0012 -0.0001 -0.0005  0.0023  0.0019
                                            0.0000  0.0000 -0.0003  0.0004  0.0003
                                            0.0004 -0.0004 -0.0001 -0.0002  0.0000
    23. (1.92072) LP ( 4) I   2           s(  1.21%)p81.56( 98.75%)d 0.03(  0.04%)
                                                  f 0.00(  0.00%)
                                           -0.0001  0.1100 -0.0006 -0.0009  0.0005
                                            0.0003  0.0002 -0.9242 -0.0004  0.0012
                                           -0.0001 -0.0000 -0.0134 -0.0005 -0.0002
                                            0.0008 -0.0001  0.3648  0.0032 -0.0005
                                            0.0005  0.0000  0.0001  0.0003 -0.0002
                                            0.0001 -0.0156  0.0035 -0.0010 -0.0000
                                           -0.0002  0.0000  0.0000 -0.0001  0.0105
                                           -0.0012 -0.0014  0.0000 -0.0030  0.0003
                                            0.0008 -0.0027 -0.0019  0.0006  0.0008
                                           -0.0000 -0.0001  0.0037  0.0024  0.0000
                                           -0.0001 -0.0024 -0.0013  0.0001  0.0005
    24. (1.97444) LP ( 1)Cl   3           s( 91.94%)p 0.09(  8.04%)d 0.00(  0.02%)
                                                  f 0.00(  0.00%)
                                            0.0000  0.0003  0.9588  0.0070  0.0012
                                            0.0004 -0.0000 -0.0533 -0.0003  0.0002
                                            0.0003  0.0000  0.2769 -0.0066 -0.0027
                                            0.0010  0.0000  0.0280  0.0009  0.0001
                                            0.0002  0.0047 -0.0002  0.0003  0.0008
                                            0.0002 -0.0003  0.0005  0.0005  0.0006
                                            0.0107 -0.0004  0.0000  0.0084  0.0008
                                            0.0003 -0.0003  0.0001  0.0007 -0.0001
                                           -0.0024 -0.0003 -0.0000 -0.0001 -0.0006
                                            0.0003  0.0017  0.0003 -0.0027 -0.0001
    25. (1.95615) LP ( 2)Cl   3           s(  0.02%)p99.99( 99.92%)d 1.86(  0.05%)
                                                  f 0.36(  0.01%)
                                            0.0000  0.0000  0.0133 -0.0072 -0.0034
                                            0.0017 -0.0001  0.6275  0.0086  0.0028
                                           -0.0003 -0.0000  0.1525  0.0020 -0.0003
                                            0.0009  0.0001 -0.7629 -0.0117 -0.0033
                                            0.0014  0.0025  0.0088  0.0044  0.0057
                                            0.0075  0.0031 -0.0021 -0.0111 -0.0064
                                           -0.0042 -0.0069 -0.0041 -0.0005  0.0007
                                            0.0002  0.0030  0.0004 -0.0018  0.0003
                                            0.0003 -0.0004  0.0057 -0.0015  0.0025
                                           -0.0004 -0.0038  0.0005 -0.0042  0.0011
    26. (1.95474) LP ( 3)Cl   3           s(  0.08%)p99.99( 99.88%)d 0.47(  0.04%)
                                                  f 0.11(  0.01%)
                                            0.0000 -0.0000  0.0276  0.0039  0.0035
                                           -0.0015  0.0001 -0.7429 -0.0099 -0.0012
                                            0.0002  0.0000 -0.1736 -0.0024 -0.0006
                                           -0.0008  0.0001 -0.6454 -0.0100 -0.0014
                                            0.0004  0.0053 -0.0075 -0.0043 -0.0003
                                            0.0039  0.0025  0.0037 -0.0077 -0.0050
                                            0.0052  0.0088  0.0053 -0.0025 -0.0029
                                           -0.0002  0.0038 -0.0003  0.0003  0.0008
                                            0.0010  0.0001  0.0035 -0.0001  0.0028
                                           -0.0006  0.0049 -0.0008  0.0052 -0.0007
    27. (0.01955) RY*( 1) O   1           s(  0.19%)p99.99( 97.94%)d 9.86(  1.82%)
                                                  f 0.30(  0.06%)
                                           -0.0000 -0.0007  0.0426  0.0056  0.0007
                                            0.0190 -0.7125  0.0285  0.0085  0.0078
                                           -0.1881  0.0067 -0.0043 -0.0186  0.6588
                                           -0.0251  0.0001 -0.0772 -0.0174 -0.0018
                                           -0.0347 -0.0107 -0.0061  0.0522  0.0170
                                            0.0053 -0.0070  0.0065  0.0060  0.0859
                                            0.0059 -0.0064 -0.0026  0.0019  0.0060
                                           -0.0061  0.0033 -0.0017 -0.0100  0.0083
                                           -0.0047  0.0034  0.0114 -0.0082  0.0052
                                           -0.0054
    28. (0.01509) RY*( 2) O   1           s( 28.84%)p 2.34( 67.35%)d 0.12(  3.50%)
                                                  f 0.01(  0.32%)
                                           -0.0000  0.0007  0.5340 -0.0568 -0.0038
                                            0.0031 -0.3537  0.0049  0.0208  0.0421
                                           -0.4872 -0.0029  0.0319  0.0076 -0.5543
                                            0.0077  0.0206 -0.0883 -0.0164 -0.0063
                                           -0.0298 -0.0017  0.0077 -0.1491 -0.0245
                                           -0.0080  0.0543  0.0003 -0.0031 -0.0077
                                            0.0009  0.0024  0.0115 -0.0082  0.0217
                                           -0.0100 -0.0197  0.0091  0.0268 -0.0122
                                           -0.0083  0.0054  0.0266 -0.0127 -0.0101
                                            0.0035
    29. (0.00772) RY*( 3) O   1           s( 13.21%)p 0.37(  4.84%)d 6.08( 80.33%)
                                                  f 0.12(  1.62%)
                                            0.0000  0.0132  0.3602 -0.0457  0.0100
                                            0.0067  0.1487 -0.0079  0.0552 -0.0178
                                           -0.1014  0.0023  0.0295 -0.0038  0.1062
                                           -0.0082  0.0167  0.5905 -0.0113 -0.0040
                                           -0.2792  0.0033 -0.0126  0.4076  0.0070
                                            0.0061 -0.4300 -0.0089 -0.0246  0.1568
                                           -0.0048  0.0022 -0.0083  0.0016 -0.0166
                                           -0.0002  0.0143 -0.0026 -0.0739  0.0293
                                            0.0278 -0.0118 -0.0760  0.0266 -0.0389
                                            0.0200
    30. (0.00713) RY*( 4) O   1           s(  1.17%)p 0.36(  0.42%)d82.92( 96.66%)
                                                  f 1.50(  1.75%)
                                           -0.0000  0.0061  0.1076 -0.0041 -0.0044
                                            0.0141  0.0560  0.0087 -0.0028 -0.0007
                                           -0.0127  0.0058  0.0096 -0.0100 -0.0127
                                           -0.0089  0.0138 -0.3056  0.0234 -0.0009
                                           -0.2416  0.0133 -0.0028  0.7295 -0.0355
                                            0.0012  0.4185 -0.0244  0.0043 -0.3233
                                            0.0179 -0.0085 -0.0781  0.0325 -0.0188
                                            0.0079  0.0216 -0.0086 -0.0556  0.0219
                                           -0.0157  0.0075  0.0523 -0.0247  0.0438
                                           -0.0162
    31. (0.00629) RY*( 5) O   1           s(  0.11%)p45.33(  4.84%)d99.99( 93.52%)
                                                  f14.28(  1.53%)
                                           -0.0000  0.0010  0.0283 -0.0162 -0.0022
                                            0.0416  0.2009 -0.0127  0.0038 -0.0018
                                           -0.0716 -0.0027  0.0233 -0.0144  0.0167
[...]
                                            0.5266 -0.4050 -0.0172 -0.4791 -0.0240
                                            0.1123 -0.2449 -0.0998  0.2975  0.0249
                                            0.1492  0.0890 -0.0783  0.0481  0.2152
                                            0.0771 -0.1769  0.0892
   157. (0.00036) RY*( 7) H   4           s(  6.80%)p 8.55( 58.12%)d 5.16( 35.09%)
                                            0.0053  0.0459 -0.0901  0.2402 -0.0514
                                            0.0008 -0.4566  0.0373  0.5215 -0.0420
                                           -0.1372  0.2730 -0.0402  0.1524 -0.0904
                                           -0.2596  0.1623 -0.1018 -0.0806  0.3803
                                            0.1485 -0.1968 -0.0587
   158. (0.00029) RY*( 8) H   4           s( 28.60%)p 1.45( 41.45%)d 1.05( 29.95%)
                                            0.0043 -0.0307  0.5190 -0.1251 -0.0284
                                            0.4481 -0.1054  0.0046  0.3699 -0.0866
                                            0.0307 -0.0839 -0.2224 -0.2620 -0.0817
                                            0.0640  0.1303  0.2981 -0.1217 -0.2962
                                            0.0121 -0.0706  0.0813
   159. (0.00026) RY*( 9) H   4           s(  3.32%)p 3.08( 10.22%)d26.07( 86.47%)
                                           -0.0019  0.0337 -0.0476  0.1725 -0.0521
                                            0.0517 -0.0047  0.0833 -0.2456  0.0086
                                            0.0146 -0.1209  0.1208 -0.5860  0.0825
                                           -0.3900  0.0162  0.4279  0.0883  0.3998
                                           -0.0637 -0.0805  0.0295
   160. (0.00022) RY*(10) H   4           s( 15.08%)p 2.17( 32.65%)d 3.47( 52.28%)
                                            0.0129  0.0355 -0.1031  0.3724 -0.0450
                                            0.4315  0.2533 -0.0994 -0.0223 -0.1291
                                            0.0520  0.0864  0.1921  0.2659  0.0373
                                           -0.5462 -0.0288 -0.0403  0.0174 -0.3728
                                           -0.0904  0.0460 -0.0172
   161. (0.00019) RY*(11) H   4           s( 17.11%)p 3.00( 51.24%)d 1.85( 31.65%)
                                           -0.0140 -0.0632  0.3821  0.1445 -0.1311
                                           -0.1599  0.2131 -0.0332  0.1832  0.0082
                                           -0.0140 -0.6230  0.0348  0.2458  0.0154
                                           -0.1339 -0.1263 -0.1901 -0.0474  0.2920
                                           -0.1733 -0.1207  0.2318
   162. (0.00015) RY*(12) H   4           s( 10.76%)p 4.33( 46.64%)d 3.96( 42.59%)
                                           -0.0107 -0.0024  0.0509  0.3239  0.0436
                                           -0.3345 -0.2848 -0.0504 -0.0962 -0.3351
                                           -0.1298 -0.2327  0.2765  0.0403  0.0677
                                            0.1794  0.1211  0.2232  0.0429 -0.3664
                                            0.0085 -0.3642 -0.2329
   163. (0.00013) RY*(13) H   4           s( 19.92%)p 2.23( 44.32%)d 1.80( 35.77%)
                                           -0.0108 -0.0988 -0.2684  0.3424 -0.0480
                                           -0.1397 -0.0232 -0.0049  0.0032 -0.2207
                                            0.0685 -0.2150 -0.5667 -0.0281  0.0816
                                            0.0272  0.3597  0.0422  0.0239 -0.0742
                                            0.0430  0.4000  0.2244
   164. (0.00013) RY*(14) H   4           s(  4.45%)p 5.47( 24.34%)d16.00( 71.21%)
                                           -0.0068 -0.0296  0.1718 -0.1186 -0.0109
                                            0.0138 -0.2729  0.0329  0.0545 -0.0920
                                            0.0748 -0.2706  0.2779 -0.0796  0.1299
                                           -0.1702 -0.0808 -0.1699  0.0954 -0.0101
                                            0.4291  0.5755 -0.3163
   165. (0.00010) RY*(15) H   4           s(  2.48%)p19.06( 47.26%)d20.27( 50.26%)
   166. (0.00007) RY*(16) H   4           s(  0.50%)p18.38(  9.25%)d99.99( 90.24%)
   167. (0.00007) RY*(17) H   4           s(  1.01%)p 2.70(  2.74%)d94.90( 96.24%)
   168. (0.00005) RY*(18) H   4           s(  2.96%)p 4.43( 13.10%)d28.36( 83.94%)
   169. (0.00005) RY*(19) H   4           s( 33.00%)p 0.55( 18.17%)d 1.48( 48.83%)
   170. (0.00005) RY*(20) H   4           s(  3.13%)p 8.01( 25.11%)d22.89( 71.75%)
   171. (0.00003) RY*(21) H   4           s(  8.75%)p 3.99( 34.89%)d 6.44( 56.36%)
   172. (0.00003) RY*(22) H   4           s(  4.37%)p 5.36( 23.42%)d16.54( 72.22%)
   173. (0.05907) BD*( 1) O   1 -Cl   3  
                ( 40.50%)   0.6364* O   1 s( 10.03%)p 8.92( 89.40%)d 0.06(  0.56%)
                                                  f 0.00(  0.02%)
                                           -0.0003 -0.3140  0.0391  0.0124  0.0021
                                            0.2209 -0.0242 -0.0054 -0.0021 -0.9183
                                            0.0158  0.0074  0.0085 -0.0236 -0.0212
                                           -0.0038  0.0006  0.0138  0.0016  0.0021
                                           -0.0090 -0.0011  0.0009 -0.0240 -0.0033
                                            0.0004  0.0597  0.0048  0.0001  0.0330
                                            0.0025  0.0005  0.0002 -0.0005 -0.0015
                                           -0.0005  0.0062  0.0000  0.0036 -0.0019
                                           -0.0058  0.0011 -0.0057 -0.0008  0.0074
                                           -0.0010
                ( 59.50%)  -0.7714*Cl   3 s(  8.28%)p10.92( 90.42%)d 0.14(  1.19%)
                                                  f 0.01(  0.11%)
                                            0.0000 -0.0005 -0.2812  0.0599  0.0098
                                            0.0033 -0.0001 -0.2216  0.0140  0.0041
                                           -0.0009  0.0004  0.9221 -0.0666 -0.0127
                                            0.0028 -0.0000 -0.0039  0.0003  0.0024
                                           -0.0012  0.0465 -0.0053 -0.0000 -0.0082
                                           -0.0007  0.0009  0.0118  0.0015  0.0010
                                            0.0808 -0.0092 -0.0006  0.0533 -0.0057
                                            0.0003  0.0008 -0.0002  0.0045 -0.0005
                                           -0.0193  0.0023 -0.0002  0.0007  0.0021
                                           -0.0015  0.0175 -0.0027 -0.0199  0.0024
   174. (0.04476) BD*( 1) O   1 - H   4  
                ( 23.13%)   0.4810* O   1 s( 23.46%)p 3.24( 75.99%)d 0.02(  0.54%)
                                                  f 0.00(  0.01%)
                                           -0.0002 -0.4843  0.0042  0.0065 -0.0018
                                           -0.6003  0.0139  0.0060  0.0012  0.0354
                                           -0.0149 -0.0013 -0.0016 -0.6306  0.0082
                                            0.0061  0.0032 -0.0176 -0.0037 -0.0012
                                           -0.0600 -0.0030  0.0005 -0.0206 -0.0037
                                           -0.0003 -0.0208 -0.0015 -0.0021 -0.0240
                                           -0.0030 -0.0020  0.0061 -0.0009 -0.0069
                                           -0.0010 -0.0017  0.0008 -0.0032 -0.0024
                                            0.0002  0.0008  0.0027 -0.0020  0.0017
                                           -0.0001
                ( 76.87%)  -0.8767* H   4 s( 99.82%)p 0.00(  0.18%)d 0.00(  0.00%)
                                           -0.9990 -0.0168 -0.0007  0.0002 -0.0008
                                            0.0210  0.0056 -0.0102 -0.0018  0.0040
                                           -0.0257  0.0216  0.0053 -0.0010 -0.0008
                                           -0.0020  0.0003 -0.0015 -0.0019 -0.0002
                                            0.0020  0.0007  0.0014


 NHO Directionality and "Bond Bending" (deviations from line of nuclear centers)

         [Thresholds for printing:  angular deviation  >  1.0 degree]
                                    hybrid p-character > 25.0%
                                    orbital occupancy  >  0.10e

                                Line of Centers        Hybrid 1              Hybrid 2
                                ---------------  -------------------   ------------------
                NBO               Theta   Phi    Theta   Phi    Dev    Theta   Phi    Dev
 ========================================================================================
     1. BD (   1) O   1 -Cl   3    90.0  103.2    87.0  102.0   3.3      --     --    --
     2. BD (   1) O   1 - H   4    45.0    0.0    43.4  358.3   2.0      --     --    --
    18. LP (   1) O   1             --     --    131.1  230.4   --       --     --    --
    19. LP (   2) O   1             --     --     47.5  195.0   --       --     --    --
    21. LP (   2) I   2             --     --     97.7   93.8   --       --     --    --
    22. LP (   3) I   2             --     --    157.1  202.5   --       --     --    --
    23. LP (   4) I   2             --     --     68.3  180.8   --       --     --    --
    25. LP (   2)Cl   3             --     --    139.8   13.7   --       --     --    --
    26. LP (   3)Cl   3             --     --    130.3  193.2   --       --     --    --


 Natural Bond Orbitals (Summary):

           NBO                  Occupancy  
 -----------------------------------------------
 Molecular unit  1  (HOCl)
     1. BD (   1) O   1 -Cl   3          1.93987
     2. BD (   1) O   1 - H   4          1.96369
     3. CR (   1) O   1                  1.99971
    13. CR (   1)Cl   3                  2.00000
    14. CR (   2)Cl   3                  1.99982
    15. CR (   3)Cl   3                  2.00003
    16. CR (   4)Cl   3                  1.99997
    17. CR (   5)Cl   3                  2.00003
    18. LP (   1) O   1                  1.96904
    19. LP (   2) O   1                  1.95339
    24. LP (   1)Cl   3                  1.97444
    25. LP (   2)Cl   3                  1.95615
    26. LP (   3)Cl   3                  1.95474
    27. RY*(   1) O   1                  0.01955
    28. RY*(   2) O   1                  0.01509
    29. RY*(   3) O   1                  0.00772
    30. RY*(   4) O   1                  0.00713
    31. RY*(   5) O   1                  0.00629
    32. RY*(   6) O   1                  0.00614
    33. RY*(   7) O   1                  0.00573
    34. RY*(   8) O   1                  0.00273
    35. RY*(   9) O   1                  0.00246
    36. RY*(  10) O   1                  0.00080
    37. RY*(  11) O   1                  0.00073
    38. RY*(  12) O   1                  0.00064
    39. RY*(  13) O   1                  0.00058
    40. RY*(  14) O   1                  0.00051
    41. RY*(  15) O   1                  0.00050
    42. RY*(  16) O   1                  0.00050
    43. RY*(  17) O   1                  0.00048
    44. RY*(  18) O   1                  0.00046
    45. RY*(  19) O   1                  0.00047
    46. RY*(  20) O   1                  0.00045
    47. RY*(  21) O   1                  0.00044
    48. RY*(  22) O   1                  0.00041
    49. RY*(  23) O   1                  0.00034
    50. RY*(  24) O   1                  0.00031
    51. RY*(  25) O   1                  0.00025
    52. RY*(  26) O   1                  0.00021
    53. RY*(  27) O   1                  0.00015
    54. RY*(  28) O   1                  0.00014
    55. RY*(  29) O   1                  0.00012
    56. RY*(  30) O   1                  0.00012
    57. RY*(  31) O   1                  0.00009
    58. RY*(  32) O   1                  0.00009
    59. RY*(  33) O   1                  0.00009
    60. RY*(  34) O   1                  0.00007
    61. RY*(  35) O   1                  0.00008
    62. RY*(  36) O   1                  0.00007
    63. RY*(  37) O   1                  0.00007
    64. RY*(  38) O   1                  0.00005
    65. RY*(  39) O   1                  0.00005
    66. RY*(  40) O   1                  0.00004
    67. RY*(  41) O   1                  0.00002
   110. RY*(   1)Cl   3                  0.02203
   111. RY*(   2)Cl   3                  0.01743
   112. RY*(   3)Cl   3                  0.01685
   113. RY*(   4)Cl   3                  0.01628
   114. RY*(   5)Cl   3                  0.01169
   115. RY*(   6)Cl   3                  0.00910
   116. RY*(   7)Cl   3                  0.00890
   117. RY*(   8)Cl   3                  0.00622
   118. RY*(   9)Cl   3                  0.00175
   119. RY*(  10)Cl   3                  0.00127
   120. RY*(  11)Cl   3                  0.00127
   121. RY*(  12)Cl   3                  0.00119
   122. RY*(  13)Cl   3                  0.00119
   123. RY*(  14)Cl   3                  0.00116
   124. RY*(  15)Cl   3                  0.00109
   125. RY*(  16)Cl   3                  0.00093
   126. RY*(  17)Cl   3                  0.00077
   127. RY*(  18)Cl   3                  0.00075
   128. RY*(  19)Cl   3                  0.00061
   129. RY*(  20)Cl   3                  0.00055
   130. RY*(  21)Cl   3                  0.00042
   131. RY*(  22)Cl   3                  0.00038
   132. RY*(  23)Cl   3                  0.00033
   133. RY*(  24)Cl   3                  0.00032
   134. RY*(  25)Cl   3                  0.00019
   135. RY*(  26)Cl   3                  0.00016
   136. RY*(  27)Cl   3                  0.00016
   137. RY*(  28)Cl   3                  0.00013
   138. RY*(  29)Cl   3                  0.00011
   139. RY*(  30)Cl   3                  0.00012
   140. RY*(  31)Cl   3                  0.00011
   141. RY*(  32)Cl   3                  0.00010
   142. RY*(  33)Cl   3                  0.00010
   143. RY*(  34)Cl   3                  0.00010
   144. RY*(  35)Cl   3                  0.00011
   145. RY*(  36)Cl   3                  0.00009
   146. RY*(  37)Cl   3                  0.00007
   147. RY*(  38)Cl   3                  0.00007
   148. RY*(  39)Cl   3                  0.00003
   149. RY*(  40)Cl   3                  0.00004
   150. RY*(  41)Cl   3                  0.00002
   151. RY*(   1) H   4                  0.00746
   152. RY*(   2) H   4                  0.00446
   153. RY*(   3) H   4                  0.00279
   154. RY*(   4) H   4                  0.00251
   155. RY*(   5) H   4                  0.00063
   156. RY*(   6) H   4                  0.00045
   157. RY*(   7) H   4                  0.00036
   158. RY*(   8) H   4                  0.00029
   159. RY*(   9) H   4                  0.00026
   160. RY*(  10) H   4                  0.00022
   161. RY*(  11) H   4                  0.00019
   162. RY*(  12) H   4                  0.00015
   163. RY*(  13) H   4                  0.00013
   164. RY*(  14) H   4                  0.00013
   165. RY*(  15) H   4                  0.00010
   166. RY*(  16) H   4                  0.00007
   167. RY*(  17) H   4                  0.00007
   168. RY*(  18) H   4                  0.00005
   169. RY*(  19) H   4                  0.00005
   170. RY*(  20) H   4                  0.00005
   171. RY*(  21) H   4                  0.00003
   172. RY*(  22) H   4                  0.00003
   173. BD*(   1) O   1 -Cl   3          0.05907
   174. BD*(   1) O   1 - H   4          0.04476
       -------------------------------
              Total Lewis   25.71088  ( 98.7302%)
        Valence non-Lewis    0.10382  (  0.3987%)
        Rydberg non-Lewis    0.22684  (  0.8711%)
       -------------------------------
            Total unit  1   26.04155  (100.0000%)
           Charge unit  1   -0.04155

 Molecular unit  2  (I)
     4. CR (   1) I   2                  2.00002
     5. CR (   2) I   2                  2.00003
     6. CR (   3) I   2                  2.00007
     7. CR (   4) I   2                  2.00006
     8. CR (   5) I   2                  1.99676
     9. CR (   6) I   2                  1.99675
    10. CR (   7) I   2                  1.99678
    11. CR (   8) I   2                  1.99673
    12. CR (   9) I   2                  1.99676
    20. LP (   1) I   2                  1.98004
    21. LP (   2) I   2                  1.95104
    22. LP (   3) I   2                  1.95041
    23. LP (   4) I   2                  1.92072
    68. RY*(   1) I   2                  0.02052
    69. RY*(   2) I   2                  0.02049
    70. RY*(   3) I   2                  0.02027
    71. RY*(   4) I   2                  0.02027
    72. RY*(   5) I   2                  0.02009
    73. RY*(   6) I   2                  0.01118
    74. RY*(   7) I   2                  0.01116
    75. RY*(   8) I   2                  0.01012
    76. RY*(   9) I   2                  0.00422
    77. RY*(  10) I   2                  0.00279
    78. RY*(  11) I   2                  0.00279
    79. RY*(  12) I   2                  0.00277
    80. RY*(  13) I   2                  0.00277
    81. RY*(  14) I   2                  0.00273
    82. RY*(  15) I   2                  0.00274
    83. RY*(  16) I   2                  0.00271
    84. RY*(  17) I   2                  0.00169
    85. RY*(  18) I   2                  0.00168
    86. RY*(  19) I   2                  0.00150
    87. RY*(  20) I   2                  0.00148
    88. RY*(  21) I   2                  0.00132
    89. RY*(  22) I   2                  0.00075
    90. RY*(  23) I   2                  0.00075
    91. RY*(  24) I   2                  0.00072
    92. RY*(  25) I   2                  0.00049
    93. RY*(  26) I   2                  0.00047
    94. RY*(  27) I   2                  0.00044
    95. RY*(  28) I   2                  0.00044
    96. RY*(  29) I   2                  0.00043
    97. RY*(  30) I   2                  0.00042
    98. RY*(  31) I   2                  0.00042
    99. RY*(  32) I   2                  0.00038
   100. RY*(  33) I   2                  0.00024
   101. RY*(  34) I   2                  0.00021
   102. RY*(  35) I   2                  0.00017
   103. RY*(  36) I   2                  0.00015
   104. RY*(  37) I   2                  0.00014
   105. RY*(  38) I   2                  0.00012
   106. RY*(  39) I   2                  0.00009
   107. RY*(  40) I   2                  0.00009
   108. RY*(  41) I   2                  0.00007
   109. RY*(  42) I   2                  0.00000
       -------------------------------
              Total Lewis   53.78616  ( 99.6807%)
        Valence non-Lewis    0.00000  (  0.0000%)
        Rydberg non-Lewis    0.17229  (  0.3193%)
       -------------------------------
            Total unit  2   53.95845  (100.0000%)
           Charge unit  2   -0.95845
 Leave Link  607 at Tue Sep 28 09:17:59 2021, MaxMem= 16106127360 cpu:              62.3 elap:               2.3
 (Enter /sw/contrib/gaussian/g16/B01/g16/l9999.exe)
 1\1\GINC-N2398\SP\RMP2-FC\Gen\Cl1H1I1O1(1-)\CGAVINH\28-Sep-2021\0\\#p 
 pop=NBO SP NoSymm mp2/gen Pseudo=read density=current\\title\\-1,1\O,0
 ,0.,0.,0.\I,0,3.31229841,0.,0.\Cl,0,-0.386418759,1.641656518,0.\H,0,0.
 693756605,0.,0.69419501\\Version=ES64L-G16RevB.01\HF=-829.6750903\MP2=
 -830.3535356\RMSD=7.271e-09\Dipole=-2.3646275,0.8734457,0.251548\Quadr
 upole=-24.2271741,11.859518,12.3676561,0.305954,-0.0151513,-0.1688282\
 PG=C01 [X(Cl1H1I1O1)]\\@


 GARBAGE IN, GARBAGE OUT
 Job cpu time:       0 days  0 hours  5 minutes 27.7 seconds.
 Elapsed time:       0 days  0 hours  0 minutes 17.6 seconds.
 File lengths (MBytes):  RWF=     15 Int=      0 D2E=      0 Chk=      8 Scr=      1
 Normal termination of Gaussian 16 at Tue Sep 28 09:18:00 2021.
