 Entering Gaussian System, Link 0=g16
 Input=ihocl-.gjf
 Output=ihocl-.log
 Initial command:
 /sw/contrib/gaussian/g16/B01/g16/l1.exe "/scr/Gau-24567.inp" -scrdir="/scr/"
 Entering Link 1 = /sw/contrib/gaussian/g16/B01/g16/l1.exe PID=     24568.
  
 Copyright (c) 1988-2017, Gaussian, Inc.  All Rights Reserved.
  
 This is part of the Gaussian(R) 16 program.  It is based on
 the Gaussian(R) 09 system (copyright 2009, Gaussian, Inc.),
 the Gaussian(R) 03 system (copyright 2003, Gaussian, Inc.),
 the Gaussian(R) 98 system (copyright 1998, Gaussian, Inc.),
 the Gaussian(R) 94 system (copyright 1995, Gaussian, Inc.),
 the Gaussian 92(TM) system (copyright 1992, Gaussian, Inc.),
 the Gaussian 90(TM) system (copyright 1990, Gaussian, Inc.),
 the Gaussian 88(TM) system (copyright 1988, Gaussian, Inc.),
 the Gaussian 86(TM) system (copyright 1986, Carnegie Mellon
 University), and the Gaussian 82(TM) system (copyright 1983,
 Carnegie Mellon University). Gaussian is a federally registered
 trademark of Gaussian, Inc.
  
 This software contains proprietary and confidential information,
 including trade secrets, belonging to Gaussian, Inc.
  
 This software is provided under written license and may be
 used, copied, transmitted, or stored only in accord with that
 written license.
  
 The following legend is applicable only to US Government
 contracts under FAR:
  
                    RESTRICTED RIGHTS LEGEND
  
 Use, reproduction and disclosure by the US Government is
 subject to restrictions as set forth in subparagraphs (a)
 and (c) of the Commercial Computer Software - Restricted
 Rights clause in FAR 52.227-19.
  
 Gaussian, Inc.
 340 Quinnipiac St., Bldg. 40, Wallingford CT 06492
  
  
 ---------------------------------------------------------------
 Warning -- This program may not be used in any manner that
 competes with the business of Gaussian, Inc. or will provide
 assistance to any competitor of Gaussian, Inc.  The licensee
 of this program is prohibited from giving any competitor of
 Gaussian, Inc. access to this program.  By using this program,
 the user acknowledges that Gaussian, Inc. is engaged in the
 business of creating and licensing software in the field of
 computational chemistry and represents and warrants to the
 licensee that it is not a competitor of Gaussian, Inc. and that
 it will not use this program in any manner prohibited above.
 ---------------------------------------------------------------
  

 Cite this work as:
 Gaussian 16, Revision B.01,
 M. J. Frisch, G. W. Trucks, H. B. Schlegel, G. E. Scuseria, 
 M. A. Robb, J. R. Cheeseman, G. Scalmani, V. Barone, 
 G. A. Petersson, H. Nakatsuji, X. Li, M. Caricato, A. V. Marenich, 
 J. Bloino, B. G. Janesko, R. Gomperts, B. Mennucci, H. P. Hratchian, 
 J. V. Ortiz, A. F. Izmaylov, J. L. Sonnenberg, D. Williams-Young, 
 F. Ding, F. Lipparini, F. Egidi, J. Goings, B. Peng, A. Petrone, 
 T. Henderson, D. Ranasinghe, V. G. Zakrzewski, J. Gao, N. Rega, 
 G. Zheng, W. Liang, M. Hada, M. Ehara, K. Toyota, R. Fukuda, 
 J. Hasegawa, M. Ishida, T. Nakajima, Y. Honda, O. Kitao, H. Nakai, 
 T. Vreven, K. Throssell, J. A. Montgomery, Jr., J. E. Peralta, 
 F. Ogliaro, M. J. Bearpark, J. J. Heyd, E. N. Brothers, K. N. Kudin, 
 V. N. Staroverov, T. A. Keith, R. Kobayashi, J. Normand, 
 K. Raghavachari, A. P. Rendell, J. C. Burant, S. S. Iyengar, 
 J. Tomasi, M. Cossi, J. M. Millam, M. Klene, C. Adamo, R. Cammi, 
 J. W. Ochterski, R. L. Martin, K. Morokuma, O. Farkas, 
 J. B. Foresman, and D. J. Fox, Gaussian, Inc., Wallingford CT, 2016.
 
 ******************************************
 Gaussian 16:  ES64L-G16RevB.01 20-Dec-2017
                22-Jun-2021 
 ******************************************
 %nproc=28
 Will use up to   28 processors via shared memory.
 %mem=120GB
 %chk=/gscratch/ilahie/abmccoy/hocl/i_hocl.chk
 ---------------------------------------------
 # opt=(z-matrix) mp2/gen Pseudo=read freq=anh
 ---------------------------------------------
 1/10=7,18=40,38=1,80=1/1,3;
 2/12=2,17=6,18=5,29=3,40=1/2;
 3/5=7,11=9,16=1,17=8,25=1,30=1,71=1/1,2,3;
 4//1;
 5/5=2,38=5/2;
 8/6=4,10=1/1;
 9/15=2,16=-3/6;
 10/5=1/2;
 6/7=2,8=2,9=2,10=2/1;
 7/12=2,29=1/1,2,3,16;
 1/10=7,18=40,80=1/3(2);
 2/29=3/2;
 99//99;
 2/29=3/2;
 3/5=7,6=1,11=9,16=1,17=8,25=1,30=1,71=1,82=7/1,2,3;
 4/5=5,16=3,69=1/1;
 5/5=2,38=5/2;
 8/6=4,10=1/1;
 9/15=2,16=-3/6;
 10/5=1/2;
 7/12=2/1,2,3,16;
 1/18=40,80=1/3(-8);
 2/29=3/2;
 6/7=2,8=2,9=2,10=2/1;
 99/9=10/99;
 -----
 title
 -----
 Symbolic Z-matrix:
 Charge = -1 Multiplicity = 1
 O
 H                    1    r1
 Cl                   1    r2       2    a1
 I                    1    r3       3    a2       2    d1       0
       Variables:
  r1                    1.0177                   
  r2                    1.7223                   
  r3                    3.1159                   
  a1                  103.0297                   
  a2                  106.4911                   
  d1                   -0.0004                   
 

 GradGradGradGradGradGradGradGradGradGradGradGradGradGradGradGradGradGrad
 Berny optimization.
 Initialization pass.
                       ----------------------------
                       !    Initial Parameters    !
                       ! (Angstroms and Degrees)  !
 ----------------------                            ----------------------
 !      Name          Value   Derivative information (Atomic Units)     !
 ------------------------------------------------------------------------
 !       r1          1.0177   estimate D2E/DX2                          !
 !       r2          1.7223   estimate D2E/DX2                          !
 !       r3          3.1159   estimate D2E/DX2                          !
 !       a1        103.0297   estimate D2E/DX2                          !
 !       a2        106.4911   estimate D2E/DX2                          !
 !       d1         -0.0004   estimate D2E/DX2                          !
 ------------------------------------------------------------------------
 Trust Radius=3.00D-01 FncErr=1.00D-07 GrdErr=1.00D-07 EigMax=2.50D+02 EigMin=1.00D-04
 Number of steps in this run=     20 maximum allowed number of steps=    100.
 GradGradGradGradGradGradGradGradGradGradGradGradGradGradGradGradGradGrad

 ---------------------------------------------------------------------------------------------------
                            Z-MATRIX (ANGSTROMS AND DEGREES)
   CD    Cent   Atom    N1       Length/X        N2       Alpha/Y        N3        Beta/Z          J
 ---------------------------------------------------------------------------------------------------
      1      1  O 
      2      2  H        1   1.017700(     1)
      3      3  Cl       1   1.722300(     2)      2  103.030(     4)
      4      4  I        1   3.115900(     3)      3  106.491(     5)      2   -0.000(     6)      0
 ---------------------------------------------------------------------------------------------------
                         Z-Matrix orientation:                         
 ---------------------------------------------------------------------
 Center     Atomic      Atomic             Coordinates (Angstroms)
 Number     Number       Type             X           Y           Z
 ---------------------------------------------------------------------
      1          8           0        0.000000    0.000000    0.000000
      2          1           0        0.000000    0.000000    1.017700
      3         17           0        1.677957    0.000000   -0.388303
      4         53           0       -0.188126   -0.000021    3.110216
 ---------------------------------------------------------------------
                    Distance matrix (angstroms):
                    1          2          3          4
     1  O    0.000000
     2  H    1.017700   0.000000
     3  Cl   1.722300   2.189151   0.000000
     4  I    3.115900   2.100955   3.965085   0.000000
 Stoichiometry    ClHIO(1-)
 Framework group  C1[X(ClHIO)]
 Deg. of freedom     6
 Full point group                 C1      NOp   1
 Largest Abelian subgroup         C1      NOp   1
 Largest concise Abelian subgroup C1      NOp   1
                         Standard orientation:                         
 ---------------------------------------------------------------------
 Center     Atomic      Atomic             Coordinates (Angstroms)
 Number     Number       Type             X           Y           Z
 ---------------------------------------------------------------------
      1          8           0        1.757797    1.014525   -0.000001
      2          1           0        0.823420    0.611223    0.000007
      3         17           0        2.779262   -0.372171   -0.000000
      4         53           0       -1.172326   -0.045293   -0.000000
 ---------------------------------------------------------------------
 Rotational constants (GHZ):          23.0536102           1.0277011           0.9838426
 General basis read from cards:  (5D, 7F)
 ======================================================================================================
                                       Pseudopotential Parameters
 ======================================================================================================
  Center     Atomic      Valence      Angular      Power
  Number     Number     Electrons     Momentum     of R      Exponent        Coefficient   SO-Coeffient
 ======================================================================================================
    1          8
                                   No pseudopotential on this center.
    2          1
                                   No pseudopotential on this center.
    3         17
                                   No pseudopotential on this center.
    4         53           25
                                      G and up 
                                                     2        1.0000000        0.00000000    0.00000000
                                      S - G
                                                     2       40.0333760       49.98964900    0.00000000
                                                     2       17.3005760      281.00655600    0.00000000
                                                     2        8.8517200       61.41673900    0.00000000
                                      P - G
                                                     2       15.7201410       67.41623900    0.00000000
                                                     2       15.2082220      134.80769600    0.00000000
                                                     2        8.2941860       14.56654800    0.00000000
                                                     2        7.7539490       28.96842200    0.00000000
                                      D - G
                                                     2       13.8177510       35.53875600    0.00000000
                                                     2       13.5878050       53.33975900    0.00000000
                                                     2        6.9476300        9.71646600    0.00000000
                                                     2        6.9600990       14.97750000    0.00000000
                                      F - G
                                                     2       18.5229500      -20.17661800    0.00000000
                                                     2       18.2510350      -26.08807700    0.00000000
                                                     2        7.5579010       -0.22043400    0.00000000
                                                     2        7.5974040       -0.22164600    0.00000000
 ======================================================================================================
 There are   204 symmetry adapted cartesian basis functions of A   symmetry.
 There are   174 symmetry adapted basis functions of A   symmetry.
   174 basis functions,   383 primitive gaussians,   204 cartesian basis functions
    26 alpha electrons       26 beta electrons
       nuclear repulsion energy       147.0384879132 Hartrees.
 NAtoms=    4 NActive=    4 NUniq=    4 SFac= 1.00D+00 NAtFMM=   60 NAOKFM=F Big=F
 Integral buffers will be    131072 words long.
 Raffenetti 1 integral format.
 Two-electron integral symmetry is turned on.
 One-electron integrals computed using PRISM.
   1 Symmetry operations used in ECPInt.
 ECPInt:  NShTT=    1596 NPrTT=   10643 LenC2=    1597 LenP2D=    8462.
 LDataN:  DoStor=T MaxTD1= 7 Len=  274
 NBasis=   174 RedAO= T EigKep=  1.78D-04  NBF=   174
 NBsUse=   174 1.00D-06 EigRej= -1.00D+00 NBFU=   174
 ExpMin= 2.53D-02 ExpMax= 4.56D+05 ExpMxC= 1.44D+03 IAcc=3 IRadAn=         5 AccDes= 0.00D+00
 Harris functional with IExCor=  205 and IRadAn=       5 diagonalized for initial guess.
 HarFok:  IExCor=  205 AccDes= 0.00D+00 IRadAn=         5 IDoV= 1 UseB2=F ITyADJ=14
 ICtDFT=  3500011 ScaDFX=  1.000000  1.000000  1.000000  1.000000
 Defaulting to unpruned grid for atomic number  53.
 FoFCou: FMM=F IPFlag=           0 FMFlag=      100000 FMFlg1=           0
         NFxFlg=           0 DoJE=T BraDBF=F KetDBF=T FulRan=T
         wScrn=  0.000000 ICntrl=       500 IOpCl=  0 I1Cent=   200000004 NGrid=           0
         NMat0=    1 NMatS0=      1 NMatT0=    0 NMatD0=    1 NMtDS0=    0 NMtDT0=    0
 Petite list used in FoFCou.
 Keep R1 ints in memory in canonical form, NReq=173966767.
 Requested convergence on RMS density matrix=1.00D-08 within 128 cycles.
 Requested convergence on MAX density matrix=1.00D-06.
 Requested convergence on             energy=1.00D-06.
 No special actions if energy rises.
 SCF Done:  E(RHF) =  -829.677417800     A.U. after   14 cycles
            NFock= 14  Conv=0.29D-08     -V/T= 2.2850
 ExpMin= 2.53D-02 ExpMax= 4.56D+05 ExpMxC= 1.44D+03 IAcc=3 IRadAn=         5 AccDes= 0.00D+00
 HarFok:  IExCor=  205 AccDes= 0.00D+00 IRadAn=         5 IDoV=-2 UseB2=F ITyADJ=14
 ICtDFT= 12500011 ScaDFX=  1.000000  1.000000  1.000000  1.000000
 Defaulting to unpruned grid for atomic number  53.
 Range of M.O.s used for correlation:    11   174
 NBasis=   174 NAE=    26 NBE=    26 NFC=    10 NFV=     0
 NROrb=    164 NOA=    16 NOB=    16 NVA=   148 NVB=   148

 **** Warning!!: The largest alpha MO coefficient is  0.17704166D+02

 Fully direct method using O(ONN) memory.
 JobTyp=1 Pass  1:  I=  11 to  26 NPSUse= 28 ParTrn=T ParDer=T DoDerP=T.
 Spin components of T(2) and E(2):
     alpha-alpha T2 =       0.3206012499D-01 E2=     -0.9276378908D-01
     alpha-beta  T2 =       0.1684974423D+00 E2=     -0.5030373733D+00
     beta-beta   T2 =       0.3206012499D-01 E2=     -0.9276378908D-01
 ANorm=    0.1110233170D+01
 E2 =    -0.6885649515D+00 EUMP2 =    -0.83036598275134D+03
          IDoAtm=1111
          Differentiating once with respect to electric field.
                with respect to dipole field.
          Differentiating once with respect to nuclear coordinates.
 Keep R1 ints in memory in canonical form, NReq=173970767.
          There are     1 degrees of freedom in the 1st order CPHF.  IDoFFX=0 NUNeed=     1.
 LinEq1:  Iter=  0 NonCon=     1 RMS=3.05D-03 Max=4.95D-02 NDo=     1
 AX will form     1 AO Fock derivatives at one time.
 LinEq1:  Iter=  1 NonCon=     1 RMS=5.00D-04 Max=5.51D-03 NDo=     1
 LinEq1:  Iter=  2 NonCon=     1 RMS=2.49D-04 Max=6.59D-03 NDo=     1
 LinEq1:  Iter=  3 NonCon=     1 RMS=8.44D-05 Max=1.50D-03 NDo=     1
 LinEq1:  Iter=  4 NonCon=     1 RMS=3.97D-05 Max=1.13D-03 NDo=     1
 LinEq1:  Iter=  5 NonCon=     1 RMS=9.53D-06 Max=1.42D-04 NDo=     1
 LinEq1:  Iter=  6 NonCon=     1 RMS=2.15D-06 Max=2.91D-05 NDo=     1
 LinEq1:  Iter=  7 NonCon=     1 RMS=5.05D-07 Max=6.82D-06 NDo=     1
 LinEq1:  Iter=  8 NonCon=     1 RMS=1.18D-07 Max=2.25D-06 NDo=     1
 LinEq1:  Iter=  9 NonCon=     1 RMS=3.83D-08 Max=9.25D-07 NDo=     1
 LinEq1:  Iter= 10 NonCon=     1 RMS=1.12D-08 Max=1.59D-07 NDo=     1
 LinEq1:  Iter= 11 NonCon=     1 RMS=2.76D-09 Max=5.35D-08 NDo=     1
 LinEq1:  Iter= 12 NonCon=     1 RMS=7.48D-10 Max=1.13D-08 NDo=     1
 LinEq1:  Iter= 13 NonCon=     1 RMS=2.04D-10 Max=4.15D-09 NDo=     1
 LinEq1:  Iter= 14 NonCon=     0 RMS=3.54D-11 Max=4.38D-10 NDo=     1
 Linear equations converged to 1.000D-10 1.000D-09 after    14 iterations.
 End of Minotr F.D. properties file   721 does not exist.
 End of Minotr F.D. properties file   722 does not exist.
 End of Minotr F.D. properties file   788 does not exist.

 **********************************************************************

            Population analysis using the SCF Density.

 **********************************************************************

 Orbital symmetries:
       Occupied  (A) (A) (A) (A) (A) (A) (A) (A) (A) (A) (A) (A)
                 (A) (A) (A) (A) (A) (A) (A) (A) (A) (A) (A) (A)
                 (A) (A)
       Virtual   (A) (A) (A) (A) (A) (A) (A) (A) (A) (A) (A) (A)
                 (A) (A) (A) (A) (A) (A) (A) (A) (A) (A) (A) (A)
                 (A) (A) (A) (A) (A) (A) (A) (A) (A) (A) (A) (A)
                 (A) (A) (A) (A) (A) (A) (A) (A) (A) (A) (A) (A)
                 (A) (A) (A) (A) (A) (A) (A) (A) (A) (A) (A) (A)
                 (A) (A) (A) (A) (A) (A) (A) (A) (A) (A) (A) (A)
                 (A) (A) (A) (A) (A) (A) (A) (A) (A) (A) (A) (A)
                 (A) (A) (A) (A) (A) (A) (A) (A) (A) (A) (A) (A)
                 (A) (A) (A) (A) (A) (A) (A) (A) (A) (A) (A) (A)
                 (A) (A) (A) (A) (A) (A) (A) (A) (A) (A) (A) (A)
                 (A) (A) (A) (A) (A) (A) (A) (A) (A) (A) (A) (A)
                 (A) (A) (A) (A) (A) (A) (A) (A) (A) (A) (A) (A)
                 (A) (A) (A) (A)
 The electronic state is 1-A.
 Alpha  occ. eigenvalues -- -104.73334 -20.46643 -10.45258  -7.91963  -7.91713
 Alpha  occ. eigenvalues --   -7.91704  -7.48195  -5.30795  -5.30709  -5.30708
 Alpha  occ. eigenvalues --   -2.03577  -2.03509  -2.03509  -2.03422  -2.03422
 Alpha  occ. eigenvalues --   -1.21953  -0.90059  -0.65431  -0.53337  -0.43808
 Alpha  occ. eigenvalues --   -0.42704  -0.31344  -0.28757  -0.16837  -0.15748
 Alpha  occ. eigenvalues --   -0.15747
 Alpha virt. eigenvalues --    0.15387   0.17840   0.21520   0.22804   0.23917
 Alpha virt. eigenvalues --    0.24824   0.25240   0.27472   0.29831   0.30825
 Alpha virt. eigenvalues --    0.31136   0.31664   0.35335   0.37315   0.37855
 Alpha virt. eigenvalues --    0.39512   0.42459   0.42497   0.45459   0.50877
 Alpha virt. eigenvalues --    0.53385   0.54884   0.56151   0.56249   0.57471
 Alpha virt. eigenvalues --    0.59231   0.64404   0.66069   0.74191   0.75133
 Alpha virt. eigenvalues --    0.75661   0.77254   0.77560   0.78718   0.79004
 Alpha virt. eigenvalues --    0.82190   0.82364   0.83622   0.83772   0.86634
 Alpha virt. eigenvalues --    0.86950   0.87471   0.88291   0.90232   0.90634
 Alpha virt. eigenvalues --    0.94737   0.97070   0.97776   1.00961   1.01031
 Alpha virt. eigenvalues --    1.05510   1.09066   1.10141   1.12200   1.13166
 Alpha virt. eigenvalues --    1.15901   1.20661   1.21383   1.23296   1.26553
 Alpha virt. eigenvalues --    1.27095   1.32778   1.35431   1.42278   1.46288
 Alpha virt. eigenvalues --    1.52732   1.56452   1.56524   1.62219   1.62804
 Alpha virt. eigenvalues --    1.67301   1.71952   1.72062   1.73009   1.74000
 Alpha virt. eigenvalues --    1.74002   1.75828   1.77684   1.81873   1.85230
 Alpha virt. eigenvalues --    1.86492   1.91533   1.93774   1.96372   2.05037
 Alpha virt. eigenvalues --    2.05131   2.10162   2.14469   2.21348   2.36177
 Alpha virt. eigenvalues --    2.37740   2.50383   2.52963   2.53538   2.58135
 Alpha virt. eigenvalues --    2.60354   2.63317   2.68074   2.68947   2.71843
 Alpha virt. eigenvalues --    2.71987   2.74352   2.76154   2.78612   2.93534
 Alpha virt. eigenvalues --    2.98346   3.02249   3.07897   3.17913   3.18658
 Alpha virt. eigenvalues --    3.21303   3.26351   3.28687   3.29693   3.38384
 Alpha virt. eigenvalues --    3.43614   3.50863   3.52350   3.54106   3.85574
 Alpha virt. eigenvalues --    3.99239   4.29694   4.45476   4.52321   4.57699
 Alpha virt. eigenvalues --    4.76860   4.95333   5.02302   5.08008   5.31978
 Alpha virt. eigenvalues --    5.35380   5.61230   6.41837   6.57919   6.84410
 Alpha virt. eigenvalues --    6.90026   6.90993   6.98299   7.27180   7.32964
 Alpha virt. eigenvalues --    7.32976   7.44176   7.55086   7.75027   7.78042
 Alpha virt. eigenvalues --    8.31322  14.56682  59.20543
          Condensed to atoms (all electrons):
               1          2          3          4
     1  O    8.425420   0.202001   0.016216  -0.119677
     2  H    0.202001   0.428761  -0.021160   0.067426
     3  Cl   0.016216  -0.021160  16.966959   0.011326
     4  I   -0.119677   0.067426   0.011326  25.866594
 Mulliken charges:
               1
     1  O   -0.523960
     2  H    0.322971
     3  Cl   0.026658
     4  I   -0.825670
 Sum of Mulliken charges =  -1.00000
 Mulliken charges with hydrogens summed into heavy atoms:
               1
     1  O   -0.200989
     3  Cl   0.026658
     4  I   -0.825670
 Electronic spatial extent (au):  <R**2>=            849.8503
 Charge=             -1.0000 electrons
 Dipole moment (field-independent basis, Debye):
    X=              1.3930    Y=             -0.5777    Z=              0.0000  Tot=              1.5080
 Quadrupole moment (field-independent basis, Debye-Ang):
   XX=            -66.6017   YY=            -53.2461   ZZ=            -52.5876
   XY=             -2.4987   XZ=              0.0000   YZ=              0.0000
 Traceless Quadrupole moment (field-independent basis, Debye-Ang):
   XX=             -9.1232   YY=              4.2324   ZZ=              4.8909
   XY=             -2.4987   XZ=              0.0000   YZ=              0.0000
 Octapole moment (field-independent basis, Debye-Ang**2):
  XXX=            -43.8250  YYY=             -1.8672  ZZZ=             -0.0000  XYY=            -10.1109
  XXY=             -6.5602  XXZ=             -0.0000  XZZ=             -9.7594  YZZ=              0.4316
  YYZ=             -0.0000  XYZ=              0.0000
 Hexadecapole moment (field-independent basis, Debye-Ang**3):
 XXXX=          -1129.8094 YYYY=           -130.2555 ZZZZ=            -83.1445 XXXY=            -13.2960
 XXXZ=             -0.0000 YYYX=             -3.2786 YYYZ=              0.0000 ZZZX=              0.0000
 ZZZY=              0.0000 XXYY=           -198.1333 XXZZ=           -196.7763 YYZZ=            -36.1246
 XXYZ=             -0.0000 YYXZ=              0.0000 ZZXY=              2.2902
 N-N= 1.470384879132D+02 E-N=-2.202590601233D+03  KE= 6.456424981420D+02
   1 Symmetry operations used in ECPInt.
 ECPInt:  NShTT=    1596 NPrTT=   10643 LenC2=    1597 LenP2D=    8462.
 LDataN:  DoStor=T MaxTD1= 8 Len=  415
 Calling FoFJK, ICntrl=  10002127 FMM=F ISym2X=0 I1Cent= 0 IOpClX= 0 NMat=1 NMatS=1 NMatT=0.
 ***** Axes restored to original set *****
 -------------------------------------------------------------------
 Center     Atomic                   Forces (Hartrees/Bohr)
 Number     Number              X              Y              Z
 -------------------------------------------------------------------
      1        8           0.014848862    0.000000198   -0.012508039
      2        1           0.001654999   -0.000000191   -0.003672311
      3       17          -0.015424508    0.000000011    0.003944412
      4       53          -0.001079353   -0.000000018    0.012235938
 -------------------------------------------------------------------
 Cartesian Forces:  Max     0.015424508 RMS     0.008152309
 -----------------------------------------------------------------------------------------------
                       Internal Coordinate Forces (Hartree/Bohr or radian)
  Cent   Atom   N1       Length/X         N2         Alpha/Y        N3         Beta/Z          J
 -----------------------------------------------------------------------------------------------
      1  O 
      2  H        1  -0.003672(     1)
      3  Cl       1  -0.015917(     2)      2  -0.003183(     4)
      4  I        1   0.012279(     3)      3   0.001994(     5)      2   0.000000(     6)     0
 -----------------------------------------------------------------------------------------------
 Internal  Forces:  Max     0.015916670 RMS     0.008482344

 GradGradGradGradGradGradGradGradGradGradGradGradGradGradGradGradGradGrad
 Berny optimization.
 Search for a local minimum.
 Step number   1 out of a maximum of   20
 All quantities printed in internal units (Hartrees-Bohrs-Radians)
 Second derivative matrix not updated -- first step.
 The second derivative matrix:
                          r1        r2        r3        a1        a2
           r1           0.50301
           r2           0.00000   0.33335
           r3          -0.05600  -0.00000   0.07902
           a1          -0.00046  -0.00000  -0.00637   0.90832
           a2           0.00046   0.00000   0.00637  -0.74832   0.99832
           d1          -0.00000  -0.00000  -0.00000  -0.00022   0.00022
                          d1
           d1           2.64352
 ITU=  0
     Eigenvalues ---    0.07169   0.20365   0.33335   0.51029   1.70305
     Eigenvalues ---    2.64352
 RFO step:  Lambda=-2.65512925D-03 EMin= 7.16927320D-02
 Linear search not attempted -- first point.
 Variable       Old X    -DE/DX   Delta X   Delta X   Delta X     New X
                                 (Linear)    (Quad)   (Total)
    r1        1.92317  -0.00367   0.00000   0.01014   0.01014   1.93331
    r2        3.25468  -0.01592   0.00000  -0.04737  -0.04737   3.20730
    r3        5.88820   0.01228   0.00000   0.15714   0.15714   6.04534
    a1        1.79821  -0.00318   0.00000  -0.00409  -0.00409   1.79412
    a2        1.85862   0.00199   0.00000  -0.00207  -0.00207   1.85655
    d1       -0.00001   0.00000   0.00000   0.00000   0.00000  -0.00001
         Item               Value     Threshold  Converged?
 Maximum Force            0.015917     0.000450     NO 
 RMS     Force            0.008482     0.000300     NO 
 Maximum Displacement     0.157140     0.001800     NO 
 RMS     Displacement     0.067158     0.001200     NO 
 Predicted change in Energy=-1.363490D-03
 GradGradGradGradGradGradGradGradGradGradGradGradGradGradGradGradGradGrad

 ---------------------------------------------------------------------------------------------------
                            Z-MATRIX (ANGSTROMS AND DEGREES)
   CD    Cent   Atom    N1       Length/X        N2       Alpha/Y        N3        Beta/Z          J
 ---------------------------------------------------------------------------------------------------
      1      1  O 
      2      2  H        1   1.023065(     1)
      3      3  Cl       1   1.697233(     2)      2  102.795(     4)
      4      4  I        1   3.199055(     3)      3  106.372(     5)      2   -0.000(     6)      0
 ---------------------------------------------------------------------------------------------------
                         Z-Matrix orientation:                         
 ---------------------------------------------------------------------
 Center     Atomic      Atomic             Coordinates (Angstroms)
 Number     Number       Type             X           Y           Z
 ---------------------------------------------------------------------
      1          8           0        0.000000    0.000000    0.000000
      2          1           0        0.000000    0.000000    1.023065
      3         17           0        1.655086    0.000000   -0.375883
      4         53           0       -0.199595   -0.000021    3.192822
 ---------------------------------------------------------------------
                    Distance matrix (angstroms):
                    1          2          3          4
     1  O    0.000000
     2  H    1.023065   0.000000
     3  Cl   1.697233   2.167110   0.000000
     4  I    3.199055   2.178918   4.021878   0.000000
 Stoichiometry    ClHIO(1-)
 Framework group  C1[X(ClHIO)]
 Deg. of freedom     6
 Full point group                 C1      NOp   1
 Largest Abelian subgroup         C1      NOp   1
 Largest concise Abelian subgroup C1      NOp   1
                         Standard orientation:                         
 ---------------------------------------------------------------------
 Center     Atomic      Atomic             Coordinates (Angstroms)
 Number     Number       Type             X           Y           Z
 ---------------------------------------------------------------------
      1          8           0        1.827367    1.005957   -0.000001
      2          1           0        0.883663    0.610882    0.000007
      3         17           0        2.813234   -0.375587   -0.000000
      4         53           0       -1.194860   -0.042897   -0.000000
 ---------------------------------------------------------------------
 Rotational constants (GHZ):          23.2809124           0.9926217           0.9520302
 Basis read from rwf:  (5D, 7F)
 Pseudo-potential data read from rwf file.
 There are   204 symmetry adapted cartesian basis functions of A   symmetry.
 There are   174 symmetry adapted basis functions of A   symmetry.
   174 basis functions,   383 primitive gaussians,   204 cartesian basis functions
    26 alpha electrons       26 beta electrons
       nuclear repulsion energy       145.7664726978 Hartrees.
 NAtoms=    4 NActive=    4 NUniq=    4 SFac= 1.00D+00 NAtFMM=   60 NAOKFM=F Big=F
 Integral buffers will be    131072 words long.
 Raffenetti 1 integral format.
 Two-electron integral symmetry is turned on.
 One-electron integrals computed using PRISM.
   1 Symmetry operations used in ECPInt.
 ECPInt:  NShTT=    1596 NPrTT=   10643 LenC2=    1597 LenP2D=    8439.
 LDataN:  DoStor=T MaxTD1= 7 Len=  274
 NBasis=   174 RedAO= T EigKep=  2.03D-04  NBF=   174
 NBsUse=   174 1.00D-06 EigRej= -1.00D+00 NBFU=   174
 Initial guess from the checkpoint file:  "/gscratch/ilahie/abmccoy/hocl/i_hocl.chk"
 B after Tr=    -0.000000    0.000000   -0.000000
         Rot=    0.999998    0.000000   -0.000000    0.001782 Ang=   0.20 deg.
 ExpMin= 2.53D-02 ExpMax= 4.56D+05 ExpMxC= 1.44D+03 IAcc=3 IRadAn=         5 AccDes= 0.00D+00
 Harris functional with IExCor=  205 and IRadAn=       5 diagonalized for initial guess.
 HarFok:  IExCor=  205 AccDes= 0.00D+00 IRadAn=         5 IDoV= 1 UseB2=F ITyADJ=14
 ICtDFT=  3500011 ScaDFX=  1.000000  1.000000  1.000000  1.000000
 Defaulting to unpruned grid for atomic number  53.
 FoFCou: FMM=F IPFlag=           0 FMFlag=      100000 FMFlg1=           0
         NFxFlg=           0 DoJE=T BraDBF=F KetDBF=T FulRan=T
         wScrn=  0.000000 ICntrl=       500 IOpCl=  0 I1Cent=   200000004 NGrid=           0
         NMat0=    1 NMatS0=      1 NMatT0=    0 NMatD0=    1 NMtDS0=    0 NMtDT0=    0
 Petite list used in FoFCou.
 Keep R1 ints in memory in canonical form, NReq=173965975.
 Requested convergence on RMS density matrix=1.00D-08 within 128 cycles.
 Requested convergence on MAX density matrix=1.00D-06.
 Requested convergence on             energy=1.00D-06.
 No special actions if energy rises.
 SCF Done:  E(RHF) =  -829.681564592     A.U. after   12 cycles
            NFock= 12  Conv=0.36D-08     -V/T= 2.2850
 ExpMin= 2.53D-02 ExpMax= 4.56D+05 ExpMxC= 1.44D+03 IAcc=3 IRadAn=         5 AccDes= 0.00D+00
 HarFok:  IExCor=  205 AccDes= 0.00D+00 IRadAn=         5 IDoV=-2 UseB2=F ITyADJ=14
 ICtDFT= 12500011 ScaDFX=  1.000000  1.000000  1.000000  1.000000
 Defaulting to unpruned grid for atomic number  53.
 Range of M.O.s used for correlation:    11   174
 NBasis=   174 NAE=    26 NBE=    26 NFC=    10 NFV=     0
 NROrb=    164 NOA=    16 NOB=    16 NVA=   148 NVB=   148

 **** Warning!!: The largest alpha MO coefficient is  0.17447438D+02

 Fully direct method using O(ONN) memory.
 JobTyp=1 Pass  1:  I=  11 to  26 NPSUse= 28 ParTrn=T ParDer=T DoDerP=T.
 Spin components of T(2) and E(2):
     alpha-alpha T2 =       0.3181594960D-01 E2=     -0.9240725811D-01
     alpha-beta  T2 =       0.1672474981D+00 E2=     -0.5014280647D+00
     beta-beta   T2 =       0.3181594960D-01 E2=     -0.9240725811D-01
 ANorm=    0.1109450043D+01
 E2 =    -0.6862425809D+00 EUMP2 =    -0.83036780717247D+03
          IDoAtm=1111
          Differentiating once with respect to electric field.
                with respect to dipole field.
          Differentiating once with respect to nuclear coordinates.
 Keep R1 ints in memory in canonical form, NReq=173969975.
          There are     1 degrees of freedom in the 1st order CPHF.  IDoFFX=0 NUNeed=     1.
 LinEq1:  Iter=  0 NonCon=     1 RMS=2.98D-03 Max=4.76D-02 NDo=     1
 AX will form     1 AO Fock derivatives at one time.
 LinEq1:  Iter=  1 NonCon=     1 RMS=4.77D-04 Max=5.20D-03 NDo=     1
 LinEq1:  Iter=  2 NonCon=     1 RMS=2.20D-04 Max=4.85D-03 NDo=     1
 LinEq1:  Iter=  3 NonCon=     1 RMS=7.11D-05 Max=1.27D-03 NDo=     1
 LinEq1:  Iter=  4 NonCon=     1 RMS=3.38D-05 Max=9.72D-04 NDo=     1
 LinEq1:  Iter=  5 NonCon=     1 RMS=8.52D-06 Max=1.38D-04 NDo=     1
 LinEq1:  Iter=  6 NonCon=     1 RMS=1.97D-06 Max=2.53D-05 NDo=     1
 LinEq1:  Iter=  7 NonCon=     1 RMS=4.40D-07 Max=6.01D-06 NDo=     1
 LinEq1:  Iter=  8 NonCon=     1 RMS=9.39D-08 Max=1.61D-06 NDo=     1
 LinEq1:  Iter=  9 NonCon=     1 RMS=2.50D-08 Max=3.61D-07 NDo=     1
 LinEq1:  Iter= 10 NonCon=     1 RMS=6.17D-09 Max=9.44D-08 NDo=     1
 LinEq1:  Iter= 11 NonCon=     1 RMS=1.39D-09 Max=2.33D-08 NDo=     1
 LinEq1:  Iter= 12 NonCon=     1 RMS=4.90D-10 Max=1.06D-08 NDo=     1
 LinEq1:  Iter= 13 NonCon=     1 RMS=1.49D-10 Max=3.36D-09 NDo=     1
 LinEq1:  Iter= 14 NonCon=     0 RMS=3.08D-11 Max=3.81D-10 NDo=     1
 Linear equations converged to 1.000D-10 1.000D-09 after    14 iterations.
 End of Minotr F.D. properties file   721 does not exist.
 End of Minotr F.D. properties file   722 does not exist.
 End of Minotr F.D. properties file   788 does not exist.
   1 Symmetry operations used in ECPInt.
 ECPInt:  NShTT=    1596 NPrTT=   10643 LenC2=    1597 LenP2D=    8439.
 LDataN:  DoStor=T MaxTD1= 8 Len=  415
 Calling FoFJK, ICntrl=  10002127 FMM=F ISym2X=0 I1Cent= 0 IOpClX= 0 NMat=1 NMatS=1 NMatT=0.
 ***** Axes restored to original set *****
 -------------------------------------------------------------------
 Center     Atomic                   Forces (Hartrees/Bohr)
 Number     Number              X              Y              Z
 -------------------------------------------------------------------
      1        8           0.005284310    0.000000178    0.000881484
      2        1          -0.000538344   -0.000000220   -0.007239817
      3       17          -0.004388846    0.000000009    0.000661980
      4       53          -0.000357120    0.000000033    0.005696353
 -------------------------------------------------------------------
 Cartesian Forces:  Max     0.007239817 RMS     0.003337687
 -----------------------------------------------------------------------------------------------
                       Internal Coordinate Forces (Hartree/Bohr or radian)
  Cent   Atom   N1       Length/X         N2         Alpha/Y        N3         Beta/Z          J
 -----------------------------------------------------------------------------------------------
      1  O 
      2  H        1  -0.007240(     1)
      3  Cl       1  -0.004426(     2)      2   0.001041(     4)
      4  I        1   0.005708(     3)      3   0.000006(     5)      2   0.000000(     6)     0
 -----------------------------------------------------------------------------------------------
 Internal  Forces:  Max     0.007239817 RMS     0.004196585

 GradGradGradGradGradGradGradGradGradGradGradGradGradGradGradGradGradGrad
 Berny optimization.
 Search for a local minimum.
 Step number   2 out of a maximum of   20
 All quantities printed in internal units (Hartrees-Bohrs-Radians)
 Update second derivatives using D2CorN and points    1    2
 DE= -1.82D-03 DEPred=-1.36D-03 R= 1.34D+00
 TightC=F SS=  1.41D+00  RLast= 1.65D-01 DXNew= 5.0454D-01 4.9351D-01
 Trust test= 1.34D+00 RLast= 1.65D-01 DXMaxT set to 4.94D-01
 The second derivative matrix:
                          r1        r2        r3        a1        a2
           r1           0.50574
           r2          -0.00555   0.32582
           r3          -0.03590   0.01712   0.04830
           a1          -0.00121   0.00060  -0.00903   0.90848
           a2           0.00018  -0.00015   0.00654  -0.74828   0.99833
           d1          -0.00000   0.00000  -0.00000  -0.00022   0.00022
                          d1
           d1           2.64352
 ITU=  1  0
     Eigenvalues ---    0.04441   0.20380   0.32654   0.50880   1.70311
     Eigenvalues ---    2.64352
 RFO step:  Lambda=-2.69053908D-04 EMin= 4.44095126D-02
 Quartic linear search produced a step of  0.70930.
 Variable       Old X    -DE/DX   Delta X   Delta X   Delta X     New X
                                 (Linear)    (Quad)   (Total)
    r1        1.93331  -0.00724   0.00719  -0.01760  -0.01041   1.92291
    r2        3.20730  -0.00443  -0.03360   0.00933  -0.02427   3.18303
    r3        6.04534   0.00571   0.11146   0.02110   0.13256   6.17790
    a1        1.79412   0.00104  -0.00290   0.00868   0.00578   1.79990
    a2        1.85655   0.00001  -0.00147   0.00496   0.00349   1.86004
    d1       -0.00001   0.00000   0.00000   0.00000   0.00000  -0.00001
         Item               Value     Threshold  Converged?
 Maximum Force            0.007240     0.000450     NO 
 RMS     Force            0.004197     0.000300     NO 
 Maximum Displacement     0.132560     0.001800     NO 
 RMS     Displacement     0.055249     0.001200     NO 
 Predicted change in Energy=-4.024194D-04
 GradGradGradGradGradGradGradGradGradGradGradGradGradGradGradGradGradGrad

 ---------------------------------------------------------------------------------------------------
                            Z-MATRIX (ANGSTROMS AND DEGREES)
   CD    Cent   Atom    N1       Length/X        N2       Alpha/Y        N3        Beta/Z          J
 ---------------------------------------------------------------------------------------------------
      1      1  O 
      2      2  H        1   1.017559(     1)
      3      3  Cl       1   1.684389(     2)      2  103.127(     4)
      4      4  I        1   3.269203(     3)      3  106.572(     5)      2   -0.000(     6)      0
 ---------------------------------------------------------------------------------------------------
                         Z-Matrix orientation:                         
 ---------------------------------------------------------------------
 Center     Atomic      Atomic             Coordinates (Angstroms)
 Number     Number       Type             X           Y           Z
 ---------------------------------------------------------------------
      1          8           0        0.000000    0.000000    0.000000
      2          1           0        0.000000    0.000000    1.017559
      3         17           0        1.640377    0.000000   -0.382530
      4         53           0       -0.196488   -0.000020    3.263292
 ---------------------------------------------------------------------
                    Distance matrix (angstroms):
                    1          2          3          4
     1  O    0.000000
     2  H    1.017559   0.000000
     3  Cl   1.684389   2.156638   0.000000
     4  I    3.269203   2.254313   4.082413   0.000000
 Stoichiometry    ClHIO(1-)
 Framework group  C1[X(ClHIO)]
 Deg. of freedom     6
 Full point group                 C1      NOp   1
 Largest Abelian subgroup         C1      NOp   1
 Largest concise Abelian subgroup C1      NOp   1
                         Standard orientation:                         
 ---------------------------------------------------------------------
 Center     Atomic      Atomic             Coordinates (Angstroms)
 Number     Number       Type             X           Y           Z
 ---------------------------------------------------------------------
      1          8           0        1.882356    0.999733   -0.000000
      2          1           0        0.939004    0.618272    0.000006
      3         17           0        2.851932   -0.377616   -0.000000
      4         53           0       -1.216617   -0.041447   -0.000000
 ---------------------------------------------------------------------
 Rotational constants (GHZ):          23.4455212           0.9595178           0.9217930
 Basis read from rwf:  (5D, 7F)
 Pseudo-potential data read from rwf file.
 There are   204 symmetry adapted cartesian basis functions of A   symmetry.
 There are   174 symmetry adapted basis functions of A   symmetry.
   174 basis functions,   383 primitive gaussians,   204 cartesian basis functions
    26 alpha electrons       26 beta electrons
       nuclear repulsion energy       144.3902278451 Hartrees.
 NAtoms=    4 NActive=    4 NUniq=    4 SFac= 1.00D+00 NAtFMM=   60 NAOKFM=F Big=F
 Integral buffers will be    131072 words long.
 Raffenetti 1 integral format.
 Two-electron integral symmetry is turned on.
 One-electron integrals computed using PRISM.
   1 Symmetry operations used in ECPInt.
 ECPInt:  NShTT=    1596 NPrTT=   10643 LenC2=    1597 LenP2D=    8408.
 LDataN:  DoStor=T MaxTD1= 7 Len=  274
 NBasis=   174 RedAO= T EigKep=  2.17D-04  NBF=   174
 NBsUse=   174 1.00D-06 EigRej= -1.00D+00 NBFU=   174
 Initial guess from the checkpoint file:  "/gscratch/ilahie/abmccoy/hocl/i_hocl.chk"
 B after Tr=    -0.000000   -0.000000    0.000000
         Rot=    0.999999    0.000000   -0.000000    0.001092 Ang=   0.13 deg.
 ExpMin= 2.53D-02 ExpMax= 4.56D+05 ExpMxC= 1.44D+03 IAcc=3 IRadAn=         5 AccDes= 0.00D+00
 Harris functional with IExCor=  205 and IRadAn=       5 diagonalized for initial guess.
 HarFok:  IExCor=  205 AccDes= 0.00D+00 IRadAn=         5 IDoV= 1 UseB2=F ITyADJ=14
 ICtDFT=  3500011 ScaDFX=  1.000000  1.000000  1.000000  1.000000
 Defaulting to unpruned grid for atomic number  53.
 FoFCou: FMM=F IPFlag=           0 FMFlag=      100000 FMFlg1=           0
         NFxFlg=           0 DoJE=T BraDBF=F KetDBF=T FulRan=T
         wScrn=  0.000000 ICntrl=       500 IOpCl=  0 I1Cent=   200000004 NGrid=           0
         NMat0=    1 NMatS0=      1 NMatT0=    0 NMatD0=    1 NMtDS0=    0 NMtDT0=    0
 Petite list used in FoFCou.
 Keep R1 ints in memory in canonical form, NReq=173964743.
 Requested convergence on RMS density matrix=1.00D-08 within 128 cycles.
 Requested convergence on MAX density matrix=1.00D-06.
 Requested convergence on             energy=1.00D-06.
 No special actions if energy rises.
 SCF Done:  E(RHF) =  -829.684394683     A.U. after   11 cycles
            NFock= 11  Conv=0.63D-08     -V/T= 2.2850
 ExpMin= 2.53D-02 ExpMax= 4.56D+05 ExpMxC= 1.44D+03 IAcc=3 IRadAn=         5 AccDes= 0.00D+00
 HarFok:  IExCor=  205 AccDes= 0.00D+00 IRadAn=         5 IDoV=-2 UseB2=F ITyADJ=14
 ICtDFT= 12500011 ScaDFX=  1.000000  1.000000  1.000000  1.000000
 Defaulting to unpruned grid for atomic number  53.
 Range of M.O.s used for correlation:    11   174
 NBasis=   174 NAE=    26 NBE=    26 NFC=    10 NFV=     0
 NROrb=    164 NOA=    16 NOB=    16 NVA=   148 NVB=   148

 **** Warning!!: The largest alpha MO coefficient is  0.18566581D+02

 Fully direct method using O(ONN) memory.
 JobTyp=1 Pass  1:  I=  11 to  26 NPSUse= 28 ParTrn=T ParDer=T DoDerP=T.
 Spin components of T(2) and E(2):
     alpha-alpha T2 =       0.3158666267D-01 E2=     -0.9201019319D-01
     alpha-beta  T2 =       0.1663036068D+00 E2=     -0.4999719044D+00
     beta-beta   T2 =       0.3158666267D-01 E2=     -0.9201019319D-01
 ANorm=    0.1108817808D+01
 E2 =    -0.6839922908D+00 EUMP2 =    -0.83036838697412D+03
          IDoAtm=1111
          Differentiating once with respect to electric field.
                with respect to dipole field.
          Differentiating once with respect to nuclear coordinates.
 Keep R1 ints in memory in canonical form, NReq=173969183.
          There are     1 degrees of freedom in the 1st order CPHF.  IDoFFX=0 NUNeed=     1.
 LinEq1:  Iter=  0 NonCon=     1 RMS=2.92D-03 Max=4.58D-02 NDo=     1
 AX will form     1 AO Fock derivatives at one time.
 LinEq1:  Iter=  1 NonCon=     1 RMS=4.62D-04 Max=5.03D-03 NDo=     1
 LinEq1:  Iter=  2 NonCon=     1 RMS=2.05D-04 Max=3.92D-03 NDo=     1
 LinEq1:  Iter=  3 NonCon=     1 RMS=6.36D-05 Max=1.10D-03 NDo=     1
 LinEq1:  Iter=  4 NonCon=     1 RMS=3.00D-05 Max=8.55D-04 NDo=     1
 LinEq1:  Iter=  5 NonCon=     1 RMS=7.91D-06 Max=1.27D-04 NDo=     1
 LinEq1:  Iter=  6 NonCon=     1 RMS=1.89D-06 Max=2.15D-05 NDo=     1
 LinEq1:  Iter=  7 NonCon=     1 RMS=4.39D-07 Max=7.06D-06 NDo=     1
 LinEq1:  Iter=  8 NonCon=     1 RMS=1.02D-07 Max=2.00D-06 NDo=     1
 LinEq1:  Iter=  9 NonCon=     1 RMS=3.07D-08 Max=5.87D-07 NDo=     1
 LinEq1:  Iter= 10 NonCon=     1 RMS=9.25D-09 Max=1.97D-07 NDo=     1
 LinEq1:  Iter= 11 NonCon=     1 RMS=2.15D-09 Max=4.74D-08 NDo=     1
 LinEq1:  Iter= 12 NonCon=     1 RMS=5.55D-10 Max=9.69D-09 NDo=     1
 LinEq1:  Iter= 13 NonCon=     1 RMS=1.59D-10 Max=3.32D-09 NDo=     1
 LinEq1:  Iter= 14 NonCon=     0 RMS=2.93D-11 Max=3.88D-10 NDo=     1
 Linear equations converged to 1.000D-10 1.000D-09 after    14 iterations.
 End of Minotr F.D. properties file   721 does not exist.
 End of Minotr F.D. properties file   722 does not exist.
 End of Minotr F.D. properties file   788 does not exist.
   1 Symmetry operations used in ECPInt.
 ECPInt:  NShTT=    1596 NPrTT=   10643 LenC2=    1597 LenP2D=    8408.
 LDataN:  DoStor=T MaxTD1= 8 Len=  415
 Calling FoFJK, ICntrl=  10002127 FMM=F ISym2X=0 I1Cent= 0 IOpClX= 0 NMat=1 NMatS=1 NMatT=0.
 ***** Axes restored to original set *****
 -------------------------------------------------------------------
 Center     Atomic                   Forces (Hartrees/Bohr)
 Number     Number              X              Y              Z
 -------------------------------------------------------------------
      1        8          -0.000787507    0.000000150    0.004192992
      2        1          -0.000814585   -0.000000213   -0.005208609
      3       17           0.001582774    0.000000007   -0.000637944
      4       53           0.000019318    0.000000057    0.001653562
 -------------------------------------------------------------------
 Cartesian Forces:  Max     0.005208609 RMS     0.002074474
 -----------------------------------------------------------------------------------------------
                       Internal Coordinate Forces (Hartree/Bohr or radian)
  Cent   Atom   N1       Length/X         N2         Alpha/Y        N3         Beta/Z          J
 -----------------------------------------------------------------------------------------------
      1  O 
      2  H        1  -0.005209(     1)
      3  Cl       1   0.001686(     2)      2   0.001567(     4)
      4  I        1   0.001649(     3)      3  -0.000733(     5)      2   0.000000(     6)     0
 -----------------------------------------------------------------------------------------------
 Internal  Forces:  Max     0.005208609 RMS     0.002438755

 GradGradGradGradGradGradGradGradGradGradGradGradGradGradGradGradGradGrad
 Berny optimization.
 Search for a local minimum.
 Step number   3 out of a maximum of   20
 All quantities printed in internal units (Hartrees-Bohrs-Radians)
 Update second derivatives using D2CorN and points    1    2    3
 DE= -5.80D-04 DEPred=-4.02D-04 R= 1.44D+00
 TightC=F SS=  1.41D+00  RLast= 1.35D-01 DXNew= 8.2997D-01 4.0600D-01
 Trust test= 1.44D+00 RLast= 1.35D-01 DXMaxT set to 4.94D-01
 The second derivative matrix:
                          r1        r2        r3        a1        a2
           r1           0.50273
           r2          -0.01346   0.32637
           r3           0.00232   0.01675   0.03352
           a1           0.00012   0.00241  -0.01841   0.90800
           a2           0.00061  -0.00088   0.00956  -0.74834   0.99844
           d1           0.00000   0.00000  -0.00000  -0.00022   0.00022
                          d1
           d1           2.64352
 ITU=  1  1  0
     Eigenvalues ---    0.03203   0.20379   0.32632   0.50375   1.70316
     Eigenvalues ---    2.64352
 RFO step:  Lambda=-9.11605905D-05 EMin= 3.20308515D-02
 Quartic linear search produced a step of  0.39152.
 Variable       Old X    -DE/DX   Delta X   Delta X   Delta X     New X
                                 (Linear)    (Quad)   (Total)
    r1        1.92291  -0.00521  -0.00407  -0.00854  -0.01261   1.91029
    r2        3.18303   0.00169  -0.00950   0.01165   0.00215   3.18518
    r3        6.17790   0.00165   0.05190   0.00619   0.05809   6.23599
    a1        1.79990   0.00157   0.00226   0.00310   0.00537   1.80527
    a2        1.86004  -0.00073   0.00137   0.00127   0.00263   1.86267
    d1       -0.00001   0.00000   0.00000   0.00000   0.00000  -0.00001
         Item               Value     Threshold  Converged?
 Maximum Force            0.005209     0.000450     NO 
 RMS     Force            0.002439     0.000300     NO 
 Maximum Displacement     0.058089     0.001800     NO 
 RMS     Displacement     0.024406     0.001200     NO 
 Predicted change in Energy=-7.188420D-05
 GradGradGradGradGradGradGradGradGradGradGradGradGradGradGradGradGradGrad

 ---------------------------------------------------------------------------------------------------
                            Z-MATRIX (ANGSTROMS AND DEGREES)
   CD    Cent   Atom    N1       Length/X        N2       Alpha/Y        N3        Beta/Z          J
 ---------------------------------------------------------------------------------------------------
      1      1  O 
      2      2  H        1   1.010884(     1)
      3      3  Cl       1   1.685526(     2)      2  103.434(     4)
      4      4  I        1   3.299942(     3)      3  106.723(     5)      2   -0.000(     6)      0
 ---------------------------------------------------------------------------------------------------
                         Z-Matrix orientation:                         
 ---------------------------------------------------------------------
 Center     Atomic      Atomic             Coordinates (Angstroms)
 Number     Number       Type             X           Y           Z
 ---------------------------------------------------------------------
      1          8           0        0.000000    0.000000    0.000000
      2          1           0        0.000000    0.000000    1.010884
      3         17           0        1.639406    0.000000   -0.391594
      4         53           0       -0.189323   -0.000019    3.294507
 ---------------------------------------------------------------------
                    Distance matrix (angstroms):
                    1          2          3          4
     1  O    0.000000
     2  H    1.010884   0.000000
     3  Cl   1.685526   2.157451   0.000000
     4  I    3.299942   2.291457   4.114801   0.000000
 Stoichiometry    ClHIO(1-)
 Framework group  C1[X(ClHIO)]
 Deg. of freedom     6
 Full point group                 C1      NOp   1
 Largest Abelian subgroup         C1      NOp   1
 Largest concise Abelian subgroup C1      NOp   1
                         Standard orientation:                         
 ---------------------------------------------------------------------
 Center     Atomic      Atomic             Coordinates (Angstroms)
 Number     Number       Type             X           Y           Z
 ---------------------------------------------------------------------
      1          8           0        1.904109    0.999834   -0.000000
      2          1           0        0.964719    0.626427    0.000006
      3         17           0        2.873582   -0.378976   -0.000000
      4         53           0       -1.227330   -0.041179   -0.000000
 ---------------------------------------------------------------------
 Rotational constants (GHZ):          23.3950361           0.9434620           0.9068894
 Basis read from rwf:  (5D, 7F)
 Pseudo-potential data read from rwf file.
 There are   204 symmetry adapted cartesian basis functions of A   symmetry.
 There are   174 symmetry adapted basis functions of A   symmetry.
   174 basis functions,   383 primitive gaussians,   204 cartesian basis functions
    26 alpha electrons       26 beta electrons
       nuclear repulsion energy       143.5570045150 Hartrees.
 NAtoms=    4 NActive=    4 NUniq=    4 SFac= 1.00D+00 NAtFMM=   60 NAOKFM=F Big=F
 Integral buffers will be    131072 words long.
 Raffenetti 1 integral format.
 Two-electron integral symmetry is turned on.
 One-electron integrals computed using PRISM.
   1 Symmetry operations used in ECPInt.
 ECPInt:  NShTT=    1596 NPrTT=   10643 LenC2=    1597 LenP2D=    8398.
 LDataN:  DoStor=T MaxTD1= 7 Len=  274
 NBasis=   174 RedAO= T EigKep=  2.20D-04  NBF=   174
 NBsUse=   174 1.00D-06 EigRej= -1.00D+00 NBFU=   174
 Initial guess from the checkpoint file:  "/gscratch/ilahie/abmccoy/hocl/i_hocl.chk"
 B after Tr=     0.000000    0.000000   -0.000000
         Rot=    1.000000    0.000000   -0.000000    0.000287 Ang=   0.03 deg.
 ExpMin= 2.53D-02 ExpMax= 4.56D+05 ExpMxC= 1.44D+03 IAcc=3 IRadAn=         5 AccDes= 0.00D+00
 Harris functional with IExCor=  205 and IRadAn=       5 diagonalized for initial guess.
 HarFok:  IExCor=  205 AccDes= 0.00D+00 IRadAn=         5 IDoV= 1 UseB2=F ITyADJ=14
 ICtDFT=  3500011 ScaDFX=  1.000000  1.000000  1.000000  1.000000
 Defaulting to unpruned grid for atomic number  53.
 FoFCou: FMM=F IPFlag=           0 FMFlag=      100000 FMFlg1=           0
         NFxFlg=           0 DoJE=T BraDBF=F KetDBF=T FulRan=T
         wScrn=  0.000000 ICntrl=       500 IOpCl=  0 I1Cent=   200000004 NGrid=           0
         NMat0=    1 NMatS0=      1 NMatT0=    0 NMatD0=    1 NMtDS0=    0 NMtDT0=    0
 Petite list used in FoFCou.
 Keep R1 ints in memory in canonical form, NReq=173964171.
 Requested convergence on RMS density matrix=1.00D-08 within 128 cycles.
 Requested convergence on MAX density matrix=1.00D-06.
 Requested convergence on             energy=1.00D-06.
 No special actions if energy rises.
 SCF Done:  E(RHF) =  -829.685486081     A.U. after   11 cycles
            NFock= 11  Conv=0.29D-08     -V/T= 2.2850
 ExpMin= 2.53D-02 ExpMax= 4.56D+05 ExpMxC= 1.44D+03 IAcc=3 IRadAn=         5 AccDes= 0.00D+00
 HarFok:  IExCor=  205 AccDes= 0.00D+00 IRadAn=         5 IDoV=-2 UseB2=F ITyADJ=14
 ICtDFT= 12500011 ScaDFX=  1.000000  1.000000  1.000000  1.000000
 Defaulting to unpruned grid for atomic number  53.
 Range of M.O.s used for correlation:    11   174
 NBasis=   174 NAE=    26 NBE=    26 NFC=    10 NFV=     0
 NROrb=    164 NOA=    16 NOB=    16 NVA=   148 NVB=   148

 **** Warning!!: The largest alpha MO coefficient is  0.18966453D+02

 Fully direct method using O(ONN) memory.
 JobTyp=1 Pass  1:  I=  11 to  26 NPSUse= 28 ParTrn=T ParDer=T DoDerP=T.
 Spin components of T(2) and E(2):
     alpha-alpha T2 =       0.3149663499D-01 E2=     -0.9179964223D-01
     alpha-beta  T2 =       0.1660896948D+00 E2=     -0.4994072476D+00
     beta-beta   T2 =       0.3149663499D-01 E2=     -0.9179964223D-01
 ANorm=    0.1108640142D+01
 E2 =    -0.6830065321D+00 EUMP2 =    -0.83036849261272D+03
          IDoAtm=1111
          Differentiating once with respect to electric field.
                with respect to dipole field.
          Differentiating once with respect to nuclear coordinates.
 Keep R1 ints in memory in canonical form, NReq=173968743.
          There are     1 degrees of freedom in the 1st order CPHF.  IDoFFX=0 NUNeed=     1.
 LinEq1:  Iter=  0 NonCon=     1 RMS=2.91D-03 Max=4.55D-02 NDo=     1
 AX will form     1 AO Fock derivatives at one time.
 LinEq1:  Iter=  1 NonCon=     1 RMS=4.57D-04 Max=5.02D-03 NDo=     1
 LinEq1:  Iter=  2 NonCon=     1 RMS=2.03D-04 Max=3.84D-03 NDo=     1
 LinEq1:  Iter=  3 NonCon=     1 RMS=6.27D-05 Max=1.07D-03 NDo=     1
 LinEq1:  Iter=  4 NonCon=     1 RMS=2.94D-05 Max=8.42D-04 NDo=     1
 LinEq1:  Iter=  5 NonCon=     1 RMS=7.82D-06 Max=1.25D-04 NDo=     1
 LinEq1:  Iter=  6 NonCon=     1 RMS=1.89D-06 Max=2.17D-05 NDo=     1
 LinEq1:  Iter=  7 NonCon=     1 RMS=4.41D-07 Max=7.85D-06 NDo=     1
 LinEq1:  Iter=  8 NonCon=     1 RMS=1.04D-07 Max=2.13D-06 NDo=     1
 LinEq1:  Iter=  9 NonCon=     1 RMS=3.20D-08 Max=6.25D-07 NDo=     1
 LinEq1:  Iter= 10 NonCon=     1 RMS=9.50D-09 Max=1.86D-07 NDo=     1
 LinEq1:  Iter= 11 NonCon=     1 RMS=2.12D-09 Max=4.62D-08 NDo=     1
 LinEq1:  Iter= 12 NonCon=     1 RMS=4.96D-10 Max=8.75D-09 NDo=     1
 LinEq1:  Iter= 13 NonCon=     1 RMS=1.44D-10 Max=2.90D-09 NDo=     1
 LinEq1:  Iter= 14 NonCon=     0 RMS=2.75D-11 Max=3.71D-10 NDo=     1
 Linear equations converged to 1.000D-10 1.000D-09 after    14 iterations.
 End of Minotr F.D. properties file   721 does not exist.
 End of Minotr F.D. properties file   722 does not exist.
 End of Minotr F.D. properties file   788 does not exist.
   1 Symmetry operations used in ECPInt.
 ECPInt:  NShTT=    1596 NPrTT=   10643 LenC2=    1597 LenP2D=    8398.
 LDataN:  DoStor=T MaxTD1= 8 Len=  415
 Calling FoFJK, ICntrl=  10002127 FMM=F ISym2X=0 I1Cent= 0 IOpClX= 0 NMat=1 NMatS=1 NMatT=0.
 ***** Axes restored to original set *****
 -------------------------------------------------------------------
 Center     Atomic                   Forces (Hartrees/Bohr)
 Number     Number              X              Y              Z
 -------------------------------------------------------------------
      1        8          -0.000779000    0.000000132    0.001531568
      2        1          -0.000158860   -0.000000197   -0.001756376
      3       17           0.000844902    0.000000006   -0.000078000
      4       53           0.000092957    0.000000059    0.000302808
 -------------------------------------------------------------------
 Cartesian Forces:  Max     0.001756376 RMS     0.000757348
 -----------------------------------------------------------------------------------------------
                       Internal Coordinate Forces (Hartree/Bohr or radian)
  Cent   Atom   N1       Length/X         N2         Alpha/Y        N3         Beta/Z          J
 -----------------------------------------------------------------------------------------------
      1  O 
      2  H        1  -0.001756(     1)
      3  Cl       1   0.000840(     2)      2   0.000303(     4)
      4  I        1   0.000297(     3)      3  -0.000687(     5)      2   0.000000(     6)     0
 -----------------------------------------------------------------------------------------------
 Internal  Forces:  Max     0.001756376 RMS     0.000860488

 GradGradGradGradGradGradGradGradGradGradGradGradGradGradGradGradGradGrad
 Berny optimization.
 Search for a local minimum.
 Step number   4 out of a maximum of   20
 All quantities printed in internal units (Hartrees-Bohrs-Radians)
 Update second derivatives using D2CorN and points    1    2    3    4
 DE= -1.06D-04 DEPred=-7.19D-05 R= 1.47D+00
 TightC=F SS=  1.41D+00  RLast= 5.98D-02 DXNew= 8.2997D-01 1.7934D-01
 Trust test= 1.47D+00 RLast= 5.98D-02 DXMaxT set to 4.94D-01
 The second derivative matrix:
                          r1        r2        r3        a1        a2
           r1           0.49320
           r2          -0.01318   0.32681
           r3           0.03332   0.00621   0.02841
           a1           0.00325   0.00191  -0.02497   0.90710
           a2           0.00029  -0.00154   0.01760  -0.74795   0.99907
           d1           0.00000   0.00000  -0.00001  -0.00022   0.00022
                          d1
           d1           2.64352
 ITU=  1  1  1  0
     Eigenvalues ---    0.02511   0.20393   0.32603   0.49655   1.70299
     Eigenvalues ---    2.64352
 RFO step:  Lambda=-3.59539409D-06 EMin= 2.51060817D-02
 Quartic linear search produced a step of  0.32778.
 Variable       Old X    -DE/DX   Delta X   Delta X   Delta X     New X
                                 (Linear)    (Quad)   (Total)
    r1        1.91029  -0.00176  -0.00413  -0.00096  -0.00510   1.90520
    r2        3.18518   0.00084   0.00070   0.00176   0.00246   3.18765
    r3        6.23599   0.00030   0.01904  -0.00380   0.01524   6.25123
    a1        1.80527   0.00030   0.00176  -0.00188  -0.00012   1.80515
    a2        1.86267  -0.00069   0.00086  -0.00201  -0.00115   1.86152
    d1       -0.00001   0.00000   0.00000   0.00000   0.00000  -0.00001
         Item               Value     Threshold  Converged?
 Maximum Force            0.001756     0.000450     NO 
 RMS     Force            0.000860     0.000300     NO 
 Maximum Displacement     0.015241     0.001800     NO 
 RMS     Displacement     0.006654     0.001200     NO 
 Predicted change in Energy=-7.485253D-06
 GradGradGradGradGradGradGradGradGradGradGradGradGradGradGradGradGradGrad

 ---------------------------------------------------------------------------------------------------
                            Z-MATRIX (ANGSTROMS AND DEGREES)
   CD    Cent   Atom    N1       Length/X        N2       Alpha/Y        N3        Beta/Z          J
 ---------------------------------------------------------------------------------------------------
      1      1  O 
      2      2  H        1   1.008187(     1)
      3      3  Cl       1   1.686830(     2)      2  103.427(     4)
      4      4  I        1   3.308007(     3)      3  106.657(     5)      2   -0.000(     6)      0
 ---------------------------------------------------------------------------------------------------
                         Z-Matrix orientation:                         
 ---------------------------------------------------------------------
 Center     Atomic      Atomic             Coordinates (Angstroms)
 Number     Number       Type             X           Y           Z
 ---------------------------------------------------------------------
      1          8           0        0.000000    0.000000    0.000000
      2          1           0        0.000000    0.000000    1.008187
      3         17           0        1.640721    0.000000   -0.391698
      4         53           0       -0.186399   -0.000018    3.302751
 ---------------------------------------------------------------------
                    Distance matrix (angstroms):
                    1          2          3          4
     1  O    0.000000
     2  H    1.008187   0.000000
     3  Cl   1.686830   2.156767   0.000000
     4  I    3.308007   2.302123   4.121568   0.000000
 Stoichiometry    ClHIO(1-)
 Framework group  C1[X(ClHIO)]
 Deg. of freedom     6
 Full point group                 C1      NOp   1
 Largest Abelian subgroup         C1      NOp   1
 Largest concise Abelian subgroup C1      NOp   1
                         Standard orientation:                         
 ---------------------------------------------------------------------
 Center     Atomic      Atomic             Coordinates (Angstroms)
 Number     Number       Type             X           Y           Z
 ---------------------------------------------------------------------
      1          8           0        1.909748    1.001313   -0.000000
      2          1           0        0.972353    0.630193    0.000005
      3         17           0        2.877902   -0.380017   -0.000000
      4         53           0       -1.229711   -0.041140   -0.000000
 ---------------------------------------------------------------------
 Rotational constants (GHZ):          23.3096050           0.9400292           0.9035892
 Basis read from rwf:  (5D, 7F)
 Pseudo-potential data read from rwf file.
 There are   204 symmetry adapted cartesian basis functions of A   symmetry.
 There are   174 symmetry adapted basis functions of A   symmetry.
   174 basis functions,   383 primitive gaussians,   204 cartesian basis functions
    26 alpha electrons       26 beta electrons
       nuclear repulsion energy       143.3418430183 Hartrees.
 NAtoms=    4 NActive=    4 NUniq=    4 SFac= 1.00D+00 NAtFMM=   60 NAOKFM=F Big=F
 Integral buffers will be    131072 words long.
 Raffenetti 1 integral format.
 Two-electron integral symmetry is turned on.
 One-electron integrals computed using PRISM.
   1 Symmetry operations used in ECPInt.
 ECPInt:  NShTT=    1596 NPrTT=   10643 LenC2=    1597 LenP2D=    8397.
 LDataN:  DoStor=T MaxTD1= 7 Len=  274
 NBasis=   174 RedAO= T EigKep=  2.20D-04  NBF=   174
 NBsUse=   174 1.00D-06 EigRej= -1.00D+00 NBFU=   174
 Initial guess from the checkpoint file:  "/gscratch/ilahie/abmccoy/hocl/i_hocl.chk"
 B after Tr=    -0.000000    0.000000    0.000000
         Rot=    1.000000    0.000000   -0.000000    0.000104 Ang=   0.01 deg.
 Keep R1 ints in memory in canonical form, NReq=173964083.
 Requested convergence on RMS density matrix=1.00D-08 within 128 cycles.
 Requested convergence on MAX density matrix=1.00D-06.
 Requested convergence on             energy=1.00D-06.
 No special actions if energy rises.
 SCF Done:  E(RHF) =  -829.685755983     A.U. after    9 cycles
            NFock=  9  Conv=0.42D-08     -V/T= 2.2851
 ExpMin= 2.53D-02 ExpMax= 4.56D+05 ExpMxC= 1.44D+03 IAcc=3 IRadAn=         5 AccDes= 0.00D+00
 HarFok:  IExCor=  205 AccDes= 0.00D+00 IRadAn=         5 IDoV=-2 UseB2=F ITyADJ=14
 ICtDFT= 12500011 ScaDFX=  1.000000  1.000000  1.000000  1.000000
 Defaulting to unpruned grid for atomic number  53.
 Range of M.O.s used for correlation:    11   174
 NBasis=   174 NAE=    26 NBE=    26 NFC=    10 NFV=     0
 NROrb=    164 NOA=    16 NOB=    16 NVA=   148 NVB=   148

 **** Warning!!: The largest alpha MO coefficient is  0.19080946D+02

 Fully direct method using O(ONN) memory.
 JobTyp=1 Pass  1:  I=  11 to  26 NPSUse= 28 ParTrn=T ParDer=T DoDerP=T.
 Spin components of T(2) and E(2):
     alpha-alpha T2 =       0.3147391714D-01 E2=     -0.9173908001D-01
     alpha-beta  T2 =       0.1660583921D+00 E2=     -0.4992676936D+00
     beta-beta   T2 =       0.3147391714D-01 E2=     -0.9173908001D-01
 ANorm=    0.1108605532D+01
 E2 =    -0.6827458536D+00 EUMP2 =    -0.83036850183661D+03
          IDoAtm=1111
          Differentiating once with respect to electric field.
                with respect to dipole field.
          Differentiating once with respect to nuclear coordinates.
 Keep R1 ints in memory in canonical form, NReq=173968743.
          There are     1 degrees of freedom in the 1st order CPHF.  IDoFFX=0 NUNeed=     1.
 LinEq1:  Iter=  0 NonCon=     1 RMS=2.90D-03 Max=4.54D-02 NDo=     1
 AX will form     1 AO Fock derivatives at one time.
 LinEq1:  Iter=  1 NonCon=     1 RMS=4.56D-04 Max=5.02D-03 NDo=     1
 LinEq1:  Iter=  2 NonCon=     1 RMS=2.03D-04 Max=3.87D-03 NDo=     1
 LinEq1:  Iter=  3 NonCon=     1 RMS=6.28D-05 Max=1.07D-03 NDo=     1
 LinEq1:  Iter=  4 NonCon=     1 RMS=2.95D-05 Max=8.44D-04 NDo=     1
 LinEq1:  Iter=  5 NonCon=     1 RMS=7.83D-06 Max=1.25D-04 NDo=     1
 LinEq1:  Iter=  6 NonCon=     1 RMS=1.89D-06 Max=2.19D-05 NDo=     1
 LinEq1:  Iter=  7 NonCon=     1 RMS=4.41D-07 Max=7.97D-06 NDo=     1
 LinEq1:  Iter=  8 NonCon=     1 RMS=1.05D-07 Max=2.16D-06 NDo=     1
 LinEq1:  Iter=  9 NonCon=     1 RMS=3.23D-08 Max=6.35D-07 NDo=     1
 LinEq1:  Iter= 10 NonCon=     1 RMS=9.55D-09 Max=1.84D-07 NDo=     1
 LinEq1:  Iter= 11 NonCon=     1 RMS=2.11D-09 Max=4.56D-08 NDo=     1
 LinEq1:  Iter= 12 NonCon=     1 RMS=4.84D-10 Max=8.45D-09 NDo=     1
 LinEq1:  Iter= 13 NonCon=     1 RMS=1.40D-10 Max=2.77D-09 NDo=     1
 LinEq1:  Iter= 14 NonCon=     0 RMS=2.71D-11 Max=3.71D-10 NDo=     1
 Linear equations converged to 1.000D-10 1.000D-09 after    14 iterations.
 End of Minotr F.D. properties file   721 does not exist.
 End of Minotr F.D. properties file   722 does not exist.
 End of Minotr F.D. properties file   788 does not exist.
   1 Symmetry operations used in ECPInt.
 ECPInt:  NShTT=    1596 NPrTT=   10643 LenC2=    1597 LenP2D=    8397.
 LDataN:  DoStor=T MaxTD1= 8 Len=  415
 Calling FoFJK, ICntrl=  10002127 FMM=F ISym2X=0 I1Cent= 0 IOpClX= 0 NMat=1 NMatS=1 NMatT=0.
 ***** Axes restored to original set *****
 -------------------------------------------------------------------
 Center     Atomic                   Forces (Hartrees/Bohr)
 Number     Number              X              Y              Z
 -------------------------------------------------------------------
      1        8          -0.000249991    0.000000123    0.000094581
      2        1          -0.000063443   -0.000000186   -0.000209381
      3       17           0.000212416    0.000000005    0.000113747
      4       53           0.000101018    0.000000057    0.000001053
 -------------------------------------------------------------------
 Cartesian Forces:  Max     0.000249991 RMS     0.000125024
 -----------------------------------------------------------------------------------------------
                       Internal Coordinate Forces (Hartree/Bohr or radian)
  Cent   Atom   N1       Length/X         N2         Alpha/Y        N3         Beta/Z          J
 -----------------------------------------------------------------------------------------------
      1  O 
      2  H        1  -0.000209(     1)
      3  Cl       1   0.000180(     2)      2   0.000121(     4)
      4  I        1  -0.000005(     3)      3  -0.000631(     5)      2   0.000000(     6)     0
 -----------------------------------------------------------------------------------------------
 Internal  Forces:  Max     0.000630852 RMS     0.000285463

 GradGradGradGradGradGradGradGradGradGradGradGradGradGradGradGradGradGrad
 Berny optimization.
 Search for a local minimum.
 Step number   5 out of a maximum of   20
 All quantities printed in internal units (Hartrees-Bohrs-Radians)
 Update second derivatives using D2CorN and points    1    2    3    4    5

 DE= -9.22D-06 DEPred=-7.49D-06 R= 1.23D+00
 TightC=F SS=  1.41D+00  RLast= 1.63D-02 DXNew= 8.2997D-01 4.8898D-02
 Trust test= 1.23D+00 RLast= 1.63D-02 DXMaxT set to 4.94D-01
 The second derivative matrix:
                          r1        r2        r3        a1        a2
           r1           0.48062
           r2          -0.00577   0.32254
           r3           0.04904  -0.00342   0.03348
           a1           0.00600   0.00049  -0.03057   0.90674
           a2          -0.00808   0.00245   0.04198  -0.74732   0.99669
           d1           0.00001  -0.00000  -0.00002  -0.00022   0.00022
                          d1
           d1           2.64352
 ITU=  1  1  1  1  0
     Eigenvalues ---    0.02626   0.20326   0.32237   0.48615   1.70203
     Eigenvalues ---    2.64352
 RFO step:  Lambda=-8.36672282D-07 EMin= 2.62559629D-02
 Quartic linear search produced a step of  0.15186.
 Variable       Old X    -DE/DX   Delta X   Delta X   Delta X     New X
                                 (Linear)    (Quad)   (Total)
    r1        1.90520  -0.00021  -0.00077   0.00014  -0.00063   1.90456
    r2        3.18765   0.00018   0.00037   0.00025   0.00063   3.18827
    r3        6.25123  -0.00000   0.00231  -0.00092   0.00139   6.25262
    a1        1.80515   0.00012  -0.00002  -0.00108  -0.00110   1.80405
    a2        1.86152  -0.00063  -0.00017  -0.00139  -0.00157   1.85996
    d1       -0.00001   0.00000   0.00000   0.00000   0.00000  -0.00001
         Item               Value     Threshold  Converged?
 Maximum Force            0.000631     0.000450     NO 
 RMS     Force            0.000285     0.000300     YES
 Maximum Displacement     0.001567     0.001800     YES
 RMS     Displacement     0.001031     0.001200     YES
 Predicted change in Energy=-5.135147D-07
 GradGradGradGradGradGradGradGradGradGradGradGradGradGradGradGradGradGrad

 ---------------------------------------------------------------------------------------------------
                            Z-MATRIX (ANGSTROMS AND DEGREES)
   CD    Cent   Atom    N1       Length/X        N2       Alpha/Y        N3        Beta/Z          J
 ---------------------------------------------------------------------------------------------------
      1      1  O 
      2      2  H        1   1.007851(     1)
      3      3  Cl       1   1.687161(     2)      2  103.364(     4)
      4      4  I        1   3.308743(     3)      3  106.568(     5)      2   -0.000(     6)      0
 ---------------------------------------------------------------------------------------------------
                         Z-Matrix orientation:                         
 ---------------------------------------------------------------------
 Center     Atomic      Atomic             Coordinates (Angstroms)
 Number     Number       Type             X           Y           Z
 ---------------------------------------------------------------------
      1          8           0        0.000000    0.000000    0.000000
      2          1           0        0.000000    0.000000    1.007851
      3         17           0        1.641472    0.000000   -0.389977
      4         53           0       -0.184884   -0.000017    3.303573
 ---------------------------------------------------------------------
                    Distance matrix (angstroms):
                    1          2          3          4
     1  O    0.000000
     2  H    1.007851   0.000000
     3  Cl   1.687161   2.156005   0.000000
     4  I    3.308743   2.303154   4.120424   0.000000
 Stoichiometry    ClHIO(1-)
 Framework group  C1[X(ClHIO)]
 Deg. of freedom     6
 Full point group                 C1      NOp   1
 Largest Abelian subgroup         C1      NOp   1
 Largest concise Abelian subgroup C1      NOp   1
                         Standard orientation:                         
 ---------------------------------------------------------------------
 Center     Atomic      Atomic             Coordinates (Angstroms)
 Number     Number       Type             X           Y           Z
 ---------------------------------------------------------------------
      1          8           0        1.910400    1.002302   -0.000000
      2          1           0        0.973230    0.631524    0.000005
      3         17           0        2.876910   -0.380583   -0.000000
      4         53           0       -1.229508   -0.041133   -0.000000
 ---------------------------------------------------------------------
 Rotational constants (GHZ):          23.2577399           0.9404157           0.9038682
 Basis read from rwf:  (5D, 7F)
 Pseudo-potential data read from rwf file.
 There are   204 symmetry adapted cartesian basis functions of A   symmetry.
 There are   174 symmetry adapted basis functions of A   symmetry.
   174 basis functions,   383 primitive gaussians,   204 cartesian basis functions
    26 alpha electrons       26 beta electrons
       nuclear repulsion energy       143.3417962724 Hartrees.
 NAtoms=    4 NActive=    4 NUniq=    4 SFac= 1.00D+00 NAtFMM=   60 NAOKFM=F Big=F
 Integral buffers will be    131072 words long.
 Raffenetti 1 integral format.
 Two-electron integral symmetry is turned on.
 One-electron integrals computed using PRISM.
   1 Symmetry operations used in ECPInt.
 ECPInt:  NShTT=    1596 NPrTT=   10643 LenC2=    1597 LenP2D=    8397.
 LDataN:  DoStor=T MaxTD1= 7 Len=  274
 NBasis=   174 RedAO= T EigKep=  2.20D-04  NBF=   174
 NBsUse=   174 1.00D-06 EigRej= -1.00D+00 NBFU=   174
 Initial guess from the checkpoint file:  "/gscratch/ilahie/abmccoy/hocl/i_hocl.chk"
 B after Tr=     0.000000   -0.000000   -0.000000
         Rot=    1.000000    0.000000   -0.000000    0.000045 Ang=   0.01 deg.
 Keep R1 ints in memory in canonical form, NReq=173964083.
 Requested convergence on RMS density matrix=1.00D-08 within 128 cycles.
 Requested convergence on MAX density matrix=1.00D-06.
 Requested convergence on             energy=1.00D-06.
 No special actions if energy rises.
 SCF Done:  E(RHF) =  -829.685767051     A.U. after    9 cycles
            NFock=  9  Conv=0.36D-08     -V/T= 2.2851
 ExpMin= 2.53D-02 ExpMax= 4.56D+05 ExpMxC= 1.44D+03 IAcc=3 IRadAn=         5 AccDes= 0.00D+00
 HarFok:  IExCor=  205 AccDes= 0.00D+00 IRadAn=         5 IDoV=-2 UseB2=F ITyADJ=14
 ICtDFT= 12500011 ScaDFX=  1.000000  1.000000  1.000000  1.000000
 Defaulting to unpruned grid for atomic number  53.
 Range of M.O.s used for correlation:    11   174
 NBasis=   174 NAE=    26 NBE=    26 NFC=    10 NFV=     0
 NROrb=    164 NOA=    16 NOB=    16 NVA=   148 NVB=   148

 **** Warning!!: The largest alpha MO coefficient is  0.19096527D+02

 Fully direct method using O(ONN) memory.
 JobTyp=1 Pass  1:  I=  11 to  26 NPSUse= 28 ParTrn=T ParDer=T DoDerP=T.
 Spin components of T(2) and E(2):
     alpha-alpha T2 =       0.3147349409D-01 E2=     -0.9173509560D-01
     alpha-beta  T2 =       0.1660660728D+00 E2=     -0.4992654718D+00
     beta-beta   T2 =       0.3147349409D-01 E2=     -0.9173509560D-01
 ANorm=    0.1108608615D+01
 E2 =    -0.6827356630D+00 EUMP2 =    -0.83036850271370D+03
          IDoAtm=1111
          Differentiating once with respect to electric field.
                with respect to dipole field.
          Differentiating once with respect to nuclear coordinates.
 Keep R1 ints in memory in canonical form, NReq=173968743.
          There are     1 degrees of freedom in the 1st order CPHF.  IDoFFX=0 NUNeed=     1.
 LinEq1:  Iter=  0 NonCon=     1 RMS=2.90D-03 Max=4.54D-02 NDo=     1
 AX will form     1 AO Fock derivatives at one time.
 LinEq1:  Iter=  1 NonCon=     1 RMS=4.56D-04 Max=5.02D-03 NDo=     1
 LinEq1:  Iter=  2 NonCon=     1 RMS=2.03D-04 Max=3.89D-03 NDo=     1
 LinEq1:  Iter=  3 NonCon=     1 RMS=6.29D-05 Max=1.08D-03 NDo=     1
 LinEq1:  Iter=  4 NonCon=     1 RMS=2.95D-05 Max=8.46D-04 NDo=     1
 LinEq1:  Iter=  5 NonCon=     1 RMS=7.84D-06 Max=1.25D-04 NDo=     1
 LinEq1:  Iter=  6 NonCon=     1 RMS=1.90D-06 Max=2.19D-05 NDo=     1
 LinEq1:  Iter=  7 NonCon=     1 RMS=4.42D-07 Max=7.99D-06 NDo=     1
 LinEq1:  Iter=  8 NonCon=     1 RMS=1.05D-07 Max=2.17D-06 NDo=     1
 LinEq1:  Iter=  9 NonCon=     1 RMS=3.24D-08 Max=6.36D-07 NDo=     1
 LinEq1:  Iter= 10 NonCon=     1 RMS=9.57D-09 Max=1.84D-07 NDo=     1
 LinEq1:  Iter= 11 NonCon=     1 RMS=2.12D-09 Max=4.57D-08 NDo=     1
 LinEq1:  Iter= 12 NonCon=     1 RMS=4.84D-10 Max=8.46D-09 NDo=     1
 LinEq1:  Iter= 13 NonCon=     1 RMS=1.40D-10 Max=2.77D-09 NDo=     1
 LinEq1:  Iter= 14 NonCon=     0 RMS=2.71D-11 Max=3.71D-10 NDo=     1
 Linear equations converged to 1.000D-10 1.000D-09 after    14 iterations.
 End of Minotr F.D. properties file   721 does not exist.
 End of Minotr F.D. properties file   722 does not exist.
 End of Minotr F.D. properties file   788 does not exist.
   1 Symmetry operations used in ECPInt.
 ECPInt:  NShTT=    1596 NPrTT=   10643 LenC2=    1597 LenP2D=    8397.
 LDataN:  DoStor=T MaxTD1= 8 Len=  415
 Calling FoFJK, ICntrl=  10002127 FMM=F ISym2X=0 I1Cent= 0 IOpClX= 0 NMat=1 NMatS=1 NMatT=0.
 ***** Axes restored to original set *****
 -------------------------------------------------------------------
 Center     Atomic                   Forces (Hartrees/Bohr)
 Number     Number              X              Y              Z
 -------------------------------------------------------------------
      1        8          -0.000048056    0.000000119   -0.000064919
      2        1          -0.000137893   -0.000000180   -0.000003396
      3       17           0.000088198    0.000000005    0.000088800
      4       53           0.000097751    0.000000056   -0.000020485
 -------------------------------------------------------------------
 Cartesian Forces:  Max     0.000137893 RMS     0.000065313
 -----------------------------------------------------------------------------------------------
                       Internal Coordinate Forces (Hartree/Bohr or radian)
  Cent   Atom   N1       Length/X         N2         Alpha/Y        N3         Beta/Z          J
 -----------------------------------------------------------------------------------------------
      1  O 
      2  H        1  -0.000003(     1)
      3  Cl       1   0.000065(     2)      2   0.000263(     4)
[...]
      5(1)        4(1)       895.232    856.158                      0.20028183
      6(1)        1(1)      3115.162   2826.795                    134.17343140
      6(1)        2(1)      1457.674   1413.272                      2.38122123
      6(1)        3(1)       843.502    831.621                      0.03786505
      6(1)        4(1)       764.578    734.454                      0.01912511
      6(1)        5(1)       273.752    270.516                      0.28970669

 Units: Transition energies (E) in cm^-1
        Dipole strengths (DS) in 10^-40 esu^2.cm^2

 Fundamental Bands
 -----------------
   Mode(n)                  E(harm)   E(anharm)       DS(harm)      DS(anharm)
      1(1)                  3043.613   2750.593   3061.13018335   2852.56806286
      2(1)                  1386.125   1348.831     50.49256869    146.90152145
      3(1)                   771.954    760.809     41.64031888     43.41346032
      4(1)                   693.029    665.887     84.62901962     88.95338132
      5(1)                   202.203    199.534    189.78022022    227.85936435
      6(1)                    71.549     71.382     90.72723389     90.38368966

 Overtones
 ---------
   Mode(n)                  E(harm)   E(anharm)                     DS(anharm)
      1(2)                  6087.226   5158.599                      4.07744121
      2(2)                  2772.250   2642.918                    542.05867572
      3(2)                  1543.907   1514.583                      0.62315853
      4(2)                  1386.058   1283.197                    125.89947164
      5(2)                   404.406    394.049                      0.36401987
      6(2)                   143.098    143.202                      0.76918479

 Combination Bands
 -----------------
   Mode(n)     Mode(n)      E(harm)   E(anharm)                     DS(anharm)
      2(1)        1(1)      4429.738   4119.140                      0.86394254
      3(1)        1(1)      3815.567   3512.406                      1.04903904
      3(1)        2(1)      2158.078   2097.383                      4.45081597
      4(1)        1(1)      3736.642   3465.725                      0.27806636
      4(1)        2(1)      2079.154   2007.189                      0.04590006
      4(1)        3(1)      1464.983   1425.839                      0.08068692
      5(1)        1(1)      3245.816   2969.780                     66.64221578
      5(1)        2(1)      1588.328   1538.609                      8.70968971
      5(1)        3(1)       974.156    960.111                      0.02737398
      5(1)        4(1)       895.232    856.158                      0.93324382
      6(1)        1(1)      3115.162   2826.795                    189.35624709
      6(1)        2(1)      1457.674   1413.272                      6.72173521
      6(1)        3(1)       843.502    831.621                      0.18164387
      6(1)        4(1)       764.578    734.454                      0.10388356
      6(1)        5(1)       273.752    270.516                      4.27241163


 GradGradGradGradGradGradGradGradGradGradGradGradGradGradGradGradGradGrad
 Berny optimization.
 Search for a local minimum.
 Step number   1 out of a maximum of    2
 All quantities printed in internal units (Hartrees-Bohrs-Radians)
 Second derivative matrix not updated -- analytic derivatives used.
 The second derivative matrix:
                          r1        r2        r3        a1        a2
           r1           0.33101
           r2          -0.00486   0.26327
           r3           0.00884  -0.00146   0.02269
           a1          -0.00198   0.06116  -0.00153   0.25258
           a2           0.00506  -0.00929   0.00356  -0.06127   0.05828
           d1          -0.00000   0.00000  -0.00000   0.00000   0.00000
                          d1
           d1           0.06111
 ITU=  0
     Eigenvalues ---    0.02195   0.04064   0.06111   0.20555   0.32392
     Eigenvalues ---    0.33577
 Angle between quadratic step and forces=  50.18 degrees.
 Linear search not attempted -- first point.
 Variable       Old X    -DE/DX   Delta X   Delta X   Delta X     New X
                                 (Linear)    (Quad)   (Total)
    r1        1.90474  -0.00003   0.00000  -0.00001  -0.00001   1.90473
    r2        3.18916  -0.00006   0.00000  -0.00060  -0.00060   3.18856
    r3        6.25608  -0.00007   0.00000  -0.00280  -0.00280   6.25327
    a1        1.80059   0.00037   0.00000   0.00137   0.00137   1.80196
    a2        1.84823  -0.00014   0.00000  -0.00089  -0.00089   1.84734
    d1       -0.00000   0.00000   0.00000   0.00000   0.00000  -0.00000
         Item               Value     Threshold  Converged?
 Maximum Force            0.000368     0.000450     YES
 RMS     Force            0.000166     0.000300     YES
 Maximum Displacement     0.002802     0.001800     NO 
 RMS     Displacement     0.001347     0.001200     NO 
 Predicted change in Energy=-4.288578D-07
                       ----------------------------
                       ! Non-Optimized Parameters !
                       ! (Angstroms and Degrees)  !
 ----------------------                            ----------------------
 !      Name          Value   Derivative information (Atomic Units)     !
 ------------------------------------------------------------------------
 !       r1          1.0079   -DE/DX =    0.0                           !
 !       r2          1.6873   -DE/DX =   -0.0001                        !
 !       r3          3.3091   -DE/DX =   -0.0001                        !
 !       a1        103.2447   -DE/DX =    0.0004                        !
 !       a2        105.8449   -DE/DX =   -0.0001                        !
 !       d1          0.0      -DE/DX =    0.0                           !
 ------------------------------------------------------------------------
 GradGradGradGradGradGradGradGradGradGradGradGradGradGradGradGradGradGrad


 ----------------------------------------------------------------------

 Electric dipole moment (input orientation):
 (Debye = 10**-18 statcoulomb cm , SI units = C m)
                  (au)            (Debye)         (10**-30 SI)
   Tot        0.741467D+00      0.188462D+01      0.628642D+01
   x          0.484987D+00      0.123271D+01      0.411189D+01
   y          0.000000D+00      0.000000D+00      0.000000D+00
   z         -0.560858D+00     -0.142556D+01     -0.475515D+01

 Dipole polarizability, Alpha (input orientation).
 (esu units = cm**3 , SI units = C**2 m**2 J**-1)
 Alpha(0;0):
               (au)            (10**-24 esu)      (10**-40 SI)
   iso        0.809946D+02      0.120022D+02      0.133542D+02
   aniso      0.271089D+02      0.401712D+01      0.446965D+01
   xx         0.788726D+02      0.116877D+02      0.130043D+02
   yx         0.210193D-04      0.311474D-05      0.346561D-05
   yy         0.697857D+02      0.103412D+02      0.115061D+02
   zx        -0.954124D+01     -0.141387D+01     -0.157314D+01
   zy        -0.728669D-04     -0.107978D-04     -0.120141D-04
   zz         0.943256D+02      0.139776D+02      0.155522D+02

 ----------------------------------------------------------------------

 Dipole orientation:
     8         -0.00000000          0.00000000          0.00000000
     1          1.24587315         -0.00000505         -1.44077684
    17          1.87377507          0.00000497          2.58063945
    53          3.86202937          0.00000086         -4.92170905

 Electric dipole moment (dipole orientation):
 (Debye = 10**-18 statcoulomb cm , SI units = C m)
                  (au)            (Debye)         (10**-30 SI)
   Tot        0.741467D+00      0.188462D+01      0.628642D+01
   x          0.000000D+00      0.000000D+00      0.000000D+00
   y          0.000000D+00      0.000000D+00      0.000000D+00
   z          0.741467D+00      0.188462D+01      0.628642D+01

 Dipole polarizability, Alpha (dipole orientation).
 (esu units = cm**3 , SI units = C**2 m**2 J**-1)
 Alpha(0;0):
               (au)            (10**-24 esu)      (10**-40 SI)
   iso        0.809946D+02      0.120022D+02      0.133542D+02
   aniso      0.271089D+02      0.401712D+01      0.446965D+01
   xx         0.760426D+02      0.112683D+02      0.125377D+02
   yx         0.000000D+00      0.000000D+00      0.000000D+00
   yy         0.697857D+02      0.103412D+02      0.115061D+02
   zx        -0.626849D+01     -0.928895D+00     -0.103354D+01
   zy         0.000000D+00      0.000000D+00      0.000000D+00
   zz         0.971556D+02      0.143970D+02      0.160188D+02

 ----------------------------------------------------------------------
 1\1\GINC-N2228\Freq\RMP2-FC\Gen\Cl1H1I1O1(1-)\ABMCCOY\22-Jun-2021\1\\#
 N Geom=AllCheck Guess=TCheck SCRF=Check GenChk RMP2(FC)/ChkBas Freq\\t
 itle\\-1,1\O\H,1,r1\Cl,1,r2,2,a1\I,1,r3,3,a2,2,d1,0\\r1=1.00794547\r2=
 1.68763009\r3=3.31057301\a1=103.1662624\a2=105.89597491\d1=-0.00016875
 \\Version=ES64L-G16RevB.01\State=1-A\HF=-829.6857194\MP2=-830.3685058\
 RMSD=7.627e-10\RMSF=1.066e-04\ZeroPoint=0.0140528\Thermal=0.0184435\Di
 pole=0.4849866,0.000002,-0.5608577\DipoleDeriv=-0.4175872,0.,0.1177824
 ,0.,-0.2607508,0.0000009,0.3656843,0.0000027,-1.197621,0.0436482,0.000
 0002,-0.0883635,0.0000005,0.112168,-0.000003,-0.3997036,-0.0000042,1.4
 718274,0.154854,0.,-0.0620779,0.,-0.0696496,0.,-0.081725,0.,-0.0829004
 ,-0.7809149,-0.0000001,0.032659,-0.0000005,-0.7817676,0.0000021,0.1157
 444,0.0000015,-1.191306\Polar=78.8725813,0.000021,69.7857018,-9.541237
 1,-0.0000729,94.3255614\Quadrupole=3.2807408,3.5749845,-6.8557253,-0.0
 000061,1.961542,0.0000257\PG=C01 [X(Cl1H1I1O1)]\NImag=0\\0.25902495,0.
 ,0.00797434,-0.03911837,-0.00000003,0.40934138,-0.04037030,0.,-0.03947
 491,0.06963629,0.00000001,-0.01186697,-0.00000009,0.,0.01780593,0.0052
 3749,-0.00000003,-0.33996339,0.00093928,0.00000009,0.33100839,-0.22074
 289,0.,0.07532390,-0.02409155,-0.00000001,-0.00494777,0.24334994,0.,0.
 00026920,0.,0.,-0.00046312,0.,0.,0.00003930,0.03136898,0.,-0.03831328,
 0.03797887,0.,0.00016593,-0.06887768,0.,0.03845643,0.00208824,0.,0.003
 26937,-0.00517444,0.,-0.00122900,0.00148450,0.,-0.00047018,0.00160170,
 0.,0.00362344,0.00000013,0.,-0.00547583,-0.00000007,0.,0.00015462,0.,0
 .,0.00169777,0.00251189,0.00000006,-0.03106471,0.00055676,0.,0.0087890
 7,-0.00149846,0.,-0.00030908,-0.00157019,-0.00000006,0.02258472\\-0.00
 024377,-0.00000006,-0.00015631,0.00019337,0.00000010,0.00003377,0.0000
 7606,0.,0.00005561,-0.00002566,-0.00000003,0.00006693\\0.00383327,-0.0
 0000004,0.00089565,-0.00314589,0.,-0.00757960,0.00137226,0.,0.01201064
 ,0.00073887,0.,-0.00067686,0.,0.,0.00020230,0.01077787,0.,0.00419094,-
 0.01139433,0.,-0.00403805,-0.00532217,0.00000003,-0.00792772,-0.002148
 31,0.,0.00003880,0.00753888,0.00000003,-0.00038936,0.,0.,0.00049762,0.
 ,-0.00000004,-0.00009308,-0.00818243,0.,0.00518766,-0.00041972,0.,0.00
 012027,0.00835895,0.,-0.00535795,0.00011663,0.,-0.00093703,0.00003718,
 0.,0.00057766,-0.00006840,0.,0.00024320,-0.00008541,0.,0.00017058,0.,0
 .,-0.00002306,0.,0.,-0.00001518,0.,0.,-0.00013234,0.00055044,0.,-0.001
 79899,-0.00019659,0.,-0.00027315,-0.00047003,0.,0.00005002,0.00011617,
 0.,0.00202212,-0.00465924,0.00000006,-0.00294296,0.00691597,0.00000002
 ,-0.00536009,-0.00109079,0.,-0.02128692,-0.00177246,0.,0.00133280,-0.0
 0000006,0.00000001,-0.00061168,-0.02061400,-0.00000002,0.02034285,0.01
 951299,0.00000002,-0.01657913,0.00519826,-0.00000005,0.01221254,0.0031
 5497,0.,0.00172951,-0.00885155,-0.00000005,0.00086920,0.00000001,0.,-0
 .00063682,0.,0.00000006,-0.00030669,0.01416592,0.,-0.00730922,0.000659
 95,0.00000001,-0.00082976,-0.01436269,-0.00000001,0.00848479,0.0005517
 8,0.,0.00215841,-0.00029172,0.,-0.00062851,0.00049831,0.,-0.00046318,-
 0.00075837,0.,0.00074096,0.00000003,0.,-0.00008430,0.,0.,0.00007431,0.
 ,0.,-0.00073097,-0.00046789,0.,-0.00767354,0.00111399,0.00000003,-0.00
 293396,0.00042063,0.,-0.00034582,-0.00106673,-0.00000004,0.01095332,-0
 .00000010,0.01193314,-0.00000006,0.00000004,0.20509378,0.00000050,0.00
 000002,-0.02419128,-0.00000003,-0.00000003,0.00109224,0.00000007,-0.19
 864532,0.00726475,-0.00000011,0.,-0.18011524,-0.00000060,0.00000001,0.
 18567461,0.00000059,0.00000009,0.01182221,0.,0.,-0.00786043,-0.0000000
 2,-0.00000008,-0.01233342,0.,-0.01150568,0.01678846,0.,-0.00027716,-0.
 00456547,0.,-0.00000003,-0.01744909,-0.00000001,0.00000001,0.00596744,
 0.,0.00000002,0.01160497,0.00000001,0.,0.00043593,0.,0.00000002,-0.000
 49656,0.,0.,0.00011043,0.,0.,-0.00069196,0.,0.00505722,0.00013807,0.00
 000003,-0.00528221,0.00060369,0.,-0.00012332,-0.00004980,-0.00000002,-
 0.00000002,-0.00752945,0.00000012,0.,0.00700326,0.,0.00000001,0.000177
 87,0.,0.,0.00034831,-0.00000012,0.18360433,0.,-0.02187144,-0.07550907,
 0.00000010,0.01279953,0.00226821,-0.00000001,0.01517736,0.00763978,0.,
 -0.00097464,-0.00000009,0.,0.00026165,0.02449959,-0.00000009,-0.013466
 96,-0.02379948,0.00000010,0.01106740,-0.18556455,0.,0.06009788,-0.0097
 5283,0.,-0.00047423,0.19525303,0.,0.02285490,0.,0.,0.00083671,0.,0.,-0
 .02355304,0.04858037,0.,0.00045705,0.00975230,0.,0.00052316,-0.0583508
 6,0.,-0.00192824,-0.00030799,0.,0.00023384,-0.00015516,0.,-0.00022588,
 0.00006436,0.,0.00001819,0.00039879,0.,-0.00000882,0.,0.,-0.00012372,0
 .,0.,-0.00013857,0.,0.,0.00027111,0.00242911,0.,0.00021037,-0.00113018
 ,0.,0.00187640,-0.00127279,0.,0.00094803,-0.00002615,0.00000001,-0.003
 03480,-0.01991722,0.,0.03335505,0.13106930,0.,-0.03082032,0.01565451,0
 .00000002,-0.14511282,0.01788748,-0.00000003,-0.02180116,0.00000002,0.
 00000001,0.00439574,-0.13406801,0.,0.00779037,0.11720415,-0.00000002,0
 .02687521,0.00562727,0.,0.00876535,-0.03419714,0.,0.02354856,0.0279202
 1,0.,-0.01114730,0.,0.,0.01718933,0.,0.,-0.00614355,0.01114125,0.,0.01
 771434,0.02061887,0.,-0.03218653,-0.03236134,0.,0.01359287,-0.00136456
 ,0.,0.00527818,0.00065515,0.00000002,-0.00668470,0.00064967,0.,0.00060
 122,0.00005975,0.00000003,-0.00040659,-0.00000002,-0.00000002,0.000216
 08,0.00000001,0.,0.00010152,0.,0.,0.00008898,-0.00814253,0.,0.00531561
 ,0.00728980,0.,-0.00247905,0.00004742,0.,0.00087932,0.00080531,0.00000
 001,-0.00371589,0.16426685,0.00000001,0.17920638,-0.00776188,0.0000000
 5,-1.51253337,-0.13703721,-0.00000002,0.02800657,0.12270239,0.00000002
 ,-0.18309196,-0.00000023,0.,0.18776646,-0.02219986,-0.00000004,1.53320
 209,0.00555250,0.00000020,-1.55917443,-0.02899826,0.,-0.02509848,0.021
 22432,-0.00000002,0.02037216,0.00672181,0.,0.00260591,-0.00000001,0.00
 000001,0.00076752,0.,0.,-0.00332906,0.02329781,-0.00000002,0.02093416,
 -0.03114750,0.,-0.00542924,0.00912916,0.00000001,-0.01593060,0.0017686
 1,0.,0.00485380,-0.00688950,0.,-0.00372480,0.00105214,0.,-0.00127946,0
 .00406875,-0.00000003,0.00127967,0.00000019,0.00000001,-0.00544202,-0.
 00000017,0.00000002,-0.00004437,0.,0.,0.00420672,0.00666394,0.,-0.0416
 0288,-0.00241157,0.00000001,0.03140158,-0.00440283,0.,0.00042568,0.000
 15046,-0.00000002,0.00977562,-0.00395034,0.,0.00068058,0.00211947,-0.0
 0000004,-0.00257467,-0.00110441,0.00000001,0.00002486,0.00078080,0.,-0
 .00015556,0.00000004,0.,0.00020663,-0.00043027,0.00000003,0.00323032,0
 .00048913,-0.00000002,-0.00331814,0.00505532,0.,-0.00200343,0.00028405
 ,0.,-0.00005257,-0.00528227,0.,-0.00050009,0.,0.,-0.00007573,0.,0.,0.0
 0056198,-0.00173922,0.00000001,-0.00081660,-0.00038608,0.,0.00006857,0
 .00202450,0.,0.00091216,-0.00000059,0.,-0.00014090,0.00003956,0.,-0.00
 000630,-0.00005765,0.,0.00010064,0.00001869,0.,-0.00002494,0.,0.,0.000
 02467,0.,0.,0.00001349,0.,0.,-0.00001321,0.00005003,0.,0.00016087,-0.0
 0012793,0.,0.00001938,0.00003134,0.,-0.00016433,0.00004656,0.,-0.00001
 599,-0.01085112,0.,0.00118885,0.00280813,-0.00000005,-0.00888839,-0.00
 263064,0.,0.00143767,0.00143123,0.,-0.00002143,0.00000003,0.,-0.000265
 10,0.00105731,0.00000003,0.01183669,-0.00123487,-0.00000004,-0.0097469
 0,0.01328792,0.,-0.00516313,0.00094333,0.,-0.00011877,-0.01427692,0.,-
 0.00125566,0.,0.,-0.00017462,0.,0.,0.00138752,-0.00350078,0.00000001,-
 0.00160839,-0.00136502,0.,0.00036761,0.00496719,0.,0.00172057,0.000193
 83,0.,0.00091733,0.00025607,0.,0.00029633,0.00004554,0.,-0.00010145,-0
 .00049543,0.,0.00008823,0.,0.,0.00046115,0.,0.,0.00004258,0.,0.,-0.000
 59196,-0.00036466,0.,-0.00133998,0.00116223,0.00000001,-0.00245735,0.0
 0031465,0.,-0.00047982,-0.00111223,-0.00000002,0.00427713,0.08453141,-
 0.00000002,0.31985286,-0.02213661,0.00000073,-1.02307140,-0.07254462,-
 0.00000003,0.03603529,0.06727053,0.00000007,-0.30292531,-0.00000073,-0
 .00000002,0.29235413,-0.00197711,-0.00000071,0.99627569,-0.01131175,0.
 00000079,-1.00634598,-0.01142356,0.00000004,-0.01478385,0.00592484,-0.
 00000005,0.01465238,0.00524875,-0.00000003,-0.01557493,0.,0.00000003,0
 .00746843,0.,0.,0.00831015,0.02269721,0.,0.02745186,-0.02274542,-0.000
 00002,-0.00870325,0.00076445,0.00000001,-0.01823109,-0.00056323,0.,0.0
 0088518,-0.00065076,0.,-0.00136353,0.00024921,0.,-0.00071633,0.0009647
 7,-0.00000003,-0.00135262,0.,0.00000002,0.00310275,-0.00000007,0.,-0.0
 0020436,0.,0.,-0.00154577,0.00141653,-0.00000002,-0.00065621,-0.001978
 12,-0.00000003,0.01877367,-0.00063307,0.,-0.00051810,0.00119466,0.0000
 0006,-0.01759941,0.14914314,-0.00000001,-0.01938207,-0.03913229,-0.000
 00003,-0.03273199,-0.00287487,0.00000002,0.00132189,0.00460574,0.00000
 002,-0.00324571,0.00000003,-0.00000001,0.00226438,-0.00385619,0.000000
 02,0.02020407,-0.00267723,-0.00000002,-0.01821646,-0.14642140,0.,0.037
 56883,-0.00172652,0.,0.00688293,0.14832559,0.,0.02264489,0.,0.,0.00102
 500,0.,0.,-0.02365333,0.04192711,0.,0.01260309,0.00124035,0.,-0.001682
 16,-0.04314019,0.,-0.01142835,0.00015313,0.,0.00024158,-0.00000435,0.,
 -0.00034952,-0.00017812,0.,-0.00002735,0.00002933,0.,-0.00001709,0.,0.
 ,-0.00004367,0.,0.,-0.00001710,0.,0.,0.00007786,0.00106139,0.,-0.00007
 523,0.00011498,0.,-0.00030534,-0.00131166,0.,0.00050716,0.00013530,0.,
 -0.00012664,0.14155129,0.,0.04595187,-0.02816755,-0.00000002,-0.945746
 35,-0.13882764,0.,0.05804775,0.14288738,0.00000004,-0.06502669,0.,-0.0
 0000003,0.06363307,-0.03721968,0.00000004,0.90462740,-0.01417194,0.000
 00004,-0.89389381,-0.00587493,0.,-0.02923306,-0.00036622,-0.00000002,0
 .05117167,0.00560008,-0.00000001,0.02006787,0.,0.,0.00206600,0.,0.0000
 0001,-0.02238959,0.05722043,0.,0.04270208,-0.03607668,0.,-0.03014597,-
 0.02058693,0.,-0.01046438,0.00315127,0.,-0.00064714,-0.00369353,0.,0.0
 0021995,0.00064098,0.,-0.00055679,-0.00009871,-0.00000003,-0.00099307,
 0.00000001,0.00000003,-0.00067238,-0.00000009,0.,0.00025574,0.,0.,0.00
 140970,0.00816681,-0.00000002,-0.00158318,-0.00779913,-0.00000005,0.01
 941241,-0.00135165,0.,-0.00209189,0.00098397,0.00000007,-0.01573735,-0
 .98505475,0.,-1.01579411,0.01269332,-0.00000077,5.13202933,0.95386524,
 0.00000004,-0.00054552,-0.92875963,0.,1.02226059,0.00000080,0.00000001
 ,-1.01285193,0.00986487,0.00000081,-5.14950185,-0.01901554,-0.00000091
 ,5.17769854,0.03242113,-0.00000004,-0.01090911,-0.01659065,0.,0.007700
 75,-0.01571339,0.00000001,-0.00598447,0.,-0.00000003,-0.00058666,0.,0.
 00000002,0.00688647,-0.02304216,0.00000002,0.00135159,0.01412406,0.,0.
 00296425,0.00917378,0.,-0.00705726,-0.00123164,0.,-0.00123868,-0.00851
 496,0.,0.00144992,-0.00011772,0.,-0.00025574,0.00986432,0.,-0.00048201
 ,-0.00000005,-0.00000002,-0.00882199,0.00000010,0.00000003,-0.00031613
 ,-0.00000001,0.,0.00962013,0.00048399,-0.00000007,0.01612087,0.0054369
 9,0.00000011,-0.03116087,-0.00596547,0.,0.00274093,0.00004450,-0.00000
 004,0.01229904\\@


       THE DEATH-KNELL OF THE ATOM

 SO THE ATOMS IN TURN, WE NOW CLEARLY DISCERN,
 FLY TO BITS WITH THE UTMOST FACILITY;
 THEY WEND ON THEIR WAY, AND, IN SPLITTING, DISPLAY
 AN ABSOLUTE LACK OF STABILITY.

          SIR WM. RAMSAY, 1905
 Job cpu time:       1 days  2 hours 21 minutes 29.6 seconds.
 Elapsed time:       0 days  0 hours 57 minutes  5.6 seconds.
 File lengths (MBytes):  RWF=   7354 Int=      0 D2E=      0 Chk=     48 Scr=      1
 Normal termination of Gaussian 16 at Tue Jun 22 20:12:35 2021.
