title                                                                   
SP        RMP2-FC                                                     Gen                 
Number of atoms                            I                4
Info1-9                                    I   N=           9
         135         126           0           0           0         110
           1           2           1
Full Title                                 C   N=           1
title       
Route                                      C   N=           5
#p pop=NBO SP NoSymm mp2/gen Pseudo=read density=current    
Charge                                     I               -1
Multiplicity                               I                1
Number of electrons                        I               52
Number of alpha electrons                  I               26
Number of beta electrons                   I               26
Number of basis functions                  I              174
Number of independent functions            I              174
Number of point charges in /Mol/           I                0
Number of translation vectors              I                0
Atomic numbers                             I   N=           4
           8          53          17           1
Nuclear charges                            R   N=           4
  8.00000000E+00  2.50000000E+01  1.70000000E+01  1.00000000E+00
Current cartesian coordinates              R   N=          12
  0.00000000E+00  0.00000000E+00  0.00000000E+00  6.25933684E+00  0.00000000E+00
  0.00000000E+00 -7.30225624E-01  3.10228121E+00  0.00000000E+00  1.90493842E+00
  0.00000000E+00  0.00000000E+00
Number of symbols in /Mol/                 I                0
Force Field                                I                0
Atom Types                                 C   N=           4
                                                
Int Atom Types                             I   N=           4
           0           0           0           0
MM charges                                 R   N=           4
  0.00000000E+00  0.00000000E+00  0.00000000E+00  0.00000000E+00
Integer atomic weights                     I   N=           4
          16         127          35           1
Real atomic weights                        R   N=           4
  1.59949146E+01  1.26900400E+02  3.49688527E+01  1.00782504E+00
Atom fragment info                         I   N=           4
           0           0           0           0
Atom residue num                           I   N=           4
           0           0           0           0
Nuclear spins                              I   N=           4
           0           5           3           1
Nuclear ZEff                               R   N=           4
 -5.60000000E+00 -5.83000000E+03 -1.42400000E+01 -1.00000000E+00
Nuclear ZNuc                               R   N=           4
  8.00000000E+00  5.30000000E+01  1.70000000E+01  1.00000000E+00
Nuclear QMom                               R   N=           4
  0.00000000E+00 -7.10000000E+01 -8.16500000E+00  0.00000000E+00
Nuclear GFac                               R   N=           4
  0.00000000E+00  2.81328000E+00  8.21874000E-01  2.79284600E+00
MicOpt                                     I   N=           4
          -1          -1          -1          -1
Number of residues                         I                0
Number of secondary structures             I                0
Number of contracted shells                I               56
Number of primitive shells                 I              143
Pure/Cartesian d shells                    I                0
Pure/Cartesian f shells                    I                0
Highest angular momentum                   I                3
Largest degree of contraction              I               11
Shell types                                I   N=          56
           0           0           0           0           0           1
           1           1           1          -2          -2          -2
          -3          -3           0           0           0           0
           0           0           1           1           1           1
           1          -2          -2          -2          -2          -3
          -3           0           0           0           0           0
           0           1           1           1           1           1
          -2          -2          -2          -3          -3           0
           0           0           0           1           1           1
          -2          -2
Number of primitives per shell             I   N=          56
           7           6           1           1           1           3
           1           1           1           1           1           1
           1           1           9           8           1           1
           1           1           8           8           1           1
           1           9           1           1           1           1
           1          11           9           8           1           1
           1           6           6           1           1           1
           1           1           1           1           1           3
           1           1           1           1           1           1
           1           1
Shell to atom map                          I   N=          56
           1           1           1           1           1           1
           1           1           1           1           1           1
           1           1           2           2           2           2
           2           2           2           2           2           2
           2           2           2           2           2           2
           2           3           3           3           3           3
           3           3           3           3           3           3
           3           3           3           3           3           4
           4           4           4           4           4           4
           4           4
Primitive exponents                        R   N=         143
  1.53300000E+04  2.29900000E+03  5.22400000E+02  1.47300000E+02  4.75500000E+01
  1.67600000E+01  6.20700000E+00  5.22400000E+02  1.47300000E+02  4.75500000E+01
  1.67600000E+01  6.20700000E+00  6.88200000E-01  1.75200000E+00  2.38400000E-01
  7.37600000E-02  3.44600000E+01  7.74900000E+00  2.28000000E+00  7.15600000E-01
  2.14000000E-01  5.97400000E-02  2.31400000E+00  6.45000000E-01  2.14000000E-01
  1.42800000E+00  5.00000000E-01  5.54650000E+03  8.38214000E+02  1.82187000E+02
  3.12123000E+01  1.95314000E+01  8.24099000E+00  2.19455000E+00  1.10911000E+00
  8.10610000E-02  5.54650000E+03  8.38214000E+02  3.12123000E+01  1.95314000E+01
  8.24099000E+00  2.19455000E+00  1.10911000E+00  8.10610000E-02  3.74641000E-01
  1.77080000E-01  1.00100000E-01  4.12000000E-02  1.88988000E+02  2.12868000E+01
  1.00396000E+01  3.45180000E+00  1.97456000E+00  1.02420000E+00  4.49437000E-01
  7.34810000E-02  1.88988000E+02  1.00396000E+01  3.45180000E+00  1.97456000E+00
  1.02420000E+00  4.49437000E-01  1.86648000E-01  7.34810000E-02  5.98100000E-01
  9.61800000E-02  3.59000000E-02  1.32662000E+02  3.76054000E+01  1.03891000E+01
  6.49017000E+00  3.45451000E+00  1.84413000E+00  9.62478000E-01  4.72853000E-01
  1.93200000E-01  4.72853000E-01  1.93200000E-01  7.82000000E-02  4.06400000E-01
  1.84800000E-01  4.56100000E+05  6.83300000E+04  1.55500000E+04  4.40500000E+03
  1.43900000E+03  5.20400000E+02  2.03100000E+02  8.39600000E+01  3.62000000E+01
  1.58300000E+01  6.33400000E+00  4.40500000E+03  1.43900000E+03  5.20400000E+02
  2.03100000E+02  8.39600000E+01  3.62000000E+01  1.58300000E+01  6.33400000E+00
  2.69400000E+00  1.43900000E+03  2.03100000E+02  8.39600000E+01  3.62000000E+01
  1.58300000E+01  6.33400000E+00  2.69400000E+00  4.31300000E-01  9.76800000E-01
  1.62500000E-01  5.91000000E-02  6.63300000E+02  1.56800000E+02  4.99800000E+01
  1.84200000E+01  7.24000000E+00  2.92200000E+00  1.56800000E+02  4.99800000E+01
  1.84200000E+01  7.24000000E+00  2.92200000E+00  3.81800000E-01  1.02200000E+00
  1.30100000E-01  4.19000000E-02  1.04600000E+00  3.44000000E-01  1.35000000E-01
  7.06000000E-01  3.12000000E-01  3.38700000E+01  5.09500000E+00  1.15900000E+00
  3.25800000E-01  1.02700000E-01  2.52600000E-02  1.40700000E+00  3.88000000E-01
  1.02000000E-01  1.05700000E+00  2.47000000E-01
Contraction coefficients                   R   N=         143
  5.19808943E-04  4.02025621E-03  2.07128267E-02  8.10105536E-02  2.35962985E-01
  4.42653446E-01  3.57064423E-01 -4.42115008E-05 -1.22591041E-03 -1.05517725E-02
 -6.74452633E-02 -1.71198607E-01  1.07329856E+00  1.00000000E+00  1.00000000E+00
  1.00000000E+00  4.11634896E-02  2.57762836E-01  8.02419274E-01  1.00000000E+00
  1.00000000E+00  1.00000000E+00  1.00000000E+00  1.00000000E+00  1.00000000E+00
  1.00000000E+00  1.00000000E+00  1.58603022E-04  1.00211458E-03  2.83966410E-03
 -4.40310212E-02  2.38198152E-01 -7.63568980E-01  8.96516870E-01  4.68371203E-01
  2.16251781E-03 -2.17177846E-05 -2.59237305E-04 -1.50376554E-02  2.42214079E-02
  6.99888661E-02 -5.50491335E-01 -5.69654432E-01  3.76065139E-01  1.00000000E+00
  1.00000000E+00  1.00000000E+00  1.00000000E+00  5.85232173E-04  3.69335916E-02
 -2.35399435E-01  3.41625365E-01  5.34991615E-01  2.65244797E-01  2.54463150E-02
  3.82802808E-04 -6.76097015E-05  8.33123161E-03 -4.66496478E-02 -5.27406452E-02
 -2.91398344E-02  3.65650039E-01  5.48502805E-01  2.34644635E-01  1.00000000E+00
  1.00000000E+00  1.00000000E+00  5.72000072E-04  4.40200055E-03 -4.09220051E-02
  9.96610125E-02  3.22663040E-01  4.00343050E-01  2.68306034E-01  8.48470106E-02
  7.63200096E-03  1.00000000E+00  1.00000000E+00  1.00000000E+00  1.00000000E+00
  1.00000000E+00  4.93229477E-05  3.83207967E-04  2.00947816E-03  8.38950124E-03
  2.94843950E-02  8.78759948E-02  2.11589759E-01  3.65611554E-01  3.41246350E-01
  1.02162570E-01  2.14249949E-03 -2.21747925E-06 -1.71189708E-04 -1.27922846E-03
 -9.32956265E-03 -3.98910062E-02 -1.05536085E-01  9.36202446E-03  5.10511140E-01
  5.73150737E-01  4.03949245E-06  2.12481765E-04  8.59484452E-04  4.63248159E-03
  4.47343490E-04 -7.38438245E-02 -3.62271994E-01  1.16620337E+00  1.00000000E+00
  1.00000000E+00  1.00000000E+00  2.47206402E-03  1.97550234E-02  9.09917355E-02
  2.63187834E-01  4.49078073E-01  3.60183072E-01  3.03427809E-05 -1.22475826E-03
 -6.01429772E-03 -2.76401323E-02  4.35105612E-04  1.00307272E+00  1.00000000E+00
  1.00000000E+00  1.00000000E+00  1.00000000E+00  1.00000000E+00  1.00000000E+00
  1.00000000E+00  1.00000000E+00  2.54948632E-02  1.90362766E-01  8.52162022E-01
  1.00000000E+00  1.00000000E+00  1.00000000E+00  1.00000000E+00  1.00000000E+00
  1.00000000E+00  1.00000000E+00  1.00000000E+00
Coordinates of each shell                  R   N=         168
  0.00000000E+00  0.00000000E+00  0.00000000E+00  0.00000000E+00  0.00000000E+00
  0.00000000E+00  0.00000000E+00  0.00000000E+00  0.00000000E+00  0.00000000E+00
  0.00000000E+00  0.00000000E+00  0.00000000E+00  0.00000000E+00  0.00000000E+00
  0.00000000E+00  0.00000000E+00  0.00000000E+00  0.00000000E+00  0.00000000E+00
  0.00000000E+00  0.00000000E+00  0.00000000E+00  0.00000000E+00  0.00000000E+00
  0.00000000E+00  0.00000000E+00  0.00000000E+00  0.00000000E+00  0.00000000E+00
  0.00000000E+00  0.00000000E+00  0.00000000E+00  0.00000000E+00  0.00000000E+00
  0.00000000E+00  0.00000000E+00  0.00000000E+00  0.00000000E+00  0.00000000E+00
  0.00000000E+00  0.00000000E+00  6.25933684E+00  0.00000000E+00  0.00000000E+00
  6.25933684E+00  0.00000000E+00  0.00000000E+00  6.25933684E+00  0.00000000E+00
  0.00000000E+00  6.25933684E+00  0.00000000E+00  0.00000000E+00  6.25933684E+00
  0.00000000E+00  0.00000000E+00  6.25933684E+00  0.00000000E+00  0.00000000E+00
  6.25933684E+00  0.00000000E+00  0.00000000E+00  6.25933684E+00  0.00000000E+00
  0.00000000E+00  6.25933684E+00  0.00000000E+00  0.00000000E+00  6.25933684E+00
  0.00000000E+00  0.00000000E+00  6.25933684E+00  0.00000000E+00  0.00000000E+00
  6.25933684E+00  0.00000000E+00  0.00000000E+00  6.25933684E+00  0.00000000E+00
  0.00000000E+00  6.25933684E+00  0.00000000E+00  0.00000000E+00  6.25933684E+00
  0.00000000E+00  0.00000000E+00  6.25933684E+00  0.00000000E+00  0.00000000E+00
  6.25933684E+00  0.00000000E+00  0.00000000E+00 -7.30225624E-01  3.10228121E+00
  0.00000000E+00 -7.30225624E-01  3.10228121E+00  0.00000000E+00 -7.30225624E-01
  3.10228121E+00  0.00000000E+00 -7.30225624E-01  3.10228121E+00  0.00000000E+00
 -7.30225624E-01  3.10228121E+00  0.00000000E+00 -7.30225624E-01  3.10228121E+00
  0.00000000E+00 -7.30225624E-01  3.10228121E+00  0.00000000E+00 -7.30225624E-01
  3.10228121E+00  0.00000000E+00 -7.30225624E-01  3.10228121E+00  0.00000000E+00
 -7.30225624E-01  3.10228121E+00  0.00000000E+00 -7.30225624E-01  3.10228121E+00
  0.00000000E+00 -7.30225624E-01  3.10228121E+00  0.00000000E+00 -7.30225624E-01
  3.10228121E+00  0.00000000E+00 -7.30225624E-01  3.10228121E+00  0.00000000E+00
 -7.30225624E-01  3.10228121E+00  0.00000000E+00 -7.30225624E-01  3.10228121E+00
  0.00000000E+00  1.90493842E+00  0.00000000E+00  0.00000000E+00  1.90493842E+00
  0.00000000E+00  0.00000000E+00  1.90493842E+00  0.00000000E+00  0.00000000E+00
  1.90493842E+00  0.00000000E+00  0.00000000E+00  1.90493842E+00  0.00000000E+00
  0.00000000E+00  1.90493842E+00  0.00000000E+00  0.00000000E+00  1.90493842E+00
  0.00000000E+00  0.00000000E+00  1.90493842E+00  0.00000000E+00  0.00000000E+00
  1.90493842E+00  0.00000000E+00  0.00000000E+00
Num ILSW                                   I              100
ILSW                                       I   N=         100
           0           0           0           0           2           0
           0           0           0           0           0          -1
           5           0           0           0           0           0
           0           0           0           0           0           0
           1           1           0           0           0           0
           0           0      100000           0          -1           0
           0           0           0           0           0           0
           0           0           0           1           0           0
           0 -2000000000           1           0           0           0
           0           0           4          52           0           0
           0           0           0           0           0           0
           0           0           0           4           0           1
           0           0           0           0           0           0
           0           0           0           0           0           0
           0           0           0           0           0           0
           0           0           0           0           0           0
           0           0           0           0
Num RLSW                                   I               52
RLSW                                       R   N=          52
  1.00000000E+00  1.00000000E+00  1.00000000E+00  1.00000000E+00  1.00000000E+00
  0.00000000E+00  0.00000000E+00  1.00000000E+00  0.00000000E+00  0.00000000E+00
  0.00000000E+00  0.00000000E+00  1.00000000E+00  0.00000000E+00  0.00000000E+00
  0.00000000E+00  0.00000000E+00  1.00000000E+00  0.00000000E+00  0.00000000E+00
  0.00000000E+00  0.00000000E+00  1.00000000E+00  0.00000000E+00  0.00000000E+00
  0.00000000E+00  0.00000000E+00  1.00000000E+00  0.00000000E+00  0.00000000E+00
  0.00000000E+00  0.00000000E+00  1.00000000E+00  0.00000000E+00  0.00000000E+00
  0.00000000E+00  0.00000000E+00  0.00000000E+00  1.00000000E+00  1.00000000E+00
  0.00000000E+00  1.00000000E+00  0.00000000E+00  0.00000000E+00  0.00000000E+00
  0.00000000E+00  0.00000000E+00  0.00000000E+00  0.00000000E+00  0.00000000E+00
  0.00000000E+00  0.00000000E+00
ECP-MxAtEC                                 I           250000
ECP-MaxLECP                                I               10
ECP-MaxAtL                                 I          2250000
ECP-MxTECP                                 I         11250000
ECP-LenNCZ                                 I               16
ECP-KFirst                                 I   N=          40
           0           1           0           0           0           2
           0           0           0           5           0           0
           0           9           0           0           0          13
           0           0           0           0           0           0
           0           0           0           0           0           0
           0           0           0           0           0           0
           0           0           0           0
ECP-KLast                                  I   N=          40
           0           1           0           0           0           4
           0           0           0           8           0           0
           0          12           0           0           0          16
           0           0           0           0           0           0
           0           0           0           0           0           0
           0           0           0           0           0           0
           0           0           0           0
ECP-LMax                                   I   N=           4
           0           4           0           0
ECP-LPSkip                                 I   N=           4
           1           0           1           1
ECP-RNFroz                                 R   N=           4
  0.00000000E+00  2.80000000E+01  0.00000000E+00  0.00000000E+00
ECP-NLP                                    I   N=          16
           2           2           2           2           2           2
           2           2           2           2           2           2
           2           2           2           2
ECP-CLP1                                   R   N=          16
  0.00000000E+00  4.99896490E+01  2.81006556E+02  6.14167390E+01  6.74162390E+01
  1.34807696E+02  1.45665480E+01  2.89684220E+01  3.55387560E+01  5.33397590E+01
  9.71646600E+00  1.49775000E+01 -2.01766180E+01 -2.60880770E+01 -2.20434000E-01
 -2.21646000E-01
ECP-CLP2                                   R   N=          16
  0.00000000E+00  0.00000000E+00  0.00000000E+00  0.00000000E+00  0.00000000E+00
  0.00000000E+00  0.00000000E+00  0.00000000E+00  0.00000000E+00  0.00000000E+00
  0.00000000E+00  0.00000000E+00  0.00000000E+00  0.00000000E+00  0.00000000E+00
  0.00000000E+00
ECP-ZLP                                    R   N=          16
  1.00000000E+00  4.00333760E+01  1.73005760E+01  8.85172000E+00  1.57201410E+01
  1.52082220E+01  8.29418600E+00  7.75394900E+00  1.38177510E+01  1.35878050E+01
  6.94763000E+00  6.96009900E+00  1.85229500E+01  1.82510350E+01  7.55790100E+00
  7.59740400E+00
MxBond                                     I                2
NBond                                      I   N=           4
           2           0           1           1
IBond                                      I   N=           8
           3           4           0           0           1           0
           1           0
RBond                                      R   N=           8
  1.00000000E+00  1.00000000E+00  0.00000000E+00  0.00000000E+00  1.00000000E+00
  0.00000000E+00  1.00000000E+00  0.00000000E+00
Virial Ratio                               R      2.285049642324648E+00
SCF Energy                                 R     -8.296855841375973E+02
MP2 Energy                                 R     -8.303684462146114E+02
Total Energy                               R     -8.303684462146114E+02
Post-SCF wavefunction norm                 R      1.108607417219209E+00
RMS Density                                R      8.494321875570423E-09
Job Status                                 I                1
Nuclear derivative order                   I                0
External E-field                           R   N=          35
  0.00000000E+00  0.00000000E+00  0.00000000E+00  0.00000000E+00  0.00000000E+00
  0.00000000E+00  0.00000000E+00  0.00000000E+00  0.00000000E+00  0.00000000E+00
  0.00000000E+00  0.00000000E+00  0.00000000E+00  0.00000000E+00  0.00000000E+00
  0.00000000E+00  0.00000000E+00  0.00000000E+00  0.00000000E+00  0.00000000E+00
  0.00000000E+00  0.00000000E+00  0.00000000E+00  0.00000000E+00  0.00000000E+00
  0.00000000E+00  0.00000000E+00  0.00000000E+00  0.00000000E+00  0.00000000E+00
  0.00000000E+00  0.00000000E+00  0.00000000E+00  0.00000000E+00  0.00000000E+00
IOpCl                                      I                0
IROHF                                      I                0
Alpha Orbital Energies                     R   N=         174
 -1.04741054E+02 -2.04753309E+01 -1.04605080E+01 -7.92767578E+00 -7.92498161E+00
 -7.92487456E+00 -7.47883852E+00 -5.30468441E+00 -5.30401265E+00 -5.30398582E+00
 -2.03229290E+00 -2.03186146E+00 -2.03183603E+00 -2.03112452E+00 -2.03112432E+00
 -1.24136143E+00 -9.05939330E-01 -6.45267861E-01 -5.48922512E-01 -4.53292566E-01
 -4.44913512E-01 -3.17374020E-01 -2.91152478E-01 -1.64175814E-01 -1.53827903E-01
 -1.53739095E-01  1.52535390E-01  1.76670181E-01  2.15365615E-01  2.26444064E-01
  2.40160543E-01  2.49574367E-01  2.52349733E-01  2.76214465E-01  2.96171428E-01
  3.06236447E-01  3.07623979E-01  3.12511395E-01  3.47301815E-01  3.73862655E-01
  3.78737176E-01  3.90338989E-01  4.18975684E-01  4.24591816E-01  4.50723355E-01
  5.02924417E-01  5.28714491E-01  5.43677419E-01  5.52918320E-01  5.58101118E-01
  5.68667239E-01  5.88473456E-01  6.42274479E-01  6.60949914E-01  7.38867018E-01
  7.54693321E-01  7.58901367E-01  7.68579664E-01  7.72453281E-01  7.90594523E-01
  7.91166685E-01  8.11916540E-01  8.22165235E-01  8.26879176E-01  8.33510774E-01
  8.62816695E-01  8.68676076E-01  8.73912194E-01  8.81496737E-01  8.95971327E-01
  9.00253090E-01  9.30787250E-01  9.55580268E-01  9.59957969E-01  9.96244152E-01
  1.00971225E+00  1.04276294E+00  1.08309192E+00  1.09141184E+00  1.11339870E+00
  1.12179775E+00  1.13412222E+00  1.19489369E+00  1.19651728E+00  1.21506391E+00
  1.24236384E+00  1.25936139E+00  1.32623027E+00  1.33868588E+00  1.40470155E+00
  1.44508410E+00  1.49847260E+00  1.53741195E+00  1.55320398E+00  1.59810390E+00
  1.60119916E+00  1.66477543E+00  1.68523811E+00  1.70213767E+00  1.73272681E+00
  1.74215266E+00  1.74352001E+00  1.76097058E+00  1.77417349E+00  1.80510997E+00
  1.85231758E+00  1.87464197E+00  1.90245199E+00  1.90519817E+00  1.96830636E+00
  2.05115900E+00  2.05125943E+00  2.10308299E+00  2.13768140E+00  2.16163728E+00
  2.30062478E+00  2.37329598E+00  2.49927971E+00  2.51985240E+00  2.54419145E+00
  2.56414580E+00  2.57649541E+00  2.59181955E+00  2.67160035E+00  2.67808760E+00
  2.70011076E+00  2.71036782E+00  2.73161755E+00  2.76081333E+00  2.77832412E+00
  2.90682602E+00  2.97020391E+00  3.01314894E+00  3.07988575E+00  3.18346168E+00
  3.20673350E+00  3.20752387E+00  3.25020419E+00  3.28576770E+00  3.29527133E+00
  3.30288366E+00  3.36708764E+00  3.52467980E+00  3.53544349E+00  3.53575849E+00
  3.82827203E+00  3.93504954E+00  4.29513849E+00  4.42462358E+00  4.50927848E+00
  4.56383177E+00  4.61390253E+00  4.76675989E+00  4.98252035E+00  5.13632038E+00
  5.35047178E+00  5.36946497E+00  5.65344253E+00  6.40655976E+00  6.57776445E+00
  6.82850503E+00  6.89190683E+00  6.90359698E+00  6.97521710E+00  7.27791711E+00
  7.33489270E+00  7.33945545E+00  7.43475594E+00  7.51331005E+00  7.74880725E+00
  7.78822002E+00  8.33291105E+00  1.46688834E+01  5.92117036E+01
Alpha MO coefficients                      R   N=       30276
  5.05582972E-06  2.84250135E-05  2.48581493E-06 -1.57445181E-04 -9.67074007E-05
  5.71908068E-07  2.94790293E-06  1.83292761E-16 -5.38061051E-06 -8.47052439E-06
 -4.58552590E-16  4.29663086E-05 -1.59109223E-04 -1.51670308E-14  1.24997628E-05
 -3.95711584E-05 -1.03511904E-14 -2.30627950E-06  2.24986448E-15 -1.01056398E-15
 -3.14311348E-06 -1.44076719E-06  1.49370182E-05 -3.26589895E-15  1.53386828E-15
  2.06182916E-05  9.38174227E-06  2.73418965E-05 -8.61598087E-15 -2.22612208E-15
  5.76983516E-05  1.05722138E-05 -2.07630723E-16 -4.39013830E-07 -1.16501379E-07
  8.95209112E-16  5.24140289E-16 -1.56593413E-06  1.01114886E-06  1.47558667E-15
 -2.19830468E-06  1.36148906E-05 -3.20464723E-15 -9.21843310E-16 -5.11382439E-06
  8.92050117E-06 -3.43980388E-08  7.91481326E-08  1.11265288E-06  1.80004727E-05
 -4.84043638E-05 -3.53847014E-06  1.69640287E-06  1.95675638E-07  5.36359957E-15
  7.82552833E-06  1.95572652E-06  2.04848744E-14 -4.61779419E-06 -3.95763242E-07
 -1.24592343E-14  2.85423284E-05 -6.27252463E-06 -1.86614700E-14  2.16016318E-06
  2.47219094E-07  2.54456184E-15  1.13278934E-07  1.11842337E-17 -1.20861317E-16
 -1.27593715E-07  2.45668820E-07 -9.20251081E-07 -1.75975911E-16  4.25286015E-16
  1.16062194E-06 -1.33562779E-06  6.00123854E-06 -2.75726175E-16 -4.06176933E-16
 -9.28643045E-06  3.08327960E-06  4.59884611E-06  2.95819304E-15  7.14646238E-19
 -7.20504768E-06  2.63587672E-06 -8.59526006E-16 -2.41246704E-07 -1.09667381E-07
  9.11086440E-16 -2.00590461E-16  2.86961366E-07  5.27840190E-07  1.21339637E-15
 -3.21540325E-06  6.35811524E-07 -1.54047373E-15  4.58759872E-16  2.98934100E-06
 -2.61831186E-06  9.99534917E-01  1.95316730E-03  1.83728044E-04 -4.17661327E-04
  7.59979975E-05  8.02167498E-05  1.79299075E-05 -7.58952999E-05 -2.56431837E-17
  3.80167301E-05 -1.35569895E-04 -4.17644683E-16 -1.85568986E-05  7.23084881E-05
  1.40183800E-16  3.67291503E-06 -6.10659885E-05  7.82925573E-16  2.47161758E-06
 -1.19565691E-05  2.96574309E-15 -3.71517111E-06 -3.21456494E-16 -1.13311283E-16
 -5.04385217E-06 -3.26674526E-06 -2.90478772E-05  7.41336701E-16  1.48557399E-15
 -4.42987870E-05 -2.44273198E-05 -1.41084764E-06 -7.91761674E-16 -2.10254906E-15
 -1.14927301E-05  4.39206242E-07  2.25000378E-16 -2.10476047E-06  6.22947786E-06
  3.75727721E-16  5.29242138E-16 -4.52503914E-06  4.05221177E-06 -7.74375087E-17
  5.87882972E-07  3.22541361E-06 -2.90484595E-16 -6.87839903E-16 -4.76906874E-06
  7.70057045E-06 -1.58279991E-06 -1.08485862E-05  5.85200787E-05 -1.04251884E-05
  1.08565073E-06 -2.64826595E-06  1.44118575E-17 -1.50932595E-05  1.68856681E-05
  9.85273931E-15  2.35819662E-05  2.61945931E-05  1.78387889E-14 -5.75654883E-07
 -8.74490287E-16  3.90663550E-17 -7.08612569E-07 -1.07373683E-06 -1.50990967E-05
 -6.67181865E-15  9.50356521E-16  1.08295869E-05 -3.37069253E-06  9.76802061E-01
 -9.27101610E-03  4.33945159E-02  1.26124785E-03  1.30959342E-03  9.48826427E-04
  1.57575741E-03  5.00072883E-16 -1.15029076E-03 -1.18122442E-03 -4.92553319E-16
 -3.76614388E-04  1.37321175E-04 -1.18070605E-15 -3.55583022E-05  2.09194103E-04
 -3.02910761E-16  3.58393411E-05  5.01602289E-16  7.83526996E-16  9.94716050E-05
  3.98917715E-05  4.94930497E-04 -1.55867898E-17 -1.05475989E-15 -1.20199349E-05
  1.43113625E-04 -4.11118202E-05 -1.09609000E-15  4.71817039E-16 -2.16965884E-04
 -7.58285374E-05 -3.37572661E-16  4.34406169E-06  1.70925288E-05  1.86402092E-16
  1.79673528E-17  6.84732588E-06  6.33219944E-06  6.25387318E-16  6.20762788E-05
  3.09694599E-05  2.36910155E-16  1.07926158E-16 -1.68683896E-04 -5.01532695E-05
  6.33196758E-07  9.23445156E-06  2.60656417E-04  3.78876869E-04 -2.57512692E-03
 -7.36851102E-04  1.36116060E-04  1.56352945E-06 -1.75823787E-16  8.33829687E-04
 -8.94109774E-07 -2.63638103E-16 -3.57083699E-04 -4.81925797E-06  2.87495169E-16
  1.67858230E-03  5.22222387E-05  5.88549016E-17  1.83043712E-04 -1.72106947E-05
 -6.39400511E-17 -3.05405696E-06 -4.14822866E-17  5.83342770E-18  3.26428708E-06
 -2.82455038E-06  2.05550990E-07  2.46917347E-16  6.13438844E-17  1.02086616E-05
  1.56995250E-05  3.11433920E-04 -4.45119482E-16 -1.31701076E-16 -5.65686916E-04
 -4.48691041E-05  2.56144290E-04  2.87527311E-16  1.35932447E-16 -4.27077075E-04
 -6.41944400E-06 -2.03372318E-16 -3.08679283E-05 -9.28884947E-07  9.71467648E-17
  1.40221531E-16  4.14382221E-05 -1.56246368E-06  9.72180249E-17 -1.05468094E-04
 -3.71537542E-06  4.20591343E-17 -2.05398921E-16  1.45473123E-04  2.47949203E-05
  2.91263477E-06  5.56100630E-05  2.89651820E-05 -2.94880783E-04  5.52786507E-04
 -5.37824924E-04  1.27678831E-06 -1.68860664E-05  2.63555693E-17  9.96420052E-05
 -7.09166563E-04  8.94410987E-16 -5.51349968E-05  2.89109950E-04 -6.63371014E-16
  1.67190509E-04 -4.54170570E-06 -2.57172148E-16  1.63871173E-05  1.44446991E-04
  2.01973964E-16  1.67985365E-05 -4.80294657E-17  1.81476196E-16  6.35047849E-06
  9.79629306E-06 -3.52905571E-04  2.00406171E-16 -7.09515513E-16 -5.09830407E-04
 -1.95375090E-04  5.40630370E-05  2.31884349E-16  1.49769387E-16  1.57349257E-04
 -7.96326718E-05 -1.93570712E-16 -2.47842572E-05  1.61207320E-04 -1.02964615E-15
  9.43331633E-16 -1.17842952E-04  1.94741220E-04 -3.12895885E-16 -5.18060028E-05
  1.24454182E-04  5.43632908E-16 -9.17516020E-16 -7.41308082E-05  6.85210125E-05
  3.17415180E-04  1.54191511E-03  1.99817006E-03  2.26494716E-04 -2.45190586E-04
  4.27296925E-05  2.00030971E-16 -1.42208005E-03  6.15650376E-05  6.18434519E-16
  2.68531572E-03 -2.03776073E-04  7.63525400E-16  2.67117749E-06  1.44394065E-16
  7.51058468E-16 -1.33950962E-05 -7.22048640E-05 -6.19569091E-04 -6.26041382E-16
 -7.74497592E-16  1.25808682E-03 -3.72814719E-05 -6.75969186E-05 -5.22313537E-05
 -1.11536469E-04  3.02663190E-03  2.52469625E-03 -2.83704998E-05  3.88235051E-05
  5.24364135E-16 -8.22007060E-06  5.70899779E-04 -1.57564327E-15 -3.43847092E-04
  2.61118459E-03  1.05146783E-14 -1.95019159E-04  1.02331442E-03  4.58986685E-15
 -2.05072378E-05  3.07586930E-16  4.28865337E-16 -4.38493431E-05 -3.35051445E-05
 -2.26909256E-04 -5.02816019E-16 -6.73598460E-16 -2.43407821E-04 -3.80428494E-05
 -3.18522179E-04  3.63278731E-15  3.58357370E-15 -7.08906231E-04  1.80759057E-04
 -3.13183860E-16  6.02437955E-06 -2.31002050E-05 -1.75121352E-16  3.29147381E-16
  5.30163729E-05 -4.21416158E-05  1.38159632E-16 -1.73582514E-05 -6.67786951E-05