 Entering Gaussian System, Link 0=g16
 Input=ihocl_10_sp.gjf
 Output=ihocl_10_sp.log
 Initial command:
 /sw/contrib/gaussian/g16/B01/g16/l1.exe "/scr/Gau-157182.inp" -scrdir="/scr/"
 Entering Link 1 = /sw/contrib/gaussian/g16/B01/g16/l1.exe PID=    157183.
  
 Copyright (c) 1988-2017, Gaussian, Inc.  All Rights Reserved.
  
 This is part of the Gaussian(R) 16 program.  It is based on
 the Gaussian(R) 09 system (copyright 2009, Gaussian, Inc.),
 the Gaussian(R) 03 system (copyright 2003, Gaussian, Inc.),
 the Gaussian(R) 98 system (copyright 1998, Gaussian, Inc.),
 the Gaussian(R) 94 system (copyright 1995, Gaussian, Inc.),
 the Gaussian 92(TM) system (copyright 1992, Gaussian, Inc.),
 the Gaussian 90(TM) system (copyright 1990, Gaussian, Inc.),
 the Gaussian 88(TM) system (copyright 1988, Gaussian, Inc.),
 the Gaussian 86(TM) system (copyright 1986, Carnegie Mellon
 University), and the Gaussian 82(TM) system (copyright 1983,
 Carnegie Mellon University). Gaussian is a federally registered
 trademark of Gaussian, Inc.
  
 This software contains proprietary and confidential information,
 including trade secrets, belonging to Gaussian, Inc.
  
 This software is provided under written license and may be
 used, copied, transmitted, or stored only in accord with that
 written license.
  
 The following legend is applicable only to US Government
 contracts under FAR:
  
                    RESTRICTED RIGHTS LEGEND
  
 Use, reproduction and disclosure by the US Government is
 subject to restrictions as set forth in subparagraphs (a)
 and (c) of the Commercial Computer Software - Restricted
 Rights clause in FAR 52.227-19.
  
 Gaussian, Inc.
 340 Quinnipiac St., Bldg. 40, Wallingford CT 06492
  
  
 ---------------------------------------------------------------
 Warning -- This program may not be used in any manner that
 competes with the business of Gaussian, Inc. or will provide
 assistance to any competitor of Gaussian, Inc.  The licensee
 of this program is prohibited from giving any competitor of
 Gaussian, Inc. access to this program.  By using this program,
 the user acknowledges that Gaussian, Inc. is engaged in the
 business of creating and licensing software in the field of
 computational chemistry and represents and warrants to the
 licensee that it is not a competitor of Gaussian, Inc. and that
 it will not use this program in any manner prohibited above.
 ---------------------------------------------------------------
  

 Cite this work as:
 Gaussian 16, Revision B.01,
 M. J. Frisch, G. W. Trucks, H. B. Schlegel, G. E. Scuseria, 
 M. A. Robb, J. R. Cheeseman, G. Scalmani, V. Barone, 
 G. A. Petersson, H. Nakatsuji, X. Li, M. Caricato, A. V. Marenich, 
 J. Bloino, B. G. Janesko, R. Gomperts, B. Mennucci, H. P. Hratchian, 
 J. V. Ortiz, A. F. Izmaylov, J. L. Sonnenberg, D. Williams-Young, 
 F. Ding, F. Lipparini, F. Egidi, J. Goings, B. Peng, A. Petrone, 
 T. Henderson, D. Ranasinghe, V. G. Zakrzewski, J. Gao, N. Rega, 
 G. Zheng, W. Liang, M. Hada, M. Ehara, K. Toyota, R. Fukuda, 
 J. Hasegawa, M. Ishida, T. Nakajima, Y. Honda, O. Kitao, H. Nakai, 
 T. Vreven, K. Throssell, J. A. Montgomery, Jr., J. E. Peralta, 
 F. Ogliaro, M. J. Bearpark, J. J. Heyd, E. N. Brothers, K. N. Kudin, 
 V. N. Staroverov, T. A. Keith, R. Kobayashi, J. Normand, 
 K. Raghavachari, A. P. Rendell, J. C. Burant, S. S. Iyengar, 
 J. Tomasi, M. Cossi, J. M. Millam, M. Klene, C. Adamo, R. Cammi, 
 J. W. Ochterski, R. L. Martin, K. Morokuma, O. Farkas, 
 J. B. Foresman, and D. J. Fox, Gaussian, Inc., Wallingford CT, 2016.
 
 ******************************************
 Gaussian 16:  ES64L-G16RevB.01 20-Dec-2017
                28-Sep-2021 
 ******************************************
 %nproc=28
 Will use up to   28 processors via shared memory.
 %mem=120GB
 %chk=/gscratch/ilahie/mccoygrp/coire_hocl/ihocl/ihocl_10_sp.chk
 --------------------------------------------------------
 #p pop=NBO SP NoSymm mp2/gen Pseudo=read density=current
 --------------------------------------------------------
 1/30=1,38=1,172=1/1;
 2/12=2,15=1,17=6,18=5,40=1/2;
 3/5=7,11=9,16=1,17=8,25=1,30=1,71=1/1,2,3;
 4//1;
 5/5=2,38=5/2;
 8/6=4,10=1/1;
 9/15=1,16=-3/6;
 10/5=1,13=10,31=1/2;
 6/7=2,8=2,9=2,10=2,22=-1,40=1/1,7;
 99/5=1,9=1/99;
 Leave Link    1 at Tue Sep 28 09:15:34 2021, MaxMem= 16106127360 cpu:               0.7 elap:               0.0
 (Enter /sw/contrib/gaussian/g16/B01/g16/l101.exe)
 -----
 title
 -----
 Symbolic Z-matrix:
 Charge = -1 Multiplicity = 1
 O                     0.        0.        0. 
 I                     3.3123    0.        0. 
 Cl                   -0.38642   1.64166   0. 
 H                     0.99046   0.        0.17464 
 
 ITRead=  0  0  0  0
 MicOpt= -1 -1 -1 -1
 NAtoms=      4 NQM=        4 NQMF=       0 NMMI=      0 NMMIF=      0
                NMic=       0 NMicF=      0.
                    Isotopes and Nuclear Properties:
 (Nuclear quadrupole moments (NQMom) in fm**2, nuclear magnetic moments (NMagM)
  in nuclear magnetons)

  Atom         1           2           3           4
 IAtWgt=          16         127          35           1
 AtmWgt=  15.9949146 126.9004000  34.9688527   1.0078250
 NucSpn=           0           5           3           1
 AtZEff=  -0.0000000  -0.0000000  -0.0000000  -0.0000000
 NQMom=    0.0000000 -71.0000000  -8.1650000   0.0000000
 NMagM=    0.0000000   2.8132800   0.8218740   2.7928460
 AtZNuc=   8.0000000  53.0000000  17.0000000   1.0000000
 Leave Link  101 at Tue Sep 28 09:15:35 2021, MaxMem= 16106127360 cpu:               2.5 elap:               0.1
 (Enter /sw/contrib/gaussian/g16/B01/g16/l202.exe)
                          Input orientation:                          
 ---------------------------------------------------------------------
 Center     Atomic      Atomic             Coordinates (Angstroms)
 Number     Number       Type             X           Y           Z
 ---------------------------------------------------------------------
      1          8           0        0.000000    0.000000    0.000000
      2         53           0        3.312298    0.000000    0.000000
      3         17           0       -0.386419    1.641657    0.000000
      4          1           0        0.990461    0.000000    0.174645
 ---------------------------------------------------------------------
                    Distance matrix (angstroms):
                    1          2          3          4
     1  O    0.000000
     2  I    3.312298   0.000000
     3  Cl   1.686522   4.046671   0.000000
     4  H    1.005740   2.328397   2.149729   0.000000
 Symmetry turned off by external request.
 Stoichiometry    ClHIO(1-)
 Framework group  C1[X(ClHIO)]
 Deg. of freedom     6
 Full point group                 C1      NOp   1
 Rotational constants (GHZ):          21.7351888           0.9694550           0.9281623
 Leave Link  202 at Tue Sep 28 09:15:35 2021, MaxMem= 16106127360 cpu:               1.3 elap:               0.1
 (Enter /sw/contrib/gaussian/g16/B01/g16/l301.exe)
 General basis read from cards:  (5D, 7F)
 Centers:       4      1      3
 aug-cc-pVTZ
 ****
 Centers:       2
 S 11 1.00
     Exponent=  5.5465000000D+03 Coefficients=  1.5600000000D-04
     Exponent=  8.3821400000D+02 Coefficients=  9.8600000000D-04
     Exponent=  1.8218700000D+02 Coefficients=  2.7920000000D-03
     Exponent=  3.1212300000D+01 Coefficients= -4.3251000000D-02
     Exponent=  1.9531400000D+01 Coefficients=  2.3413400000D-01
     Exponent=  8.2409900000D+00 Coefficients= -7.5094300000D-01
     Exponent=  2.1945500000D+00 Coefficients=  8.8296800000D-01
     Exponent=  1.1091100000D+00 Coefficients=  4.6206100000D-01
     Exponent=  3.7464100000D-01 Coefficients=  2.2286000000D-02
     Exponent=  1.7708000000D-01 Coefficients= -4.3530000000D-03
     Exponent=  8.1061000000D-02 Coefficients=  1.1020000000D-03
 S 11 1.00
     Exponent=  5.5465000000D+03 Coefficients= -7.3000000000D-05
     Exponent=  8.3821400000D+02 Coefficients= -5.0800000000D-04
     Exponent=  1.8218700000D+02 Coefficients= -1.1580000000D-03
     Exponent=  3.1212300000D+01 Coefficients=  1.2193000000D-02
     Exponent=  1.9531400000D+01 Coefficients= -8.7854000000D-02
     Exponent=  8.2409900000D+00 Coefficients=  3.3820000000D-01
     Exponent=  2.1945500000D+00 Coefficients= -5.7655000000D-01
     Exponent=  1.1091100000D+00 Coefficients= -4.0929800000D-01
     Exponent=  3.7464100000D-01 Coefficients=  5.6745900000D-01
     Exponent=  1.7708000000D-01 Coefficients=  6.1248900000D-01
     Exponent=  8.1061000000D-02 Coefficients=  1.4323100000D-01
 S 1 1.00
     Exponent=  3.7464100000D-01 Coefficients=  1.0000000000D+00
 S 1 1.00
     Exponent=  1.7708000000D-01 Coefficients=  1.0000000000D+00
 S 1 1.00
     Exponent=  1.0010000000D-01 Coefficients=  1.0000000000D+00
 S 1 1.00
     Exponent=  4.1200000000D-02 Coefficients=  1.0000000000D+00
 P 9 1.00
     Exponent=  1.8898800000D+02 Coefficients=  5.8500000000D-04
     Exponent=  2.1286800000D+01 Coefficients=  3.6923000000D-02
     Exponent=  1.0039600000D+01 Coefficients= -2.3532400000D-01
     Exponent=  3.4518000000D+00 Coefficients=  3.4148300000D-01
     Exponent=  1.9745600000D+00 Coefficients=  5.3478800000D-01
     Exponent=  1.0242000000D+00 Coefficients=  2.6514100000D-01
     Exponent=  4.4943700000D-01 Coefficients=  2.5787000000D-02
     Exponent=  1.8664800000D-01 Coefficients=  5.2200000000D-04
     Exponent=  7.3481000000D-02 Coefficients=  6.0600000000D-04
 P 9 1.00
     Exponent=  1.8898800000D+02 Coefficients= -2.5600000000D-04
     Exponent=  2.1286800000D+01 Coefficients= -1.1682000000D-02
     Exponent=  1.0039600000D+01 Coefficients=  8.3192000000D-02
     Exponent=  3.4518000000D+00 Coefficients= -1.5697000000D-01
     Exponent=  1.9745600000D+00 Coefficients= -2.2451800000D-01
     Exponent=  1.0242000000D+00 Coefficients= -1.1445100000D-01
     Exponent=  4.4943700000D-01 Coefficients=  3.7535600000D-01
     Exponent=  1.8664800000D-01 Coefficients=  5.7513600000D-01
     Exponent=  7.3481000000D-02 Coefficients=  2.4591700000D-01
 P 1 1.00
     Exponent=  5.9810000000D-01 Coefficients=  1.0000000000D+00
 P 1 1.00
     Exponent=  9.6180000000D-02 Coefficients=  1.0000000000D+00
 P 1 1.00
     Exponent=  3.5900000000D-02 Coefficients=  1.0000000000D+00
 D 9 1.00
     Exponent=  1.3266200000D+02 Coefficients=  5.7200000000D-04
     Exponent=  3.7605400000D+01 Coefficients=  4.4020000000D-03
     Exponent=  1.0389100000D+01 Coefficients= -4.0922000000D-02
     Exponent=  6.4901700000D+00 Coefficients=  9.9661000000D-02
     Exponent=  3.4545100000D+00 Coefficients=  3.2266300000D-01
     Exponent=  1.8441300000D+00 Coefficients=  4.0034300000D-01
     Exponent=  9.6247800000D-01 Coefficients=  2.6830600000D-01
     Exponent=  4.7285300000D-01 Coefficients=  8.4847000000D-02
     Exponent=  1.9320000000D-01 Coefficients=  7.6320000000D-03
 D 1 1.00
     Exponent=  4.7285300000D-01 Coefficients=  1.0000000000D+00
 D 1 1.00
     Exponent=  1.9320000000D-01 Coefficients=  1.0000000000D+00
 D 1 1.00
     Exponent=  7.8200000000D-02 Coefficients=  1.0000000000D+00
 F 1 1.00
     Exponent=  4.0640000000D-01 Coefficients=  1.0000000000D+00
 F 1 1.00
     Exponent=  1.8480000000D-01 Coefficients=  1.0000000000D+00
 ****
 ======================================================================================================
                                       Pseudopotential Parameters
 ======================================================================================================
  Center     Atomic      Valence      Angular      Power
  Number     Number     Electrons     Momentum     of R      Exponent        Coefficient   SO-Coeffient
 ======================================================================================================
    1          8
                                   No pseudopotential on this center.
    2         53           25
                                      G and up 
                                                     2        1.0000000        0.00000000    0.00000000
                                      S - G
                                                     2       40.0333760       49.98964900    0.00000000
                                                     2       17.3005760      281.00655600    0.00000000
                                                     2        8.8517200       61.41673900    0.00000000
                                      P - G
                                                     2       15.7201410       67.41623900    0.00000000
                                                     2       15.2082220      134.80769600    0.00000000
                                                     2        8.2941860       14.56654800    0.00000000
                                                     2        7.7539490       28.96842200    0.00000000
                                      D - G
                                                     2       13.8177510       35.53875600    0.00000000
                                                     2       13.5878050       53.33975900    0.00000000
                                                     2        6.9476300        9.71646600    0.00000000
                                                     2        6.9600990       14.97750000    0.00000000
                                      F - G
                                                     2       18.5229500      -20.17661800    0.00000000
                                                     2       18.2510350      -26.08807700    0.00000000
                                                     2        7.5579010       -0.22043400    0.00000000
                                                     2        7.5974040       -0.22164600    0.00000000
    3         17
                                   No pseudopotential on this center.
    4          1
                                   No pseudopotential on this center.
 ======================================================================================================
 Ernie: Thresh=  0.10000D-02 Tol=  0.10000D-05 Strict=F.
 Ernie:  23 primitive shells out of 166 were deleted.
   174 basis functions,   383 primitive gaussians,   204 cartesian basis functions
    26 alpha electrons       26 beta electrons
       nuclear repulsion energy       144.2771473846 Hartrees.
 IExCor=    0 DFT=F Ex=HF Corr=None ExCW=0 ScaHFX=  1.000000
 ScaDFX=  1.000000  1.000000  1.000000  1.000000 ScalE2=  1.000000  1.000000
 IRadAn=      5 IRanWt=     -1 IRanGd=            0 ICorTp=0 IEmpDi=  4
 NAtoms=    4 NActive=    4 NUniq=    4 SFac= 1.00D+00 NAtFMM=   60 NAOKFM=F Big=F
 Integral buffers will be    131072 words long.
 Raffenetti 1 integral format.
 Two-electron integral symmetry is turned off.
 Leave Link  301 at Tue Sep 28 09:15:35 2021, MaxMem= 16106127360 cpu:               2.4 elap:               0.1
 (Enter /sw/contrib/gaussian/g16/B01/g16/l302.exe)
 NPDir=0 NMtPBC=     1 NCelOv=     1 NCel=       1 NClECP=     1 NCelD=      1
         NCelK=      1 NCelE2=     1 NClLst=     1 CellRange=     0.0.
 One-electron integrals computed using PRISM.
   1 Symmetry operations used in ECPInt.
 ECPInt:  NShTT=    1596 NPrTT=   10643 LenC2=    1597 LenP2D=    8416.
 LDataN:  DoStor=T MaxTD1= 7 Len=  274
 NBasis=   174 RedAO= T EigKep=  2.37D-04  NBF=   174
 NBsUse=   174 1.00D-06 EigRej= -1.00D+00 NBFU=   174
 Leave Link  302 at Tue Sep 28 09:15:35 2021, MaxMem= 16106127360 cpu:               8.7 elap:               0.4
 (Enter /sw/contrib/gaussian/g16/B01/g16/l303.exe)
 DipDrv:  MaxL=1.
 Leave Link  303 at Tue Sep 28 09:15:35 2021, MaxMem= 16106127360 cpu:               5.3 elap:               0.2
 (Enter /sw/contrib/gaussian/g16/B01/g16/l401.exe)
 ExpMin= 2.53D-02 ExpMax= 4.56D+05 ExpMxC= 1.44D+03 IAcc=3 IRadAn=         5 AccDes= 0.00D+00
 Harris functional with IExCor=  205 and IRadAn=       5 diagonalized for initial guess.
 HarFok:  IExCor=  205 AccDes= 0.00D+00 IRadAn=         5 IDoV= 1 UseB2=F ITyADJ=14
 ICtDFT=  3500011 ScaDFX=  1.000000  1.000000  1.000000  1.000000
 Defaulting to unpruned grid for atomic number  53.
 FoFCou: FMM=F IPFlag=           0 FMFlag=      100000 FMFlg1=           0
         NFxFlg=           0 DoJE=T BraDBF=F KetDBF=T FulRan=T
         wScrn=  0.000000 ICntrl=       500 IOpCl=  0 I1Cent=   200000004 NGrid=           0
         NMat0=    1 NMatS0=      1 NMatT0=    0 NMatD0=    1 NMtDS0=    0 NMtDT0=    0
 Symmetry not used in FoFCou.
 Harris En= -831.057029896938    
 JPrj=0 DoOrth=F DoCkMO=F.
 Leave Link  401 at Tue Sep 28 09:15:36 2021, MaxMem= 16106127360 cpu:               6.6 elap:               0.3
 (Enter /sw/contrib/gaussian/g16/B01/g16/l502.exe)
 Keep R1 ints in memory in canonical form, NReq=173964265.
 FoFCou: FMM=F IPFlag=           0 FMFlag=           0 FMFlg1=           0
         NFxFlg=           0 DoJE=F BraDBF=F KetDBF=F FulRan=T
         wScrn=  0.000000 ICntrl=       600 IOpCl=  0 I1Cent=           0 NGrid=           0
         NMat0=    1 NMatS0=  15225 NMatT0=    0 NMatD0=    1 NMtDS0=    0 NMtDT0=    0
 Symmetry not used in FoFCou.
 Two-electron integral symmetry not used.
 Closed shell SCF:
 Using DIIS extrapolation, IDIIS=  1040.
 NGot= 16106127360 LenX= 15990129197 LenY= 15990087140
 Requested convergence on RMS density matrix=1.00D-08 within 128 cycles.
 Requested convergence on MAX density matrix=1.00D-06.
 Requested convergence on             energy=1.00D-06.
 No special actions if energy rises.

 Cycle   1  Pass 1  IDiag  1:
 E= -829.532543810524    
 DIIS: error= 2.35D-02 at cycle   1 NSaved=   1.
 NSaved= 1 IEnMin= 1 EnMin= -829.532543810524     IErMin= 1 ErrMin= 2.35D-02
 ErrMax= 2.35D-02  0.00D+00 EMaxC= 1.00D-01 BMatC= 4.52D-01 BMatP= 4.52D-01
 IDIUse=3 WtCom= 7.65D-01 WtEn= 2.35D-01
 Coeff-Com:  0.100D+01
 Coeff-En:   0.100D+01
 Coeff:      0.100D+01
 Gap=     0.410 Goal=   None    Shift=    0.000
 GapD=    0.410 DampG=2.000 DampE=0.500 DampFc=1.0000 IDamp=-1.
 RMSDP=3.44D-03 MaxDP=1.04D-01              OVMax= 1.18D-01

 Cycle   2  Pass 1  IDiag  1:
 E= -829.649611022109     Delta-E=       -0.117067211585 Rises=F Damp=F
 DIIS: error= 1.68D-02 at cycle   2 NSaved=   2.
 NSaved= 2 IEnMin= 2 EnMin= -829.649611022109     IErMin= 2 ErrMin= 1.68D-02
 ErrMax= 1.68D-02  0.00D+00 EMaxC= 1.00D-01 BMatC= 5.33D-02 BMatP= 4.52D-01
 IDIUse=3 WtCom= 8.32D-01 WtEn= 1.68D-01
 Coeff-Com:  0.192D+00 0.808D+00
 Coeff-En:   0.000D+00 0.100D+01
 Coeff:      0.160D+00 0.840D+00
 Gap=     0.304 Goal=   None    Shift=    0.000
 RMSDP=1.51D-03 MaxDP=7.50D-02 DE=-1.17D-01 OVMax= 7.67D-02

 Cycle   3  Pass 1  IDiag  1:
 E= -829.675933743996     Delta-E=       -0.026322721887 Rises=F Damp=F
 DIIS: error= 7.52D-03 at cycle   3 NSaved=   3.
 NSaved= 3 IEnMin= 3 EnMin= -829.675933743996     IErMin= 3 ErrMin= 7.52D-03
 ErrMax= 7.52D-03  0.00D+00 EMaxC= 1.00D-01 BMatC= 1.28D-02 BMatP= 5.33D-02
 IDIUse=3 WtCom= 9.25D-01 WtEn= 7.52D-02
 Coeff-Com: -0.142D-02 0.321D+00 0.681D+00
 Coeff-En:   0.000D+00 0.960D-01 0.904D+00
 Coeff:     -0.131D-02 0.304D+00 0.698D+00
 Gap=     0.303 Goal=   None    Shift=    0.000
 RMSDP=4.03D-04 MaxDP=1.91D-02 DE=-2.63D-02 OVMax= 3.43D-02

 Cycle   4  Pass 1  IDiag  1:
 E= -829.684779663029     Delta-E=       -0.008845919033 Rises=F Damp=F
 DIIS: error= 1.37D-03 at cycle   4 NSaved=   4.
 NSaved= 4 IEnMin= 4 EnMin= -829.684779663029     IErMin= 4 ErrMin= 1.37D-03
 ErrMax= 1.37D-03  0.00D+00 EMaxC= 1.00D-01 BMatC= 2.17D-04 BMatP= 1.28D-02
 IDIUse=3 WtCom= 9.86D-01 WtEn= 1.37D-02
 Coeff-Com: -0.879D-02 0.343D-03 0.108D+00 0.900D+00
 Coeff-En:   0.000D+00 0.000D+00 0.000D+00 0.100D+01
 Coeff:     -0.867D-02 0.339D-03 0.107D+00 0.901D+00
 Gap=     0.306 Goal=   None    Shift=    0.000
 RMSDP=9.33D-05 MaxDP=6.00D-03 DE=-8.85D-03 OVMax= 3.50D-03

 Cycle   5  Pass 1  IDiag  1:
 E= -829.684988209405     Delta-E=       -0.000208546377 Rises=F Damp=F
 DIIS: error= 2.06D-04 at cycle   5 NSaved=   5.
 NSaved= 5 IEnMin= 5 EnMin= -829.684988209405     IErMin= 5 ErrMin= 2.06D-04
 ErrMax= 2.06D-04  0.00D+00 EMaxC= 1.00D-01 BMatC= 1.40D-05 BMatP= 2.17D-04
 IDIUse=3 WtCom= 9.98D-01 WtEn= 2.06D-03
 Coeff-Com:  0.171D-02-0.282D-01-0.589D-01-0.399D-01 0.113D+01
 Coeff-En:   0.000D+00 0.000D+00 0.000D+00 0.000D+00 0.100D+01
 Coeff:      0.171D-02-0.282D-01-0.588D-01-0.398D-01 0.113D+01
 Gap=     0.305 Goal=   None    Shift=    0.000
 RMSDP=4.68D-05 MaxDP=2.14D-03 DE=-2.09D-04 OVMax= 2.66D-03

 Cycle   6  Pass 1  IDiag  1:
 E= -829.685020580075     Delta-E=       -0.000032370670 Rises=F Damp=F
 DIIS: error= 1.01D-04 at cycle   6 NSaved=   6.
 NSaved= 6 IEnMin= 6 EnMin= -829.685020580075     IErMin= 6 ErrMin= 1.01D-04
 ErrMax= 1.01D-04  0.00D+00 EMaxC= 1.00D-01 BMatC= 1.73D-06 BMatP= 1.40D-05
 IDIUse=3 WtCom= 9.99D-01 WtEn= 1.01D-03
 Coeff-Com:  0.118D-03 0.847D-02 0.105D-01-0.961D-01-0.285D+00 0.136D+01
 Coeff-En:   0.000D+00 0.000D+00 0.000D+00 0.000D+00 0.000D+00 0.100D+01
 Coeff:      0.118D-03 0.846D-02 0.105D-01-0.960D-01-0.284D+00 0.136D+01
 Gap=     0.305 Goal=   None    Shift=    0.000
 RMSDP=1.64D-05 MaxDP=6.78D-04 DE=-3.24D-05 OVMax= 1.35D-03

 Cycle   7  Pass 1  IDiag  1:
 E= -829.685026337674     Delta-E=       -0.000005757599 Rises=F Damp=F
 DIIS: error= 3.21D-05 at cycle   7 NSaved=   7.
 NSaved= 7 IEnMin= 7 EnMin= -829.685026337674     IErMin= 7 ErrMin= 3.21D-05
 ErrMax= 3.21D-05  0.00D+00 EMaxC= 1.00D-01 BMatC= 1.38D-07 BMatP= 1.73D-06
 IDIUse=1 WtCom= 1.00D+00 WtEn= 0.00D+00
 Coeff-Com: -0.153D-03 0.849D-03 0.399D-02 0.200D-01-0.617D-01-0.208D+00
 Coeff-Com:  0.124D+01
 Coeff:     -0.153D-03 0.849D-03 0.399D-02 0.200D-01-0.617D-01-0.208D+00
 Coeff:      0.124D+01
 Gap=     0.305 Goal=   None    Shift=    0.000
 RMSDP=5.05D-06 MaxDP=1.72D-04 DE=-5.76D-06 OVMax= 4.49D-04

 Cycle   8  Pass 1  IDiag  1:
 E= -829.685026897431     Delta-E=       -0.000000559756 Rises=F Damp=F
 DIIS: error= 1.04D-05 at cycle   8 NSaved=   8.
 NSaved= 8 IEnMin= 8 EnMin= -829.685026897431     IErMin= 8 ErrMin= 1.04D-05
 ErrMax= 1.04D-05  0.00D+00 EMaxC= 1.00D-01 BMatC= 1.92D-08 BMatP= 1.38D-07
 IDIUse=1 WtCom= 1.00D+00 WtEn= 0.00D+00
 Coeff-Com: -0.136D-04-0.123D-02-0.116D-02 0.140D-01 0.341D-01-0.193D+00
 Coeff-Com:  0.563D-01 0.109D+01
 Coeff:     -0.136D-04-0.123D-02-0.116D-02 0.140D-01 0.341D-01-0.193D+00
 Coeff:      0.563D-01 0.109D+01
 Gap=     0.305 Goal=   None    Shift=    0.000
 RMSDP=1.78D-06 MaxDP=4.63D-05 DE=-5.60D-07 OVMax= 1.73D-04

 Cycle   9  Pass 1  IDiag  1:
 E= -829.685026962740     Delta-E=       -0.000000065309 Rises=F Damp=F
 DIIS: error= 4.11D-06 at cycle   9 NSaved=   9.
 NSaved= 9 IEnMin= 9 EnMin= -829.685026962740     IErMin= 9 ErrMin= 4.11D-06
 ErrMax= 4.11D-06  0.00D+00 EMaxC= 1.00D-01 BMatC= 1.97D-09 BMatP= 1.92D-08
 IDIUse=1 WtCom= 1.00D+00 WtEn= 0.00D+00
 Coeff-Com:  0.162D-04 0.285D-03-0.128D-04-0.707D-02-0.371D-02 0.823D-01
 Coeff-Com: -0.126D+00-0.429D+00 0.148D+01
 Coeff:      0.162D-04 0.285D-03-0.128D-04-0.707D-02-0.371D-02 0.823D-01
 Coeff:     -0.126D+00-0.429D+00 0.148D+01
 Gap=     0.305 Goal=   None    Shift=    0.000
 RMSDP=8.07D-07 MaxDP=2.75D-05 DE=-6.53D-08 OVMax= 8.50D-05

 Cycle  10  Pass 1  IDiag  1:
 E= -829.685026972408     Delta-E=       -0.000000009668 Rises=F Damp=F
 DIIS: error= 1.34D-06 at cycle  10 NSaved=  10.
 NSaved=10 IEnMin=10 EnMin= -829.685026972408     IErMin=10 ErrMin= 1.34D-06
 ErrMax= 1.34D-06  0.00D+00 EMaxC= 1.00D-01 BMatC= 2.08D-10 BMatP= 1.97D-09
 IDIUse=1 WtCom= 1.00D+00 WtEn= 0.00D+00
 Coeff-Com: -0.307D-05 0.488D-04 0.103D-03 0.720D-03-0.258D-02-0.254D-02
 Coeff-Com:  0.296D-01-0.622D-03-0.385D+00 0.136D+01
 Coeff:     -0.307D-05 0.488D-04 0.103D-03 0.720D-03-0.258D-02-0.254D-02
 Coeff:      0.296D-01-0.622D-03-0.385D+00 0.136D+01
 Gap=     0.305 Goal=   None    Shift=    0.000
 RMSDP=2.49D-07 MaxDP=6.34D-06 DE=-9.67D-09 OVMax= 2.92D-05

 Cycle  11  Pass 1  IDiag  1:
 E= -829.685026973468     Delta-E=       -0.000000001060 Rises=F Damp=F
 DIIS: error= 5.76D-07 at cycle  11 NSaved=  11.
 NSaved=11 IEnMin=11 EnMin= -829.685026973468     IErMin=11 ErrMin= 5.76D-07
 ErrMax= 5.76D-07  0.00D+00 EMaxC= 1.00D-01 BMatC= 2.36D-11 BMatP= 2.08D-10
 IDIUse=1 WtCom= 1.00D+00 WtEn= 0.00D+00
 Coeff-Com: -0.214D-05-0.381D-04-0.267D-05 0.882D-03 0.501D-03-0.104D-01
 Coeff-Com:  0.148D-01 0.528D-01-0.162D+00-0.146D+00 0.125D+01
 Coeff:     -0.214D-05-0.381D-04-0.267D-05 0.882D-03 0.501D-03-0.104D-01
 Coeff:      0.148D-01 0.528D-01-0.162D+00-0.146D+00 0.125D+01
 Gap=     0.305 Goal=   None    Shift=    0.000
 RMSDP=9.46D-08 MaxDP=2.44D-06 DE=-1.06D-09 OVMax= 1.02D-05

 Cycle  12  Pass 1  IDiag  1:
 E= -829.685026973584     Delta-E=       -0.000000000116 Rises=F Damp=F
 DIIS: error= 1.53D-07 at cycle  12 NSaved=  12.
 NSaved=12 IEnMin=12 EnMin= -829.685026973584     IErMin=12 ErrMin= 1.53D-07
 ErrMax= 1.53D-07  0.00D+00 EMaxC= 1.00D-01 BMatC= 1.44D-12 BMatP= 2.36D-11
 IDIUse=1 WtCom= 1.00D+00 WtEn= 0.00D+00
 Coeff-Com:  0.345D-06-0.331D-05-0.103D-04-0.944D-04 0.247D-03 0.568D-03
 Coeff-Com: -0.303D-02-0.293D-02 0.401D-01-0.884D-01-0.123D+00 0.118D+01
 Coeff:      0.345D-06-0.331D-05-0.103D-04-0.944D-04 0.247D-03 0.568D-03
 Coeff:     -0.303D-02-0.293D-02 0.401D-01-0.884D-01-0.123D+00 0.118D+01
 Gap=     0.305 Goal=   None    Shift=    0.000
 RMSDP=2.60D-08 MaxDP=1.39D-06 DE=-1.16D-10 OVMax= 1.93D-06

 Cycle  13  Pass 1  IDiag  1:
 E= -829.685026973591     Delta-E=       -0.000000000007 Rises=F Damp=F
 DIIS: error= 4.33D-08 at cycle  13 NSaved=  13.
 NSaved=13 IEnMin=13 EnMin= -829.685026973591     IErMin=13 ErrMin= 4.33D-08
 ErrMax= 4.33D-08  0.00D+00 EMaxC= 1.00D-01 BMatC= 1.56D-13 BMatP= 1.44D-12
 IDIUse=1 WtCom= 1.00D+00 WtEn= 0.00D+00
 Coeff-Com:  0.179D-06 0.327D-05 0.196D-07-0.648D-04-0.535D-04 0.804D-03
 Coeff-Com: -0.983D-03-0.403D-02 0.967D-02 0.243D-01-0.114D+00-0.838D-01
 Coeff-Com:  0.117D+01
 Coeff:      0.179D-06 0.327D-05 0.196D-07-0.648D-04-0.535D-04 0.804D-03
 Coeff:     -0.983D-03-0.403D-02 0.967D-02 0.243D-01-0.114D+00-0.838D-01
 Coeff:      0.117D+01
 Gap=     0.305 Goal=   None    Shift=    0.000
 RMSDP=8.47D-09 MaxDP=5.43D-07 DE=-7.05D-12 OVMax= 5.70D-07

 SCF Done:  E(RHF) =  -829.685026974     A.U. after   13 cycles
            NFock= 13  Conv=0.85D-08     -V/T= 2.2850
 KE= 6.456457518181D+02 PE=-2.196919895321D+03 EE= 5.773119691452D+02
 Leave Link  502 at Tue Sep 28 09:15:39 2021, MaxMem= 16106127360 cpu:              32.3 elap:               3.6
 (Enter /sw/contrib/gaussian/g16/B01/g16/l801.exe)
 ExpMin= 2.53D-02 ExpMax= 4.56D+05 ExpMxC= 1.44D+03 IAcc=3 IRadAn=         5 AccDes= 0.00D+00
 HarFok:  IExCor=  205 AccDes= 0.00D+00 IRadAn=         5 IDoV=-2 UseB2=F ITyADJ=14
 ICtDFT= 12500011 ScaDFX=  1.000000  1.000000  1.000000  1.000000
 Defaulting to unpruned grid for atomic number  53.
 Largest valence mixing into a core orbital is  4.48D-04
 Largest core mixing into a valence orbital is  1.59D-04
 Range of M.O.s used for correlation:    11   174
 NBasis=   174 NAE=    26 NBE=    26 NFC=    10 NFV=     0
 NROrb=    164 NOA=    16 NOB=    16 NVA=   148 NVB=   148

 **** Warning!!: The largest alpha MO coefficient is  0.16714886D+02

 Leave Link  801 at Tue Sep 28 09:15:39 2021, MaxMem= 16106127360 cpu:               2.2 elap:               0.1
 (Enter /sw/contrib/gaussian/g16/B01/g16/l906.exe)
 Frozen-core derivative calculation, NFC=  10 NFV=   0.
 FulOut=F Deriv=T AODrv=F NAtomX=     4
   MMem=         130  MDisk=          16 MDiskD=          16
  W3Min=      922896 MinDsk=     1491158 NBas6D=         204
 NBas2D=       21411    NTT=       20910    LW2=    26219120
    MDV= 16105723197 MDiskM=      394699 NBas2p=       21407
 Fully in-core method, ICMem=   539779449.
 IMap=   1   2   3   4   5   6   7   8   9  10  11  12  13  14  15  16  17  18  19  20
 IMap=  21  22  23  24  25  26
 JobTyp=1 Pass  1 fully in-core, NPsUse= 28.
 Compute canonical integrals.
 FoFCou: FMM=F IPFlag=           0 FMFlag=           0 FMFlg1=           0
         NFxFlg=           0 DoJE=F BraDBF=F KetDBF=F FulRan=T
         wScrn=  0.000000 ICntrl=       600 IOpCl=  1 I1Cent=           0 NGrid=           0
         NMat0=    1 NMatS0=  21411 NMatT0=    0 NMatD0=    1 NMtDS0=    0 NMtDT0=    0
 Symmetry not used in FoFCou.
 Spin components of T(2) and E(2):
     alpha-alpha T2 =       0.3145632291D-01 E2=     -0.9168786637D-01
     alpha-beta  T2 =       0.1659926960D+00 E2=     -0.4990800605D+00
     beta-beta   T2 =       0.3145632291D-01 E2=     -0.9168786637D-01
 The integrals were generated   1 times.
 ANorm=    0.1108560031D+01
 E2 =    -0.6824557933D+00 EUMP2 =    -0.83036748276687D+03
 Leave Link  906 at Tue Sep 28 09:15:46 2021, MaxMem= 16106127360 cpu:             172.7 elap:               6.2
 (Enter /sw/contrib/gaussian/g16/B01/g16/l1002.exe)
 Minotr:  Closed shell wavefunction.
          Computing MP2/KS-MP2 derivatives.
          Using Z-Vector for PSCF gradient.
          Skipping F1 and S1 gradient terms here.
          Frozen-core window.
          Direct CPHF calculation.
          Differentiating once with respect to electric field.
                with respect to dipole field.
          Electric field/nuclear overlap derivatives assumed to be zero.
          Requested convergence is 1.0D-10 RMS, and 1.0D-09 maximum.
          NewPWx=F KeepS1=T KeepF1=T KeepIn=T MapXYZ=F SortEE=F KeepMc=T.
 Keep R1 ints in memory in canonical form, NReq=173968745.
 FoFCou: FMM=F IPFlag=           0 FMFlag=           0 FMFlg1=           0
         NFxFlg=           0 DoJE=F BraDBF=F KetDBF=F FulRan=T
         wScrn=  0.000000 ICntrl=       600 IOpCl=  0 I1Cent=           0 NGrid=           0
         NMat0=    1 NMatS0=  15225 NMatT0=    0 NMatD0=    1 NMtDS0=    0 NMtDT0=    0
 Symmetry not used in FoFCou.
 Two-electron integral symmetry not used.
          MDV=   16106127360 using IRadAn=       5.
          Solving linear equations separately, MaxMat=       0.
          There are     1 degrees of freedom in the 1st order CPHF.  IDoFFX=0 NUNeed=     1.
 LinEq1:  Iter=  0 NonCon=     1 RMS=2.90D-03 Max=4.12D-02 NDo=     1
 AX will form     1 AO Fock derivatives at one time.
 LinEq1:  Iter=  1 NonCon=     1 RMS=4.54D-04 Max=4.12D-03 NDo=     1
 LinEq1:  Iter=  2 NonCon=     1 RMS=2.02D-04 Max=3.62D-03 NDo=     1
 LinEq1:  Iter=  3 NonCon=     1 RMS=6.19D-05 Max=9.40D-04 NDo=     1
 LinEq1:  Iter=  4 NonCon=     1 RMS=2.90D-05 Max=8.07D-04 NDo=     1
 LinEq1:  Iter=  5 NonCon=     1 RMS=7.95D-06 Max=1.17D-04 NDo=     1
 LinEq1:  Iter=  6 NonCon=     1 RMS=2.07D-06 Max=3.22D-05 NDo=     1
 LinEq1:  Iter=  7 NonCon=     1 RMS=5.71D-07 Max=1.28D-05 NDo=     1
 LinEq1:  Iter=  8 NonCon=     1 RMS=1.51D-07 Max=3.06D-06 NDo=     1
 LinEq1:  Iter=  9 NonCon=     1 RMS=4.99D-08 Max=7.70D-07 NDo=     1
 LinEq1:  Iter= 10 NonCon=     1 RMS=1.37D-08 Max=1.52D-07 NDo=     1
 LinEq1:  Iter= 11 NonCon=     1 RMS=3.06D-09 Max=6.32D-08 NDo=     1
 LinEq1:  Iter= 12 NonCon=     1 RMS=7.91D-10 Max=1.62D-08 NDo=     1
 LinEq1:  Iter= 13 NonCon=     1 RMS=2.70D-10 Max=4.04D-09 NDo=     1
 LinEq1:  Iter= 14 NonCon=     0 RMS=6.59D-11 Max=8.00D-10 NDo=     1
 Linear equations converged to 1.000D-10 1.000D-09 after    14 iterations.
 End of Minotr F.D. properties file   721 does not exist.
 End of Minotr F.D. properties file   722 does not exist.
 End of Minotr F.D. properties file   788 does not exist.
 Leave Link 1002 at Tue Sep 28 09:15:50 2021, MaxMem= 16106127360 cpu:              35.7 elap:               4.1
 (Enter /sw/contrib/gaussian/g16/B01/g16/l601.exe)
 Copying SCF densities to generalized density rwf, IOpCl= 0 IROHF=0.

 **********************************************************************

            Population analysis using the MP2 Density.

 **********************************************************************

 Alpha  occ. eigenvalues -- -104.74187 -20.47677 -10.46134  -7.92851  -7.92580
 Alpha  occ. eigenvalues --   -7.92569  -7.47790  -5.30374  -5.30307  -5.30305
 Alpha  occ. eigenvalues --   -2.03132  -2.03091  -2.03090  -2.03018  -2.03018
 Alpha  occ. eigenvalues --   -1.24309  -0.90693  -0.64390  -0.55049  -0.45452
 Alpha  occ. eigenvalues --   -0.44606  -0.31827  -0.29212  -0.16283  -0.15285
 Alpha  occ. eigenvalues --   -0.15280
 Alpha virt. eigenvalues --    0.15219   0.17637   0.21544   0.22587   0.24022
 Alpha virt. eigenvalues --    0.24986   0.25251   0.27568   0.29561   0.30001
 Alpha virt. eigenvalues --    0.30787   0.31727   0.34709   0.37333   0.37902
 Alpha virt. eigenvalues --    0.38644   0.42008   0.42775   0.45182   0.50156
 Alpha virt. eigenvalues --    0.52716   0.53998   0.55004   0.56062   0.57197
 Alpha virt. eigenvalues --    0.58778   0.64154   0.65956   0.73120   0.75271
 Alpha virt. eigenvalues --    0.76139   0.76970   0.77308   0.79127   0.79131
 Alpha virt. eigenvalues --    0.80284   0.81936   0.83439   0.83779   0.85485
 Alpha virt. eigenvalues --    0.86822   0.87392   0.88127   0.89106   0.90122
 Alpha virt. eigenvalues --    0.92960   0.94988   0.97130   0.98377   1.00606
 Alpha virt. eigenvalues --    1.04378   1.07858   1.08013   1.10023   1.12566
 Alpha virt. eigenvalues --    1.15025   1.19205   1.19808   1.22020   1.23682
 Alpha virt. eigenvalues --    1.26443   1.28726   1.36407   1.39748   1.43856
 Alpha virt. eigenvalues --    1.46840   1.53352   1.57009   1.58490   1.61012
 Alpha virt. eigenvalues --    1.66674   1.68234   1.72442   1.72982   1.74328
 Alpha virt. eigenvalues --    1.74521   1.76234   1.77405   1.80067   1.85173
 Alpha virt. eigenvalues --    1.86122   1.89627   1.90837   1.96739   2.05225
 Alpha virt. eigenvalues --    2.05230   2.10391   2.13480   2.15501   2.27511
 Alpha virt. eigenvalues --    2.38337   2.49508   2.49771   2.53125   2.55695
 Alpha virt. eigenvalues --    2.58867   2.59988   2.65585   2.67792   2.69821
 Alpha virt. eigenvalues --    2.71302   2.72792   2.76060   2.77536   2.84015
 Alpha virt. eigenvalues --    2.99884   3.01082   3.08216   3.17363   3.19875
 Alpha virt. eigenvalues --    3.20940   3.22861   3.27555   3.28555   3.30754
 Alpha virt. eigenvalues --    3.36540   3.51821   3.53289   3.53662   3.82274
 Alpha virt. eigenvalues --    3.92267   4.29964   4.41052   4.49947   4.54847
 Alpha virt. eigenvalues --    4.63668   4.75434   4.97680   5.08390   5.34185
 Alpha virt. eigenvalues --    5.39164   5.65542   6.40116   6.56803   6.83528
 Alpha virt. eigenvalues --    6.89054   6.90399   6.97420   7.28352   7.33639
 Alpha virt. eigenvalues --    7.33958   7.42758   7.52604   7.72960   7.77740
 Alpha virt. eigenvalues --    8.33462  14.56294  59.20975
          Condensed to atoms (all electrons):
               1          2          3          4
     1  O    8.668841  -0.081785  -0.118840   0.010277
     2  I   -0.081785  25.867810   0.008746   0.044944
     3  Cl  -0.118840   0.008746  17.057613  -0.003647
     4  H    0.010277   0.044944  -0.003647   0.686346
 Mulliken charges:
               1
     1  O   -0.478492
     2  I   -0.839716
     3  Cl   0.056128
     4  H    0.262080
 Sum of Mulliken charges =  -1.00000
 Mulliken charges with hydrogens summed into heavy atoms:
               1
     1  O   -0.216412
     2  I   -0.839716
     3  Cl   0.056128
 Electronic spatial extent (au):  <R**2>=           1306.4564
 Charge=             -1.0000 electrons
 Dipole moment (field-independent basis, Debye):
    X=            -11.8646    Y=             -0.5317    Z=              0.0978  Tot=             11.8769
 Quadrupole moment (field-independent basis, Debye-Ang):
   XX=            -96.2384   YY=            -53.1928   ZZ=            -53.2471
   XY=              0.3918   XZ=             -0.0300   YZ=             -0.0523
 Traceless Quadrupole moment (field-independent basis, Debye-Ang):
   XX=            -28.6790   YY=             14.3666   ZZ=             14.3124
   XY=              0.3918   XZ=             -0.0300   YZ=             -0.0523
 Octapole moment (field-independent basis, Debye-Ang**2):
  XXX=           -457.8988  YYY=            -62.2134  ZZZ=             -0.7804  XYY=           -105.8641
  XXY=            -21.4728  XXZ=             -1.4309  XZZ=           -105.1826  YZZ=            -22.2047
  YYZ=             -0.3544  XYZ=              0.0352
 Hexadecapole moment (field-independent basis, Debye-Ang**3):
 XXXX=          -2739.2931 YYYY=           -282.5408 ZZZZ=            -87.5463 XXXY=             28.4433
 XXXZ=             -6.3437 YYYX=             21.5885 YYYZ=             -0.2624 ZZZX=             -1.3991
 ZZZY=             -0.0849 XXYY=           -431.1559 XXZZ=           -395.8611 YYZZ=            -66.3132
 XXYZ=             -0.0530 YYXZ=             -0.3634 ZZXY=              9.1712
 N-N= 1.442771473846D+02 E-N=-2.196474171871D+03  KE= 6.460223151022D+02
 No NMR shielding tensors so no spin-rotation constants.
 Leave Link  601 at Tue Sep 28 09:15:50 2021, MaxMem= 16106127360 cpu:               4.3 elap:               0.2
 (Enter /sw/contrib/gaussian/g16/B01/g16/l607.exe)
 ******************************Gaussian NBO Version 3.1******************************
             N A T U R A L   A T O M I C   O R B I T A L   A N D
          N A T U R A L   B O N D   O R B I T A L   A N A L Y S I S
 ******************************Gaussian NBO Version 3.1******************************
       /RESON  / : Allow strongly delocalized NBO set

 Analyzing the MP2 density

 Job title: title                                                           

 Storage needed:     91686 in NPA,    121697 in NBO (********** available)
 GSVD:  LWork=        2436 too small for GESVD, short by       52200 words or       52200 for optimal perf.


 NATURAL POPULATIONS:  Natural atomic orbital occupancies 
                                                          
   NAO  Atom  No  lang   Type(AO)    Occupancy
 --------------------------------------------
     1    O    1  S      Cor( 1S)     1.99970
     2    O    1  S      Val( 2S)     1.79033
     3    O    1  S      Ryd( 3S)     0.00974
     4    O    1  S      Ryd( 4S)     0.00115
     5    O    1  S      Ryd( 5S)     0.00020
     6    O    1  px     Val( 2p)     1.65131
     7    O    1  px     Ryd( 3p)     0.01130
     8    O    1  px     Ryd( 4p)     0.00076
     9    O    1  px     Ryd( 5p)     0.00053
    10    O    1  py     Val( 2p)     1.27029
    11    O    1  py     Ryd( 3p)     0.00779
    12    O    1  py     Ryd( 4p)     0.00062
    13    O    1  py     Ryd( 5p)     0.00037
    14    O    1  pz     Val( 2p)     1.93839
    15    O    1  pz     Ryd( 3p)     0.01982
    16    O    1  pz     Ryd( 4p)     0.00067
    17    O    1  pz     Ryd( 5p)     0.00018
    18    O    1  dxy    Ryd( 3d)     0.00947
    19    O    1  dxy    Ryd( 4d)     0.00047
    20    O    1  dxy    Ryd( 5d)     0.00016
    21    O    1  dxz    Ryd( 3d)     0.00776
    22    O    1  dxz    Ryd( 4d)     0.00060
    23    O    1  dxz    Ryd( 5d)     0.00029
    24    O    1  dyz    Ryd( 3d)     0.00932
    25    O    1  dyz    Ryd( 4d)     0.00058
    26    O    1  dyz    Ryd( 5d)     0.00011
    27    O    1  dx2y2  Ryd( 3d)     0.01263
    28    O    1  dx2y2  Ryd( 4d)     0.00037
    29    O    1  dx2y2  Ryd( 5d)     0.00016
    30    O    1  dz2    Ryd( 3d)     0.00961
    31    O    1  dz2    Ryd( 4d)     0.00057
    32    O    1  dz2    Ryd( 5d)     0.00017
    33    O    1  f(0)   Ryd( 4f)     0.00072
    34    O    1  f(0)   Ryd( 5f)     0.00011
    35    O    1  f(C1)  Ryd( 4f)     0.00059
    36    O    1  f(C1)  Ryd( 5f)     0.00011
    37    O    1  f(S1)  Ryd( 4f)     0.00066
    38    O    1  f(S1)  Ryd( 5f)     0.00012
    39    O    1  f(C2)  Ryd( 4f)     0.00058
    40    O    1  f(C2)  Ryd( 5f)     0.00013
    41    O    1  f(S2)  Ryd( 4f)     0.00056
    42    O    1  f(S2)  Ryd( 5f)     0.00012
    43    O    1  f(C3)  Ryd( 4f)     0.00056
    44    O    1  f(C3)  Ryd( 5f)     0.00015
    45    O    1  f(S3)  Ryd( 4f)     0.00057
    46    O    1  f(S3)  Ryd( 5f)     0.00012

    47    I    2  S      Cor( 4S)     1.99985
    48    I    2  S      Val( 5S)     1.96905
    49    I    2  S      Ryd( 6S)     0.00205
    50    I    2  S      Ryd( 7S)     0.00054
    51    I    2  S      Ryd( 8S)     0.00013
    52    I    2  S      Ryd( 9S)     0.00001
    53    I    2  px     Cor( 4p)     1.99984
    54    I    2  px     Val( 5p)     1.85779
    55    I    2  px     Ryd( 6p)     0.00918
    56    I    2  px     Ryd( 7p)     0.00063
    57    I    2  px     Ryd( 8p)     0.00015
    58    I    2  py     Cor( 4p)     2.00003
    59    I    2  py     Val( 5p)     1.95089
    60    I    2  py     Ryd( 6p)     0.01055
    61    I    2  py     Ryd( 7p)     0.00073
    62    I    2  py     Ryd( 8p)     0.00010
    63    I    2  pz     Cor( 4p)     2.00003
    64    I    2  pz     Val( 5p)     1.95009
    65    I    2  pz     Ryd( 6p)     0.01059
    66    I    2  pz     Ryd( 7p)     0.00073
    67    I    2  pz     Ryd( 8p)     0.00011
    68    I    2  dxy    Cor( 4d)     1.99674
    69    I    2  dxy    Ryd( 5d)     0.02024
    70    I    2  dxy    Ryd( 6d)     0.00129
    71    I    2  dxy    Ryd( 7d)     0.00022
    72    I    2  dxz    Cor( 4d)     1.99674
    73    I    2  dxz    Ryd( 5d)     0.02035
    74    I    2  dxz    Ryd( 6d)     0.00133
    75    I    2  dxz    Ryd( 7d)     0.00018
    76    I    2  dyz    Cor( 4d)     1.99678
    77    I    2  dyz    Ryd( 5d)     0.02009
    78    I    2  dyz    Ryd( 6d)     0.00165
    79    I    2  dyz    Ryd( 7d)     0.00019
    80    I    2  dx2y2  Cor( 4d)     1.99660
    81    I    2  dx2y2  Ryd( 5d)     0.01957
    82    I    2  dx2y2  Ryd( 6d)     0.00158
    83    I    2  dx2y2  Ryd( 7d)     0.00020
    84    I    2  dz2    Cor( 4d)     1.99672
    85    I    2  dz2    Ryd( 5d)     0.01991
    86    I    2  dz2    Ryd( 6d)     0.00161
    87    I    2  dz2    Ryd( 7d)     0.00017
    88    I    2  f(0)   Ryd( 4f)     0.00272
    89    I    2  f(0)   Ryd( 5f)     0.00043
    90    I    2  f(C1)  Ryd( 4f)     0.00276
    91    I    2  f(C1)  Ryd( 5f)     0.00046
    92    I    2  f(S1)  Ryd( 4f)     0.00275
    93    I    2  f(S1)  Ryd( 5f)     0.00043
    94    I    2  f(C2)  Ryd( 4f)     0.00269
    95    I    2  f(C2)  Ryd( 5f)     0.00044
    96    I    2  f(S2)  Ryd( 4f)     0.00278
    97    I    2  f(S2)  Ryd( 5f)     0.00044
    98    I    2  f(C3)  Ryd( 4f)     0.00277
    99    I    2  f(C3)  Ryd( 5f)     0.00046
   100    I    2  f(S3)  Ryd( 4f)     0.00263
   101    I    2  f(S3)  Ryd( 5f)     0.00043

   102   Cl    3  S      Cor( 1S)     2.00000
   103   Cl    3  S      Cor( 2S)     1.99978
   104   Cl    3  S      Val( 3S)     1.88277
   105   Cl    3  S      Ryd( 4S)     0.00753
   106   Cl    3  S      Ryd( 5S)     0.00052
   107   Cl    3  S      Ryd( 6S)     0.00018
   108   Cl    3  px     Cor( 2p)     2.00003
   109   Cl    3  px     Val( 3p)     1.89136
   110   Cl    3  px     Ryd( 4p)     0.00940
   111   Cl    3  px     Ryd( 5p)     0.00053
   112   Cl    3  px     Ryd( 6p)     0.00011
   113   Cl    3  py     Cor( 2p)     1.99996
   114   Cl    3  py     Val( 3p)     0.96328
   115   Cl    3  py     Ryd( 4p)     0.00681
   116   Cl    3  py     Ryd( 5p)     0.00052
   117   Cl    3  py     Ryd( 6p)     0.00023
   118   Cl    3  pz     Cor( 2p)     2.00003
   119   Cl    3  pz     Val( 3p)     1.95464
   120   Cl    3  pz     Ryd( 4p)     0.01046
   121   Cl    3  pz     Ryd( 5p)     0.00066
   122   Cl    3  pz     Ryd( 6p)     0.00003
   123   Cl    3  dxy    Ryd( 3d)     0.01720
   124   Cl    3  dxy    Ryd( 4d)     0.00065
   125   Cl    3  dxy    Ryd( 5d)     0.00025
   126   Cl    3  dxz    Ryd( 3d)     0.01714
   127   Cl    3  dxz    Ryd( 4d)     0.00076
   128   Cl    3  dxz    Ryd( 5d)     0.00018
   129   Cl    3  dyz    Ryd( 3d)     0.02058
   130   Cl    3  dyz    Ryd( 4d)     0.00098
   131   Cl    3  dyz    Ryd( 5d)     0.00036
   132   Cl    3  dx2y2  Ryd( 3d)     0.01801
   133   Cl    3  dx2y2  Ryd( 4d)     0.00061
   134   Cl    3  dx2y2  Ryd( 5d)     0.00024
   135   Cl    3  dz2    Ryd( 3d)     0.01750
   136   Cl    3  dz2    Ryd( 4d)     0.00061
   137   Cl    3  dz2    Ryd( 5d)     0.00015
   138   Cl    3  f(0)   Ryd( 4f)     0.00131
   139   Cl    3  f(0)   Ryd( 5f)     0.00013
   140   Cl    3  f(C1)  Ryd( 4f)     0.00128
   141   Cl    3  f(C1)  Ryd( 5f)     0.00013
   142   Cl    3  f(S1)  Ryd( 4f)     0.00143
   143   Cl    3  f(S1)  Ryd( 5f)     0.00014
   144   Cl    3  f(C2)  Ryd( 4f)     0.00130
   145   Cl    3  f(C2)  Ryd( 5f)     0.00013
   146   Cl    3  f(S2)  Ryd( 4f)     0.00123
   147   Cl    3  f(S2)  Ryd( 5f)     0.00013
   148   Cl    3  f(C3)  Ryd( 4f)     0.00139
   149   Cl    3  f(C3)  Ryd( 5f)     0.00013
   150   Cl    3  f(S3)  Ryd( 4f)     0.00143
   151   Cl    3  f(S3)  Ryd( 5f)     0.00014

   152    H    4  S      Val( 1S)     0.49820
   153    H    4  S      Ryd( 2S)     0.00933
   154    H    4  S      Ryd( 3S)     0.00037
   155    H    4  S      Ryd( 4S)     0.00015
   156    H    4  px     Ryd( 2p)     0.00549
   157    H    4  px     Ryd( 3p)     0.00100
   158    H    4  px     Ryd( 4p)     0.00038
   159    H    4  py     Ryd( 2p)     0.00399
   160    H    4  py     Ryd( 3p)     0.00046
   161    H    4  py     Ryd( 4p)     0.00012
   162    H    4  pz     Ryd( 2p)     0.00548
   163    H    4  pz     Ryd( 3p)     0.00042
   164    H    4  pz     Ryd( 4p)     0.00020
   165    H    4  dxy    Ryd( 3d)     0.00034
   166    H    4  dxy    Ryd( 4d)     0.00010
   167    H    4  dxz    Ryd( 3d)     0.00046
   168    H    4  dxz    Ryd( 4d)     0.00012
   169    H    4  dyz    Ryd( 3d)     0.00024
   170    H    4  dyz    Ryd( 4d)     0.00006
   171    H    4  dx2y2  Ryd( 3d)     0.00028
   172    H    4  dx2y2  Ryd( 4d)     0.00013
   173    H    4  dz2    Ryd( 3d)     0.00029
   174    H    4  dz2    Ryd( 4d)     0.00009

 [ 28 electrons found in the effective core potential]

 WARNING:  5 low occupancy (<1.9990e) core orbitals found on  I    2


 Summary of Natural Population Analysis:                  
                                                          
                                       Natural Population 
                Natural  -----------------------------------------------
    Atom  No    Charge         Core      Valence    Rydberg      Total
 -----------------------------------------------------------------------
      O    1   -0.76050      1.99970     6.65033    0.11046     8.76050
      I    2   -0.87741     45.98332     7.72783    0.16626    53.87741
     Cl    3    0.16562      9.99980     6.69204    0.14254    16.83438
      H    4    0.47229      0.00000     0.49820    0.02950     0.52771
 =======================================================================
   * Total *   -1.00000     57.98283    21.56841    0.44876    80.00000

                                 Natural Population      
 --------------------------------------------------------
   Effective Core            28.00000
   Core                      29.98283 ( 99.9428% of  30)
   Valence                   21.56841 ( 98.0382% of  22)
   Natural Minimal Basis     79.55124 ( 99.4390% of  80)
   Natural Rydberg Basis      0.44876 (  0.5610% of  80)
 --------------------------------------------------------

    Atom  No          Natural Electron Configuration
 ----------------------------------------------------------------------------
      O    1      [core]2S( 1.79)2p( 4.86)3S( 0.01)3p( 0.04)3d( 0.05)
      I    2      [core]5S( 1.97)5p( 5.76)4f( 0.02)5d( 0.10)6p( 0.03)6d( 0.01)
     Cl    3      [core]3S( 1.88)3p( 4.81)4S( 0.01)3d( 0.09)4p( 0.03)4f( 0.01)
      H    4            1S( 0.50)2S( 0.01)2p( 0.01)


 NATURAL BOND ORBITAL ANALYSIS:

                       Occupancies       Lewis Structure    Low   High
           Occ.    -------------------  -----------------   occ   occ
  Cycle   Thresh.   Lewis   Non-Lewis     CR  BD  3C  LP    (L)   (NL)   Dev
 =============================================================================
   1(1)    1.90    79.41895   0.58105     15   2   0   9     1      1    0.14
   2(2)    1.90    79.41895   0.58105     15   2   0   9     1      1    0.14
   3(1)    1.80    79.41895   0.58105     15   2   0   9     0      1    0.14
   4(2)    1.80    79.41895   0.58105     15   2   0   9     0      1    0.14
   5(1)    1.70    79.41895   0.58105     15   2   0   9     0      1    0.14
   6(2)    1.70    79.41895   0.58105     15   2   0   9     0      1    0.14
   7(1)    1.60    79.41895   0.58105     15   2   0   9     0      1    0.14
   8(2)    1.60    79.41895   0.58105     15   2   0   9     0      1    0.14
   9(1)    1.50    79.04014   0.95986     15   1   0  10     0      1    0.57
  10(2)    1.50    79.04014   0.95986     15   1   0  10     0      1    0.57
  11(1)    1.90    79.41895   0.58105     15   2   0   9     1      1    0.14
 -----------------------------------------------------------------------------

 Structure accepted: RESONANCE keyword permits strongly delocalized structure

 WARNING:  5 low occupancy (<1.9990e) core orbitals found on  I    2

 --------------------------------------------------------
   Effective Core           28.00000
   Core                     29.98282 ( 99.943% of  30)
   Valence Lewis            21.43612 ( 97.437% of  22)
  ==================       ============================
   Total Lewis              79.41895 ( 99.274% of  80)
  -----------------------------------------------------
   Valence non-Lewis         0.17737 (  0.222% of  80)
   Rydberg non-Lewis         0.40369 (  0.505% of  80)
  ==================       ============================
   Total non-Lewis           0.58105 (  0.726% of  80)
 --------------------------------------------------------


       (Occupancy)   Bond orbital/ Coefficients/ Hybrids
 ---------------------------------------------------------------------------------
     1. (1.93914) BD ( 1) O   1 -Cl   3  
                ( 59.21%)   0.7695* O   1 s( 10.44%)p 8.53( 89.04%)d 0.05(  0.51%)
                                                  f 0.00(  0.02%)
                                            0.0003  0.3205 -0.0385 -0.0137 -0.0009
                                           -0.1896  0.0345  0.0070  0.0024  0.9232
                                           -0.0232 -0.0086 -0.0104  0.0104  0.0054
                                            0.0009 -0.0002 -0.0035  0.0000 -0.0025
                                            0.0028  0.0003 -0.0006  0.0059  0.0008
                                           -0.0002 -0.0569 -0.0044 -0.0009 -0.0415
                                           -0.0034  0.0007 -0.0000 -0.0000  0.0027
                                           -0.0003 -0.0108  0.0011 -0.0010  0.0006
                                            0.0019 -0.0005  0.0034  0.0021 -0.0046
                                            0.0004
                ( 40.79%)   0.6386*Cl   3 s(  8.37%)p10.79( 90.35%)d 0.14(  1.17%)
                                                  f 0.01(  0.11%)
                                           -0.0000  0.0005  0.2843 -0.0525 -0.0095
                                            0.0030  0.0001  0.2286 -0.0127 -0.0056
                                            0.0017 -0.0004 -0.9202  0.0633  0.0128
                                           -0.0035  0.0000  0.0022  0.0001 -0.0007
                                            0.0003 -0.0518  0.0045 -0.0005  0.0026
                                           -0.0000 -0.0004 -0.0032 -0.0004 -0.0003
                                           -0.0749  0.0091  0.0007 -0.0570  0.0057
                                            0.0011 -0.0003  0.0000 -0.0054  0.0010
                                            0.0205 -0.0030  0.0000 -0.0002 -0.0006
                                            0.0004 -0.0175  0.0019  0.0188 -0.0018
     2. (1.96415) BD ( 1) O   1 - H   4  
                ( 79.44%)   0.8913* O   1 s( 28.19%)p 2.53( 71.31%)d 0.02(  0.49%)
                                                  f 0.00(  0.01%)
                                            0.0003  0.5308 -0.0097 -0.0086  0.0017
                                            0.8287 -0.0097 -0.0067 -0.0054 -0.0139
                                            0.0160  0.0016  0.0020  0.1602 -0.0007
                                           -0.0014 -0.0015  0.0260  0.0048  0.0011
                                            0.0225  0.0014 -0.0007  0.0055  0.0010
                                            0.0001  0.0506  0.0037  0.0017 -0.0331
                                           -0.0014  0.0026 -0.0039 -0.0000 -0.0079
                                           -0.0001 -0.0002  0.0005  0.0025  0.0008
                                            0.0002 -0.0004  0.0008  0.0029 -0.0017
                                           -0.0004
                ( 20.56%)   0.4534* H   4 s( 99.83%)p 0.00(  0.16%)d 0.00(  0.00%)
                                            0.9981  0.0460  0.0029 -0.0015  0.0126
                                           -0.0319 -0.0112  0.0147  0.0012 -0.0036
                                            0.0084 -0.0064 -0.0008  0.0010  0.0020
                                           -0.0004 -0.0003  0.0005  0.0005  0.0027
                                           -0.0004 -0.0011 -0.0027
     3. (1.99970) CR ( 1) O   1           s(100.00%)p 0.00(  0.00%)
                                            1.0000 -0.0004  0.0000  0.0000  0.0000
                                           -0.0001 -0.0000  0.0000  0.0000 -0.0002
                                            0.0000  0.0000  0.0000 -0.0000 -0.0000
                                            0.0000  0.0000 -0.0000 -0.0000 -0.0000
                                           -0.0000 -0.0000  0.0000 -0.0000 -0.0000
                                           -0.0000  0.0000  0.0000 -0.0000  0.0000
                                            0.0000 -0.0000  0.0000  0.0000  0.0000
                                            0.0000  0.0000 -0.0000 -0.0000 -0.0000
                                           -0.0000  0.0000 -0.0000 -0.0000  0.0000
                                           -0.0000
     4. (1.99985) CR ( 1) I   2           s(100.00%)
                                            1.0000 -0.0002  0.0000 -0.0000  0.0000
                                            0.0000 -0.0000 -0.0001  0.0000 -0.0000
                                           -0.0000  0.0000  0.0000  0.0000  0.0000
                                            0.0000  0.0000  0.0000  0.0000  0.0000
                                           -0.0000  0.0000 -0.0000  0.0000  0.0000
                                           -0.0000 -0.0000 -0.0000  0.0000 -0.0000
                                            0.0000 -0.0000  0.0000  0.0000  0.0000
                                            0.0000 -0.0000 -0.0000 -0.0000 -0.0000
                                           -0.0000 -0.0000  0.0000 -0.0000 -0.0000
                                           -0.0000 -0.0000  0.0000 -0.0000 -0.0000
                                           -0.0000  0.0000  0.0000  0.0000  0.0000
     5. (1.99984) CR ( 2) I   2           s(  0.00%)p 1.00(100.00%)
                                            0.0000  0.0002 -0.0000  0.0000 -0.0000
                                           -0.0000 -1.0000  0.0001 -0.0000  0.0000
                                            0.0000  0.0000  0.0000  0.0000  0.0000
                                           -0.0000  0.0000  0.0000  0.0000  0.0000
                                           -0.0000 -0.0000 -0.0000 -0.0000  0.0000
                                            0.0000 -0.0000  0.0000  0.0000  0.0000
                                           -0.0000  0.0000 -0.0000 -0.0000 -0.0000
                                           -0.0000  0.0000  0.0000  0.0000 -0.0000
                                            0.0000 -0.0000 -0.0000 -0.0000 -0.0000
                                           -0.0000  0.0000  0.0000  0.0000 -0.0000
                                           -0.0000 -0.0000 -0.0000  0.0000 -0.0000
     6. (2.00003) CR ( 3) I   2           s(  0.00%)p 1.00(100.00%)
                                            0.0000 -0.0000  0.0000  0.0000 -0.0000
                                            0.0000 -0.0000  0.0000 -0.0000 -0.0000
                                            0.0000  1.0000 -0.0003 -0.0000 -0.0000
                                            0.0000 -0.0000 -0.0000 -0.0000  0.0000
                                           -0.0000 -0.0000  0.0000 -0.0000 -0.0000
                                           -0.0000  0.0000 -0.0000  0.0000  0.0000
                                           -0.0000  0.0000 -0.0000  0.0000 -0.0000
                                            0.0000 -0.0000 -0.0000 -0.0000  0.0000
                                           -0.0000  0.0000  0.0000 -0.0000 -0.0000
                                            0.0000  0.0000 -0.0000 -0.0000  0.0000
                                            0.0000  0.0000  0.0000 -0.0000 -0.0000
     7. (2.00003) CR ( 4) I   2           s(  0.00%)p 1.00(100.00%)
                                            0.0000  0.0000 -0.0000 -0.0000  0.0000
                                           -0.0000 -0.0000 -0.0000 -0.0000  0.0000
                                           -0.0000 -0.0000  0.0000 -0.0000 -0.0000
                                            0.0000  1.0000 -0.0003 -0.0000 -0.0000
                                            0.0000  0.0000  0.0000 -0.0000 -0.0000
                                           -0.0000  0.0000 -0.0000 -0.0000 -0.0000
                                            0.0000 -0.0000  0.0000 -0.0000  0.0000
                                           -0.0000 -0.0000  0.0000 -0.0000  0.0000
                                           -0.0000  0.0000  0.0000  0.0000  0.0000
                                            0.0000  0.0000 -0.0000 -0.0000  0.0000
                                            0.0000 -0.0000 -0.0000  0.0000  0.0000
     8. (1.99674) CR ( 5) I   2           s(  0.00%)p 0.00(  0.00%)d 1.00(100.00%)
                                            0.0000  0.0000  0.0000  0.0000 -0.0000
                                            0.0000  0.0000  0.0000 -0.0000 -0.0000
                                            0.0000 -0.0000 -0.0000 -0.0000 -0.0000
                                            0.0000  0.0000  0.0000  0.0000  0.0000
                                           -0.0000  1.0000  0.0000 -0.0000 -0.0000
                                            0.0000 -0.0000 -0.0000  0.0000  0.0000
                                           -0.0000  0.0000 -0.0000  0.0000 -0.0000
                                            0.0000 -0.0000 -0.0000 -0.0000  0.0000
                                           -0.0000  0.0000  0.0000 -0.0000 -0.0000
                                            0.0000  0.0000 -0.0000 -0.0000  0.0000
                                            0.0000  0.0000  0.0000 -0.0000 -0.0000
     9. (1.99674) CR ( 6) I   2           s(  0.00%)p 0.00(  0.00%)d 1.00(100.00%)
                                           -0.0000 -0.0000 -0.0000 -0.0000  0.0000
                                           -0.0000 -0.0000 -0.0000  0.0000 -0.0000
                                           -0.0000 -0.0000 -0.0000 -0.0000 -0.0000
                                            0.0000 -0.0000 -0.0000 -0.0000 -0.0000
                                            0.0000  0.0000  0.0000  0.0000 -0.0000
                                            1.0000  0.0000 -0.0000 -0.0000 -0.0000
                                            0.0000 -0.0000  0.0000  0.0000  0.0000
                                            0.0000 -0.0000 -0.0000 -0.0000  0.0000
                                           -0.0000  0.0000  0.0000  0.0000  0.0000
                                            0.0000 -0.0000 -0.0000 -0.0000  0.0000
                                            0.0000 -0.0000  0.0000 -0.0000  0.0000
    10. (1.99678) CR ( 7) I   2           s(  0.00%)p 0.00(  0.00%)d 1.00(100.00%)
                                           -0.0000 -0.0000 -0.0000 -0.0000  0.0000
                                           -0.0000 -0.0000 -0.0000  0.0000  0.0000
                                           -0.0000  0.0000  0.0000  0.0000  0.0000
                                           -0.0000 -0.0000 -0.0000 -0.0000 -0.0000
                                            0.0000  0.0000 -0.0000  0.0000  0.0000
                                           -0.0000  0.0000  0.0000 -0.0000  1.0000
                                            0.0000 -0.0000  0.0000 -0.0000  0.0000
                                           -0.0000  0.0000  0.0000  0.0000 -0.0000
                                            0.0000  0.0000  0.0000  0.0000  0.0000
                                           -0.0000 -0.0000 -0.0000  0.0000 -0.0000
                                           -0.0000 -0.0000 -0.0000  0.0000  0.0000
    11. (1.99660) CR ( 8) I   2           s(  0.00%)p 0.00(  0.00%)d 1.00(100.00%)
                                            0.0000  0.0001 -0.0000  0.0000 -0.0000
                                           -0.0000  0.0000  0.0000 -0.0000  0.0000
                                            0.0000  0.0000  0.0000  0.0000  0.0000
                                           -0.0000 -0.0000 -0.0000  0.0000 -0.0000
                                            0.0000  0.0000 -0.0000 -0.0000  0.0000
                                            0.0000  0.0000  0.0000  0.0000 -0.0000
                                            0.0000 -0.0000  0.0000  1.0000 -0.0000
                                           -0.0000  0.0000  0.0000  0.0000  0.0000
                                            0.0000  0.0000 -0.0000  0.0000  0.0000
                                           -0.0000  0.0000 -0.0000  0.0000 -0.0000
                                            0.0000 -0.0000 -0.0000  0.0000  0.0000
    12. (1.99672) CR ( 9) I   2           s(  0.00%)p 0.00(  0.00%)d 1.00(100.00%)
                                           -0.0000 -0.0000  0.0000 -0.0000  0.0000
                                            0.0000 -0.0000 -0.0000  0.0000 -0.0000
                                           -0.0000 -0.0000 -0.0000 -0.0000 -0.0000
                                            0.0000  0.0000  0.0000  0.0000  0.0000
                                           -0.0000 -0.0000  0.0000  0.0000 -0.0000
                                           -0.0000 -0.0000  0.0000  0.0000  0.0000
                                           -0.0000  0.0000 -0.0000  0.0000  0.0000
                                            0.0000 -0.0000  1.0000 -0.0000 -0.0000
                                            0.0000 -0.0000 -0.0000 -0.0000 -0.0000
                                            0.0000 -0.0000  0.0000  0.0000  0.0000
                                           -0.0000  0.0000  0.0000 -0.0000  0.0000
    13. (2.00000) CR ( 1)Cl   3           s(100.00%)
                                            1.0000  0.0000 -0.0000 -0.0000 -0.0000
                                            0.0000  0.0000  0.0000 -0.0000 -0.0000
                                            0.0000 -0.0000 -0.0000  0.0000  0.0000
                                           -0.0000 -0.0000  0.0000  0.0000 -0.0000
                                            0.0000 -0.0000  0.0000 -0.0000  0.0000
                                           -0.0000 -0.0000 -0.0000 -0.0000 -0.0000
                                           -0.0000  0.0000  0.0000 -0.0000  0.0000
                                            0.0000 -0.0000  0.0000 -0.0000  0.0000
                                            0.0000 -0.0000 -0.0000 -0.0000 -0.0000
                                            0.0000 -0.0000  0.0000  0.0000 -0.0000
    14. (1.99979) CR ( 2)Cl   3           s(100.00%)p 0.00(  0.00%)
                                            0.0000  1.0000 -0.0004  0.0000  0.0000
                                           -0.0000 -0.0000 -0.0001  0.0000  0.0000
                                           -0.0000  0.0000  0.0004 -0.0000 -0.0000
                                            0.0000 -0.0000 -0.0000 -0.0000  0.0000
                                           -0.0000  0.0000 -0.0000 -0.0000 -0.0000
                                           -0.0000  0.0000  0.0000  0.0000  0.0000
                                            0.0000 -0.0000 -0.0000  0.0000 -0.0000
                                           -0.0000  0.0000 -0.0000  0.0000 -0.0000
                                           -0.0000  0.0000 -0.0000  0.0000  0.0000
                                           -0.0000  0.0000 -0.0000 -0.0000  0.0000
    15. (2.00003) CR ( 3)Cl   3           s(  0.00%)p 1.00(100.00%)
                                            0.0000 -0.0000 -0.0000  0.0000  0.0000
                                           -0.0000  1.0000  0.0001  0.0000  0.0000
                                           -0.0000  0.0000  0.0001 -0.0000 -0.0000
                                            0.0000 -0.0000 -0.0000 -0.0000  0.0000
                                            0.0000  0.0000  0.0000  0.0000 -0.0000
                                            0.0000  0.0000  0.0000 -0.0000  0.0000
                                            0.0000 -0.0000 -0.0000  0.0000 -0.0000
                                           -0.0000 -0.0000  0.0000  0.0000 -0.0000
                                           -0.0000  0.0000  0.0000 -0.0000  0.0000
                                           -0.0000  0.0000 -0.0000 -0.0000  0.0000
    16. (1.99996) CR ( 4)Cl   3           s(  0.00%)p 1.00(100.00%)
                                           -0.0000  0.0000  0.0001 -0.0000 -0.0000
                                            0.0000  0.0000  0.0002 -0.0000 -0.0000
                                            0.0000  1.0000 -0.0003  0.0000  0.0000
                                           -0.0000 -0.0000  0.0000  0.0000 -0.0000
                                            0.0000 -0.0000  0.0000  0.0000  0.0000
                                           -0.0000 -0.0000 -0.0000 -0.0000 -0.0000
                                           -0.0000  0.0000 -0.0000 -0.0000  0.0000
                                            0.0000 -0.0000  0.0000 -0.0000  0.0000
                                            0.0000 -0.0000  0.0000 -0.0000 -0.0000
                                            0.0000 -0.0000  0.0000  0.0000 -0.0000
    17. (2.00003) CR ( 5)Cl   3           s(  0.00%)p 1.00(100.00%)
                                           -0.0000 -0.0000 -0.0000  0.0000  0.0000
                                            0.0000 -0.0000  0.0000  0.0000 -0.0000
                                            0.0000 -0.0000  0.0000 -0.0000  0.0000
                                            0.0000  1.0000  0.0002  0.0000  0.0000
                                           -0.0000 -0.0000 -0.0000 -0.0000 -0.0000
                                           -0.0000 -0.0000  0.0000  0.0000  0.0000
                                            0.0000 -0.0000 -0.0000  0.0000  0.0000
                                            0.0000 -0.0000  0.0000  0.0000 -0.0000
                                           -0.0000  0.0000 -0.0000  0.0000 -0.0000
                                            0.0000 -0.0000  0.0000 -0.0000 -0.0000
    18. (1.96670) LP ( 1) O   1           s( 61.48%)p 0.62( 38.42%)d 0.00(  0.10%)
                                                  f 0.00(  0.00%)
                                            0.0002  0.7839  0.0126  0.0082 -0.0011
                                           -0.4822 -0.0076 -0.0045 -0.0011 -0.3688
                                           -0.0050 -0.0054 -0.0025 -0.1246 -0.0020
                                           -0.0012 -0.0004 -0.0269 -0.0024  0.0043
                                           -0.0064 -0.0003  0.0003 -0.0068 -0.0008
                                            0.0005 -0.0041  0.0004  0.0017  0.0107
                                            0.0007  0.0009  0.0015 -0.0002  0.0024
                                           -0.0004  0.0004  0.0005  0.0004 -0.0004
                                           -0.0007  0.0003  0.0051 -0.0026 -0.0006
                                            0.0008
    19. (1.95257) LP ( 2) O   1           s(  0.01%)p 1.00( 99.79%)d 0.00(  0.19%)
                                                  f 0.00(  0.01%)
                                           -0.0000  0.0094  0.0019  0.0011 -0.0002
                                           -0.1957 -0.0044 -0.0009 -0.0011 -0.0543
                                           -0.0009 -0.0002 -0.0007  0.9778  0.0190
                                            0.0058  0.0072 -0.0080 -0.0005  0.0013
                                            0.0178 -0.0041 -0.0099  0.0347  0.0040
                                           -0.0029 -0.0027  0.0010  0.0020  0.0111
                                           -0.0002 -0.0027 -0.0098  0.0010  0.0038
                                           -0.0001  0.0005 -0.0002 -0.0037  0.0019
                                           -0.0030 -0.0001  0.0008 -0.0007  0.0010
                                           -0.0002
    20. (1.97791) LP ( 1) I   2           s( 93.18%)p 0.07(  6.82%)d 0.00(  0.00%)
                                                  f 0.00(  0.00%)
                                            0.0002  0.9653 -0.0001  0.0012 -0.0004
                                           -0.0002  0.0002  0.2596 -0.0011  0.0005
                                            0.0001 -0.0000 -0.0067 -0.0001  0.0000
                                           -0.0002 -0.0000 -0.0276  0.0001 -0.0001
                                            0.0000 -0.0000  0.0000 -0.0001 -0.0000
                                            0.0000  0.0005  0.0001  0.0001  0.0000
                                           -0.0000  0.0000 -0.0000 -0.0001 -0.0003
                                           -0.0003  0.0001  0.0000  0.0003  0.0001
                                            0.0000 -0.0000 -0.0001  0.0001  0.0001
                                            0.0000  0.0000  0.0000  0.0001  0.0000
                                            0.0000 -0.0001 -0.0002 -0.0000 -0.0001
    21. (1.95136) LP ( 2) I   2           s(  0.00%)p 1.00( 99.99%)d 0.00(  0.01%)
                                                  f 0.00(  0.00%)
                                            0.0000  0.0008 -0.0005 -0.0008  0.0010
                                           -0.0002 -0.0000 -0.1065  0.0000  0.0003
                                           -0.0001  0.0000  0.0735  0.0002  0.0001
                                            0.0000 -0.0003 -0.9915 -0.0033 -0.0017
                                            0.0003  0.0000 -0.0006  0.0000  0.0001
                                           -0.0000  0.0073 -0.0007 -0.0022 -0.0000
                                            0.0003 -0.0002  0.0001 -0.0000  0.0010
                                           -0.0001 -0.0005  0.0000 -0.0021  0.0007
                                           -0.0002  0.0021  0.0011  0.0013  0.0009
                                           -0.0001 -0.0000 -0.0027 -0.0013 -0.0001
                                            0.0001 -0.0004 -0.0000  0.0003  0.0001
    22. (1.95110) LP ( 3) I   2           s(  0.00%)p 1.00( 99.99%)d 0.00(  0.01%)
                                                  f 0.00(  0.00%)
                                           -0.0000  0.0067 -0.0002 -0.0003  0.0006
                                           -0.0001  0.0000  0.0087  0.0001  0.0002
                                           -0.0001  0.0003  0.9972  0.0033  0.0016
                                           -0.0004  0.0000  0.0730  0.0003  0.0001
                                            0.0000  0.0000 -0.0082  0.0005  0.0024
                                            0.0000 -0.0006  0.0002  0.0001 -0.0000
                                            0.0013 -0.0005  0.0003 -0.0000  0.0010
                                           -0.0007  0.0007  0.0000  0.0003 -0.0001
                                            0.0001 -0.0002 -0.0001 -0.0000  0.0000
                                           -0.0009 -0.0004  0.0003  0.0002 -0.0008
                                           -0.0005 -0.0002 -0.0002  0.0034  0.0015
    23. (1.84918) LP ( 4) I   2           s(  6.82%)p13.66( 93.12%)d 0.01(  0.05%)
                                                  f 0.00(  0.01%)
                                            0.0000  0.2610  0.0004 -0.0049  0.0014
                                            0.0007  0.0000 -0.9594  0.0070  0.0036
                                           -0.0007 -0.0000 -0.0010 -0.0000  0.0001
                                            0.0003  0.0000  0.1032  0.0003 -0.0004
                                            0.0003  0.0000  0.0001  0.0002 -0.0004
                                            0.0000 -0.0063  0.0013 -0.0001  0.0000
                                           -0.0000  0.0000 -0.0000 -0.0000  0.0187
                                           -0.0021 -0.0026  0.0000 -0.0113  0.0016
                                            0.0007 -0.0016 -0.0008  0.0052  0.0029
                                            0.0000 -0.0001  0.0021  0.0010  0.0000
                                            0.0000 -0.0066 -0.0028 -0.0000  0.0003
    24. (1.97342) LP ( 1)Cl   3           s( 91.65%)p 0.09(  8.33%)d 0.00(  0.02%)
                                                  f 0.00(  0.00%)
                                            0.0000  0.0002  0.9573  0.0060  0.0010
                                           -0.0004 -0.0000 -0.0238  0.0004  0.0005
                                            0.0003  0.0001  0.2873 -0.0063 -0.0030
                                            0.0013 -0.0000  0.0106  0.0003  0.0001
                                           -0.0000  0.0053  0.0003  0.0005  0.0002
                                            0.0001 -0.0001  0.0002  0.0002  0.0002
                                            0.0108 -0.0005 -0.0003  0.0077  0.0006
                                            0.0004 -0.0001  0.0001  0.0004  0.0001
                                           -0.0021 -0.0004  0.0000 -0.0001 -0.0002
                                            0.0001  0.0018  0.0002 -0.0031  0.0001
    25. (1.95612) LP ( 2)Cl   3           s(  0.00%)p 1.00( 99.95%)d 0.00(  0.04%)
                                                  f 0.00(  0.01%)
                                            0.0000  0.0000  0.0049 -0.0014 -0.0007
                                           -0.0005 -0.0000  0.1259  0.0017  0.0007
                                           -0.0000 -0.0000  0.0306  0.0004 -0.0000
                                            0.0001  0.0002 -0.9912 -0.0148 -0.0050
                                            0.0022  0.0011  0.0020  0.0009  0.0045
                                            0.0065  0.0028 -0.0057 -0.0155 -0.0081
                                           -0.0008 -0.0011 -0.0007 -0.0003 -0.0003
                                           -0.0001  0.0054 -0.0009 -0.0008  0.0004
                                            0.0001 -0.0001  0.0054 -0.0005  0.0037
                                           -0.0011 -0.0006 -0.0001 -0.0008  0.0003
    26. (1.95446) LP ( 3)Cl   3           s(  0.21%)p99.99( 99.75%)d 0.17(  0.04%)
                                                  f 0.04(  0.01%)
                                            0.0000 -0.0000  0.0454  0.0053  0.0040
                                            0.0018  0.0002 -0.9639 -0.0124 -0.0012
                                           -0.0002  0.0001 -0.2268 -0.0032 -0.0007
                                           -0.0007  0.0000 -0.1293 -0.0020 -0.0003
                                            0.0001  0.0054 -0.0105 -0.0058 -0.0003
                                            0.0005  0.0004  0.0008 -0.0015 -0.0010
                                            0.0054  0.0101  0.0062 -0.0004 -0.0024
                                           -0.0004  0.0010 -0.0002  0.0023 -0.0003
                                            0.0006  0.0003  0.0005  0.0001  0.0006
                                           -0.0001  0.0058 -0.0008  0.0065 -0.0010
    27. (0.01962) RY*( 1) O   1           s(  0.04%)p99.99( 98.59%)d37.73(  1.33%)
                                                  f 1.49(  0.05%)
                                           -0.0000  0.0001  0.0187  0.0018 -0.0004
                                            0.0046 -0.1919  0.0070  0.0050  0.0022
                                           -0.0532  0.0021 -0.0006 -0.0236  0.9715
                                           -0.0394 -0.0088 -0.0211 -0.0042  0.0004
                                            0.0453 -0.0055 -0.0153  0.0944  0.0261
                                            0.0057 -0.0053  0.0023  0.0028  0.0286
                                            0.0022 -0.0020 -0.0127  0.0110  0.0031
                                           -0.0030  0.0011 -0.0006 -0.0105  0.0086
                                           -0.0026  0.0032  0.0033 -0.0025  0.0013
                                           -0.0015
    28. (0.01628) RY*( 2) O   1           s( 31.75%)p 2.08( 65.99%)d 0.06(  2.04%)
                                                  f 0.01(  0.21%)
                                           -0.0000  0.0030  0.5625 -0.0323 -0.0074
                                            0.0121 -0.6133 -0.0003  0.0593  0.0395
                                           -0.5017 -0.0050  0.0338  0.0034 -0.1596
                                            0.0026  0.0118 -0.1205 -0.0257 -0.0098
                                           -0.0131  0.0027  0.0048 -0.0335 -0.0070
                                           -0.0029  0.0261  0.0075 -0.0014  0.0548
                                            0.0049 -0.0011 -0.0033  0.0005 -0.0011
                                           -0.0028 -0.0049  0.0004  0.0117 -0.0057
                                           -0.0028  0.0018  0.0378 -0.0178 -0.0111
                                            0.0039
    29. (0.00809) RY*( 3) O   1           s( 17.45%)p 0.58( 10.08%)d 4.08( 71.24%)
                                                  f 0.07(  1.24%)
                                           -0.0000  0.0167  0.4111 -0.0691  0.0194
                                            0.0152  0.2916 -0.0255  0.0752 -0.0168
                                           -0.0660  0.0007  0.0507  0.0008  0.0443
                                           -0.0029  0.0035  0.6527  0.0075  0.0071
                                           -0.0152  0.0033 -0.0008  0.0809  0.0043
                                            0.0034 -0.4800 -0.0138 -0.0392  0.2174
                                           -0.0079  0.0067 -0.0058  0.0031  0.0035
                                           -0.0056 -0.0198  0.0123 -0.0106  0.0040
                                            0.0130 -0.0062 -0.0966  0.0392 -0.0209
                                            0.0108
    30. (0.00709) RY*( 4) O   1           s(  0.08%)p 3.87(  0.33%)d99.99( 97.86%)
                                                  f20.60(  1.73%)
                                           -0.0000  0.0017  0.0288 -0.0030 -0.0010
                                            0.0024  0.0058  0.0023  0.0014 -0.0009
                                           -0.0000  0.0017  0.0027 -0.0171 -0.0529
                                           -0.0098 -0.0041 -0.0245  0.0041 -0.0005
                                           -0.5395  0.0269 -0.0099  0.8152 -0.0343
[...]
                                           -0.0269  0.1130 -0.1115  0.3208 -0.1676
                                            0.1491  0.0332 -0.0487 -0.0321 -0.2182
                                            0.1491  0.0547 -0.0792
   159. (0.00032) RY*( 9) H   4           s(  1.46%)p58.84( 86.12%)d 8.48( 12.41%)
                                           -0.0001 -0.0131  0.1138  0.0388 -0.0355
                                            0.1191  0.1238 -0.0238  0.0768 -0.0317
                                            0.1249 -0.8983 -0.0209  0.0692 -0.0113
                                           -0.1977  0.1947  0.0420 -0.0330 -0.1666
                                           -0.0529  0.0235  0.0909
   160. (0.00027) RY*(10) H   4           s(  7.32%)p 0.99(  7.25%)d11.66( 85.42%)
                                            0.0015 -0.0155  0.2642  0.0564 -0.0231
                                            0.0962 -0.1009  0.1153  0.1202  0.1318
                                            0.0106  0.0541 -0.0666 -0.6101 -0.0098
                                           -0.1159  0.0583  0.6002 -0.0490  0.0050
                                            0.0845  0.2916 -0.1010
   161. (0.00027) RY*(11) H   4           s(  5.89%)p 7.71( 45.41%)d 8.27( 48.70%)
                                            0.0190  0.0731 -0.0330  0.2283  0.0656
                                            0.4353  0.4406 -0.0410 -0.0076 -0.0095
                                           -0.0215  0.2424  0.0721 -0.0083 -0.0215
                                           -0.0574 -0.0579  0.1257 -0.0081 -0.6311
                                           -0.0713 -0.2410  0.0501
   162. (0.00023) RY*(12) H   4           s(  1.23%)p12.40( 15.27%)d67.83( 83.50%)
                                            0.0117  0.0091  0.0402  0.1023  0.0059
                                            0.2889  0.2056  0.0597  0.0583  0.1155
                                            0.0375  0.0569 -0.0444 -0.1651  0.0183
                                           -0.0221 -0.0175 -0.5852  0.0549  0.0235
                                           -0.0400  0.6774  0.0112
   163. (0.00020) RY*(13) H   4           s(  7.50%)p 1.05(  7.89%)d11.28( 84.61%)
                                           -0.0059 -0.0245  0.2725  0.0126 -0.0255
                                           -0.1353 -0.2119  0.0321 -0.0504  0.0654
                                           -0.0113 -0.0804  0.0244 -0.5524  0.0083
                                            0.0745  0.0399 -0.4997  0.0454 -0.2415
                                            0.1124 -0.4460 -0.1096
   164. (0.00013) RY*(14) H   4           s( 64.46%)p 0.11(  7.03%)d 0.44( 28.51%)
                                           -0.0016 -0.0086  0.2493  0.7631 -0.0175
                                           -0.0820  0.1663  0.0186  0.1546 -0.1016
                                           -0.0215  0.0194 -0.0164 -0.0059  0.1297
                                            0.0209 -0.0235 -0.0163  0.0026  0.4218
                                           -0.1895 -0.1916  0.1282
   165. (0.00014) RY*(15) H   4           s(  0.77%)p60.01( 45.95%)d69.58( 53.28%)
                                           -0.0021 -0.0019  0.0498  0.0719  0.0127
                                           -0.0084 -0.0464  0.0032  0.0126 -0.0699
                                           -0.0276 -0.2200  0.6347 -0.0154  0.0545
                                            0.3214 -0.6114  0.0763  0.0190 -0.0562
                                            0.0778  0.1386 -0.1337
   166. (0.00011) RY*(16) H   4           s(  3.27%)p12.32( 40.31%)d17.24( 56.42%)
                                            0.0022  0.0055  0.1347  0.1206  0.0102
                                           -0.0327  0.0333 -0.0132 -0.1398  0.6146
                                           -0.0004 -0.0250  0.0516  0.1391 -0.7254
                                            0.0243 -0.0622  0.0039 -0.0658  0.0777
                                           -0.0272 -0.0513 -0.0199
   167. (0.00006) RY*(17) H   4           s( 43.45%)p 0.76( 33.09%)d 0.54( 23.46%)
   168. (0.00006) RY*(18) H   4           s(  0.00%)p 1.00(  0.62%)d99.99( 99.38%)
   169. (0.00006) RY*(19) H   4           s(  4.19%)p 3.65( 15.29%)d19.24( 80.52%)
   170. (0.00005) RY*(20) H   4           s(  1.84%)p18.83( 34.61%)d34.56( 63.55%)
   171. (0.00005) RY*(21) H   4           s(  1.23%)p 5.32(  6.57%)d74.71( 92.20%)
   172. (0.00004) RY*(22) H   4           s(  2.51%)p18.89( 47.38%)d19.98( 50.11%)
   173. (0.05905) BD*( 1) O   1 -Cl   3  
                ( 40.79%)   0.6386* O   1 s( 10.44%)p 8.53( 89.04%)d 0.05(  0.51%)
                                                  f 0.00(  0.02%)
                                           -0.0003 -0.3205  0.0385  0.0137  0.0009
                                            0.1896 -0.0345 -0.0070 -0.0024 -0.9232
                                            0.0232  0.0086  0.0104 -0.0104 -0.0054
                                           -0.0009  0.0002  0.0035 -0.0000  0.0025
                                           -0.0028 -0.0003  0.0006 -0.0059 -0.0008
                                            0.0002  0.0569  0.0044  0.0009  0.0415
                                            0.0034 -0.0007  0.0000  0.0000 -0.0027
                                            0.0003  0.0108 -0.0011  0.0010 -0.0006
                                           -0.0019  0.0005 -0.0034 -0.0021  0.0046
                                           -0.0004
                ( 59.21%)  -0.7695*Cl   3 s(  8.37%)p10.79( 90.35%)d 0.14(  1.17%)
                                                  f 0.01(  0.11%)
                                            0.0000 -0.0005 -0.2843  0.0525  0.0095
                                           -0.0030 -0.0001 -0.2286  0.0127  0.0056
                                           -0.0017  0.0004  0.9202 -0.0633 -0.0128
                                            0.0035 -0.0000 -0.0022 -0.0001  0.0007
                                           -0.0003  0.0518 -0.0045  0.0005 -0.0026
                                            0.0000  0.0004  0.0032  0.0004  0.0003
                                            0.0749 -0.0091 -0.0007  0.0570 -0.0057
                                           -0.0011  0.0003 -0.0000  0.0054 -0.0010
                                           -0.0205  0.0030 -0.0000  0.0002  0.0006
                                           -0.0004  0.0175 -0.0019 -0.0188  0.0018
   174. (0.11832) BD*( 1) O   1 - H   4  
                ( 20.56%)   0.4534* O   1 s( 28.19%)p 2.53( 71.31%)d 0.02(  0.49%)
                                                  f 0.00(  0.01%)
                                           -0.0003 -0.5308  0.0097  0.0086 -0.0017
                                           -0.8287  0.0097  0.0067  0.0054  0.0139
                                           -0.0160 -0.0016 -0.0020 -0.1602  0.0007
                                            0.0014  0.0015 -0.0260 -0.0048 -0.0011
                                           -0.0225 -0.0014  0.0007 -0.0055 -0.0010
                                           -0.0001 -0.0506 -0.0037 -0.0017  0.0331
                                            0.0014 -0.0026  0.0039  0.0000  0.0079
                                            0.0001  0.0002 -0.0005 -0.0025 -0.0008
                                           -0.0002  0.0004 -0.0008 -0.0029  0.0017
                                            0.0004
                ( 79.44%)  -0.8913* H   4 s( 99.83%)p 0.00(  0.16%)d 0.00(  0.00%)
                                           -0.9981 -0.0460 -0.0029  0.0015 -0.0126
                                            0.0319  0.0112 -0.0147 -0.0012  0.0036
                                           -0.0084  0.0064  0.0008 -0.0010 -0.0020
                                            0.0004  0.0003 -0.0005 -0.0005 -0.0027
                                            0.0004  0.0011  0.0027


 NHO Directionality and "Bond Bending" (deviations from line of nuclear centers)

         [Thresholds for printing:  angular deviation  >  1.0 degree]
                                    hybrid p-character > 25.0%
                                    orbital occupancy  >  0.10e

                                Line of Centers        Hybrid 1              Hybrid 2
                                ---------------  -------------------   ------------------
                NBO               Theta   Phi    Theta   Phi    Dev    Theta   Phi    Dev
 ========================================================================================
     1. BD (   1) O   1 -Cl   3    90.0  103.2    88.9   99.4   4.0      --     --    --
     2. BD (   1) O   1 - H   4    80.0    0.0    79.0    0.4   1.1      --     --    --
    18. LP (   1) O   1             --     --    101.6  217.6   --       --     --    --
    19. LP (   2) O   1             --     --     11.7  195.5   --       --     --    --
    21. LP (   2) I   2             --     --    172.6  145.2   --       --     --    --
    22. LP (   3) I   2             --     --     85.8   89.5   --       --     --    --
    23. LP (   4) I   2             --     --     83.8  180.0   --       --     --    --
    25. LP (   2)Cl   3             --     --    172.5   13.6   --       --     --    --
    26. LP (   3)Cl   3             --     --     97.5  193.3   --       --     --    --
   174. BD*(   1) O   1 - H   4    80.0    0.0    79.0    0.4   1.1      --     --    --


 Natural Bond Orbitals (Summary):

           NBO                  Occupancy  
 -----------------------------------------------
 Molecular unit  1  (HOCl)
     1. BD (   1) O   1 -Cl   3          1.93914
     2. BD (   1) O   1 - H   4          1.96415
     3. CR (   1) O   1                  1.99970
    13. CR (   1)Cl   3                  2.00000
    14. CR (   2)Cl   3                  1.99979
    15. CR (   3)Cl   3                  2.00003
    16. CR (   4)Cl   3                  1.99996
    17. CR (   5)Cl   3                  2.00003
    18. LP (   1) O   1                  1.96670
    19. LP (   2) O   1                  1.95257
    24. LP (   1)Cl   3                  1.97342
    25. LP (   2)Cl   3                  1.95612
    26. LP (   3)Cl   3                  1.95446
    27. RY*(   1) O   1                  0.01962
    28. RY*(   2) O   1                  0.01628
    29. RY*(   3) O   1                  0.00809
    30. RY*(   4) O   1                  0.00709
    31. RY*(   5) O   1                  0.00633
    32. RY*(   6) O   1                  0.00616
    33. RY*(   7) O   1                  0.00576
    34. RY*(   8) O   1                  0.00340
    35. RY*(   9) O   1                  0.00253
    36. RY*(  10) O   1                  0.00088
    37. RY*(  11) O   1                  0.00065
    38. RY*(  12) O   1                  0.00062
    39. RY*(  13) O   1                  0.00059
    40. RY*(  14) O   1                  0.00050
    41. RY*(  15) O   1                  0.00051
    42. RY*(  16) O   1                  0.00048
    43. RY*(  17) O   1                  0.00048
    44. RY*(  18) O   1                  0.00048
    45. RY*(  19) O   1                  0.00044
    46. RY*(  20) O   1                  0.00045
    47. RY*(  21) O   1                  0.00045
    48. RY*(  22) O   1                  0.00042
    49. RY*(  23) O   1                  0.00036
    50. RY*(  24) O   1                  0.00031
    51. RY*(  25) O   1                  0.00025
    52. RY*(  26) O   1                  0.00020
    53. RY*(  27) O   1                  0.00015
    54. RY*(  28) O   1                  0.00013
    55. RY*(  29) O   1                  0.00012
    56. RY*(  30) O   1                  0.00009
    57. RY*(  31) O   1                  0.00008
    58. RY*(  32) O   1                  0.00009
    59. RY*(  33) O   1                  0.00008
    60. RY*(  34) O   1                  0.00007
    61. RY*(  35) O   1                  0.00008
    62. RY*(  36) O   1                  0.00007
    63. RY*(  37) O   1                  0.00005
    64. RY*(  38) O   1                  0.00006
    65. RY*(  39) O   1                  0.00004
    66. RY*(  40) O   1                  0.00002
    67. RY*(  41) O   1                  0.00003
   110. RY*(   1)Cl   3                  0.02225
   111. RY*(   2)Cl   3                  0.01736
   112. RY*(   3)Cl   3                  0.01677
   113. RY*(   4)Cl   3                  0.01655
   114. RY*(   5)Cl   3                  0.01163
   115. RY*(   6)Cl   3                  0.00920
   116. RY*(   7)Cl   3                  0.00901
   117. RY*(   8)Cl   3                  0.00625
   118. RY*(   9)Cl   3                  0.00167
   119. RY*(  10)Cl   3                  0.00127
   120. RY*(  11)Cl   3                  0.00127
   121. RY*(  12)Cl   3                  0.00119
   122. RY*(  13)Cl   3                  0.00119
   123. RY*(  14)Cl   3                  0.00116
   124. RY*(  15)Cl   3                  0.00111
   125. RY*(  16)Cl   3                  0.00094
   126. RY*(  17)Cl   3                  0.00077
   127. RY*(  18)Cl   3                  0.00076
   128. RY*(  19)Cl   3                  0.00062
   129. RY*(  20)Cl   3                  0.00056
   130. RY*(  21)Cl   3                  0.00045
   131. RY*(  22)Cl   3                  0.00037
   132. RY*(  23)Cl   3                  0.00035
   133. RY*(  24)Cl   3                  0.00032
   134. RY*(  25)Cl   3                  0.00018
   135. RY*(  26)Cl   3                  0.00016
   136. RY*(  27)Cl   3                  0.00016
   137. RY*(  28)Cl   3                  0.00013
   138. RY*(  29)Cl   3                  0.00013
   139. RY*(  30)Cl   3                  0.00011
   140. RY*(  31)Cl   3                  0.00011
   141. RY*(  32)Cl   3                  0.00012
   142. RY*(  33)Cl   3                  0.00009
   143. RY*(  34)Cl   3                  0.00009
   144. RY*(  35)Cl   3                  0.00009
   145. RY*(  36)Cl   3                  0.00010
   146. RY*(  37)Cl   3                  0.00008
   147. RY*(  38)Cl   3                  0.00006
   148. RY*(  39)Cl   3                  0.00004
   149. RY*(  40)Cl   3                  0.00003
   150. RY*(  41)Cl   3                  0.00000
   151. RY*(   1) H   4                  0.01145
   152. RY*(   2) H   4                  0.00570
   153. RY*(   3) H   4                  0.00488
   154. RY*(   4) H   4                  0.00385
   155. RY*(   5) H   4                  0.00068
   156. RY*(   6) H   4                  0.00056
   157. RY*(   7) H   4                  0.00050
   158. RY*(   8) H   4                  0.00038
   159. RY*(   9) H   4                  0.00032
   160. RY*(  10) H   4                  0.00027
   161. RY*(  11) H   4                  0.00027
   162. RY*(  12) H   4                  0.00023
   163. RY*(  13) H   4                  0.00020
   164. RY*(  14) H   4                  0.00013
   165. RY*(  15) H   4                  0.00014
   166. RY*(  16) H   4                  0.00011
   167. RY*(  17) H   4                  0.00006
   168. RY*(  18) H   4                  0.00006
   169. RY*(  19) H   4                  0.00006
   170. RY*(  20) H   4                  0.00005
   171. RY*(  21) H   4                  0.00005
   172. RY*(  22) H   4                  0.00004
   173. BD*(   1) O   1 -Cl   3          0.05905
   174. BD*(   1) O   1 - H   4          0.11832
       -------------------------------
              Total Lewis   25.70608  ( 98.4055%)
        Valence non-Lewis    0.17737  (  0.6790%)
        Rydberg non-Lewis    0.23915  (  0.9155%)
       -------------------------------
            Total unit  1   26.12259  (100.0000%)
           Charge unit  1   -0.12259

 Molecular unit  2  (I)
     4. CR (   1) I   2                  1.99985
     5. CR (   2) I   2                  1.99984
     6. CR (   3) I   2                  2.00003
     7. CR (   4) I   2                  2.00003
     8. CR (   5) I   2                  1.99674
     9. CR (   6) I   2                  1.99674
    10. CR (   7) I   2                  1.99678
    11. CR (   8) I   2                  1.99660
    12. CR (   9) I   2                  1.99672
    20. LP (   1) I   2                  1.97791
    21. LP (   2) I   2                  1.95136
    22. LP (   3) I   2                  1.95110
    23. LP (   4) I   2                  1.84918
    68. RY*(   1) I   2                  0.02023
    69. RY*(   2) I   2                  0.02013
    70. RY*(   3) I   2                  0.02009
    71. RY*(   4) I   2                  0.02008
    72. RY*(   5) I   2                  0.01887
    73. RY*(   6) I   2                  0.01059
    74. RY*(   7) I   2                  0.01053
    75. RY*(   8) I   2                  0.00888
    76. RY*(   9) I   2                  0.00283
    77. RY*(  10) I   2                  0.00278
    78. RY*(  11) I   2                  0.00278
    79. RY*(  12) I   2                  0.00276
    80. RY*(  13) I   2                  0.00276
    81. RY*(  14) I   2                  0.00268
    82. RY*(  15) I   2                  0.00268
    83. RY*(  16) I   2                  0.00243
    84. RY*(  17) I   2                  0.00165
    85. RY*(  18) I   2                  0.00166
    86. RY*(  19) I   2                  0.00132
    87. RY*(  20) I   2                  0.00129
    88. RY*(  21) I   2                  0.00110
    89. RY*(  22) I   2                  0.00072
    90. RY*(  23) I   2                  0.00072
    91. RY*(  24) I   2                  0.00060
    92. RY*(  25) I   2                  0.00046
    93. RY*(  26) I   2                  0.00045
    94. RY*(  27) I   2                  0.00044
    95. RY*(  28) I   2                  0.00042
    96. RY*(  29) I   2                  0.00041
    97. RY*(  30) I   2                  0.00041
    98. RY*(  31) I   2                  0.00038
    99. RY*(  32) I   2                  0.00031
   100. RY*(  33) I   2                  0.00020
   101. RY*(  34) I   2                  0.00019
   102. RY*(  35) I   2                  0.00015
   103. RY*(  36) I   2                  0.00013
   104. RY*(  37) I   2                  0.00012
   105. RY*(  38) I   2                  0.00010
   106. RY*(  39) I   2                  0.00010
   107. RY*(  40) I   2                  0.00007
   108. RY*(  41) I   2                  0.00007
   109. RY*(  42) I   2                  0.00000
       -------------------------------
              Total Lewis   53.71287  ( 99.6946%)
        Valence non-Lewis    0.00000  (  0.0000%)
        Rydberg non-Lewis    0.16454  (  0.3054%)
       -------------------------------
            Total unit  2   53.87741  (100.0000%)
           Charge unit  2   -0.87741
 Leave Link  607 at Tue Sep 28 09:15:52 2021, MaxMem= 16106127360 cpu:              69.5 elap:               2.5
 (Enter /sw/contrib/gaussian/g16/B01/g16/l9999.exe)
 1\1\GINC-N2398\SP\RMP2-FC\Gen\Cl1H1I1O1(1-)\CGAVINH\28-Sep-2021\0\\#p 
 pop=NBO SP NoSymm mp2/gen Pseudo=read density=current\\title\\-1,1\O,0
 ,0.,0.,0.\I,0,3.31229841,0.,0.\Cl,0,-0.386418759,1.641656518,0.\H,0,0.
 99046055,0.,0.174644918\\Version=ES64L-G16RevB.01\HF=-829.685027\MP2=-
 830.3674828\RMSD=8.469e-09\Dipole=-1.8062943,0.8249151,0.0449561\Quadr
 upole=-21.3221237,10.6812416,10.640882,0.2912801,-0.0223074,-0.0388726
 \PG=C01 [X(Cl1H1I1O1)]\\@


 MY DESCRIPTION OF EXPERIENCE IS NOT WHAT HAPPENS
 TO A MAN.  EXPERIENCE IS WHAT A MAN DOES WITH WHAT
 HAPPENS TO HIM.
                         - CHUCK KNOX, SEATTLE SEAHAWKS, 1985
 Job cpu time:       0 days  0 hours  5 minutes 45.5 seconds.
 Elapsed time:       0 days  0 hours  0 minutes 18.0 seconds.
 File lengths (MBytes):  RWF=     15 Int=      0 D2E=      0 Chk=      8 Scr=      1
 Normal termination of Gaussian 16 at Tue Sep 28 09:15:53 2021.
