 Entering Gaussian System, Link 0=g16
 Input=ihocl_25_sp.gjf
 Output=ihocl_25_sp.log
 Initial command:
 /sw/contrib/gaussian/g16/B01/g16/l1.exe "/scr/Gau-158405.inp" -scrdir="/scr/"
 Entering Link 1 = /sw/contrib/gaussian/g16/B01/g16/l1.exe PID=    158406.
  
 Copyright (c) 1988-2017, Gaussian, Inc.  All Rights Reserved.
  
 This is part of the Gaussian(R) 16 program.  It is based on
 the Gaussian(R) 09 system (copyright 2009, Gaussian, Inc.),
 the Gaussian(R) 03 system (copyright 2003, Gaussian, Inc.),
 the Gaussian(R) 98 system (copyright 1998, Gaussian, Inc.),
 the Gaussian(R) 94 system (copyright 1995, Gaussian, Inc.),
 the Gaussian 92(TM) system (copyright 1992, Gaussian, Inc.),
 the Gaussian 90(TM) system (copyright 1990, Gaussian, Inc.),
 the Gaussian 88(TM) system (copyright 1988, Gaussian, Inc.),
 the Gaussian 86(TM) system (copyright 1986, Carnegie Mellon
 University), and the Gaussian 82(TM) system (copyright 1983,
 Carnegie Mellon University). Gaussian is a federally registered
 trademark of Gaussian, Inc.
  
 This software contains proprietary and confidential information,
 including trade secrets, belonging to Gaussian, Inc.
  
 This software is provided under written license and may be
 used, copied, transmitted, or stored only in accord with that
 written license.
  
 The following legend is applicable only to US Government
 contracts under FAR:
  
                    RESTRICTED RIGHTS LEGEND
  
 Use, reproduction and disclosure by the US Government is
 subject to restrictions as set forth in subparagraphs (a)
 and (c) of the Commercial Computer Software - Restricted
 Rights clause in FAR 52.227-19.
  
 Gaussian, Inc.
 340 Quinnipiac St., Bldg. 40, Wallingford CT 06492
  
  
 ---------------------------------------------------------------
 Warning -- This program may not be used in any manner that
 competes with the business of Gaussian, Inc. or will provide
 assistance to any competitor of Gaussian, Inc.  The licensee
 of this program is prohibited from giving any competitor of
 Gaussian, Inc. access to this program.  By using this program,
 the user acknowledges that Gaussian, Inc. is engaged in the
 business of creating and licensing software in the field of
 computational chemistry and represents and warrants to the
 licensee that it is not a competitor of Gaussian, Inc. and that
 it will not use this program in any manner prohibited above.
 ---------------------------------------------------------------
  

 Cite this work as:
 Gaussian 16, Revision B.01,
 M. J. Frisch, G. W. Trucks, H. B. Schlegel, G. E. Scuseria, 
 M. A. Robb, J. R. Cheeseman, G. Scalmani, V. Barone, 
 G. A. Petersson, H. Nakatsuji, X. Li, M. Caricato, A. V. Marenich, 
 J. Bloino, B. G. Janesko, R. Gomperts, B. Mennucci, H. P. Hratchian, 
 J. V. Ortiz, A. F. Izmaylov, J. L. Sonnenberg, D. Williams-Young, 
 F. Ding, F. Lipparini, F. Egidi, J. Goings, B. Peng, A. Petrone, 
 T. Henderson, D. Ranasinghe, V. G. Zakrzewski, J. Gao, N. Rega, 
 G. Zheng, W. Liang, M. Hada, M. Ehara, K. Toyota, R. Fukuda, 
 J. Hasegawa, M. Ishida, T. Nakajima, Y. Honda, O. Kitao, H. Nakai, 
 T. Vreven, K. Throssell, J. A. Montgomery, Jr., J. E. Peralta, 
 F. Ogliaro, M. J. Bearpark, J. J. Heyd, E. N. Brothers, K. N. Kudin, 
 V. N. Staroverov, T. A. Keith, R. Kobayashi, J. Normand, 
 K. Raghavachari, A. P. Rendell, J. C. Burant, S. S. Iyengar, 
 J. Tomasi, M. Cossi, J. M. Millam, M. Klene, C. Adamo, R. Cammi, 
 J. W. Ochterski, R. L. Martin, K. Morokuma, O. Farkas, 
 J. B. Foresman, and D. J. Fox, Gaussian, Inc., Wallingford CT, 2016.
 
 ******************************************
 Gaussian 16:  ES64L-G16RevB.01 20-Dec-2017
                28-Sep-2021 
 ******************************************
 %nproc=28
 Will use up to   28 processors via shared memory.
 %mem=120GB
 %chk=/gscratch/ilahie/mccoygrp/coire_hocl/ihocl/ihocl_25_sp.chk
 --------------------------------------------------------
 #p pop=NBO SP NoSymm mp2/gen Pseudo=read density=current
 --------------------------------------------------------
 1/30=1,38=1,172=1/1;
 2/12=2,15=1,17=6,18=5,40=1/2;
 3/5=7,11=9,16=1,17=8,25=1,30=1,71=1/1,2,3;
 4//1;
 5/5=2,38=5/2;
 8/6=4,10=1/1;
 9/15=1,16=-3/6;
 10/5=1,13=10,31=1/2;
 6/7=2,8=2,9=2,10=2,22=-1,40=1/1,7;
 99/5=1,9=1/99;
 Leave Link    1 at Tue Sep 28 09:16:29 2021, MaxMem= 16106127360 cpu:               0.8 elap:               0.0
 (Enter /sw/contrib/gaussian/g16/B01/g16/l101.exe)
 -----
 title
 -----
 Symbolic Z-matrix:
 Charge = -1 Multiplicity = 1
 O                     0.        0.        0. 
 I                     3.3123    0.        0. 
 Cl                   -0.38642   1.64166   0. 
 H                     0.90244   0.        0.42081 
 
 ITRead=  0  0  0  0
 MicOpt= -1 -1 -1 -1
 NAtoms=      4 NQM=        4 NQMF=       0 NMMI=      0 NMMIF=      0
                NMic=       0 NMicF=      0.
                    Isotopes and Nuclear Properties:
 (Nuclear quadrupole moments (NQMom) in fm**2, nuclear magnetic moments (NMagM)
  in nuclear magnetons)

  Atom         1           2           3           4
 IAtWgt=          16         127          35           1
 AtmWgt=  15.9949146 126.9004000  34.9688527   1.0078250
 NucSpn=           0           5           3           1
 AtZEff=  -0.0000000  -0.0000000  -0.0000000  -0.0000000
 NQMom=    0.0000000 -71.0000000  -8.1650000   0.0000000
 NMagM=    0.0000000   2.8132800   0.8218740   2.7928460
 AtZNuc=   8.0000000  53.0000000  17.0000000   1.0000000
 Leave Link  101 at Tue Sep 28 09:16:29 2021, MaxMem= 16106127360 cpu:               2.5 elap:               0.2
 (Enter /sw/contrib/gaussian/g16/B01/g16/l202.exe)
                          Input orientation:                          
 ---------------------------------------------------------------------
 Center     Atomic      Atomic             Coordinates (Angstroms)
 Number     Number       Type             X           Y           Z
 ---------------------------------------------------------------------
      1          8           0        0.000000    0.000000    0.000000
      2         53           0        3.312298    0.000000    0.000000
      3         17           0       -0.386419    1.641657    0.000000
      4          1           0        0.902438    0.000000    0.420814
 ---------------------------------------------------------------------
                    Distance matrix (angstroms):
                    1          2          3          4
     1  O    0.000000
     2  I    3.312298   0.000000
     3  Cl   1.686522   4.046671   0.000000
     4  H    0.995730   2.446326   2.129148   0.000000
 Symmetry turned off by external request.
 Stoichiometry    ClHIO(1-)
 Framework group  C1[X(ClHIO)]
 Deg. of freedom     6
 Full point group                 C1      NOp   1
 Rotational constants (GHZ):          21.5599956           0.9688282           0.9277522
 Leave Link  202 at Tue Sep 28 09:16:29 2021, MaxMem= 16106127360 cpu:               0.2 elap:               0.0
 (Enter /sw/contrib/gaussian/g16/B01/g16/l301.exe)
 General basis read from cards:  (5D, 7F)
 Centers:       4      1      3
 aug-cc-pVTZ
 ****
 Centers:       2
 S 11 1.00
     Exponent=  5.5465000000D+03 Coefficients=  1.5600000000D-04
     Exponent=  8.3821400000D+02 Coefficients=  9.8600000000D-04
     Exponent=  1.8218700000D+02 Coefficients=  2.7920000000D-03
     Exponent=  3.1212300000D+01 Coefficients= -4.3251000000D-02
     Exponent=  1.9531400000D+01 Coefficients=  2.3413400000D-01
     Exponent=  8.2409900000D+00 Coefficients= -7.5094300000D-01
     Exponent=  2.1945500000D+00 Coefficients=  8.8296800000D-01
     Exponent=  1.1091100000D+00 Coefficients=  4.6206100000D-01
     Exponent=  3.7464100000D-01 Coefficients=  2.2286000000D-02
     Exponent=  1.7708000000D-01 Coefficients= -4.3530000000D-03
     Exponent=  8.1061000000D-02 Coefficients=  1.1020000000D-03
 S 11 1.00
     Exponent=  5.5465000000D+03 Coefficients= -7.3000000000D-05
     Exponent=  8.3821400000D+02 Coefficients= -5.0800000000D-04
     Exponent=  1.8218700000D+02 Coefficients= -1.1580000000D-03
     Exponent=  3.1212300000D+01 Coefficients=  1.2193000000D-02
     Exponent=  1.9531400000D+01 Coefficients= -8.7854000000D-02
     Exponent=  8.2409900000D+00 Coefficients=  3.3820000000D-01
     Exponent=  2.1945500000D+00 Coefficients= -5.7655000000D-01
     Exponent=  1.1091100000D+00 Coefficients= -4.0929800000D-01
     Exponent=  3.7464100000D-01 Coefficients=  5.6745900000D-01
     Exponent=  1.7708000000D-01 Coefficients=  6.1248900000D-01
     Exponent=  8.1061000000D-02 Coefficients=  1.4323100000D-01
 S 1 1.00
     Exponent=  3.7464100000D-01 Coefficients=  1.0000000000D+00
 S 1 1.00
     Exponent=  1.7708000000D-01 Coefficients=  1.0000000000D+00
 S 1 1.00
     Exponent=  1.0010000000D-01 Coefficients=  1.0000000000D+00
 S 1 1.00
     Exponent=  4.1200000000D-02 Coefficients=  1.0000000000D+00
 P 9 1.00
     Exponent=  1.8898800000D+02 Coefficients=  5.8500000000D-04
     Exponent=  2.1286800000D+01 Coefficients=  3.6923000000D-02
     Exponent=  1.0039600000D+01 Coefficients= -2.3532400000D-01
     Exponent=  3.4518000000D+00 Coefficients=  3.4148300000D-01
     Exponent=  1.9745600000D+00 Coefficients=  5.3478800000D-01
     Exponent=  1.0242000000D+00 Coefficients=  2.6514100000D-01
     Exponent=  4.4943700000D-01 Coefficients=  2.5787000000D-02
     Exponent=  1.8664800000D-01 Coefficients=  5.2200000000D-04
     Exponent=  7.3481000000D-02 Coefficients=  6.0600000000D-04
 P 9 1.00
     Exponent=  1.8898800000D+02 Coefficients= -2.5600000000D-04
     Exponent=  2.1286800000D+01 Coefficients= -1.1682000000D-02
     Exponent=  1.0039600000D+01 Coefficients=  8.3192000000D-02
     Exponent=  3.4518000000D+00 Coefficients= -1.5697000000D-01
     Exponent=  1.9745600000D+00 Coefficients= -2.2451800000D-01
     Exponent=  1.0242000000D+00 Coefficients= -1.1445100000D-01
     Exponent=  4.4943700000D-01 Coefficients=  3.7535600000D-01
     Exponent=  1.8664800000D-01 Coefficients=  5.7513600000D-01
     Exponent=  7.3481000000D-02 Coefficients=  2.4591700000D-01
 P 1 1.00
     Exponent=  5.9810000000D-01 Coefficients=  1.0000000000D+00
 P 1 1.00
     Exponent=  9.6180000000D-02 Coefficients=  1.0000000000D+00
 P 1 1.00
     Exponent=  3.5900000000D-02 Coefficients=  1.0000000000D+00
 D 9 1.00
     Exponent=  1.3266200000D+02 Coefficients=  5.7200000000D-04
     Exponent=  3.7605400000D+01 Coefficients=  4.4020000000D-03
     Exponent=  1.0389100000D+01 Coefficients= -4.0922000000D-02
     Exponent=  6.4901700000D+00 Coefficients=  9.9661000000D-02
     Exponent=  3.4545100000D+00 Coefficients=  3.2266300000D-01
     Exponent=  1.8441300000D+00 Coefficients=  4.0034300000D-01
     Exponent=  9.6247800000D-01 Coefficients=  2.6830600000D-01
     Exponent=  4.7285300000D-01 Coefficients=  8.4847000000D-02
     Exponent=  1.9320000000D-01 Coefficients=  7.6320000000D-03
 D 1 1.00
     Exponent=  4.7285300000D-01 Coefficients=  1.0000000000D+00
 D 1 1.00
     Exponent=  1.9320000000D-01 Coefficients=  1.0000000000D+00
 D 1 1.00
     Exponent=  7.8200000000D-02 Coefficients=  1.0000000000D+00
 F 1 1.00
     Exponent=  4.0640000000D-01 Coefficients=  1.0000000000D+00
 F 1 1.00
     Exponent=  1.8480000000D-01 Coefficients=  1.0000000000D+00
 ****
 ======================================================================================================
                                       Pseudopotential Parameters
 ======================================================================================================
  Center     Atomic      Valence      Angular      Power
  Number     Number     Electrons     Momentum     of R      Exponent        Coefficient   SO-Coeffient
 ======================================================================================================
    1          8
                                   No pseudopotential on this center.
    2         53           25
                                      G and up 
                                                     2        1.0000000        0.00000000    0.00000000
                                      S - G
                                                     2       40.0333760       49.98964900    0.00000000
                                                     2       17.3005760      281.00655600    0.00000000
                                                     2        8.8517200       61.41673900    0.00000000
                                      P - G
                                                     2       15.7201410       67.41623900    0.00000000
                                                     2       15.2082220      134.80769600    0.00000000
                                                     2        8.2941860       14.56654800    0.00000000
                                                     2        7.7539490       28.96842200    0.00000000
                                      D - G
                                                     2       13.8177510       35.53875600    0.00000000
                                                     2       13.5878050       53.33975900    0.00000000
                                                     2        6.9476300        9.71646600    0.00000000
                                                     2        6.9600990       14.97750000    0.00000000
                                      F - G
                                                     2       18.5229500      -20.17661800    0.00000000
                                                     2       18.2510350      -26.08807700    0.00000000
                                                     2        7.5579010       -0.22043400    0.00000000
                                                     2        7.5974040       -0.22164600    0.00000000
    3         17
                                   No pseudopotential on this center.
    4          1
                                   No pseudopotential on this center.
 ======================================================================================================
 Ernie: Thresh=  0.10000D-02 Tol=  0.10000D-05 Strict=F.
 Ernie:  23 primitive shells out of 166 were deleted.
   174 basis functions,   383 primitive gaussians,   204 cartesian basis functions
    26 alpha electrons       26 beta electrons
       nuclear repulsion energy       144.0860129249 Hartrees.
 IExCor=    0 DFT=F Ex=HF Corr=None ExCW=0 ScaHFX=  1.000000
 ScaDFX=  1.000000  1.000000  1.000000  1.000000 ScalE2=  1.000000  1.000000
 IRadAn=      5 IRanWt=     -1 IRanGd=            0 ICorTp=0 IEmpDi=  4
 NAtoms=    4 NActive=    4 NUniq=    4 SFac= 1.00D+00 NAtFMM=   60 NAOKFM=F Big=F
 Integral buffers will be    131072 words long.
 Raffenetti 1 integral format.
 Two-electron integral symmetry is turned off.
 Leave Link  301 at Tue Sep 28 09:16:29 2021, MaxMem= 16106127360 cpu:               3.1 elap:               0.1
 (Enter /sw/contrib/gaussian/g16/B01/g16/l302.exe)
 NPDir=0 NMtPBC=     1 NCelOv=     1 NCel=       1 NClECP=     1 NCelD=      1
         NCelK=      1 NCelE2=     1 NClLst=     1 CellRange=     0.0.
 One-electron integrals computed using PRISM.
   1 Symmetry operations used in ECPInt.
 ECPInt:  NShTT=    1596 NPrTT=   10643 LenC2=    1597 LenP2D=    8415.
 LDataN:  DoStor=T MaxTD1= 7 Len=  274
 NBasis=   174 RedAO= T EigKep=  2.67D-04  NBF=   174
 NBsUse=   174 1.00D-06 EigRej= -1.00D+00 NBFU=   174
 Leave Link  302 at Tue Sep 28 09:16:29 2021, MaxMem= 16106127360 cpu:               6.0 elap:               0.2
 (Enter /sw/contrib/gaussian/g16/B01/g16/l303.exe)
 DipDrv:  MaxL=1.
 Leave Link  303 at Tue Sep 28 09:16:29 2021, MaxMem= 16106127360 cpu:               2.2 elap:               0.1
 (Enter /sw/contrib/gaussian/g16/B01/g16/l401.exe)
 ExpMin= 2.53D-02 ExpMax= 4.56D+05 ExpMxC= 1.44D+03 IAcc=3 IRadAn=         5 AccDes= 0.00D+00
 Harris functional with IExCor=  205 and IRadAn=       5 diagonalized for initial guess.
 HarFok:  IExCor=  205 AccDes= 0.00D+00 IRadAn=         5 IDoV= 1 UseB2=F ITyADJ=14
 ICtDFT=  3500011 ScaDFX=  1.000000  1.000000  1.000000  1.000000
 Defaulting to unpruned grid for atomic number  53.
 FoFCou: FMM=F IPFlag=           0 FMFlag=      100000 FMFlg1=           0
         NFxFlg=           0 DoJE=T BraDBF=F KetDBF=T FulRan=T
         wScrn=  0.000000 ICntrl=       500 IOpCl=  0 I1Cent=   200000004 NGrid=           0
         NMat0=    1 NMatS0=      1 NMatT0=    0 NMatD0=    1 NMtDS0=    0 NMtDT0=    0
 Symmetry not used in FoFCou.
 Harris En= -831.054765517237    
 JPrj=0 DoOrth=F DoCkMO=F.
 Leave Link  401 at Tue Sep 28 09:16:30 2021, MaxMem= 16106127360 cpu:               6.3 elap:               0.3
 (Enter /sw/contrib/gaussian/g16/B01/g16/l502.exe)
 Keep R1 ints in memory in canonical form, NReq=173964089.
 FoFCou: FMM=F IPFlag=           0 FMFlag=           0 FMFlg1=           0
         NFxFlg=           0 DoJE=F BraDBF=F KetDBF=F FulRan=T
         wScrn=  0.000000 ICntrl=       600 IOpCl=  0 I1Cent=           0 NGrid=           0
         NMat0=    1 NMatS0=  15225 NMatT0=    0 NMatD0=    1 NMtDS0=    0 NMtDT0=    0
 Symmetry not used in FoFCou.
 Two-electron integral symmetry not used.
 Closed shell SCF:
 Using DIIS extrapolation, IDIIS=  1040.
 NGot= 16106127360 LenX= 15990129197 LenY= 15990087140
 Requested convergence on RMS density matrix=1.00D-08 within 128 cycles.
 Requested convergence on MAX density matrix=1.00D-06.
 Requested convergence on             energy=1.00D-06.
 No special actions if energy rises.

 Cycle   1  Pass 1  IDiag  1:
 E= -829.530268707429    
 DIIS: error= 2.78D-02 at cycle   1 NSaved=   1.
 NSaved= 1 IEnMin= 1 EnMin= -829.530268707429     IErMin= 1 ErrMin= 2.78D-02
 ErrMax= 2.78D-02  0.00D+00 EMaxC= 1.00D-01 BMatC= 4.49D-01 BMatP= 4.49D-01
 IDIUse=3 WtCom= 7.22D-01 WtEn= 2.78D-01
 Coeff-Com:  0.100D+01
 Coeff-En:   0.100D+01
 Coeff:      0.100D+01
 Gap=     0.406 Goal=   None    Shift=    0.000
 GapD=    0.406 DampG=2.000 DampE=0.500 DampFc=1.0000 IDamp=-1.
 RMSDP=3.12D-03 MaxDP=9.81D-02              OVMax= 1.17D-01

 Cycle   2  Pass 1  IDiag  1:
 E= -829.648204569207     Delta-E=       -0.117935861778 Rises=F Damp=F
 DIIS: error= 1.09D-02 at cycle   2 NSaved=   2.
 NSaved= 2 IEnMin= 2 EnMin= -829.648204569207     IErMin= 2 ErrMin= 1.09D-02
 ErrMax= 1.09D-02  0.00D+00 EMaxC= 1.00D-01 BMatC= 5.12D-02 BMatP= 4.49D-01
 IDIUse=3 WtCom= 8.91D-01 WtEn= 1.09D-01
 Coeff-Com:  0.188D+00 0.812D+00
 Coeff-En:   0.000D+00 0.100D+01
 Coeff:      0.168D+00 0.832D+00
 Gap=     0.293 Goal=   None    Shift=    0.000
 RMSDP=1.37D-03 MaxDP=7.07D-02 DE=-1.18D-01 OVMax= 7.45D-02

 Cycle   3  Pass 1  IDiag  1:
 E= -829.673954514846     Delta-E=       -0.025749945639 Rises=F Damp=F
 DIIS: error= 5.00D-03 at cycle   3 NSaved=   3.
 NSaved= 3 IEnMin= 3 EnMin= -829.673954514846     IErMin= 3 ErrMin= 5.00D-03
 ErrMax= 5.00D-03  0.00D+00 EMaxC= 1.00D-01 BMatC= 1.15D-02 BMatP= 5.12D-02
 IDIUse=3 WtCom= 9.50D-01 WtEn= 5.00D-02
 Coeff-Com: -0.150D-02 0.312D+00 0.689D+00
 Coeff-En:   0.000D+00 0.758D-01 0.924D+00
 Coeff:     -0.142D-02 0.300D+00 0.701D+00
 Gap=     0.296 Goal=   None    Shift=    0.000
 RMSDP=3.83D-04 MaxDP=1.75D-02 DE=-2.57D-02 OVMax= 3.25D-02

 Cycle   4  Pass 1  IDiag  1:
 E= -829.681903839028     Delta-E=       -0.007949324183 Rises=F Damp=F
 DIIS: error= 8.85D-04 at cycle   4 NSaved=   4.
 NSaved= 4 IEnMin= 4 EnMin= -829.681903839028     IErMin= 4 ErrMin= 8.85D-04
 ErrMax= 8.85D-04  0.00D+00 EMaxC= 1.00D-01 BMatC= 1.82D-04 BMatP= 1.15D-02
 IDIUse=3 WtCom= 9.91D-01 WtEn= 8.85D-03
 Coeff-Com: -0.852D-02-0.325D-03 0.100D+00 0.908D+00
 Coeff-En:   0.000D+00 0.000D+00 0.000D+00 0.100D+01
 Coeff:     -0.845D-02-0.323D-03 0.995D-01 0.909D+00
 Gap=     0.299 Goal=   None    Shift=    0.000
 RMSDP=9.26D-05 MaxDP=6.12D-03 DE=-7.95D-03 OVMax= 3.31D-03

 Cycle   5  Pass 1  IDiag  1:
 E= -829.682087708742     Delta-E=       -0.000183869714 Rises=F Damp=F
 DIIS: error= 1.48D-04 at cycle   5 NSaved=   5.
 NSaved= 5 IEnMin= 5 EnMin= -829.682087708742     IErMin= 5 ErrMin= 1.48D-04
 ErrMax= 1.48D-04  0.00D+00 EMaxC= 1.00D-01 BMatC= 1.35D-05 BMatP= 1.82D-04
 IDIUse=3 WtCom= 9.99D-01 WtEn= 1.48D-03
 Coeff-Com:  0.165D-02-0.274D-01-0.578D-01-0.384D-01 0.112D+01
 Coeff-En:   0.000D+00 0.000D+00 0.000D+00 0.000D+00 0.100D+01
 Coeff:      0.165D-02-0.273D-01-0.577D-01-0.383D-01 0.112D+01
 Gap=     0.298 Goal=   None    Shift=    0.000
 RMSDP=4.44D-05 MaxDP=2.09D-03 DE=-1.84D-04 OVMax= 2.57D-03

 Cycle   6  Pass 1  IDiag  1:
 E= -829.682118512041     Delta-E=       -0.000030803299 Rises=F Damp=F
 DIIS: error= 7.24D-05 at cycle   6 NSaved=   6.
 NSaved= 6 IEnMin= 6 EnMin= -829.682118512041     IErMin= 6 ErrMin= 7.24D-05
 ErrMax= 7.24D-05  0.00D+00 EMaxC= 1.00D-01 BMatC= 1.67D-06 BMatP= 1.35D-05
 IDIUse=1 WtCom= 1.00D+00 WtEn= 0.00D+00
 Coeff-Com:  0.134D-03 0.789D-02 0.105D-01-0.995D-01-0.267D+00 0.135D+01
 Coeff:      0.134D-03 0.789D-02 0.105D-01-0.995D-01-0.267D+00 0.135D+01
 Gap=     0.299 Goal=   None    Shift=    0.000
 RMSDP=1.61D-05 MaxDP=6.45D-04 DE=-3.08D-05 OVMax= 1.31D-03

 Cycle   7  Pass 1  IDiag  1:
 E= -829.682123960400     Delta-E=       -0.000005448359 Rises=F Damp=F
 DIIS: error= 2.47D-05 at cycle   7 NSaved=   7.
 NSaved= 7 IEnMin= 7 EnMin= -829.682123960400     IErMin= 7 ErrMin= 2.47D-05
 ErrMax= 2.47D-05  0.00D+00 EMaxC= 1.00D-01 BMatC= 1.31D-07 BMatP= 1.67D-06
 IDIUse=1 WtCom= 1.00D+00 WtEn= 0.00D+00
 Coeff-Com: -0.143D-03 0.965D-03 0.397D-02 0.186D-01-0.676D-01-0.186D+00
 Coeff-Com:  0.123D+01
 Coeff:     -0.143D-03 0.965D-03 0.397D-02 0.186D-01-0.676D-01-0.186D+00
 Coeff:      0.123D+01
 Gap=     0.298 Goal=   None    Shift=    0.000
 RMSDP=4.91D-06 MaxDP=1.64D-04 DE=-5.45D-06 OVMax= 4.32D-04

 Cycle   8  Pass 1  IDiag  1:
 E= -829.682124482577     Delta-E=       -0.000000522177 Rises=F Damp=F
 DIIS: error= 8.69D-06 at cycle   8 NSaved=   8.
 NSaved= 8 IEnMin= 8 EnMin= -829.682124482577     IErMin= 8 ErrMin= 8.69D-06
 ErrMax= 8.69D-06  0.00D+00 EMaxC= 1.00D-01 BMatC= 1.80D-08 BMatP= 1.31D-07
 IDIUse=1 WtCom= 1.00D+00 WtEn= 0.00D+00
 Coeff-Com: -0.162D-04-0.116D-02-0.116D-02 0.145D-01 0.319D-01-0.189D+00
 Coeff-Com:  0.484D-01 0.110D+01
 Coeff:     -0.162D-04-0.116D-02-0.116D-02 0.145D-01 0.319D-01-0.189D+00
 Coeff:      0.484D-01 0.110D+01
 Gap=     0.298 Goal=   None    Shift=    0.000
 RMSDP=1.71D-06 MaxDP=4.46D-05 DE=-5.22D-07 OVMax= 1.63D-04

 Cycle   9  Pass 1  IDiag  1:
 E= -829.682124543190     Delta-E=       -0.000000060613 Rises=F Damp=F
 DIIS: error= 3.31D-06 at cycle   9 NSaved=   9.
 NSaved= 9 IEnMin= 9 EnMin= -829.682124543190     IErMin= 9 ErrMin= 3.31D-06
 ErrMax= 3.31D-06  0.00D+00 EMaxC= 1.00D-01 BMatC= 1.77D-09 BMatP= 1.80D-08
 IDIUse=1 WtCom= 1.00D+00 WtEn= 0.00D+00
 Coeff-Com:  0.160D-04 0.241D-03-0.536D-06-0.682D-02-0.237D-02 0.755D-01
 Coeff-Com: -0.113D+00-0.423D+00 0.147D+01
 Coeff:      0.160D-04 0.241D-03-0.536D-06-0.682D-02-0.237D-02 0.755D-01
 Coeff:     -0.113D+00-0.423D+00 0.147D+01
 Gap=     0.298 Goal=   None    Shift=    0.000
 RMSDP=7.54D-07 MaxDP=2.55D-05 DE=-6.06D-08 OVMax= 7.86D-05

 Cycle  10  Pass 1  IDiag  1:
 E= -829.682124551794     Delta-E=       -0.000000008604 Rises=F Damp=F
 DIIS: error= 1.27D-06 at cycle  10 NSaved=  10.
 NSaved=10 IEnMin=10 EnMin= -829.682124551794     IErMin=10 ErrMin= 1.27D-06
 ErrMax= 1.27D-06  0.00D+00 EMaxC= 1.00D-01 BMatC= 1.90D-10 BMatP= 1.77D-09
 IDIUse=1 WtCom= 1.00D+00 WtEn= 0.00D+00
 Coeff-Com: -0.242D-05 0.600D-04 0.103D-03 0.420D-03-0.282D-02 0.581D-03
 Coeff-Com:  0.249D-01-0.132D-01-0.354D+00 0.134D+01
 Coeff:     -0.242D-05 0.600D-04 0.103D-03 0.420D-03-0.282D-02 0.581D-03
 Coeff:      0.249D-01-0.132D-01-0.354D+00 0.134D+01
 Gap=     0.298 Goal=   None    Shift=    0.000
 RMSDP=2.39D-07 MaxDP=5.79D-06 DE=-8.60D-09 OVMax= 2.79D-05

 Cycle  11  Pass 1  IDiag  1:
 E= -829.682124552768     Delta-E=       -0.000000000974 Rises=F Damp=F
 DIIS: error= 5.52D-07 at cycle  11 NSaved=  11.
 NSaved=11 IEnMin=11 EnMin= -829.682124552768     IErMin=11 ErrMin= 5.52D-07
 ErrMax= 5.52D-07  0.00D+00 EMaxC= 1.00D-01 BMatC= 2.23D-11 BMatP= 1.90D-10
 IDIUse=1 WtCom= 1.00D+00 WtEn= 0.00D+00
 Coeff-Com: -0.212D-05-0.362D-04-0.889D-05 0.886D-03 0.458D-03-0.996D-02
 Coeff-Com:  0.129D-01 0.551D-01-0.154D+00-0.187D+00 0.128D+01
 Coeff:     -0.212D-05-0.362D-04-0.889D-05 0.886D-03 0.458D-03-0.996D-02
 Coeff:      0.129D-01 0.551D-01-0.154D+00-0.187D+00 0.128D+01
 Gap=     0.298 Goal=   None    Shift=    0.000
 RMSDP=9.27D-08 MaxDP=2.35D-06 DE=-9.74D-10 OVMax= 1.02D-05

 Cycle  12  Pass 1  IDiag  1:
 E= -829.682124552880     Delta-E=       -0.000000000112 Rises=F Damp=F
 DIIS: error= 1.42D-07 at cycle  12 NSaved=  12.
 NSaved=12 IEnMin=12 EnMin= -829.682124552880     IErMin=12 ErrMin= 1.42D-07
 ErrMax= 1.42D-07  0.00D+00 EMaxC= 1.00D-01 BMatC= 1.42D-12 BMatP= 2.23D-11
 IDIUse=1 WtCom= 1.00D+00 WtEn= 0.00D+00
 Coeff-Com:  0.381D-06-0.243D-05-0.939D-05-0.111D-03 0.236D-03 0.747D-03
 Coeff-Com: -0.307D-02-0.459D-02 0.427D-01-0.746D-01-0.178D+00 0.122D+01
 Coeff:      0.381D-06-0.243D-05-0.939D-05-0.111D-03 0.236D-03 0.747D-03
 Coeff:     -0.307D-02-0.459D-02 0.427D-01-0.746D-01-0.178D+00 0.122D+01
 Gap=     0.298 Goal=   None    Shift=    0.000
 RMSDP=2.60D-08 MaxDP=1.23D-06 DE=-1.12D-10 OVMax= 2.01D-06

 Cycle  13  Pass 1  IDiag  1:
 E= -829.682124552889     Delta-E=       -0.000000000009 Rises=F Damp=F
 DIIS: error= 3.86D-08 at cycle  13 NSaved=  13.
 NSaved=13 IEnMin=13 EnMin= -829.682124552889     IErMin=13 ErrMin= 3.86D-08
 ErrMax= 3.86D-08  0.00D+00 EMaxC= 1.00D-01 BMatC= 1.68D-13 BMatP= 1.42D-12
 IDIUse=1 WtCom= 1.00D+00 WtEn= 0.00D+00
 Coeff-Com:  0.168D-06 0.315D-05 0.662D-06-0.619D-04-0.558D-04 0.745D-03
 Coeff-Com: -0.741D-03-0.410D-02 0.795D-02 0.304D-01-0.116D+00-0.101D+00
 Coeff-Com:  0.118D+01
 Coeff:      0.168D-06 0.315D-05 0.662D-06-0.619D-04-0.558D-04 0.745D-03
 Coeff:     -0.741D-03-0.410D-02 0.795D-02 0.304D-01-0.116D+00-0.101D+00
 Coeff:      0.118D+01
 Gap=     0.298 Goal=   None    Shift=    0.000
 RMSDP=8.45D-09 MaxDP=5.05D-07 DE=-9.09D-12 OVMax= 5.34D-07

 SCF Done:  E(RHF) =  -829.682124553     A.U. after   13 cycles
            NFock= 13  Conv=0.84D-08     -V/T= 2.2850
 KE= 6.456514153218D+02 PE=-2.196532366506D+03 EE= 5.771128137063D+02
 Leave Link  502 at Tue Sep 28 09:16:33 2021, MaxMem= 16106127360 cpu:              31.8 elap:               3.5
 (Enter /sw/contrib/gaussian/g16/B01/g16/l801.exe)
 ExpMin= 2.53D-02 ExpMax= 4.56D+05 ExpMxC= 1.44D+03 IAcc=3 IRadAn=         5 AccDes= 0.00D+00
 HarFok:  IExCor=  205 AccDes= 0.00D+00 IRadAn=         5 IDoV=-2 UseB2=F ITyADJ=14
 ICtDFT= 12500011 ScaDFX=  1.000000  1.000000  1.000000  1.000000
 Defaulting to unpruned grid for atomic number  53.
 Largest valence mixing into a core orbital is  4.48D-04
 Largest core mixing into a valence orbital is  1.59D-04
 Range of M.O.s used for correlation:    11   174
 NBasis=   174 NAE=    26 NBE=    26 NFC=    10 NFV=     0
 NROrb=    164 NOA=    16 NOB=    16 NVA=   148 NVB=   148

 **** Warning!!: The largest alpha MO coefficient is  0.11661784D+02

 Leave Link  801 at Tue Sep 28 09:16:33 2021, MaxMem= 16106127360 cpu:               1.8 elap:               0.1
 (Enter /sw/contrib/gaussian/g16/B01/g16/l906.exe)
 Frozen-core derivative calculation, NFC=  10 NFV=   0.
 FulOut=F Deriv=T AODrv=F NAtomX=     4
   MMem=         130  MDisk=          16 MDiskD=          16
  W3Min=      922896 MinDsk=     1491158 NBas6D=         204
 NBas2D=       21411    NTT=       20910    LW2=    26219120
    MDV= 16105723309 MDiskM=      394699 NBas2p=       21407
 Fully in-core method, ICMem=   539779449.
 IMap=   1   2   3   4   5   6   7   8   9  10  11  12  13  14  15  16  17  18  19  20
 IMap=  21  22  23  24  25  26
 JobTyp=1 Pass  1 fully in-core, NPsUse= 28.
 Compute canonical integrals.
 FoFCou: FMM=F IPFlag=           0 FMFlag=           0 FMFlg1=           0
         NFxFlg=           0 DoJE=F BraDBF=F KetDBF=F FulRan=T
         wScrn=  0.000000 ICntrl=       600 IOpCl=  1 I1Cent=           0 NGrid=           0
         NMat0=    1 NMatS0=  21411 NMatT0=    0 NMatD0=    1 NMtDS0=    0 NMtDT0=    0
 Symmetry not used in FoFCou.
 Spin components of T(2) and E(2):
     alpha-alpha T2 =       0.3134353221D-01 E2=     -0.9135567640D-01
     alpha-beta  T2 =       0.1657679562D+00 E2=     -0.4980825691D+00
     beta-beta   T2 =       0.3134353221D-01 E2=     -0.9135567640D-01
 The integrals were generated   1 times.
 ANorm=    0.1108356901D+01
 E2 =    -0.6807939220D+00 EUMP2 =    -0.83036291847484D+03
 Leave Link  906 at Tue Sep 28 09:16:39 2021, MaxMem= 16106127360 cpu:             166.8 elap:               6.0
 (Enter /sw/contrib/gaussian/g16/B01/g16/l1002.exe)
 Minotr:  Closed shell wavefunction.
          Computing MP2/KS-MP2 derivatives.
          Using Z-Vector for PSCF gradient.
          Skipping F1 and S1 gradient terms here.
          Frozen-core window.
          Direct CPHF calculation.
          Differentiating once with respect to electric field.
                with respect to dipole field.
          Electric field/nuclear overlap derivatives assumed to be zero.
          Requested convergence is 1.0D-10 RMS, and 1.0D-09 maximum.
          NewPWx=F KeepS1=T KeepF1=T KeepIn=T MapXYZ=F SortEE=F KeepMc=T.
 Keep R1 ints in memory in canonical form, NReq=173968613.
 FoFCou: FMM=F IPFlag=           0 FMFlag=           0 FMFlg1=           0
         NFxFlg=           0 DoJE=F BraDBF=F KetDBF=F FulRan=T
         wScrn=  0.000000 ICntrl=       600 IOpCl=  0 I1Cent=           0 NGrid=           0
         NMat0=    1 NMatS0=  15225 NMatT0=    0 NMatD0=    1 NMtDS0=    0 NMtDT0=    0
 Symmetry not used in FoFCou.
 Two-electron integral symmetry not used.
          MDV=   16106127360 using IRadAn=       5.
          Solving linear equations separately, MaxMat=       0.
          There are     1 degrees of freedom in the 1st order CPHF.  IDoFFX=0 NUNeed=     1.
 LinEq1:  Iter=  0 NonCon=     1 RMS=2.88D-03 Max=4.68D-02 NDo=     1
 AX will form     1 AO Fock derivatives at one time.
 LinEq1:  Iter=  1 NonCon=     1 RMS=4.51D-04 Max=4.31D-03 NDo=     1
 LinEq1:  Iter=  2 NonCon=     1 RMS=2.02D-04 Max=3.27D-03 NDo=     1
 LinEq1:  Iter=  3 NonCon=     1 RMS=6.13D-05 Max=9.39D-04 NDo=     1
 LinEq1:  Iter=  4 NonCon=     1 RMS=2.87D-05 Max=7.43D-04 NDo=     1
 LinEq1:  Iter=  5 NonCon=     1 RMS=8.72D-06 Max=1.63D-04 NDo=     1
 LinEq1:  Iter=  6 NonCon=     1 RMS=2.58D-06 Max=5.71D-05 NDo=     1
 LinEq1:  Iter=  7 NonCon=     1 RMS=7.43D-07 Max=1.43D-05 NDo=     1
 LinEq1:  Iter=  8 NonCon=     1 RMS=1.77D-07 Max=2.24D-06 NDo=     1
 LinEq1:  Iter=  9 NonCon=     1 RMS=5.71D-08 Max=8.59D-07 NDo=     1
 LinEq1:  Iter= 10 NonCon=     1 RMS=1.53D-08 Max=2.53D-07 NDo=     1
 LinEq1:  Iter= 11 NonCon=     1 RMS=3.48D-09 Max=7.28D-08 NDo=     1
 LinEq1:  Iter= 12 NonCon=     1 RMS=9.62D-10 Max=1.84D-08 NDo=     1
 LinEq1:  Iter= 13 NonCon=     1 RMS=3.16D-10 Max=4.55D-09 NDo=     1
 LinEq1:  Iter= 14 NonCon=     0 RMS=7.12D-11 Max=9.72D-10 NDo=     1
 Linear equations converged to 1.000D-10 1.000D-09 after    14 iterations.
 End of Minotr F.D. properties file   721 does not exist.
 End of Minotr F.D. properties file   722 does not exist.
 End of Minotr F.D. properties file   788 does not exist.
 Leave Link 1002 at Tue Sep 28 09:16:44 2021, MaxMem= 16106127360 cpu:              35.7 elap:               4.2
 (Enter /sw/contrib/gaussian/g16/B01/g16/l601.exe)
 Copying SCF densities to generalized density rwf, IOpCl= 0 IROHF=0.

 **********************************************************************

            Population analysis using the MP2 Density.

 **********************************************************************

 Alpha  occ. eigenvalues -- -104.74547 -20.48324 -10.46499  -7.93217  -7.92943
 Alpha  occ. eigenvalues --   -7.92931  -7.47357  -5.29938  -5.29877  -5.29870
 Alpha  occ. eigenvalues --   -2.02688  -2.02659  -2.02654  -2.02585  -2.02585
 Alpha  occ. eigenvalues --   -1.25090  -0.91127  -0.63780  -0.55759  -0.45993
 Alpha  occ. eigenvalues --   -0.45120  -0.32231  -0.29634  -0.15671  -0.14867
 Alpha  occ. eigenvalues --   -0.14820
 Alpha virt. eigenvalues --    0.15030   0.17471   0.21553   0.22391   0.24066
 Alpha virt. eigenvalues --    0.25105   0.25332   0.27290   0.28440   0.29673
 Alpha virt. eigenvalues --    0.30995   0.32203   0.34492   0.37093   0.37988
 Alpha virt. eigenvalues --    0.38358   0.42098   0.43374   0.45441   0.49773
 Alpha virt. eigenvalues --    0.51521   0.53360   0.54350   0.56522   0.57408
 Alpha virt. eigenvalues --    0.58539   0.63819   0.65184   0.69248   0.74790
 Alpha virt. eigenvalues --    0.75814   0.77517   0.77879   0.79330   0.79476
 Alpha virt. eigenvalues --    0.80184   0.80617   0.82694   0.84248   0.84886
 Alpha virt. eigenvalues --    0.87482   0.87584   0.88179   0.88811   0.90348
 Alpha virt. eigenvalues --    0.92884   0.94202   0.96293   0.98357   0.99762
 Alpha virt. eigenvalues --    1.02842   1.05125   1.07022   1.09784   1.11626
 Alpha virt. eigenvalues --    1.15597   1.17349   1.19799   1.21477   1.23199
 Alpha virt. eigenvalues --    1.26766   1.30636   1.35495   1.38289   1.39616
 Alpha virt. eigenvalues --    1.42757   1.51685   1.54282   1.60537   1.62033
 Alpha virt. eigenvalues --    1.65977   1.67578   1.71221   1.74085   1.74937
 Alpha virt. eigenvalues --    1.74971   1.76802   1.77550   1.80061   1.83906
 Alpha virt. eigenvalues --    1.86057   1.86497   1.91565   1.96439   2.05334
 Alpha virt. eigenvalues --    2.05621   2.08863   2.12338   2.13611   2.25109
 Alpha virt. eigenvalues --    2.38830   2.40546   2.49381   2.50885   2.54511
 Alpha virt. eigenvalues --    2.58801   2.60915   2.63362   2.66789   2.69122
 Alpha virt. eigenvalues --    2.70888   2.71953   2.75674   2.76168   2.79522
 Alpha virt. eigenvalues --    2.96436   3.00476   3.08369   3.16073   3.18589
 Alpha virt. eigenvalues --    3.20766   3.21964   3.23234   3.26499   3.28854
 Alpha virt. eigenvalues --    3.34984   3.50093   3.52696   3.53471   3.82336
 Alpha virt. eigenvalues --    3.90541   4.19410   4.32047   4.48670   4.55249
 Alpha virt. eigenvalues --    4.62854   4.72231   4.94416   4.99412   5.34110
 Alpha virt. eigenvalues --    5.39859   5.66720   6.37843   6.57483   6.84835
 Alpha virt. eigenvalues --    6.88618   6.90076   6.97156   7.29703   7.33761
 Alpha virt. eigenvalues --    7.34233   7.42005   7.52463   7.68549   7.74264
 Alpha virt. eigenvalues --    8.34648  14.39342  59.20530
          Condensed to atoms (all electrons):
               1          2          3          4
     1  O    8.593851  -0.067276  -0.121405   0.030086
     2  I   -0.067276  25.861423   0.006272   0.065468
     3  Cl  -0.121405   0.006272  17.050246   0.000321
     4  H    0.030086   0.065468   0.000321   0.667548
 Mulliken charges:
               1
     1  O   -0.435256
     2  I   -0.865886
     3  Cl   0.064565
     4  H    0.236577
 Sum of Mulliken charges =  -1.00000
 Mulliken charges with hydrogens summed into heavy atoms:
               1
     1  O   -0.198679
     2  I   -0.865886
     3  Cl   0.064565
 Electronic spatial extent (au):  <R**2>=           1307.7475
 Charge=             -1.0000 electrons
 Dipole moment (field-independent basis, Debye):
    X=            -12.3389    Y=             -0.4823    Z=              0.2731  Tot=             12.3513
 Quadrupole moment (field-independent basis, Debye-Ang):
   XX=            -98.1996   YY=            -53.2316   ZZ=            -53.0799
   XY=              0.3919   XZ=             -0.0354   YZ=             -0.1298
 Traceless Quadrupole moment (field-independent basis, Debye-Ang):
   XX=            -30.0292   YY=             14.9388   ZZ=             15.0904
   XY=              0.3919   XZ=             -0.0354   YZ=             -0.1298
 Octapole moment (field-independent basis, Debye-Ang**2):
  XXX=           -466.2870  YYY=            -61.7405  ZZZ=             -1.7278  XYY=           -106.5650
  XXY=            -21.4671  XXZ=             -3.1209  XZZ=           -105.6573  YZZ=            -22.1456
  YYZ=             -0.8395  XYZ=              0.0827
 Hexadecapole moment (field-independent basis, Debye-Ang**3):
 XXXX=          -2781.1895 YYYY=           -282.3748 ZZZZ=            -89.0877 XXXY=             28.4418
 XXXZ=            -13.3879 YYYX=             21.5770 YYYZ=             -0.6263 ZZZX=             -3.0596
 ZZZY=             -0.1982 XXYY=           -434.0573 XXZZ=           -398.5007 YYZZ=            -66.5941
 XXYZ=             -0.1294 YYXZ=             -0.8108 ZZXY=              9.1499
 N-N= 1.440860129249D+02 E-N=-2.196084858900D+03  KE= 6.460279965700D+02
 No NMR shielding tensors so no spin-rotation constants.
 Leave Link  601 at Tue Sep 28 09:16:44 2021, MaxMem= 16106127360 cpu:               4.3 elap:               0.2
 (Enter /sw/contrib/gaussian/g16/B01/g16/l607.exe)
 ******************************Gaussian NBO Version 3.1******************************
             N A T U R A L   A T O M I C   O R B I T A L   A N D
          N A T U R A L   B O N D   O R B I T A L   A N A L Y S I S
 ******************************Gaussian NBO Version 3.1******************************
       /RESON  / : Allow strongly delocalized NBO set

 Analyzing the MP2 density

 Job title: title                                                           

 Storage needed:     91686 in NPA,    121697 in NBO (********** available)
 GSVD:  LWork=        2436 too small for GESVD, short by       52200 words or       52200 for optimal perf.


 NATURAL POPULATIONS:  Natural atomic orbital occupancies 
                                                          
   NAO  Atom  No  lang   Type(AO)    Occupancy
 --------------------------------------------
     1    O    1  S      Cor( 1S)     1.99971
     2    O    1  S      Val( 2S)     1.79148
     3    O    1  S      Ryd( 3S)     0.00921
     4    O    1  S      Ryd( 4S)     0.00113
     5    O    1  S      Ryd( 5S)     0.00019
     6    O    1  px     Val( 2p)     1.67491
     7    O    1  px     Ryd( 3p)     0.01247
     8    O    1  px     Ryd( 4p)     0.00072
     9    O    1  px     Ryd( 5p)     0.00046
    10    O    1  py     Val( 2p)     1.27455
    11    O    1  py     Ryd( 3p)     0.00775
    12    O    1  py     Ryd( 4p)     0.00061
    13    O    1  py     Ryd( 5p)     0.00034
    14    O    1  pz     Val( 2p)     1.89037
    15    O    1  pz     Ryd( 3p)     0.01834
    16    O    1  pz     Ryd( 4p)     0.00068
    17    O    1  pz     Ryd( 5p)     0.00023
    18    O    1  dxy    Ryd( 3d)     0.00935
    19    O    1  dxy    Ryd( 4d)     0.00048
    20    O    1  dxy    Ryd( 5d)     0.00017
    21    O    1  dxz    Ryd( 3d)     0.00993
    22    O    1  dxz    Ryd( 4d)     0.00057
    23    O    1  dxz    Ryd( 5d)     0.00020
    24    O    1  dyz    Ryd( 3d)     0.00953
    25    O    1  dyz    Ryd( 4d)     0.00057
    26    O    1  dyz    Ryd( 5d)     0.00011
    27    O    1  dx2y2  Ryd( 3d)     0.01154
    28    O    1  dx2y2  Ryd( 4d)     0.00040
    29    O    1  dx2y2  Ryd( 5d)     0.00017
    30    O    1  dz2    Ryd( 3d)     0.00902
    31    O    1  dz2    Ryd( 4d)     0.00057
    32    O    1  dz2    Ryd( 5d)     0.00020
    33    O    1  f(0)   Ryd( 4f)     0.00065
    34    O    1  f(0)   Ryd( 5f)     0.00011
    35    O    1  f(C1)  Ryd( 4f)     0.00061
    36    O    1  f(C1)  Ryd( 5f)     0.00011
    37    O    1  f(S1)  Ryd( 4f)     0.00063
    38    O    1  f(S1)  Ryd( 5f)     0.00011
    39    O    1  f(C2)  Ryd( 4f)     0.00060
    40    O    1  f(C2)  Ryd( 5f)     0.00013
    41    O    1  f(S2)  Ryd( 4f)     0.00059
    42    O    1  f(S2)  Ryd( 5f)     0.00012
    43    O    1  f(C3)  Ryd( 4f)     0.00058
    44    O    1  f(C3)  Ryd( 5f)     0.00014
    45    O    1  f(S3)  Ryd( 4f)     0.00058
    46    O    1  f(S3)  Ryd( 5f)     0.00012

    47    I    2  S      Cor( 4S)     1.99994
    48    I    2  S      Val( 5S)     1.97420
    49    I    2  S      Ryd( 6S)     0.00263
    50    I    2  S      Ryd( 7S)     0.00055
    51    I    2  S      Ryd( 8S)     0.00016
    52    I    2  S      Ryd( 9S)     0.00000
    53    I    2  px     Cor( 4p)     1.99993
    54    I    2  px     Val( 5p)     1.88718
    55    I    2  px     Ryd( 6p)     0.00948
    56    I    2  px     Ryd( 7p)     0.00064
    57    I    2  px     Ryd( 8p)     0.00015
    58    I    2  py     Cor( 4p)     2.00005
    59    I    2  py     Val( 5p)     1.95088
    60    I    2  py     Ryd( 6p)     0.01077
    61    I    2  py     Ryd( 7p)     0.00074
    62    I    2  py     Ryd( 8p)     0.00010
    63    I    2  pz     Cor( 4p)     2.00004
    64    I    2  pz     Val( 5p)     1.94671
    65    I    2  pz     Ryd( 6p)     0.01075
    66    I    2  pz     Ryd( 7p)     0.00073
    67    I    2  pz     Ryd( 8p)     0.00010
    68    I    2  dxy    Cor( 4d)     1.99675
    69    I    2  dxy    Ryd( 5d)     0.02038
    70    I    2  dxy    Ryd( 6d)     0.00137
    71    I    2  dxy    Ryd( 7d)     0.00021
    72    I    2  dxz    Cor( 4d)     1.99674
    73    I    2  dxz    Ryd( 5d)     0.02055
    74    I    2  dxz    Ryd( 6d)     0.00142
    75    I    2  dxz    Ryd( 7d)     0.00019
    76    I    2  dyz    Cor( 4d)     1.99678
    77    I    2  dyz    Ryd( 5d)     0.02017
    78    I    2  dyz    Ryd( 6d)     0.00165
    79    I    2  dyz    Ryd( 7d)     0.00019
    80    I    2  dx2y2  Cor( 4d)     1.99667
    81    I    2  dx2y2  Ryd( 5d)     0.01984
    82    I    2  dx2y2  Ryd( 6d)     0.00160
    83    I    2  dx2y2  Ryd( 7d)     0.00023
    84    I    2  dz2    Cor( 4d)     1.99675
    85    I    2  dz2    Ryd( 5d)     0.02004
    86    I    2  dz2    Ryd( 6d)     0.00161
    87    I    2  dz2    Ryd( 7d)     0.00017
    88    I    2  f(0)   Ryd( 4f)     0.00274
    89    I    2  f(0)   Ryd( 5f)     0.00044
    90    I    2  f(C1)  Ryd( 4f)     0.00274
    91    I    2  f(C1)  Ryd( 5f)     0.00046
    92    I    2  f(S1)  Ryd( 4f)     0.00276
    93    I    2  f(S1)  Ryd( 5f)     0.00043
    94    I    2  f(C2)  Ryd( 4f)     0.00272
    95    I    2  f(C2)  Ryd( 5f)     0.00044
    96    I    2  f(S2)  Ryd( 4f)     0.00278
    97    I    2  f(S2)  Ryd( 5f)     0.00044
    98    I    2  f(C3)  Ryd( 4f)     0.00276
    99    I    2  f(C3)  Ryd( 5f)     0.00046
   100    I    2  f(S3)  Ryd( 4f)     0.00267
   101    I    2  f(S3)  Ryd( 5f)     0.00044

   102   Cl    3  S      Cor( 1S)     2.00000
   103   Cl    3  S      Cor( 2S)     1.99980
   104   Cl    3  S      Val( 3S)     1.88366
   105   Cl    3  S      Ryd( 4S)     0.00774
   106   Cl    3  S      Ryd( 5S)     0.00053
   107   Cl    3  S      Ryd( 6S)     0.00018
   108   Cl    3  px     Cor( 2p)     2.00003
   109   Cl    3  px     Val( 3p)     1.89246
   110   Cl    3  px     Ryd( 4p)     0.00950
   111   Cl    3  px     Ryd( 5p)     0.00055
   112   Cl    3  px     Ryd( 6p)     0.00010
   113   Cl    3  py     Cor( 2p)     1.99997
   114   Cl    3  py     Val( 3p)     0.95925
   115   Cl    3  py     Ryd( 4p)     0.00688
   116   Cl    3  py     Ryd( 5p)     0.00052
   117   Cl    3  py     Ryd( 6p)     0.00023
   118   Cl    3  pz     Cor( 2p)     2.00003
   119   Cl    3  pz     Val( 3p)     1.95451
   120   Cl    3  pz     Ryd( 4p)     0.01033
   121   Cl    3  pz     Ryd( 5p)     0.00064
   122   Cl    3  pz     Ryd( 6p)     0.00003
   123   Cl    3  dxy    Ryd( 3d)     0.01766
   124   Cl    3  dxy    Ryd( 4d)     0.00066
   125   Cl    3  dxy    Ryd( 5d)     0.00025
   126   Cl    3  dxz    Ryd( 3d)     0.01714
   127   Cl    3  dxz    Ryd( 4d)     0.00076
   128   Cl    3  dxz    Ryd( 5d)     0.00019
   129   Cl    3  dyz    Ryd( 3d)     0.01981
   130   Cl    3  dyz    Ryd( 4d)     0.00091
   131   Cl    3  dyz    Ryd( 5d)     0.00035
   132   Cl    3  dx2y2  Ryd( 3d)     0.01826
   133   Cl    3  dx2y2  Ryd( 4d)     0.00063
   134   Cl    3  dx2y2  Ryd( 5d)     0.00024
   135   Cl    3  dz2    Ryd( 3d)     0.01744
   136   Cl    3  dz2    Ryd( 4d)     0.00062
   137   Cl    3  dz2    Ryd( 5d)     0.00016
   138   Cl    3  f(0)   Ryd( 4f)     0.00130
   139   Cl    3  f(0)   Ryd( 5f)     0.00013
   140   Cl    3  f(C1)  Ryd( 4f)     0.00128
   141   Cl    3  f(C1)  Ryd( 5f)     0.00013
   142   Cl    3  f(S1)  Ryd( 4f)     0.00142
   143   Cl    3  f(S1)  Ryd( 5f)     0.00014
   144   Cl    3  f(C2)  Ryd( 4f)     0.00128
   145   Cl    3  f(C2)  Ryd( 5f)     0.00013
   146   Cl    3  f(S2)  Ryd( 4f)     0.00123
   147   Cl    3  f(S2)  Ryd( 5f)     0.00013
   148   Cl    3  f(C3)  Ryd( 4f)     0.00141
   149   Cl    3  f(C3)  Ryd( 5f)     0.00013
   150   Cl    3  f(S3)  Ryd( 4f)     0.00145
   151   Cl    3  f(S3)  Ryd( 5f)     0.00014

   152    H    4  S      Val( 1S)     0.48854
   153    H    4  S      Ryd( 2S)     0.00806
   154    H    4  S      Ryd( 3S)     0.00038
   155    H    4  S      Ryd( 4S)     0.00014
   156    H    4  px     Ryd( 2p)     0.00581
   157    H    4  px     Ryd( 3p)     0.00081
   158    H    4  px     Ryd( 4p)     0.00034
   159    H    4  py     Ryd( 2p)     0.00350
   160    H    4  py     Ryd( 3p)     0.00044
   161    H    4  py     Ryd( 4p)     0.00011
   162    H    4  pz     Ryd( 2p)     0.00458
   163    H    4  pz     Ryd( 3p)     0.00049
   164    H    4  pz     Ryd( 4p)     0.00017
   165    H    4  dxy    Ryd( 3d)     0.00031
   166    H    4  dxy    Ryd( 4d)     0.00009
   167    H    4  dxz    Ryd( 3d)     0.00037
   168    H    4  dxz    Ryd( 4d)     0.00011
   169    H    4  dyz    Ryd( 3d)     0.00021
   170    H    4  dyz    Ryd( 4d)     0.00006
   171    H    4  dx2y2  Ryd( 3d)     0.00028
   172    H    4  dx2y2  Ryd( 4d)     0.00012
   173    H    4  dz2    Ryd( 3d)     0.00029
   174    H    4  dz2    Ryd( 4d)     0.00010

 [ 28 electrons found in the effective core potential]

 WARNING:  5 low occupancy (<1.9990e) core orbitals found on  I    2


 Summary of Natural Population Analysis:                  
                                                          
                                       Natural Population 
                Natural  -----------------------------------------------
    Atom  No    Charge         Core      Valence    Rydberg      Total
 -----------------------------------------------------------------------
      O    1   -0.74104      1.99971     6.63131    0.11002     8.74104
      I    2   -0.91132     45.98364     7.75897    0.16872    53.91132
     Cl    3    0.16768      9.99982     6.68988    0.14262    16.83232
      H    4    0.48468      0.00000     0.48854    0.02678     0.51532
 =======================================================================
   * Total *   -1.00000     57.98317    21.56870    0.44814    80.00000

                                 Natural Population      
 --------------------------------------------------------
   Effective Core            28.00000
   Core                      29.98317 ( 99.9439% of  30)
   Valence                   21.56870 ( 98.0395% of  22)
   Natural Minimal Basis     79.55186 ( 99.4398% of  80)
   Natural Rydberg Basis      0.44814 (  0.5602% of  80)
 --------------------------------------------------------

    Atom  No          Natural Electron Configuration
 ----------------------------------------------------------------------------
      O    1      [core]2S( 1.79)2p( 4.84)3S( 0.01)3p( 0.04)3d( 0.05)
      I    2      [core]5S( 1.97)5p( 5.78)4f( 0.02)5d( 0.10)6p( 0.03)6d( 0.01)
     Cl    3      [core]3S( 1.88)3p( 4.81)4S( 0.01)3d( 0.09)4p( 0.03)4f( 0.01)
      H    4            1S( 0.49)2S( 0.01)2p( 0.01)


 NATURAL BOND ORBITAL ANALYSIS:

                       Occupancies       Lewis Structure    Low   High
           Occ.    -------------------  -----------------   occ   occ
  Cycle   Thresh.   Lewis   Non-Lewis     CR  BD  3C  LP    (L)   (NL)   Dev
 =============================================================================
   1(1)    1.90    79.45206   0.54794     15   2   0   9     1      0    0.10
   2(2)    1.90    79.45206   0.54794     15   2   0   9     1      0    0.10
   3(1)    1.80    79.45206   0.54794     15   2   0   9     0      0    0.10
 -----------------------------------------------------------------------------

 Structure accepted: No low occupancy Lewis orbitals

 WARNING:  5 low occupancy (<1.9990e) core orbitals found on  I    2

 --------------------------------------------------------
   Effective Core           28.00000
   Core                     29.98316 ( 99.944% of  30)
   Valence Lewis            21.46890 ( 97.586% of  22)
  ==================       ============================
   Total Lewis              79.45206 ( 99.315% of  80)
  -----------------------------------------------------
   Valence non-Lewis         0.14603 (  0.183% of  80)
   Rydberg non-Lewis         0.40191 (  0.502% of  80)
  ==================       ============================
   Total non-Lewis           0.54794 (  0.685% of  80)
 --------------------------------------------------------


       (Occupancy)   Bond orbital/ Coefficients/ Hybrids
 ---------------------------------------------------------------------------------
     1. (1.93939) BD ( 1) O   1 -Cl   3  
                ( 59.34%)   0.7703* O   1 s( 10.33%)p 8.63( 89.14%)d 0.05(  0.52%)
                                                  f 0.00(  0.02%)
                                            0.0003  0.3188 -0.0379 -0.0135 -0.0015
                                           -0.1996  0.0317  0.0066  0.0022  0.9215
                                           -0.0206 -0.0083 -0.0095  0.0222  0.0132
                                            0.0023 -0.0004 -0.0063 -0.0004 -0.0023
                                            0.0068  0.0009 -0.0010  0.0144  0.0020
                                           -0.0003 -0.0574 -0.0043 -0.0005 -0.0394
                                           -0.0033  0.0001 -0.0001  0.0001  0.0024
                                            0.0000 -0.0094  0.0007 -0.0024  0.0014
                                            0.0043 -0.0010  0.0041  0.0016 -0.0054
                                            0.0006
                ( 40.66%)   0.6377*Cl   3 s(  8.33%)p10.85( 90.38%)d 0.14(  1.18%)
                                                  f 0.01(  0.11%)
                                           -0.0000  0.0005  0.2832 -0.0549 -0.0097
                                           -0.0031  0.0001  0.2264 -0.0133 -0.0051
                                            0.0015 -0.0004 -0.9209  0.0645  0.0128
                                           -0.0035  0.0000  0.0045  0.0001 -0.0016
                                            0.0007 -0.0501  0.0048 -0.0003  0.0059
                                            0.0002 -0.0008 -0.0075 -0.0009 -0.0007
                                           -0.0768  0.0091  0.0007 -0.0559  0.0055
                                            0.0006 -0.0007  0.0002 -0.0051  0.0009
                                            0.0202 -0.0028  0.0001 -0.0005 -0.0014
                                            0.0010 -0.0175  0.0021  0.0192 -0.0020
     2. (1.96404) BD ( 1) O   1 - H   4  
                ( 78.60%)   0.8866* O   1 s( 26.50%)p 2.75( 72.98%)d 0.02(  0.51%)
                                                  f 0.00(  0.01%)
                                            0.0003  0.5146 -0.0087 -0.0083  0.0017
                                            0.7626 -0.0118 -0.0067 -0.0039 -0.0201
                                            0.0162  0.0016  0.0018  0.3839 -0.0027
                                           -0.0035 -0.0030  0.0234  0.0045  0.0012
                                            0.0495  0.0030 -0.0009  0.0131  0.0023
                                            0.0003  0.0410  0.0029  0.0020 -0.0147
                                            0.0000  0.0020 -0.0077  0.0001 -0.0024
                                            0.0004  0.0005  0.0000  0.0048  0.0018
                                            0.0003 -0.0008 -0.0005  0.0027 -0.0018
                                           -0.0002
                ( 21.40%)   0.4626* H   4 s( 99.83%)p 0.00(  0.17%)d 0.00(  0.00%)
                                            0.9985  0.0360  0.0016 -0.0004  0.0077
                                           -0.0286 -0.0086  0.0138  0.0013 -0.0036
                                            0.0175 -0.0145 -0.0021  0.0009  0.0017
                                            0.0002 -0.0004  0.0010  0.0012  0.0021
                                           -0.0010 -0.0019 -0.0020
     3. (1.99971) CR ( 1) O   1           s(100.00%)p 0.00(  0.00%)
                                            1.0000 -0.0004  0.0000  0.0000  0.0000
                                           -0.0001 -0.0000  0.0000  0.0000 -0.0002
                                            0.0000  0.0000  0.0000 -0.0000 -0.0000
                                            0.0000  0.0000  0.0000 -0.0000 -0.0000
                                           -0.0000 -0.0000  0.0000 -0.0000 -0.0000
                                           -0.0000  0.0000  0.0000 -0.0000  0.0000
                                            0.0000 -0.0000  0.0000  0.0000 -0.0000
                                           -0.0000  0.0000 -0.0000 -0.0000 -0.0000
                                           -0.0000  0.0000 -0.0000 -0.0000  0.0000
                                           -0.0000
     4. (1.99994) CR ( 1) I   2           s(100.00%)p 0.00(  0.00%)
                                            1.0000  0.0000  0.0000 -0.0000  0.0000
                                            0.0000  0.0000 -0.0005  0.0000  0.0000
                                           -0.0000 -0.0000  0.0000 -0.0000  0.0000
                                            0.0000 -0.0000  0.0001  0.0000 -0.0000
                                            0.0000  0.0000  0.0000  0.0000 -0.0000
                                            0.0000 -0.0000  0.0000 -0.0000 -0.0000
                                           -0.0000  0.0000  0.0000 -0.0000  0.0000
                                           -0.0000 -0.0000  0.0000 -0.0000  0.0000
                                            0.0000 -0.0000 -0.0000  0.0000  0.0000
                                           -0.0000 -0.0000  0.0000  0.0000  0.0000
                                           -0.0000 -0.0000 -0.0000  0.0000  0.0000
     5. (1.99993) CR ( 2) I   2           s(  0.00%)p 1.00(100.00%)
                                           -0.0000  0.0002  0.0000 -0.0000  0.0000
                                            0.0000 -1.0000 -0.0005  0.0000  0.0000
                                           -0.0000 -0.0000  0.0000 -0.0000  0.0000
                                            0.0000 -0.0000  0.0002  0.0000 -0.0000
                                            0.0000  0.0000  0.0000  0.0000 -0.0000
                                            0.0000 -0.0000  0.0000 -0.0000 -0.0000
                                           -0.0000  0.0000  0.0000 -0.0000  0.0000
                                           -0.0000 -0.0000  0.0000 -0.0000  0.0000
                                            0.0000 -0.0000 -0.0000  0.0000  0.0000
                                           -0.0000 -0.0000  0.0000  0.0000  0.0000
                                           -0.0000 -0.0000 -0.0000  0.0000  0.0000
     6. (2.00005) CR ( 3) I   2           s(  0.00%)p 1.00(100.00%)
                                           -0.0000  0.0000  0.0000  0.0000 -0.0000
                                            0.0000  0.0000 -0.0000  0.0000 -0.0000
                                            0.0000  1.0000 -0.0002 -0.0000 -0.0000
                                            0.0000 -0.0000  0.0000 -0.0000  0.0000
                                           -0.0000 -0.0000  0.0000 -0.0000 -0.0000
                                            0.0000 -0.0000 -0.0000  0.0000  0.0000
                                           -0.0000  0.0000 -0.0000 -0.0000 -0.0000
                                            0.0000 -0.0000  0.0000 -0.0000  0.0000
                                           -0.0000  0.0000  0.0000  0.0000  0.0000
                                            0.0000  0.0000 -0.0000 -0.0000  0.0000
                                            0.0000  0.0000  0.0000 -0.0000 -0.0000
     7. (2.00004) CR ( 4) I   2           s(  0.00%)p 1.00(100.00%)
                                           -0.0000  0.0001 -0.0000 -0.0000  0.0000
                                           -0.0000  0.0000 -0.0001  0.0000  0.0000
                                           -0.0000 -0.0000  0.0000 -0.0000 -0.0000
                                            0.0000  1.0000 -0.0002 -0.0000 -0.0000
                                            0.0000  0.0000 -0.0000  0.0000 -0.0000
                                            0.0000 -0.0000  0.0000 -0.0000 -0.0000
                                            0.0000 -0.0000  0.0000 -0.0000  0.0000
                                           -0.0000 -0.0000  0.0000 -0.0000  0.0000
                                           -0.0000 -0.0000 -0.0000  0.0000  0.0000
                                            0.0000 -0.0000  0.0000  0.0000  0.0000
                                            0.0000 -0.0000 -0.0000  0.0000  0.0000
     8. (1.99675) CR ( 5) I   2           s(  0.00%)p 0.00(  0.00%)d 1.00(100.00%)
                                            0.0000 -0.0000  0.0000  0.0000 -0.0000
                                           -0.0000 -0.0000  0.0000 -0.0000 -0.0000
                                            0.0000 -0.0000 -0.0000 -0.0000 -0.0000
                                            0.0000  0.0000 -0.0000 -0.0000  0.0000
                                           -0.0000  1.0000  0.0000 -0.0000 -0.0000
                                           -0.0000  0.0000 -0.0000  0.0000  0.0000
                                           -0.0000  0.0000 -0.0000  0.0000 -0.0000
                                            0.0000 -0.0000 -0.0000  0.0000 -0.0000
                                           -0.0000  0.0000  0.0000 -0.0000 -0.0000
                                            0.0000  0.0000 -0.0000 -0.0000  0.0000
                                            0.0000  0.0000  0.0000 -0.0000 -0.0000
     9. (1.99673) CR ( 6) I   2           s(  0.00%)p 0.00(  0.00%)d 1.00(100.00%)
                                            0.0000 -0.0001 -0.0000  0.0000 -0.0000
                                           -0.0000 -0.0000  0.0002 -0.0000 -0.0000
                                            0.0000  0.0000 -0.0000  0.0000 -0.0000
                                           -0.0000  0.0000 -0.0001 -0.0000  0.0000
                                           -0.0000 -0.0000 -0.0000 -0.0000  0.0000
                                            1.0000  0.0000 -0.0000  0.0000  0.0000
                                            0.0000 -0.0000 -0.0000  0.0000 -0.0000
                                            0.0000  0.0000 -0.0000  0.0000 -0.0000
                                           -0.0000  0.0000  0.0000 -0.0000 -0.0000
                                            0.0000  0.0000 -0.0000 -0.0000 -0.0000
                                            0.0000  0.0000  0.0000 -0.0000 -0.0000
    10. (1.99678) CR ( 7) I   2           s(  0.00%)p 0.00(  0.00%)d 1.00(100.00%)
                                           -0.0000 -0.0000 -0.0000 -0.0000  0.0000
                                           -0.0000  0.0000 -0.0000  0.0000  0.0000
                                           -0.0000  0.0000  0.0000  0.0000  0.0000
                                           -0.0000 -0.0000 -0.0000  0.0000 -0.0000
                                            0.0000  0.0000 -0.0000  0.0000  0.0000
                                            0.0000 -0.0000  0.0000 -0.0000  1.0000
                                            0.0000 -0.0000  0.0000 -0.0000  0.0000
                                           -0.0000  0.0000  0.0000 -0.0000 -0.0000
                                            0.0000 -0.0000 -0.0000  0.0000  0.0000
                                           -0.0000 -0.0000  0.0000  0.0000 -0.0000
                                           -0.0000 -0.0000 -0.0000  0.0000  0.0000
    11. (1.99667) CR ( 8) I   2           s(  0.00%)p 0.00(  0.00%)d 1.00(100.00%)
                                           -0.0000  0.0002  0.0000 -0.0000  0.0000
                                            0.0000  0.0000 -0.0005  0.0000  0.0000
                                           -0.0000 -0.0000  0.0000 -0.0000  0.0000
                                            0.0000 -0.0000  0.0001  0.0000 -0.0000
                                            0.0000  0.0000  0.0000  0.0000 -0.0000
                                            0.0000 -0.0000  0.0000 -0.0000 -0.0000
                                           -0.0000  0.0000  0.0000  1.0000  0.0000
                                           -0.0000 -0.0000  0.0000 -0.0000  0.0000
                                            0.0000 -0.0000 -0.0000  0.0000  0.0000
                                           -0.0000 -0.0000  0.0000  0.0000  0.0000
                                           -0.0000 -0.0000 -0.0000  0.0000  0.0000
    12. (1.99674) CR ( 9) I   2           s(  0.00%)p 0.00(  0.00%)d 1.00(100.00%)
                                            0.0000 -0.0001 -0.0000  0.0000 -0.0000
                                           -0.0000 -0.0000  0.0003 -0.0000 -0.0000
                                            0.0000  0.0000 -0.0000  0.0000 -0.0000
                                           -0.0000  0.0000 -0.0001 -0.0000  0.0000
                                           -0.0000 -0.0000 -0.0000 -0.0000  0.0000
                                           -0.0000  0.0000 -0.0000  0.0000  0.0000
                                            0.0000 -0.0000 -0.0000  0.0000 -0.0000
                                            0.0000  0.0000  1.0000  0.0000 -0.0000
                                           -0.0000  0.0000  0.0000 -0.0000 -0.0000
                                            0.0000  0.0000 -0.0000 -0.0000 -0.0000
                                            0.0000  0.0000  0.0000 -0.0000 -0.0000
    13. (2.00000) CR ( 1)Cl   3           s(100.00%)
                                            1.0000  0.0000  0.0000 -0.0000 -0.0000
                                           -0.0000  0.0000  0.0000 -0.0000 -0.0000
                                            0.0000 -0.0000 -0.0000  0.0000  0.0000
                                           -0.0000 -0.0000  0.0000  0.0000 -0.0000
                                            0.0000 -0.0000  0.0000 -0.0000  0.0000
                                           -0.0000 -0.0000 -0.0000 -0.0000 -0.0000
                                           -0.0000  0.0000  0.0000 -0.0000  0.0000
                                            0.0000 -0.0000  0.0000 -0.0000  0.0000
                                            0.0000 -0.0000 -0.0000 -0.0000 -0.0000
                                            0.0000 -0.0000  0.0000  0.0000 -0.0000
    14. (1.99980) CR ( 2)Cl   3           s(100.00%)p 0.00(  0.00%)
                                            0.0000  1.0000 -0.0004  0.0000  0.0000
                                            0.0000 -0.0000 -0.0001  0.0000  0.0000
                                           -0.0000  0.0000  0.0004 -0.0000 -0.0000
                                            0.0000 -0.0000 -0.0000 -0.0000  0.0000
                                           -0.0000  0.0000 -0.0000 -0.0000 -0.0000
                                           -0.0000  0.0000  0.0000  0.0000  0.0000
                                            0.0000 -0.0000 -0.0000  0.0000 -0.0000
                                           -0.0000  0.0000 -0.0000  0.0000 -0.0000
                                           -0.0000  0.0000 -0.0000  0.0000  0.0000
                                           -0.0000  0.0000 -0.0000 -0.0000  0.0000
    15. (2.00003) CR ( 3)Cl   3           s(  0.00%)p 1.00(100.00%)
                                            0.0000 -0.0000 -0.0000  0.0000  0.0000
                                            0.0000  1.0000  0.0001  0.0000  0.0000
                                           -0.0000  0.0000  0.0001 -0.0000 -0.0000
                                            0.0000 -0.0000 -0.0000  0.0000  0.0000
                                            0.0000  0.0000  0.0000  0.0000 -0.0000
                                            0.0000  0.0000  0.0000 -0.0000  0.0000
                                            0.0000 -0.0000 -0.0000  0.0000 -0.0000
                                            0.0000 -0.0000  0.0000  0.0000 -0.0000
                                           -0.0000  0.0000  0.0000 -0.0000  0.0000
                                           -0.0000  0.0000 -0.0000 -0.0000  0.0000
    16. (1.99996) CR ( 4)Cl   3           s(  0.00%)p 1.00(100.00%)
                                           -0.0000  0.0000  0.0001 -0.0000 -0.0000
                                           -0.0000  0.0000  0.0001 -0.0000 -0.0000
                                            0.0000  1.0000 -0.0003  0.0000  0.0000
                                           -0.0000 -0.0000  0.0000  0.0000 -0.0000
                                            0.0000 -0.0000  0.0000  0.0000  0.0000
                                            0.0000 -0.0000 -0.0000 -0.0000 -0.0000
                                           -0.0000  0.0000 -0.0000 -0.0000  0.0000
                                            0.0000 -0.0000  0.0000 -0.0000  0.0000
                                            0.0000 -0.0000  0.0000 -0.0000 -0.0000
                                            0.0000 -0.0000  0.0000  0.0000 -0.0000
    17. (2.00003) CR ( 5)Cl   3           s(  0.00%)p 1.00(100.00%)
                                           -0.0000 -0.0000 -0.0000  0.0000  0.0000
                                           -0.0000 -0.0000  0.0000  0.0000 -0.0000
                                            0.0000 -0.0000  0.0000 -0.0000  0.0000
                                            0.0000  1.0000  0.0002  0.0000  0.0000
                                           -0.0000 -0.0000 -0.0000 -0.0000 -0.0000
                                           -0.0000 -0.0000  0.0000  0.0000  0.0000
                                            0.0000 -0.0000 -0.0000  0.0000  0.0000
                                            0.0000 -0.0000  0.0000  0.0000 -0.0000
                                           -0.0000  0.0000 -0.0000  0.0000 -0.0000
                                            0.0000 -0.0000  0.0000 -0.0000 -0.0000
    18. (1.96773) LP ( 1) O   1           s( 63.27%)p 0.58( 36.63%)d 0.00(  0.10%)
                                                  f 0.00(  0.00%)
                                            0.0002  0.7953  0.0120  0.0077 -0.0009
                                           -0.4080 -0.0065 -0.0040 -0.0015 -0.3560
                                           -0.0050 -0.0054 -0.0025 -0.2701 -0.0040
                                           -0.0026 -0.0009 -0.0231 -0.0020  0.0038
                                           -0.0121 -0.0006  0.0005 -0.0152 -0.0019
                                            0.0010 -0.0010  0.0005  0.0015  0.0039
                                            0.0002  0.0011  0.0029 -0.0005  0.0009
                                           -0.0003 -0.0004  0.0007  0.0011 -0.0008
                                           -0.0016  0.0006  0.0046 -0.0022 -0.0004
                                            0.0007
    19. (1.95287) LP ( 2) O   1           s(  0.02%)p99.99( 99.77%)d12.31(  0.20%)
                                                  f 0.90(  0.01%)
                                           -0.0000  0.0112  0.0053  0.0027 -0.0004
                                           -0.4539 -0.0097 -0.0021 -0.0021 -0.1230
                                           -0.0027 -0.0006 -0.0015  0.8809  0.0173
                                            0.0057  0.0061 -0.0181 -0.0013  0.0025
                                            0.0066 -0.0038 -0.0069  0.0297  0.0037
                                           -0.0021 -0.0045  0.0022  0.0039  0.0239
                                           -0.0004 -0.0056 -0.0057  0.0008  0.0073
                                           -0.0003  0.0009 -0.0004 -0.0056  0.0016
                                           -0.0033  0.0000  0.0021 -0.0014  0.0024
                                           -0.0004
    20. (1.97872) LP ( 1) I   2           s( 95.50%)p 0.05(  4.50%)d 0.00(  0.00%)
                                                  f 0.00(  0.00%)
                                            0.0001  0.9773 -0.0001  0.0007 -0.0002
                                           -0.0001  0.0001  0.2058 -0.0007  0.0005
                                           -0.0001 -0.0000 -0.0055 -0.0000  0.0000
                                           -0.0001 -0.0000 -0.0508  0.0003 -0.0001
                                            0.0001 -0.0000 -0.0000 -0.0001 -0.0000
                                            0.0000  0.0003  0.0002  0.0001  0.0000
                                           -0.0000  0.0000 -0.0000 -0.0001  0.0005
                                           -0.0005  0.0000  0.0000 -0.0003  0.0002
                                           -0.0000 -0.0001 -0.0002  0.0003  0.0002
                                            0.0000  0.0000  0.0002  0.0003  0.0000
                                            0.0001 -0.0004 -0.0003  0.0000 -0.0000
    21. (1.95110) LP ( 2) I   2           s(  0.00%)p 1.00( 99.99%)d 0.00(  0.01%)
                                                  f 0.00(  0.00%)
                                            0.0000  0.0057 -0.0004 -0.0015  0.0019
                                           -0.0002 -0.0000 -0.1672  0.0003  0.0003
                                           -0.0002  0.0002  0.7436  0.0015  0.0009
                                           -0.0001 -0.0002 -0.6473 -0.0010 -0.0009
                                            0.0003  0.0000 -0.0055  0.0006  0.0013
                                           -0.0000  0.0032  0.0002 -0.0015 -0.0000
                                            0.0023 -0.0009  0.0006 -0.0000  0.0016
                                           -0.0005 -0.0002  0.0000 -0.0026  0.0009
                                           -0.0003  0.0007  0.0002  0.0017  0.0012
                                           -0.0004 -0.0002 -0.0010 -0.0002 -0.0012
                                           -0.0008 -0.0006 -0.0002  0.0021  0.0011
    22. (1.95100) LP ( 3) I   2           s(  0.00%)p 1.00( 99.99%)d 0.00(  0.01%)
                                                  f 0.00(  0.00%)
                                           -0.0000  0.0026  0.0002  0.0011 -0.0012
                                            0.0001  0.0001  0.1832 -0.0003 -0.0003
                                            0.0002  0.0002  0.6686  0.0014  0.0008
                                           -0.0002  0.0002  0.7207  0.0012  0.0009
                                           -0.0002  0.0000 -0.0049  0.0005  0.0013
                                            0.0000 -0.0037  0.0002  0.0014 -0.0000
                                            0.0019 -0.0007  0.0005  0.0000 -0.0003
                                           -0.0004  0.0012 -0.0000  0.0031 -0.0011
                                            0.0005 -0.0008 -0.0003 -0.0018 -0.0013
                                           -0.0004 -0.0002  0.0013  0.0005 -0.0011
                                           -0.0009  0.0003 -0.0001  0.0019  0.0009
    23. (1.87957) LP ( 4) I   2           s(  4.49%)p21.25( 95.45%)d 0.01(  0.05%)
                                                  f 0.00(  0.01%)
                                           -0.0005  0.2119  0.0004 -0.0033  0.0011
                                            0.0006  0.0005 -0.9464  0.0039  0.0025
                                           -0.0004 -0.0000 -0.0031 -0.0002  0.0000
                                            0.0006 -0.0001  0.2427  0.0012 -0.0007
                                            0.0004  0.0000  0.0001  0.0004 -0.0003
                                            0.0002 -0.0128  0.0025 -0.0004 -0.0000
                                           -0.0001  0.0000  0.0000 -0.0005  0.0154
                                           -0.0019 -0.0020  0.0003 -0.0077  0.0011
                                            0.0007 -0.0028 -0.0015  0.0031  0.0021
                                           -0.0000 -0.0001  0.0037  0.0019  0.0000
                                           -0.0000 -0.0049 -0.0024  0.0001  0.0004
    24. (1.97378) LP ( 1)Cl   3           s( 91.73%)p 0.09(  8.24%)d 0.00(  0.02%)
                                                  f 0.00(  0.00%)
                                            0.0000  0.0003  0.9578  0.0063  0.0010
                                            0.0004 -0.0000 -0.0313  0.0002  0.0004
                                            0.0003  0.0000  0.2843 -0.0064 -0.0029
                                            0.0012 -0.0000  0.0240  0.0006  0.0002
                                            0.0000  0.0051  0.0001  0.0005  0.0005
                                            0.0001 -0.0002  0.0004  0.0004  0.0004
                                            0.0108 -0.0005 -0.0002  0.0079  0.0007
                                            0.0004 -0.0003  0.0001  0.0005  0.0000
                                           -0.0022 -0.0004  0.0000 -0.0001 -0.0004
                                            0.0002  0.0017  0.0003 -0.0030  0.0001
    25. (1.95615) LP ( 2)Cl   3           s(  0.01%)p99.99( 99.94%)d 3.26(  0.04%)
                                                  f 0.62(  0.01%)
                                            0.0000  0.0000  0.0106 -0.0038 -0.0018
                                            0.0011 -0.0001  0.3316  0.0045  0.0017
                                           -0.0001 -0.0000  0.0806  0.0011 -0.0001
                                            0.0003  0.0002 -0.9395 -0.0142 -0.0045
                                            0.0020  0.0023  0.0050  0.0024  0.0049
                                            0.0071  0.0031 -0.0044 -0.0143 -0.0078
                                           -0.0021 -0.0032 -0.0019 -0.0006 -0.0002
                                           -0.0001  0.0047 -0.0004 -0.0016  0.0008
                                            0.0003 -0.0003  0.0057 -0.0009  0.0035
                                           -0.0008 -0.0017  0.0000 -0.0022  0.0007
    26. (1.95454) LP ( 3)Cl   3           s(  0.18%)p99.99( 99.77%)d 0.20(  0.04%)
                                                  f 0.05(  0.01%)
                                            0.0000 -0.0000  0.0423  0.0051  0.0039
                                           -0.0017  0.0002 -0.9141 -0.0119 -0.0013
                                           -0.0000  0.0001 -0.2145 -0.0030 -0.0007
                                           -0.0008  0.0001 -0.3405 -0.0052 -0.0007
                                            0.0002  0.0055 -0.0097 -0.0054 -0.0007
                                            0.0016  0.0012  0.0020 -0.0040 -0.0025
                                            0.0055  0.0100  0.0061 -0.0009 -0.0026
                                           -0.0004  0.0024 -0.0004  0.0017  0.0001
                                            0.0007  0.0002  0.0014  0.0002  0.0015
                                           -0.0003  0.0057 -0.0008  0.0062 -0.0009
    27. (0.01957) RY*( 1) O   1           s(  0.15%)p99.99( 98.30%)d10.22(  1.49%)
                                                  f 0.38(  0.06%)
                                           -0.0000 -0.0001  0.0380  0.0038  0.0005
                                            0.0112 -0.4508  0.0179  0.0093  0.0051
                                           -0.1238  0.0044 -0.0015 -0.0222  0.8730
                                           -0.0363 -0.0042 -0.0498 -0.0106 -0.0004
                                            0.0213 -0.0061 -0.0116  0.0816  0.0234
                                            0.0064 -0.0108  0.0046  0.0055  0.0652
                                            0.0054 -0.0048 -0.0093  0.0078  0.0070
                                           -0.0069  0.0025 -0.0013 -0.0102  0.0085
                                           -0.0033  0.0034  0.0072 -0.0053  0.0029
                                           -0.0034
    28. (0.01585) RY*( 2) O   1           s( 29.99%)p 2.24( 67.31%)d 0.08(  2.44%)
                                                  f 0.01(  0.26%)
                                           -0.0000  0.0020  0.5462 -0.0387 -0.0070
                                            0.0091 -0.5337  0.0011  0.0425  0.0400
                                           -0.4964 -0.0039  0.0316  0.0070 -0.3698
                                            0.0058  0.0223 -0.1135 -0.0228 -0.0084
                                           -0.0303  0.0039  0.0100 -0.0842 -0.0163
                                           -0.0064  0.0344  0.0045 -0.0013  0.0362
                                            0.0051  0.0008 -0.0024 -0.0009  0.0104
                                           -0.0069 -0.0093  0.0031  0.0238 -0.0115
                                           -0.0066  0.0043  0.0337 -0.0159 -0.0113
                                            0.0043
    29. (0.00796) RY*( 3) O   1           s( 15.65%)p 0.48(  7.47%)d 4.82( 75.49%)
                                                  f 0.09(  1.38%)
                                           -0.0000  0.0154  0.3903 -0.0603  0.0160
                                            0.0115  0.2322 -0.0164  0.0690 -0.0170
                                           -0.0756  0.0019  0.0420  0.0002  0.0882
                                           -0.0052  0.0077  0.6401  0.0008  0.0032
                                           -0.0837  0.0050 -0.0036  0.2053  0.0089
                                            0.0073 -0.4880 -0.0130 -0.0351  0.2373
                                           -0.0061  0.0069 -0.0055  0.0032  0.0077
                                           -0.0087 -0.0086  0.0071 -0.0355  0.0133
                                            0.0271 -0.0124 -0.0943  0.0361 -0.0282
                                            0.0149
    30. (0.00709) RY*( 4) O   1           s(  0.48%)p 0.63(  0.30%)d99.99( 97.49%)
                                                  f 3.64(  1.74%)
                                            0.0000  0.0040  0.0687 -0.0054 -0.0027
                                            0.0067  0.0193  0.0050  0.0025 -0.0018
                                           -0.0020  0.0040  0.0061 -0.0155 -0.0465
                                           -0.0092  0.0036 -0.0972  0.0105 -0.0015
                                           -0.4429  0.0224 -0.0064  0.8122 -0.0351
                                            0.0097  0.2358 -0.0166  0.0006 -0.2268
                                            0.0110 -0.0076 -0.0589  0.0253 -0.0330
                                            0.0147  0.0078 -0.0032 -0.0904  0.0384
                                           -0.0182  0.0076  0.0267 -0.0139  0.0287
                                           -0.0107
    31. (0.00634) RY*( 5) O   1           s(  0.48%)p20.79(  9.94%)d99.99( 88.03%)
                                                  f 3.26(  1.56%)
                                           -0.0000  0.0029  0.0633 -0.0276 -0.0025
                                            0.0474  0.2850 -0.0180  0.0050 -0.0036
[...]
                                            0.1890 -0.0846 -0.0508  0.5678 -0.1140
                                           -0.0085  0.0613 -0.2806  0.1894 -0.1535
                                            0.3039  0.1217  0.0077 -0.0895 -0.4337
                                            0.0882  0.0648 -0.0268
   159. (0.00029) RY*( 9) H   4           s(  6.00%)p 5.99( 35.94%)d 9.68( 58.07%)
                                            0.0027 -0.0004  0.2434  0.0274 -0.0493
                                            0.3300  0.1393  0.0497  0.0634  0.0246
                                            0.0911 -0.4513  0.0976 -0.4013  0.0173
                                           -0.4440  0.1029  0.4169 -0.0337 -0.1596
                                           -0.0348  0.0856  0.0512
   160. (0.00027) RY*(10) H   4           s(  0.25%)p99.99( 39.15%)d99.99( 60.60%)
                                            0.0025  0.0138  0.0265  0.0401  0.0461
                                           -0.0317 -0.2620  0.1125 -0.0112  0.0808
                                           -0.0571  0.5208 -0.1609 -0.5449 -0.0089
                                            0.1905  0.0281  0.4480  0.0001  0.1530
                                            0.1338  0.0540 -0.1642
   161. (0.00023) RY*(11) H   4           s( 10.28%)p 6.24( 64.16%)d 2.49( 25.57%)
                                           -0.0223 -0.0894  0.2824 -0.1206 -0.0999
                                           -0.4987 -0.2914  0.0161  0.1014 -0.0462
                                           -0.0068 -0.5046 -0.1750 -0.0227 -0.0058
                                            0.1816  0.1348  0.1087 -0.0355  0.4245
                                            0.0013 -0.0704  0.0755
   162. (0.00020) RY*(12) H   4           s(  0.25%)p50.42( 12.78%)d99.99( 86.97%)
                                           -0.0045  0.0360  0.0211 -0.0278  0.0388
                                           -0.1374 -0.0381 -0.0636 -0.0975 -0.1430
                                           -0.1021  0.0035  0.2481  0.0770 -0.0034
                                            0.0858 -0.0297  0.3330 -0.0207 -0.3127
                                           -0.0408 -0.8016 -0.0467
   163. (0.00014) RY*(13) H   4           s(  7.85%)p 0.28(  2.18%)d11.46( 89.97%)
                                           -0.0009 -0.0185  0.2582  0.1072 -0.0187
                                           -0.0259 -0.0887  0.0328 -0.0562  0.0717
                                           -0.0128 -0.0485  0.0320 -0.5603  0.0688
                                            0.0198  0.0407 -0.6843  0.0789 -0.1606
                                            0.0402 -0.2609 -0.0951
   164. (0.00013) RY*(14) H   4           s( 55.43%)p 0.20( 10.94%)d 0.61( 33.63%)
                                            0.0044  0.0322  0.2942  0.6832  0.0069
                                            0.1068  0.2223  0.0325  0.1390  0.0599
                                           -0.0436  0.0997  0.1129  0.0737 -0.0289
                                            0.0451 -0.2534  0.0304 -0.0280  0.4240
                                           -0.1866 -0.1619  0.1456
   165. (0.00013) RY*(15) H   4           s(  1.79%)p23.93( 42.72%)d31.09( 55.50%)
                                           -0.0063 -0.0067  0.0647  0.1166  0.0315
                                           -0.0758 -0.1844  0.0094  0.0202 -0.1909
                                           -0.0091 -0.1961  0.5576 -0.0061  0.1419
                                            0.2503 -0.4178  0.0533  0.0543 -0.1188
                                            0.2457  0.3387 -0.3204
   166. (0.00010) RY*(16) H   4           s(  0.42%)p99.99( 49.27%)d99.99( 50.31%)
                                           -0.0000 -0.0016  0.0635  0.0116  0.0185
                                           -0.0684 -0.0796 -0.0182 -0.1441  0.6610
                                            0.0127 -0.0901  0.1228  0.0786 -0.6622
                                            0.0181 -0.0873  0.0152 -0.1384 -0.0954
                                            0.0876  0.0198 -0.1183
   167. (0.00008) RY*(17) H   4           s( 51.29%)p 0.48( 24.38%)d 0.47( 24.33%)
   168. (0.00006) RY*(18) H   4           s(  0.00%)p 1.00(  1.94%)d50.54( 98.06%)
   169. (0.00005) RY*(19) H   4           s(  0.17%)p99.99( 22.92%)d99.99( 76.91%)
   170. (0.00005) RY*(20) H   4           s(  2.76%)p 5.88( 16.19%)d29.42( 81.05%)
   171. (0.00004) RY*(21) H   4           s(  3.68%)p 6.78( 24.96%)d19.38( 71.36%)
   172. (0.00003) RY*(22) H   4           s(  2.27%)p18.61( 42.20%)d24.49( 55.53%)
   173. (0.05911) BD*( 1) O   1 -Cl   3  
                ( 40.66%)   0.6377* O   1 s( 10.33%)p 8.63( 89.14%)d 0.05(  0.52%)
                                                  f 0.00(  0.02%)
                                           -0.0003 -0.3188  0.0379  0.0135  0.0015
                                            0.1996 -0.0317 -0.0066 -0.0022 -0.9215
                                            0.0206  0.0083  0.0095 -0.0222 -0.0132
                                           -0.0023  0.0004  0.0063  0.0004  0.0023
                                           -0.0068 -0.0009  0.0010 -0.0144 -0.0020
                                            0.0003  0.0574  0.0043  0.0005  0.0394
                                            0.0033 -0.0001  0.0001 -0.0001 -0.0024
                                           -0.0000  0.0094 -0.0007  0.0024 -0.0014
                                           -0.0043  0.0010 -0.0041 -0.0016  0.0054
                                           -0.0006
                ( 59.34%)  -0.7703*Cl   3 s(  8.33%)p10.85( 90.38%)d 0.14(  1.18%)
                                                  f 0.01(  0.11%)
                                            0.0000 -0.0005 -0.2832  0.0549  0.0097
                                            0.0031 -0.0001 -0.2264  0.0133  0.0051
                                           -0.0015  0.0004  0.9209 -0.0645 -0.0128
                                            0.0035 -0.0000 -0.0045 -0.0001  0.0016
                                           -0.0007  0.0501 -0.0048  0.0003 -0.0059
                                           -0.0002  0.0008  0.0075  0.0009  0.0007
                                            0.0768 -0.0091 -0.0007  0.0559 -0.0055
                                           -0.0006  0.0007 -0.0002  0.0051 -0.0009
                                           -0.0202  0.0028 -0.0001  0.0005  0.0014
                                           -0.0010  0.0175 -0.0021 -0.0192  0.0020
   174. (0.08693) BD*( 1) O   1 - H   4  
                ( 21.40%)   0.4626* O   1 s( 26.50%)p 2.75( 72.98%)d 0.02(  0.51%)
                                                  f 0.00(  0.01%)
                                           -0.0003 -0.5146  0.0087  0.0083 -0.0017
                                           -0.7626  0.0118  0.0067  0.0039  0.0201
                                           -0.0162 -0.0016 -0.0018 -0.3839  0.0027
                                            0.0035  0.0030 -0.0234 -0.0045 -0.0012
                                           -0.0495 -0.0030  0.0009 -0.0131 -0.0023
                                           -0.0003 -0.0410 -0.0029 -0.0020  0.0147
                                           -0.0000 -0.0020  0.0077 -0.0001  0.0024
                                           -0.0004 -0.0005 -0.0000 -0.0048 -0.0018
                                           -0.0003  0.0008  0.0005 -0.0027  0.0018
                                            0.0002
                ( 78.60%)  -0.8866* H   4 s( 99.83%)p 0.00(  0.17%)d 0.00(  0.00%)
                                           -0.9985 -0.0360 -0.0016  0.0004 -0.0077
                                            0.0286  0.0086 -0.0138 -0.0013  0.0036
                                           -0.0175  0.0145  0.0021 -0.0009 -0.0017
                                           -0.0002  0.0004 -0.0010 -0.0012 -0.0021
                                            0.0010  0.0019  0.0020


 NHO Directionality and "Bond Bending" (deviations from line of nuclear centers)

         [Thresholds for printing:  angular deviation  >  1.0 degree]
                                    hybrid p-character > 25.0%
                                    orbital occupancy  >  0.10e

                                Line of Centers        Hybrid 1              Hybrid 2
                                ---------------  -------------------   ------------------
                NBO               Theta   Phi    Theta   Phi    Dev    Theta   Phi    Dev
 ========================================================================================
     1. BD (   1) O   1 -Cl   3    90.0  103.2    87.6  100.2   3.9      --     --    --
     2. BD (   1) O   1 - H   4    65.0    0.0    63.1    0.0   1.9      --     --    --
    18. LP (   1) O   1             --     --    116.4  221.3   --       --     --    --
    19. LP (   2) O   1             --     --     28.1  195.3   --       --     --    --
    21. LP (   2) I   2             --     --    130.3  102.6   --       --     --    --
    22. LP (   3) I   2             --     --     43.9   74.7   --       --     --    --
    23. LP (   4) I   2             --     --     75.5  180.2   --       --     --    --
    25. LP (   2)Cl   3             --     --    160.0   13.6   --       --     --    --
    26. LP (   3)Cl   3             --     --    110.0  193.3   --       --     --    --


 Natural Bond Orbitals (Summary):

           NBO                  Occupancy  
 -----------------------------------------------
 Molecular unit  1  (HOCl)
     1. BD (   1) O   1 -Cl   3          1.93939
     2. BD (   1) O   1 - H   4          1.96404
     3. CR (   1) O   1                  1.99971
    13. CR (   1)Cl   3                  2.00000
    14. CR (   2)Cl   3                  1.99980
    15. CR (   3)Cl   3                  2.00003
    16. CR (   4)Cl   3                  1.99996
    17. CR (   5)Cl   3                  2.00003
    18. LP (   1) O   1                  1.96773
    19. LP (   2) O   1                  1.95287
    24. LP (   1)Cl   3                  1.97378
    25. LP (   2)Cl   3                  1.95615
    26. LP (   3)Cl   3                  1.95454
    27. RY*(   1) O   1                  0.01957
    28. RY*(   2) O   1                  0.01585
    29. RY*(   3) O   1                  0.00796
    30. RY*(   4) O   1                  0.00709
    31. RY*(   5) O   1                  0.00634
    32. RY*(   6) O   1                  0.00607
    33. RY*(   7) O   1                  0.00574
    34. RY*(   8) O   1                  0.00309
    35. RY*(   9) O   1                  0.00256
    36. RY*(  10) O   1                  0.00085
    37. RY*(  11) O   1                  0.00066
    38. RY*(  12) O   1                  0.00060
    39. RY*(  13) O   1                  0.00060
    40. RY*(  14) O   1                  0.00051
    41. RY*(  15) O   1                  0.00050
    42. RY*(  16) O   1                  0.00049
    43. RY*(  17) O   1                  0.00049
    44. RY*(  18) O   1                  0.00047
    45. RY*(  19) O   1                  0.00044
    46. RY*(  20) O   1                  0.00045
    47. RY*(  21) O   1                  0.00045
    48. RY*(  22) O   1                  0.00042
    49. RY*(  23) O   1                  0.00035
    50. RY*(  24) O   1                  0.00031
    51. RY*(  25) O   1                  0.00024
    52. RY*(  26) O   1                  0.00022
    53. RY*(  27) O   1                  0.00016
    54. RY*(  28) O   1                  0.00013
    55. RY*(  29) O   1                  0.00013
    56. RY*(  30) O   1                  0.00010
    57. RY*(  31) O   1                  0.00008
    58. RY*(  32) O   1                  0.00008
    59. RY*(  33) O   1                  0.00008
    60. RY*(  34) O   1                  0.00008
    61. RY*(  35) O   1                  0.00008
    62. RY*(  36) O   1                  0.00008
    63. RY*(  37) O   1                  0.00006
    64. RY*(  38) O   1                  0.00005
    65. RY*(  39) O   1                  0.00004
    66. RY*(  40) O   1                  0.00004
    67. RY*(  41) O   1                  0.00002
   110. RY*(   1)Cl   3                  0.02215
   111. RY*(   2)Cl   3                  0.01735
   112. RY*(   3)Cl   3                  0.01681
   113. RY*(   4)Cl   3                  0.01641
   114. RY*(   5)Cl   3                  0.01163
   115. RY*(   6)Cl   3                  0.00915
   116. RY*(   7)Cl   3                  0.00897
   117. RY*(   8)Cl   3                  0.00624
   118. RY*(   9)Cl   3                  0.00167
   119. RY*(  10)Cl   3                  0.00127
   120. RY*(  11)Cl   3                  0.00127
   121. RY*(  12)Cl   3                  0.00119
   122. RY*(  13)Cl   3                  0.00119
   123. RY*(  14)Cl   3                  0.00116
   124. RY*(  15)Cl   3                  0.00110
   125. RY*(  16)Cl   3                  0.00094
   126. RY*(  17)Cl   3                  0.00077
   127. RY*(  18)Cl   3                  0.00075
   128. RY*(  19)Cl   3                  0.00062
   129. RY*(  20)Cl   3                  0.00056
   130. RY*(  21)Cl   3                  0.00044
   131. RY*(  22)Cl   3                  0.00038
   132. RY*(  23)Cl   3                  0.00034
   133. RY*(  24)Cl   3                  0.00032
   134. RY*(  25)Cl   3                  0.00019
   135. RY*(  26)Cl   3                  0.00016
   136. RY*(  27)Cl   3                  0.00015
   137. RY*(  28)Cl   3                  0.00013
   138. RY*(  29)Cl   3                  0.00012
   139. RY*(  30)Cl   3                  0.00013
   140. RY*(  31)Cl   3                  0.00012
   141. RY*(  32)Cl   3                  0.00010
   142. RY*(  33)Cl   3                  0.00010
   143. RY*(  34)Cl   3                  0.00010
   144. RY*(  35)Cl   3                  0.00010
   145. RY*(  36)Cl   3                  0.00010
   146. RY*(  37)Cl   3                  0.00007
   147. RY*(  38)Cl   3                  0.00005
   148. RY*(  39)Cl   3                  0.00005
   149. RY*(  40)Cl   3                  0.00003
   150. RY*(  41)Cl   3                  0.00001
   151. RY*(   1) H   4                  0.01011
   152. RY*(   2) H   4                  0.00529
   153. RY*(   3) H   4                  0.00427
   154. RY*(   4) H   4                  0.00333
   155. RY*(   5) H   4                  0.00059
   156. RY*(   6) H   4                  0.00051
   157. RY*(   7) H   4                  0.00044
   158. RY*(   8) H   4                  0.00033
   159. RY*(   9) H   4                  0.00029
   160. RY*(  10) H   4                  0.00027
   161. RY*(  11) H   4                  0.00023
   162. RY*(  12) H   4                  0.00020
   163. RY*(  13) H   4                  0.00014
   164. RY*(  14) H   4                  0.00013
   165. RY*(  15) H   4                  0.00013
   166. RY*(  16) H   4                  0.00010
   167. RY*(  17) H   4                  0.00008
   168. RY*(  18) H   4                  0.00006
   169. RY*(  19) H   4                  0.00005
   170. RY*(  20) H   4                  0.00005
   171. RY*(  21) H   4                  0.00004
   172. RY*(  22) H   4                  0.00003
   173. BD*(   1) O   1 -Cl   3          0.05911
   174. BD*(   1) O   1 - H   4          0.08693
       -------------------------------
              Total Lewis   25.70803  ( 98.5410%)
        Valence non-Lewis    0.14603  (  0.5598%)
        Rydberg non-Lewis    0.23461  (  0.8993%)
       -------------------------------
            Total unit  1   26.08868  (100.0000%)
           Charge unit  1   -0.08868

 Molecular unit  2  (I)
     4. CR (   1) I   2                  1.99994
     5. CR (   2) I   2                  1.99993
     6. CR (   3) I   2                  2.00005
     7. CR (   4) I   2                  2.00004
     8. CR (   5) I   2                  1.99675
     9. CR (   6) I   2                  1.99673
    10. CR (   7) I   2                  1.99678
    11. CR (   8) I   2                  1.99667
    12. CR (   9) I   2                  1.99674
    20. LP (   1) I   2                  1.97872
    21. LP (   2) I   2                  1.95110
    22. LP (   3) I   2                  1.95100
    23. LP (   4) I   2                  1.87957
    68. RY*(   1) I   2                  0.02035
    69. RY*(   2) I   2                  0.02029
    70. RY*(   3) I   2                  0.02015
    71. RY*(   4) I   2                  0.02015
    72. RY*(   5) I   2                  0.01929
    73. RY*(   6) I   2                  0.01080
    74. RY*(   7) I   2                  0.01076
    75. RY*(   8) I   2                  0.00930
    76. RY*(   9) I   2                  0.00321
    77. RY*(  10) I   2                  0.00279
    78. RY*(  11) I   2                  0.00279
    79. RY*(  12) I   2                  0.00276
    80. RY*(  13) I   2                  0.00276
    81. RY*(  14) I   2                  0.00269
    82. RY*(  15) I   2                  0.00270
    83. RY*(  16) I   2                  0.00262
    84. RY*(  17) I   2                  0.00167
    85. RY*(  18) I   2                  0.00167
    86. RY*(  19) I   2                  0.00136
    87. RY*(  20) I   2                  0.00137
    88. RY*(  21) I   2                  0.00117
    89. RY*(  22) I   2                  0.00073
    90. RY*(  23) I   2                  0.00073
    91. RY*(  24) I   2                  0.00065
    92. RY*(  25) I   2                  0.00047
    93. RY*(  26) I   2                  0.00045
    94. RY*(  27) I   2                  0.00044
    95. RY*(  28) I   2                  0.00042
    96. RY*(  29) I   2                  0.00042
    97. RY*(  30) I   2                  0.00040
    98. RY*(  31) I   2                  0.00040
    99. RY*(  32) I   2                  0.00033
   100. RY*(  33) I   2                  0.00021
   101. RY*(  34) I   2                  0.00022
   102. RY*(  35) I   2                  0.00016
   103. RY*(  36) I   2                  0.00014
   104. RY*(  37) I   2                  0.00012
   105. RY*(  38) I   2                  0.00012
   106. RY*(  39) I   2                  0.00009
   107. RY*(  40) I   2                  0.00008
   108. RY*(  41) I   2                  0.00007
   109. RY*(  42) I   2                  0.00000
       -------------------------------
              Total Lewis   53.74403  ( 99.6897%)
        Valence non-Lewis    0.00000  (  0.0000%)
        Rydberg non-Lewis    0.16730  (  0.3103%)
       -------------------------------
            Total unit  2   53.91132  (100.0000%)
           Charge unit  2   -0.91132
 Leave Link  607 at Tue Sep 28 09:16:46 2021, MaxMem= 16106127360 cpu:              61.0 elap:               2.2
 (Enter /sw/contrib/gaussian/g16/B01/g16/l9999.exe)
 1\1\GINC-N2398\SP\RMP2-FC\Gen\Cl1H1I1O1(1-)\CGAVINH\28-Sep-2021\0\\#p 
 pop=NBO SP NoSymm mp2/gen Pseudo=read density=current\\title\\-1,1\O,0
 ,0.,0.,0.\I,0,3.31229841,0.,0.\Cl,0,-0.386418759,1.641656518,0.\H,0,0.
 902437853,0.,0.420813682\\Version=ES64L-G16RevB.01\HF=-829.6821246\MP2
 =-830.3629185\RMSD=8.447e-09\Dipole=-1.996149,0.8443344,0.1230311\Quad
 rupole=-22.3259829,11.1066058,11.2193771,0.2913809,-0.0263352,-0.09647
 58\PG=C01 [X(Cl1H1I1O1)]\\@


 CHEMISTRY BEGAN BY SAYING IT WOULD CHANGE THE BASER
 METALS INTO GOLD.  BY NOT DOING THAT IT HAS DONE MUCH
 GREATER THINGS.  --  RALPH WALDO EMERSON
 Job cpu time:       0 days  0 hours  5 minutes 23.8 seconds.
 Elapsed time:       0 days  0 hours  0 minutes 17.4 seconds.
 File lengths (MBytes):  RWF=     15 Int=      0 D2E=      0 Chk=      8 Scr=      1
 Normal termination of Gaussian 16 at Tue Sep 28 09:16:46 2021.
