 Entering Gaussian System, Link 0=g16
 Input=ihocl_rOH_opt.gjf
 Output=ihocl_rOH_opt.log
 Initial command:
 /sw/contrib/gaussian/g16/B01/g16/l1.exe "/scr/Gau-28264.inp" -scrdir="/scr/"
 Entering Link 1 = /sw/contrib/gaussian/g16/B01/g16/l1.exe PID=     28265.
  
 Copyright (c) 1988-2017, Gaussian, Inc.  All Rights Reserved.
  
 This is part of the Gaussian(R) 16 program.  It is based on
 the Gaussian(R) 09 system (copyright 2009, Gaussian, Inc.),
 the Gaussian(R) 03 system (copyright 2003, Gaussian, Inc.),
 the Gaussian(R) 98 system (copyright 1998, Gaussian, Inc.),
 the Gaussian(R) 94 system (copyright 1995, Gaussian, Inc.),
 the Gaussian 92(TM) system (copyright 1992, Gaussian, Inc.),
 the Gaussian 90(TM) system (copyright 1990, Gaussian, Inc.),
 the Gaussian 88(TM) system (copyright 1988, Gaussian, Inc.),
 the Gaussian 86(TM) system (copyright 1986, Carnegie Mellon
 University), and the Gaussian 82(TM) system (copyright 1983,
 Carnegie Mellon University). Gaussian is a federally registered
 trademark of Gaussian, Inc.
  
 This software contains proprietary and confidential information,
 including trade secrets, belonging to Gaussian, Inc.
  
 This software is provided under written license and may be
 used, copied, transmitted, or stored only in accord with that
 written license.
  
 The following legend is applicable only to US Government
 contracts under FAR:
  
                    RESTRICTED RIGHTS LEGEND
  
 Use, reproduction and disclosure by the US Government is
 subject to restrictions as set forth in subparagraphs (a)
 and (c) of the Commercial Computer Software - Restricted
 Rights clause in FAR 52.227-19.
  
 Gaussian, Inc.
 340 Quinnipiac St., Bldg. 40, Wallingford CT 06492
  
  
 ---------------------------------------------------------------
 Warning -- This program may not be used in any manner that
 competes with the business of Gaussian, Inc. or will provide
 assistance to any competitor of Gaussian, Inc.  The licensee
 of this program is prohibited from giving any competitor of
 Gaussian, Inc. access to this program.  By using this program,
 the user acknowledges that Gaussian, Inc. is engaged in the
 business of creating and licensing software in the field of
 computational chemistry and represents and warrants to the
 licensee that it is not a competitor of Gaussian, Inc. and that
 it will not use this program in any manner prohibited above.
 ---------------------------------------------------------------
  

 Cite this work as:
 Gaussian 16, Revision B.01,
 M. J. Frisch, G. W. Trucks, H. B. Schlegel, G. E. Scuseria, 
 M. A. Robb, J. R. Cheeseman, G. Scalmani, V. Barone, 
 G. A. Petersson, H. Nakatsuji, X. Li, M. Caricato, A. V. Marenich, 
 J. Bloino, B. G. Janesko, R. Gomperts, B. Mennucci, H. P. Hratchian, 
 J. V. Ortiz, A. F. Izmaylov, J. L. Sonnenberg, D. Williams-Young, 
 F. Ding, F. Lipparini, F. Egidi, J. Goings, B. Peng, A. Petrone, 
 T. Henderson, D. Ranasinghe, V. G. Zakrzewski, J. Gao, N. Rega, 
 G. Zheng, W. Liang, M. Hada, M. Ehara, K. Toyota, R. Fukuda, 
 J. Hasegawa, M. Ishida, T. Nakajima, Y. Honda, O. Kitao, H. Nakai, 
 T. Vreven, K. Throssell, J. A. Montgomery, Jr., J. E. Peralta, 
 F. Ogliaro, M. J. Bearpark, J. J. Heyd, E. N. Brothers, K. N. Kudin, 
 V. N. Staroverov, T. A. Keith, R. Kobayashi, J. Normand, 
 K. Raghavachari, A. P. Rendell, J. C. Burant, S. S. Iyengar, 
 J. Tomasi, M. Cossi, J. M. Millam, M. Klene, C. Adamo, R. Cammi, 
 J. W. Ochterski, R. L. Martin, K. Morokuma, O. Farkas, 
 J. B. Foresman, and D. J. Fox, Gaussian, Inc., Wallingford CT, 2016.
 
 ******************************************
 Gaussian 16:  ES64L-G16RevB.01 20-Dec-2017
                27-Sep-2021 
 ******************************************
 %nproc=28
 Will use up to   28 processors via shared memory.
 %mem=120GB
 %chk=/gscratch/ilahie/mccoygrp/coire_hocl/ihocl/ihocl_rOH_opt.chk
 ----------------------------------------------------
 # opt=(z-matrix) mp2/gen Pseudo=read density=current
 ----------------------------------------------------
 1/10=7,18=40,38=1/1,3;
 2/12=2,17=6,18=5,29=3,40=1/2;
 3/5=7,11=9,16=1,17=8,25=1,30=1,71=1/1,2,3;
 4//1;
 5/5=2,38=5/2;
 8/6=4,10=1/1;
 9/15=2,16=-3/6;
 10/5=1/2;
 6/7=2,8=2,9=2,10=2,22=-1/1;
 7/12=2,29=1/1,2,3,16;
 1/10=7,18=40/3(2);
 2/29=3/2;
 99//99;
 2/29=3/2;
 3/5=7,6=1,11=9,16=1,17=8,25=1,30=1,71=1,82=7/1,2,3;
 4/5=5,16=3,69=1/1;
 5/5=2,38=5/2;
 8/6=4,10=1/1;
 9/15=2,16=-3/6;
 10/5=1/2;
 7/12=2/1,2,3,16;
 1/18=40/3(-8);
 2/29=3/2;
 6/7=2,8=2,9=2,10=2,22=-1/1;
 99/9=10/99;
 -----
 title
 -----
 Symbolic Z-matrix:
 Charge = -1 Multiplicity = 1
 O
 X                    1     10. 
 Cl                   1    r1       2     90. 
 I                    1    r2       2     90.      3    a1       0
 H                    1    r3       2    oop      3    a1       0
       Variables:
  r1                    1.68652 -1        0.     
  r2                    3.3123  -1        0.     
  r3                    1.00805                  
  a1                  103.24537 -1        0.     
  OOP                  90.     Scan 10   -5.     
 

 GradGradGradGradGradGradGradGradGradGradGradGradGradGradGradGradGradGrad
 Berny optimization.
 Initialization pass.
                       ----------------------------
                       !    Initial Parameters    !
                       ! (Angstroms and Degrees)  !
 ----------------------                            ----------------------
 !      Name          Value   Derivative information (Atomic Units)     !
 ------------------------------------------------------------------------
 !       r1          1.6865   Frozen                                    !
 !       r2          3.3123   Frozen                                    !
 !       r3          1.0081   estimate D2E/DX2                          !
 !       a1        103.2454   Frozen                                    !
 !       OOP        90.0      Scan                                      !
 ------------------------------------------------------------------------
 Trust Radius=3.00D-01 FncErr=1.00D-07 GrdErr=1.00D-07 EigMax=2.50D+02 EigMin=1.00D-04
 Number of optimizations in scan=  11
 Number of steps in this run=     20 maximum allowed number of steps=    100.
 GradGradGradGradGradGradGradGradGradGradGradGradGradGradGradGradGradGrad

 ---------------------------------------------------------------------------------------------------
                            Z-MATRIX (ANGSTROMS AND DEGREES)
   CD    Cent   Atom    N1       Length/X        N2       Alpha/Y        N3        Beta/Z          J
 ---------------------------------------------------------------------------------------------------
      1      1  O 
      2         X        1  10.000000(     1)
      3      2  Cl       1   1.686522(     2)      2   90.000(     5)
      4      3  I        1   3.312298(     3)      2   90.000(     6)      3  103.245(     8)      0
      5      4  H        1   1.008051(     4)      2   90.000(     7)      3  103.245(     9)      0
 ---------------------------------------------------------------------------------------------------
                         Z-Matrix orientation:                         
 ---------------------------------------------------------------------
 Center     Atomic      Atomic             Coordinates (Angstroms)
 Number     Number       Type             X           Y           Z
 ---------------------------------------------------------------------
      1          8           0        0.000000    0.000000    0.000000
      2         -1           0        0.000000    0.000000   10.000000
      3         17           0        1.686522    0.000000    0.000000
      4         53           0       -0.758920   -3.224184    0.000000
      5          1           0       -0.230966   -0.981235    0.000000
 ---------------------------------------------------------------------
                    Distance matrix (angstroms):
                    1          2          3          4          5
     1  O    0.000000
     2  X   10.000000   0.000000
     3  Cl   1.686522  10.141221   0.000000
     4  I    3.312298  10.534293   4.046671   0.000000
     5  H    1.008051  10.050680   2.153969   2.304247   0.000000
 Stoichiometry    ClHIO(1-)
 Framework group  CS[SG(ClHIO)]
 Deg. of freedom     5
 Full point group                 CS      NOp   2
 Largest Abelian subgroup         CS      NOp   2
 Largest concise Abelian subgroup C1      NOp   1
                         Standard orientation:                         
 ---------------------------------------------------------------------
 Center     Atomic      Atomic             Coordinates (Angstroms)
 Number     Number       Type             X           Y           Z
 ---------------------------------------------------------------------
      1          8           0        0.297492    2.160199    0.000000
      2         17           0        1.980070    2.044927    0.000000
      3         53           0       -0.680021   -1.004574    0.000000
      4          1           0       -0.000000    1.197046    0.000000
 ---------------------------------------------------------------------
 Rotational constants (GHZ):          21.7715056           0.9695796           0.9282410
 General basis read from cards:  (5D, 7F)
 ======================================================================================================
                                       Pseudopotential Parameters
 ======================================================================================================
  Center     Atomic      Valence      Angular      Power
  Number     Number     Electrons     Momentum     of R      Exponent        Coefficient   SO-Coeffient
 ======================================================================================================
    1          8
                                   No pseudopotential on this center.
    2         17
                                   No pseudopotential on this center.
    3         53           25
                                      G and up 
                                                     2        1.0000000        0.00000000    0.00000000
                                      S - G
                                                     2       40.0333760       49.98964900    0.00000000
                                                     2       17.3005760      281.00655600    0.00000000
                                                     2        8.8517200       61.41673900    0.00000000
                                      P - G
                                                     2       15.7201410       67.41623900    0.00000000
                                                     2       15.2082220      134.80769600    0.00000000
                                                     2        8.2941860       14.56654800    0.00000000
                                                     2        7.7539490       28.96842200    0.00000000
                                      D - G
                                                     2       13.8177510       35.53875600    0.00000000
                                                     2       13.5878050       53.33975900    0.00000000
                                                     2        6.9476300        9.71646600    0.00000000
                                                     2        6.9600990       14.97750000    0.00000000
                                      F - G
                                                     2       18.5229500      -20.17661800    0.00000000
                                                     2       18.2510350      -26.08807700    0.00000000
                                                     2        7.5579010       -0.22043400    0.00000000
                                                     2        7.5974040       -0.22164600    0.00000000
    4          1
                                   No pseudopotential on this center.
 ======================================================================================================
 There are   139 symmetry adapted cartesian basis functions of A'  symmetry.
 There are    65 symmetry adapted cartesian basis functions of A"  symmetry.
 There are   115 symmetry adapted basis functions of A'  symmetry.
 There are    59 symmetry adapted basis functions of A"  symmetry.
   174 basis functions,   383 primitive gaussians,   204 cartesian basis functions
    26 alpha electrons       26 beta electrons
       nuclear repulsion energy       144.3188072792 Hartrees.
 NAtoms=    4 NActive=    4 NUniq=    4 SFac= 1.00D+00 NAtFMM=   60 NAOKFM=F Big=F
 Integral buffers will be    131072 words long.
 Raffenetti 1 integral format.
 Two-electron integral symmetry is turned on.
 One-electron integrals computed using PRISM.
   2 Symmetry operations used in ECPInt.
 ECPInt:  NShTT=    1596 NPrTT=   10643 LenC2=    1597 LenP2D=    8416.
 LDataN:  DoStor=T MaxTD1= 7 Len=  274
 NBasis=   174 RedAO= T EigKep=  2.23D-04  NBF=   115    59
 NBsUse=   174 1.00D-06 EigRej= -1.00D+00 NBFU=   115    59
 ExpMin= 2.53D-02 ExpMax= 4.56D+05 ExpMxC= 1.44D+03 IAcc=3 IRadAn=         5 AccDes= 0.00D+00
 Harris functional with IExCor=  205 and IRadAn=       5 diagonalized for initial guess.
 HarFok:  IExCor=  205 AccDes= 0.00D+00 IRadAn=         5 IDoV= 1 UseB2=F ITyADJ=14
 ICtDFT=  3500011 ScaDFX=  1.000000  1.000000  1.000000  1.000000
 Defaulting to unpruned grid for atomic number  53.
 FoFCou: FMM=F IPFlag=           0 FMFlag=      100000 FMFlg1=           0
         NFxFlg=           0 DoJE=T BraDBF=F KetDBF=T FulRan=T
         wScrn=  0.000000 ICntrl=       500 IOpCl=  0 I1Cent=   200000004 NGrid=           0
         NMat0=    1 NMatS0=      1 NMatT0=    0 NMatD0=    1 NMtDS0=    0 NMtDT0=    0
 Petite list used in FoFCou.
 Initial guess orbital symmetries:
       Occupied  (A') (A') (A') (A') (A') (A") (A') (A') (A") (A')
                 (A') (A') (A") (A") (A') (A') (A') (A') (A') (A')
                 (A") (A') (A') (A") (A") (A')
       Virtual   (A') (A') (A') (A') (A") (A') (A') (A") (A') (A")
                 (A') (A') (A") (A') (A') (A") (A') (A') (A") (A')
                 (A') (A') (A') (A") (A") (A') (A') (A') (A") (A')
                 (A') (A") (A') (A") (A') (A') (A") (A") (A') (A')
                 (A') (A") (A') (A") (A') (A') (A") (A') (A") (A')
                 (A') (A") (A') (A") (A') (A') (A') (A") (A') (A')
                 (A") (A') (A") (A') (A') (A') (A") (A') (A') (A")
                 (A') (A") (A") (A') (A") (A') (A') (A") (A') (A')
                 (A') (A") (A') (A') (A") (A') (A") (A') (A') (A')
                 (A") (A') (A") (A') (A") (A') (A') (A') (A") (A')
                 (A") (A') (A") (A') (A') (A") (A') (A") (A') (A')
                 (A") (A') (A") (A') (A") (A') (A') (A") (A') (A')
                 (A') (A") (A") (A') (A') (A") (A') (A') (A') (A")
                 (A') (A') (A') (A') (A") (A') (A") (A') (A") (A")
                 (A') (A') (A") (A') (A') (A') (A') (A')
 The electronic state of the initial guess is 1-A'.
 Keep R1 ints in memory in symmetry-blocked form, NReq=174584607.
 Requested convergence on RMS density matrix=1.00D-08 within 128 cycles.
 Requested convergence on MAX density matrix=1.00D-06.
 Requested convergence on             energy=1.00D-06.
 No special actions if energy rises.
 SCF Done:  E(RHF) =  -829.685584080     A.U. after   13 cycles
            NFock= 13  Conv=0.85D-08     -V/T= 2.2850
 ExpMin= 2.53D-02 ExpMax= 4.56D+05 ExpMxC= 1.44D+03 IAcc=3 IRadAn=         5 AccDes= 0.00D+00
 HarFok:  IExCor=  205 AccDes= 0.00D+00 IRadAn=         5 IDoV=-2 UseB2=F ITyADJ=14
 ICtDFT= 12500011 ScaDFX=  1.000000  1.000000  1.000000  1.000000
 Defaulting to unpruned grid for atomic number  53.
 Range of M.O.s used for correlation:    11   174
 NBasis=   174 NAE=    26 NBE=    26 NFC=    10 NFV=     0
 NROrb=    164 NOA=    16 NOB=    16 NVA=   148 NVB=   148

 **** Warning!!: The largest alpha MO coefficient is  0.19553126D+02

 Fully direct method using O(ONN) memory.
 JobTyp=1 Pass  1:  I=  11 to  26 NPSUse= 28 ParTrn=T ParDer=T DoDerP=T.
 Spin components of T(2) and E(2):
     alpha-alpha T2 =       0.3148239798D-01 E2=     -0.9176889988D-01
     alpha-beta  T2 =       0.1660456506D+00 E2=     -0.4993243344D+00
     beta-beta   T2 =       0.3148239798D-01 E2=     -0.9176889988D-01
 ANorm=    0.1108607436D+01
 E2 =    -0.6828621342D+00 EUMP2 =    -0.83036844621460D+03
          IDoAtm=1111
          Differentiating once with respect to electric field.
                with respect to dipole field.
          Differentiating once with respect to nuclear coordinates.
 Keep R1 ints in memory in symmetry-blocked form, NReq=174585663.
          There are     1 degrees of freedom in the 1st order CPHF.  IDoFFX=0 NUNeed=     1.
 LinEq1:  Iter=  0 NonCon=     1 RMS=2.90D-03 Max=4.57D-02 NDo=     1
 AX will form     1 AO Fock derivatives at one time.
 LinEq1:  Iter=  1 NonCon=     1 RMS=4.55D-04 Max=5.14D-03 NDo=     1
 LinEq1:  Iter=  2 NonCon=     1 RMS=2.02D-04 Max=3.69D-03 NDo=     1
 LinEq1:  Iter=  3 NonCon=     1 RMS=6.21D-05 Max=9.92D-04 NDo=     1
 LinEq1:  Iter=  4 NonCon=     1 RMS=2.91D-05 Max=8.20D-04 NDo=     1
 LinEq1:  Iter=  5 NonCon=     1 RMS=7.77D-06 Max=1.22D-04 NDo=     1
 LinEq1:  Iter=  6 NonCon=     1 RMS=1.90D-06 Max=2.24D-05 NDo=     1
 LinEq1:  Iter=  7 NonCon=     1 RMS=4.48D-07 Max=8.52D-06 NDo=     1
 LinEq1:  Iter=  8 NonCon=     1 RMS=1.09D-07 Max=2.29D-06 NDo=     1
 LinEq1:  Iter=  9 NonCon=     1 RMS=3.34D-08 Max=6.18D-07 NDo=     1
 LinEq1:  Iter= 10 NonCon=     1 RMS=9.79D-09 Max=1.67D-07 NDo=     1
 LinEq1:  Iter= 11 NonCon=     1 RMS=2.16D-09 Max=4.63D-08 NDo=     1
 LinEq1:  Iter= 12 NonCon=     1 RMS=5.24D-10 Max=9.49D-09 NDo=     1
 LinEq1:  Iter= 13 NonCon=     1 RMS=1.48D-10 Max=3.06D-09 NDo=     1
 LinEq1:  Iter= 14 NonCon=     0 RMS=2.79D-11 Max=3.68D-10 NDo=     1
 Linear equations converged to 1.000D-10 1.000D-09 after    14 iterations.
 End of Minotr F.D. properties file   721 does not exist.
 End of Minotr F.D. properties file   722 does not exist.
 End of Minotr F.D. properties file   788 does not exist.

 **********************************************************************

            Population analysis using the MP2 Density.

 **********************************************************************

 Orbital symmetries:
       Occupied  (A') (A') (A') (A') (A') (A") (A') (A') (A") (A')
                 (A') (A") (A') (A") (A') (A') (A') (A') (A') (A")
                 (A') (A') (A") (A') (A") (A')
       Virtual   (A') (A') (A') (A") (A') (A') (A") (A') (A') (A')
                 (A") (A') (A') (A") (A') (A") (A') (A') (A') (A")
                 (A') (A') (A') (A") (A") (A') (A') (A') (A') (A')
                 (A") (A") (A') (A") (A') (A") (A') (A') (A') (A')
                 (A") (A') (A") (A") (A') (A') (A') (A") (A") (A')
                 (A') (A") (A') (A') (A") (A') (A") (A') (A') (A')
                 (A") (A') (A") (A') (A') (A') (A") (A') (A') (A")
                 (A") (A') (A") (A') (A') (A") (A") (A') (A') (A')
                 (A') (A") (A') (A') (A') (A") (A") (A') (A') (A')
                 (A") (A') (A") (A') (A") (A') (A') (A") (A') (A')
                 (A") (A') (A") (A') (A') (A") (A') (A") (A') (A')
                 (A") (A') (A') (A") (A") (A') (A') (A') (A") (A')
                 (A') (A") (A") (A') (A") (A') (A') (A') (A') (A')
                 (A") (A') (A') (A') (A") (A') (A") (A') (A") (A")
                 (A') (A') (A") (A') (A') (A') (A') (A')
 The electronic state is 1-A'.
 Alpha  occ. eigenvalues -- -104.74105 -20.47533 -10.46051  -7.92768  -7.92498
 Alpha  occ. eigenvalues --   -7.92487  -7.47884  -5.30468  -5.30401  -5.30399
 Alpha  occ. eigenvalues --   -2.03229  -2.03186  -2.03184  -2.03112  -2.03112
 Alpha  occ. eigenvalues --   -1.24136  -0.90594  -0.64527  -0.54892  -0.45329
 Alpha  occ. eigenvalues --   -0.44491  -0.31737  -0.29115  -0.16418  -0.15383
 Alpha  occ. eigenvalues --   -0.15374
 Alpha virt. eigenvalues --    0.15254   0.17667   0.21537   0.22644   0.24016
 Alpha virt. eigenvalues --    0.24957   0.25235   0.27621   0.29617   0.30624
 Alpha virt. eigenvalues --    0.30762   0.31251   0.34730   0.37386   0.37874
 Alpha virt. eigenvalues --    0.39034   0.41898   0.42459   0.45072   0.50292
 Alpha virt. eigenvalues --    0.52871   0.54368   0.55292   0.55810   0.56867
 Alpha virt. eigenvalues --    0.58847   0.64227   0.66095   0.73887   0.75469
 Alpha virt. eigenvalues --    0.75890   0.76858   0.77245   0.79059   0.79117
 Alpha virt. eigenvalues --    0.81192   0.82217   0.82688   0.83351   0.86282
 Alpha virt. eigenvalues --    0.86868   0.87391   0.88150   0.89597   0.90025
 Alpha virt. eigenvalues --    0.93079   0.95558   0.95996   0.99624   1.00971
 Alpha virt. eigenvalues --    1.04276   1.08309   1.09141   1.11340   1.12180
 Alpha virt. eigenvalues --    1.13412   1.19489   1.19652   1.21506   1.24236
 Alpha virt. eigenvalues --    1.25936   1.32623   1.33869   1.40470   1.44508
 Alpha virt. eigenvalues --    1.49847   1.53741   1.55320   1.59810   1.60120
 Alpha virt. eigenvalues --    1.66478   1.68524   1.70214   1.73273   1.74215
 Alpha virt. eigenvalues --    1.74352   1.76097   1.77417   1.80511   1.85232
 Alpha virt. eigenvalues --    1.87464   1.90245   1.90520   1.96831   2.05116
 Alpha virt. eigenvalues --    2.05126   2.10308   2.13768   2.16164   2.30063
 Alpha virt. eigenvalues --    2.37330   2.49928   2.51985   2.54419   2.56415
 Alpha virt. eigenvalues --    2.57650   2.59182   2.67160   2.67809   2.70011
 Alpha virt. eigenvalues --    2.71037   2.73162   2.76081   2.77832   2.90683
 Alpha virt. eigenvalues --    2.97020   3.01315   3.07989   3.18346   3.20673
 Alpha virt. eigenvalues --    3.20752   3.25020   3.28577   3.29527   3.30288
 Alpha virt. eigenvalues --    3.36709   3.52468   3.53544   3.53576   3.82827
 Alpha virt. eigenvalues --    3.93505   4.29514   4.42462   4.50928   4.56383
 Alpha virt. eigenvalues --    4.61390   4.76676   4.98252   5.13632   5.35047
 Alpha virt. eigenvalues --    5.36946   5.65344   6.40656   6.57776   6.82850
 Alpha virt. eigenvalues --    6.89191   6.90360   6.97522   7.27792   7.33489
 Alpha virt. eigenvalues --    7.33945   7.43476   7.51331   7.74881   7.78822
 Alpha virt. eigenvalues --    8.33291  14.66887  59.21170
          Condensed to atoms (all electrons):
               1          2          3          4
     1  O    8.689330  -0.115623  -0.090979   0.005770
     2  Cl  -0.115623  17.058091   0.009778  -0.006268
     3  I   -0.090979   0.009778  25.881930   0.035062
     4  H    0.005770  -0.006268   0.035062   0.695169
 Mulliken charges:
               1
     1  O   -0.488498
     2  Cl   0.054022
     3  I   -0.835790
     4  H    0.270267
 Sum of Mulliken charges =  -1.00000
 Mulliken charges with hydrogens summed into heavy atoms:
               1
     1  O   -0.218231
     2  Cl   0.054022
     3  I   -0.835790
 Electronic spatial extent (au):  <R**2>=            893.6677
 Charge=             -1.0000 electrons
 Dipole moment (field-independent basis, Debye):
    X=              1.5235    Y=              1.0228    Z=              0.0000  Tot=              1.8350
 Quadrupole moment (field-independent basis, Debye-Ang):
   XX=            -55.7876   YY=            -65.0445   ZZ=            -53.2791
   XY=             -5.6614   XZ=              0.0000   YZ=              0.0000
 Traceless Quadrupole moment (field-independent basis, Debye-Ang):
   XX=              2.2495   YY=             -7.0075   ZZ=              4.7579
   XY=             -5.6614   XZ=              0.0000   YZ=              0.0000
 Octapole moment (field-independent basis, Debye-Ang**2):
  XXX=            -12.8794  YYY=            -41.1338  ZZZ=              0.0000  XYY=            -10.6219
  XXY=             -8.5155  XXZ=              0.0000  XZZ=             -6.0659  YZZ=             -8.1319
  YYZ=              0.0000  XYZ=              0.0000
 Hexadecapole moment (field-independent basis, Debye-Ang**3):
 XXXX=           -472.1389 YYYY=           -839.7222 ZZZZ=            -87.2138 XXXY=           -239.6627
 XXXZ=              0.0000 YYYX=           -259.3515 YYYZ=              0.0000 ZZZX=              0.0000
 ZZZY=              0.0000 XXYY=           -223.7295 XXZZ=            -98.9832 YYZZ=           -147.9944
 XXYZ=              0.0000 YYXZ=              0.0000 ZZXY=            -81.6483
 N-N= 1.443188072792D+02 E-N=-2.196559888486D+03  KE= 6.460213624010D+02
 Symmetry A'   KE= 5.567890756694D+02
 Symmetry A"   KE= 8.923228673157D+01
   2 Symmetry operations used in ECPInt.
 ECPInt:  NShTT=    1596 NPrTT=   10643 LenC2=    1597 LenP2D=    8416.
 LDataN:  DoStor=T MaxTD1= 8 Len=  415
 Calling FoFJK, ICntrl=  10002127 FMM=F ISym2X=1 I1Cent= 0 IOpClX= 0 NMat=1 NMatS=1 NMatT=0.
 ***** Axes restored to original set *****
 -------------------------------------------------------------------
 Center     Atomic                   Forces (Hartrees/Bohr)
 Number     Number              X              Y              Z
 -------------------------------------------------------------------
      1        8          -0.000961806    0.000236515   -0.000000000
      2       17           0.000007397   -0.000004726   -0.000000000
      3       53          -0.000418049    0.000084168   -0.000000000
      4        1           0.001372458   -0.000315958   -0.000000000
 -------------------------------------------------------------------
 Cartesian Forces:  Max     0.001372458 RMS     0.000512055
 -----------------------------------------------------------------------------------------------
                       Internal Coordinate Forces (Hartree/Bohr or radian)
  Cent   Atom   N1       Length/X         N2         Alpha/Y        N3         Beta/Z          J
 -----------------------------------------------------------------------------------------------
      1  O 
         X        1   0.000000(     1)
      2  Cl       1   0.000007(     2)      2   0.000000(     5)
      3  I        1   0.000014(     3)      2   0.000000(     6)      3   0.002668(     8)     0
      4  H        1  -0.000007(     4)      2  -0.000000(     7)      3  -0.002683(     9)     0
 -----------------------------------------------------------------------------------------------
 Internal  Forces:  Max     0.002682803 RMS     0.001261169

 GradGradGradGradGradGradGradGradGradGradGradGradGradGradGradGradGradGrad
 Berny optimization.
 Search for a local minimum.
 Step number   1 out of a maximum of   20 on scan point     1 out of    11
 All quantities printed in internal units (Hartrees-Bohrs-Radians)
 Second derivative matrix not updated -- first step.
 The second derivative matrix:
                          r1        r2        r3        a1        OOP
           r1           0.37563
           r2           0.00000   0.01776
           r3           0.00000   0.00000   0.46300
           a1           0.00000  -0.00000  -0.00000   0.41000
           OOP          0.00000   0.00000   0.00000  -0.00000   0.17526
 ITU=  0
     Eigenvalues ---    0.463001000.000001000.000001000.000001000.00000
 RFO step:  Lambda= 0.00000000D+00 EMin= 4.63004217D-01
 Linear search not attempted -- first point.
 Variable       Old X    -DE/DX   Delta X   Delta X   Delta X     New X
                                 (Linear)    (Quad)   (Total)
    r1        3.18706   0.00001   0.00000   0.00000   0.00000   3.18706
    r2        6.25934   0.00001   0.00000   0.00000   0.00000   6.25934
    r3        1.90494  -0.00001   0.00000  -0.00001  -0.00001   1.90493
    a1        1.80197  -0.00001   0.00000   0.00000   0.00000   1.80197
   OOP        1.57080  -0.00000   0.00000   0.00000   0.00000   1.57080
         Item               Value     Threshold  Converged?
 Maximum Force            0.000007     0.000450     YES
 RMS     Force            0.000007     0.000300     YES
 Maximum Displacement     0.000015     0.001800     YES
 RMS     Displacement     0.000007     0.001200     YES
 Predicted change in Energy=-5.152438D-11
 Optimization completed.
    -- Stationary point found.
                       ----------------------------
                       !   Optimized Parameters   !
                       ! (Angstroms and Degrees)  !
 ----------------------                            ----------------------
 !      Name          Value   Derivative information (Atomic Units)     !
 ------------------------------------------------------------------------
 !       r1          1.6865   -DE/DX =    0.0                           !
 !       r2          3.3123   -DE/DX =    0.0                           !
 !       r3          1.0081   -DE/DX =    0.0                           !
 !       a1        103.2454   -DE/DX =    0.0                           !
 !       OOP        90.0      -DE/DX =    0.0                           !
 ------------------------------------------------------------------------
 GradGradGradGradGradGradGradGradGradGradGradGradGradGradGradGradGradGrad

 ---------------------------------------------------------------------------------------------------
                            Z-MATRIX (ANGSTROMS AND DEGREES)
   CD    Cent   Atom    N1       Length/X        N2       Alpha/Y        N3        Beta/Z          J
 ---------------------------------------------------------------------------------------------------
      1      1  O 
      2         X        1  10.000000(     1)
      3      2  Cl       1   1.686522(     2)      2   90.000(     5)
      4      3  I        1   3.312298(     3)      2   90.000(     6)      3  103.245(     8)      0
      5      4  H        1   1.008051(     4)      2   85.000(     7)      3  103.245(     9)      0
 ---------------------------------------------------------------------------------------------------
                         Z-Matrix orientation:                         
 ---------------------------------------------------------------------
 Center     Atomic      Atomic             Coordinates (Angstroms)
 Number     Number       Type             X           Y           Z
 ---------------------------------------------------------------------
      1          8           0        0.000000    0.000000    0.000000
      2         -1           0        0.000000    0.000000   10.000000
      3         17           0        1.686522    0.000000    0.000000
      4         53           0       -0.758920   -3.224184    0.000000
      5          1           0       -0.230087   -0.977501    0.087857
 ---------------------------------------------------------------------
                    Distance matrix (angstroms):
                    1          2          3          4          5
     1  O    0.000000
     2  X   10.000000   0.000000
     3  Cl   1.686522  10.141221   0.000000
     4  I    3.312298  10.534293   4.046671   0.000000
     5  H    1.008051   9.962882   2.153281   2.309755   0.000000
 Stoichiometry    ClHIO(1-)
 Framework group  C1[X(ClHIO)]
 Deg. of freedom     6
 Full point group                 C1      NOp   1
 Omega: Change in point group or standard orientation.

 Old FWG=CS   [SG(Cl1H1I1O1)]
 New FWG=C01  [X(Cl1H1I1O1)]
 Largest Abelian subgroup         C1      NOp   1
 Largest concise Abelian subgroup C1      NOp   1
                         Standard orientation:                         
 ---------------------------------------------------------------------
 Center     Atomic      Atomic             Coordinates (Angstroms)
 Number     Number       Type             X           Y           Z
 ---------------------------------------------------------------------
      1          8           0        1.922198    1.029495   -0.007206
      2         17           0        2.818290   -0.399254    0.000001
      3         53           0       -1.212460   -0.040644   -0.000473
      4          1           0        0.971870    0.705515    0.082691
 ---------------------------------------------------------------------
 Rotational constants (GHZ):          21.7625801           0.9695506           0.9282239
 Basis read from rwf:  (5D, 7F)
 Pseudo-potential data read from rwf file.
 There are   204 symmetry adapted cartesian basis functions of A   symmetry.
 There are   174 symmetry adapted basis functions of A   symmetry.
   174 basis functions,   383 primitive gaussians,   204 cartesian basis functions
    26 alpha electrons       26 beta electrons
       nuclear repulsion energy       144.3064523741 Hartrees.
 NAtoms=    4 NActive=    4 NUniq=    4 SFac= 1.00D+00 NAtFMM=   60 NAOKFM=F Big=F
 Integral buffers will be    131072 words long.
 Raffenetti 1 integral format.
 Two-electron integral symmetry is turned on.
 One-electron integrals computed using PRISM.
   1 Symmetry operations used in ECPInt.
 ECPInt:  NShTT=    1596 NPrTT=   10643 LenC2=    1597 LenP2D=    8416.
 LDataN:  DoStor=T MaxTD1= 7 Len=  274
 NBasis=   174 RedAO= T EigKep=  2.28D-04  NBF=   174
 NBsUse=   174 1.00D-06 EigRej= -1.00D+00 NBFU=   174
 Initial guess from the checkpoint file:  "/gscratch/ilahie/mccoygrp/coire_hocl/ihocl/ihocl_rOH_opt.chk"
 B after Tr=    -0.000000   -0.000000    0.000000
         Rot=    0.891062    0.000006    0.000002    0.453882 Ang=  53.99 deg.
 ExpMin= 2.53D-02 ExpMax= 4.56D+05 ExpMxC= 1.44D+03 IAcc=3 IRadAn=         5 AccDes= 0.00D+00
 Harris functional with IExCor=  205 and IRadAn=       5 diagonalized for initial guess.
 HarFok:  IExCor=  205 AccDes= 0.00D+00 IRadAn=         5 IDoV= 1 UseB2=F ITyADJ=14
 ICtDFT=  3500011 ScaDFX=  1.000000  1.000000  1.000000  1.000000
 Defaulting to unpruned grid for atomic number  53.
 FoFCou: FMM=F IPFlag=           0 FMFlag=      100000 FMFlg1=           0
         NFxFlg=           0 DoJE=T BraDBF=F KetDBF=T FulRan=T
         wScrn=  0.000000 ICntrl=       500 IOpCl=  0 I1Cent=   200000004 NGrid=           0
         NMat0=    1 NMatS0=      1 NMatT0=    0 NMatD0=    1 NMtDS0=    0 NMtDT0=    0
 Petite list used in FoFCou.
 Keep R1 ints in memory in canonical form, NReq=173964743.
 Requested convergence on RMS density matrix=1.00D-08 within 128 cycles.
 Requested convergence on MAX density matrix=1.00D-06.
 Requested convergence on             energy=1.00D-06.
 No special actions if energy rises.
 SCF Done:  E(RHF) =  -829.685407745     A.U. after   11 cycles
            NFock= 11  Conv=0.68D-08     -V/T= 2.2851
 ExpMin= 2.53D-02 ExpMax= 4.56D+05 ExpMxC= 1.44D+03 IAcc=3 IRadAn=         5 AccDes= 0.00D+00
 HarFok:  IExCor=  205 AccDes= 0.00D+00 IRadAn=         5 IDoV=-2 UseB2=F ITyADJ=14
 ICtDFT= 12500011 ScaDFX=  1.000000  1.000000  1.000000  1.000000
 Defaulting to unpruned grid for atomic number  53.
 Range of M.O.s used for correlation:    11   174
 NBasis=   174 NAE=    26 NBE=    26 NFC=    10 NFV=     0
 NROrb=    164 NOA=    16 NOB=    16 NVA=   148 NVB=   148

 **** Warning!!: The largest alpha MO coefficient is  0.17854259D+02

 Fully direct method using O(ONN) memory.
 JobTyp=1 Pass  1:  I=  11 to  26 NPSUse= 28 ParTrn=T ParDer=T DoDerP=T.
 Spin components of T(2) and E(2):
     alpha-alpha T2 =       0.3147998933D-01 E2=     -0.9175437719D-01
     alpha-beta  T2 =       0.1660502096D+00 E2=     -0.4992848330D+00
     beta-beta   T2 =       0.3147998933D-01 E2=     -0.9175437719D-01
 ANorm=    0.1108607319D+01
 E2 =    -0.6827935874D+00 EUMP2 =    -0.83036820133224D+03
          IDoAtm=1111
          Differentiating once with respect to electric field.
                with respect to dipole field.
          Differentiating once with respect to nuclear coordinates.
 Keep R1 ints in memory in canonical form, NReq=173969271.
          There are     1 degrees of freedom in the 1st order CPHF.  IDoFFX=0 NUNeed=     1.
 LinEq1:  Iter=  0 NonCon=     1 RMS=2.90D-03 Max=4.25D-02 NDo=     1
 AX will form     1 AO Fock derivatives at one time.
 LinEq1:  Iter=  1 NonCon=     1 RMS=4.55D-04 Max=4.79D-03 NDo=     1
 LinEq1:  Iter=  2 NonCon=     1 RMS=2.02D-04 Max=3.67D-03 NDo=     1
 LinEq1:  Iter=  3 NonCon=     1 RMS=6.21D-05 Max=9.35D-04 NDo=     1
 LinEq1:  Iter=  4 NonCon=     1 RMS=2.91D-05 Max=8.17D-04 NDo=     1
 LinEq1:  Iter=  5 NonCon=     1 RMS=7.82D-06 Max=1.21D-04 NDo=     1
 LinEq1:  Iter=  6 NonCon=     1 RMS=1.94D-06 Max=2.22D-05 NDo=     1
 LinEq1:  Iter=  7 NonCon=     1 RMS=4.89D-07 Max=7.89D-06 NDo=     1
 LinEq1:  Iter=  8 NonCon=     1 RMS=1.28D-07 Max=2.49D-06 NDo=     1
 LinEq1:  Iter=  9 NonCon=     1 RMS=4.35D-08 Max=8.73D-07 NDo=     1
 LinEq1:  Iter= 10 NonCon=     1 RMS=1.27D-08 Max=1.96D-07 NDo=     1
 LinEq1:  Iter= 11 NonCon=     1 RMS=2.92D-09 Max=5.04D-08 NDo=     1
 LinEq1:  Iter= 12 NonCon=     1 RMS=7.77D-10 Max=1.47D-08 NDo=     1
 LinEq1:  Iter= 13 NonCon=     1 RMS=2.75D-10 Max=4.42D-09 NDo=     1
 LinEq1:  Iter= 14 NonCon=     0 RMS=6.71D-11 Max=9.29D-10 NDo=     1
 Linear equations converged to 1.000D-10 1.000D-09 after    14 iterations.
 End of Minotr F.D. properties file   721 does not exist.
 End of Minotr F.D. properties file   722 does not exist.
 End of Minotr F.D. properties file   788 does not exist.
   1 Symmetry operations used in ECPInt.
 ECPInt:  NShTT=    1596 NPrTT=   10643 LenC2=    1597 LenP2D=    8416.
 LDataN:  DoStor=T MaxTD1= 8 Len=  415
 Calling FoFJK, ICntrl=  10002127 FMM=F ISym2X=0 I1Cent= 0 IOpClX= 0 NMat=1 NMatS=1 NMatT=0.
 ***** Axes restored to original set *****
 -------------------------------------------------------------------
 Center     Atomic                   Forces (Hartrees/Bohr)
 Number     Number              X              Y              Z
 -------------------------------------------------------------------
      1        8          -0.000987010    0.000022069    0.001982844
      2       17           0.000090177    0.000051120    0.000070352
      3       53          -0.000409716    0.000111979    0.000900560
      4        1           0.001306548   -0.000185168   -0.002953756
 -------------------------------------------------------------------
 Cartesian Forces:  Max     0.002953756 RMS     0.001168314
 -----------------------------------------------------------------------------------------------
                       Internal Coordinate Forces (Hartree/Bohr or radian)
  Cent   Atom   N1       Length/X         N2         Alpha/Y        N3         Beta/Z          J
 -----------------------------------------------------------------------------------------------
      1  O 
         X        1   0.000000(     1)
      2  Cl       1   0.000090(     2)      2  -0.000224(     5)
      3  I        1  -0.000015(     3)      2  -0.005637(     6)      3   0.002657(     8)     0
      4  H        1  -0.000376(     4)      2   0.005586(     7)      3  -0.002494(     9)     0
 -----------------------------------------------------------------------------------------------
 Internal  Forces:  Max     0.005636911 RMS     0.002914566

 GradGradGradGradGradGradGradGradGradGradGradGradGradGradGradGradGradGrad
 Berny optimization.
 Search for a local minimum.
 Step number   1 out of a maximum of   20 on scan point     2 out of    11
 All quantities printed in internal units (Hartrees-Bohrs-Radians)
 Second derivative matrix not updated -- first step.
 The second derivative matrix:
                          r1        r2        r3        a1        OOP
           r1           0.37563
           r2           0.00000   0.01776
           r3           0.00000   0.00000   0.46300
           a1           0.00000  -0.00000  -0.00000   0.41000
           OOP          0.00000   0.00000   0.00000  -0.00000   0.17526
 ITU=  0
     Eigenvalues ---    0.463001000.000001000.000001000.000001000.00000
 RFO step:  Lambda=-3.05507375D-07 EMin= 4.63004217D-01
 Linear search not attempted -- first point.
 Variable       Old X    -DE/DX   Delta X   Delta X   Delta X     New X
                                 (Linear)    (Quad)   (Total)
    r1        3.18706   0.00009   0.00000   0.00000   0.00000   3.18706
    r2        6.25934  -0.00002   0.00000   0.00000   0.00000   6.25934
    r3        1.90494  -0.00038   0.00000  -0.00081  -0.00081   1.90413
    a1        1.80197   0.00016   0.00000   0.00000   0.00000   1.80197
   OOP        1.48353   0.00559   0.00000   0.00000   0.00000   1.48353
         Item               Value     Threshold  Converged?
 Maximum Force            0.000376     0.000450     YES
 RMS     Force            0.000376     0.000300     NO 
 Maximum Displacement     0.000812     0.001800     YES
 RMS     Displacement     0.000363     0.001200     YES
 Predicted change in Energy=-1.527537D-07
 GradGradGradGradGradGradGradGradGradGradGradGradGradGradGradGradGradGrad

 ---------------------------------------------------------------------------------------------------
                            Z-MATRIX (ANGSTROMS AND DEGREES)
   CD    Cent   Atom    N1       Length/X        N2       Alpha/Y        N3        Beta/Z          J
 ---------------------------------------------------------------------------------------------------
      1      1  O 
      2         X        1  10.000000(     1)
      3      2  Cl       1   1.686522(     2)      2   90.000(     5)
      4      3  I        1   3.312298(     3)      2   90.000(     6)      3  103.245(     8)      0
      5      4  H        1   1.007621(     4)      2   85.000(     7)      3  103.245(     9)      0
 ---------------------------------------------------------------------------------------------------
                         Z-Matrix orientation:                         
 ---------------------------------------------------------------------
 Center     Atomic      Atomic             Coordinates (Angstroms)
 Number     Number       Type             X           Y           Z
 ---------------------------------------------------------------------
      1          8           0        0.000000    0.000000    0.000000
      2         -1           0        0.000000    0.000000   10.000000
      3         17           0        1.686522    0.000000    0.000000
      4         53           0       -0.758920   -3.224184    0.000000
      5          1           0       -0.229989   -0.977084    0.087820
 ---------------------------------------------------------------------
                    Distance matrix (angstroms):
                    1          2          3          4          5
     1  O    0.000000
     2  X   10.000000   0.000000
     3  Cl   1.686522  10.141221   0.000000
     4  I    3.312298  10.534293   4.046671   0.000000
     5  H    1.007621   9.962876   2.153003   2.310181   0.000000
 Stoichiometry    ClHIO(1-)
 Framework group  C1[X(ClHIO)]
 Deg. of freedom     6
 Full point group                 C1      NOp   1
 Largest Abelian subgroup         C1      NOp   1
 Largest concise Abelian subgroup C1      NOp   1
                         Standard orientation:                         
 ---------------------------------------------------------------------
 Center     Atomic      Atomic             Coordinates (Angstroms)
 Number     Number       Type             X           Y           Z
 ---------------------------------------------------------------------
      1          8           0        1.922194    1.029489   -0.007204
      2         17           0        2.818284   -0.399261    0.000001
      3         53           0       -1.212465   -0.040644   -0.000472
      4          1           0        0.972272    0.705649    0.082654
 ---------------------------------------------------------------------
 Rotational constants (GHZ):          21.7623974           0.9695489           0.9282220
 Basis read from rwf:  (5D, 7F)
 Pseudo-potential data read from rwf file.
 There are   204 symmetry adapted cartesian basis functions of A   symmetry.
 There are   174 symmetry adapted basis functions of A   symmetry.
   174 basis functions,   383 primitive gaussians,   204 cartesian basis functions
    26 alpha electrons       26 beta electrons
       nuclear repulsion energy       144.3077261082 Hartrees.
 NAtoms=    4 NActive=    4 NUniq=    4 SFac= 1.00D+00 NAtFMM=   60 NAOKFM=F Big=F
 Integral buffers will be    131072 words long.
 Raffenetti 1 integral format.
 Two-electron integral symmetry is turned on.
 One-electron integrals computed using PRISM.
   1 Symmetry operations used in ECPInt.
 ECPInt:  NShTT=    1596 NPrTT=   10643 LenC2=    1597 LenP2D=    8416.
 LDataN:  DoStor=T MaxTD1= 7 Len=  274
 NBasis=   174 RedAO= T EigKep=  2.28D-04  NBF=   174
 NBsUse=   174 1.00D-06 EigRej= -1.00D+00 NBFU=   174
 Initial guess from the checkpoint file:  "/gscratch/ilahie/mccoygrp/coire_hocl/ihocl/ihocl_rOH_opt.chk"
 B after Tr=     0.000000    0.000000   -0.000000
         Rot=    1.000000    0.000001   -0.000000    0.000001 Ang=   0.00 deg.
 Keep R1 ints in memory in canonical form, NReq=173964743.
 Requested convergence on RMS density matrix=1.00D-08 within 128 cycles.
 Requested convergence on MAX density matrix=1.00D-06.
 Requested convergence on             energy=1.00D-06.
 No special actions if energy rises.
 SCF Done:  E(RHF) =  -829.685434889     A.U. after    7 cycles
            NFock=  7  Conv=0.41D-08     -V/T= 2.2850
 ExpMin= 2.53D-02 ExpMax= 4.56D+05 ExpMxC= 1.44D+03 IAcc=3 IRadAn=         5 AccDes= 0.00D+00
 HarFok:  IExCor=  205 AccDes= 0.00D+00 IRadAn=         5 IDoV=-2 UseB2=F ITyADJ=14
 ICtDFT= 12500011 ScaDFX=  1.000000  1.000000  1.000000  1.000000
 Defaulting to unpruned grid for atomic number  53.
 Range of M.O.s used for correlation:    11   174
 NBasis=   174 NAE=    26 NBE=    26 NFC=    10 NFV=     0
 NROrb=    164 NOA=    16 NOB=    16 NVA=   148 NVB=   148

 **** Warning!!: The largest alpha MO coefficient is  0.17864270D+02

 Fully direct method using O(ONN) memory.
 JobTyp=1 Pass  1:  I=  11 to  26 NPSUse= 28 ParTrn=T ParDer=T DoDerP=T.
 Spin components of T(2) and E(2):
     alpha-alpha T2 =       0.3147688637D-01 E2=     -0.9174964023D-01
     alpha-beta  T2 =       0.1660369904D+00 E2=     -0.4992673556D+00
     beta-beta   T2 =       0.3147688637D-01 E2=     -0.9174964023D-01
 ANorm=    0.1108598558D+01
 E2 =    -0.6827666360D+00 EUMP2 =    -0.83036820152523D+03
          IDoAtm=1111
          Differentiating once with respect to electric field.
                with respect to dipole field.
          Differentiating once with respect to nuclear coordinates.
 Keep R1 ints in memory in canonical form, NReq=173969271.
          There are     1 degrees of freedom in the 1st order CPHF.  IDoFFX=0 NUNeed=     1.
 LinEq1:  Iter=  0 NonCon=     1 RMS=2.90D-03 Max=4.25D-02 NDo=     1
 AX will form     1 AO Fock derivatives at one time.
 LinEq1:  Iter=  1 NonCon=     1 RMS=4.55D-04 Max=4.80D-03 NDo=     1
 LinEq1:  Iter=  2 NonCon=     1 RMS=2.02D-04 Max=3.67D-03 NDo=     1
 LinEq1:  Iter=  3 NonCon=     1 RMS=6.21D-05 Max=9.35D-04 NDo=     1
 LinEq1:  Iter=  4 NonCon=     1 RMS=2.91D-05 Max=8.17D-04 NDo=     1
 LinEq1:  Iter=  5 NonCon=     1 RMS=7.82D-06 Max=1.21D-04 NDo=     1
 LinEq1:  Iter=  6 NonCon=     1 RMS=1.94D-06 Max=2.22D-05 NDo=     1
 LinEq1:  Iter=  7 NonCon=     1 RMS=4.89D-07 Max=7.88D-06 NDo=     1
 LinEq1:  Iter=  8 NonCon=     1 RMS=1.28D-07 Max=2.49D-06 NDo=     1
 LinEq1:  Iter=  9 NonCon=     1 RMS=4.35D-08 Max=8.73D-07 NDo=     1
 LinEq1:  Iter= 10 NonCon=     1 RMS=1.27D-08 Max=1.96D-07 NDo=     1
 LinEq1:  Iter= 11 NonCon=     1 RMS=2.91D-09 Max=5.03D-08 NDo=     1
 LinEq1:  Iter= 12 NonCon=     1 RMS=7.75D-10 Max=1.47D-08 NDo=     1
 LinEq1:  Iter= 13 NonCon=     1 RMS=2.74D-10 Max=4.40D-09 NDo=     1
 LinEq1:  Iter= 14 NonCon=     0 RMS=6.70D-11 Max=9.28D-10 NDo=     1
 Linear equations converged to 1.000D-10 1.000D-09 after    14 iterations.
 End of Minotr F.D. properties file   721 does not exist.
 End of Minotr F.D. properties file   722 does not exist.
 End of Minotr F.D. properties file   788 does not exist.
   1 Symmetry operations used in ECPInt.
 ECPInt:  NShTT=    1596 NPrTT=   10643 LenC2=    1597 LenP2D=    8416.
 LDataN:  DoStor=T MaxTD1= 8 Len=  415
 Calling FoFJK, ICntrl=  10002127 FMM=F ISym2X=0 I1Cent= 0 IOpClX= 0 NMat=1 NMatS=1 NMatT=0.
 ***** Axes restored to original set *****
 -------------------------------------------------------------------
 Center     Atomic                   Forces (Hartrees/Bohr)
 Number     Number              X              Y              Z
 -------------------------------------------------------------------
      1        8          -0.000919199    0.000288922    0.001958238
      2       17           0.000086507    0.000052203    0.000070253
      3       53          -0.000411482    0.000104850    0.000899457
      4        1           0.001244174   -0.000445975   -0.002927948
 -------------------------------------------------------------------
 Cartesian Forces:  Max     0.002927948 RMS     0.001157847
 -----------------------------------------------------------------------------------------------
                       Internal Coordinate Forces (Hartree/Bohr or radian)
  Cent   Atom   N1       Length/X         N2         Alpha/Y        N3         Beta/Z          J
 -----------------------------------------------------------------------------------------------
      1  O 
         X        1   0.000000(     1)
      2  Cl       1   0.000087(     2)      2  -0.000224(     5)
      3  I        1  -0.000008(     3)      2  -0.005630(     6)      3   0.002657(     8)     0
      4  H        1  -0.000107(     4)      2   0.005579(     7)      3  -0.002491(     9)     0
 -----------------------------------------------------------------------------------------------
 Internal  Forces:  Max     0.005630006 RMS     0.002908907

 GradGradGradGradGradGradGradGradGradGradGradGradGradGradGradGradGradGrad
 Berny optimization.
 Search for a local minimum.
 Step number   2 out of a maximum of   20 on scan point     2 out of    11
 All quantities printed in internal units (Hartrees-Bohrs-Radians)
 Update second derivatives using D2CorN and points    2
 DE= -1.93D-07 DEPred=-1.53D-07 R= 1.26D+00
 Trust test= 1.26D+00 RLast= 8.12D-04 DXMaxT set to 3.00D-01
 The second derivative matrix:
                          r1        r2        r3        a1        OOP
           r1           0.37563
           r2           0.00000   0.01776
           r3           0.00000   0.00000   0.46300
           a1           0.00000  -0.00000  -0.00000   0.41000
           OOP          0.00000   0.00000   0.00000  -0.00000   0.17526
 ITU=  0  0
     Eigenvalues ---    0.463001000.000001000.000001000.000001000.00000
 RFO step:  Lambda= 0.00000000D+00 EMin= 4.63004217D-01
 Quartic linear search produced a step of  0.45013.
 Variable       Old X    -DE/DX   Delta X   Delta X   Delta X     New X
                                 (Linear)    (Quad)   (Total)
    r1        3.18706   0.00009   0.00000   0.00000   0.00000   3.18706
    r2        6.25934  -0.00001   0.00000   0.00000   0.00000   6.25934
    r3        1.90413  -0.00011  -0.00037  -0.00000  -0.00037   1.90376
    a1        1.80197   0.00017   0.00000   0.00000   0.00000   1.80197
   OOP        1.48353   0.00558   0.00000   0.00000   0.00000   1.48353
         Item               Value     Threshold  Converged?
 Maximum Force            0.000107     0.000450     YES
 RMS     Force            0.000107     0.000300     YES
 Maximum Displacement     0.000366     0.001800     YES
 RMS     Displacement     0.000164     0.001200     YES
 Predicted change in Energy=-8.067740D-09
 Optimization completed.
    -- Stationary point found.
                       ----------------------------
                       !   Optimized Parameters   !
                       ! (Angstroms and Degrees)  !
 ----------------------                            ----------------------
 !      Name          Value   Derivative information (Atomic Units)     !
 ------------------------------------------------------------------------
 !       r1          1.6865   -DE/DX =    0.0001                        !
 !       r2          3.3123   -DE/DX =    0.0                           !
 !       r3          1.0076   -DE/DX =   -0.0001                        !
 !       a1        103.2454   -DE/DX =    0.0002                        !
 !       OOP        85.0      -DE/DX =    0.0056                        !
 ------------------------------------------------------------------------
 GradGradGradGradGradGradGradGradGradGradGradGradGradGradGradGradGradGrad

 ---------------------------------------------------------------------------------------------------
                            Z-MATRIX (ANGSTROMS AND DEGREES)
   CD    Cent   Atom    N1       Length/X        N2       Alpha/Y        N3        Beta/Z          J
 ---------------------------------------------------------------------------------------------------
      1      1  O 
      2         X        1  10.000000(     1)
      3      2  Cl       1   1.686522(     2)      2   90.000(     5)
      4      3  I        1   3.312298(     3)      2   90.000(     6)      3  103.245(     8)      0
      5      4  H        1   1.007621(     4)      2   80.000(     7)      3  103.245(     9)      0
 ---------------------------------------------------------------------------------------------------
                         Z-Matrix orientation:                         
 ---------------------------------------------------------------------
 Center     Atomic      Atomic             Coordinates (Angstroms)
 Number     Number       Type             X           Y           Z
 ---------------------------------------------------------------------
      1          8           0        0.000000    0.000000    0.000000
      2         -1           0        0.000000    0.000000   10.000000
      3         17           0        1.686522    0.000000    0.000000
      4         53           0       -0.758920   -3.224184    0.000000
      5          1           0       -0.227360   -0.965915    0.174972
 ---------------------------------------------------------------------
                    Distance matrix (angstroms):
                    1          2          3          4          5
     1  O    0.000000
     2  X   10.000000   0.000000
     3  Cl   1.686522  10.141221   0.000000
     4  I    3.312298  10.534293   4.046671   0.000000
     5  H    1.007621   9.875012   2.150942   2.326574   0.000000
 Stoichiometry    ClHIO(1-)
 Framework group  C1[X(ClHIO)]
 Deg. of freedom     6
 Full point group                 C1      NOp   1
 Largest Abelian subgroup         C1      NOp   1
 Largest concise Abelian subgroup C1      NOp   1
                         Standard orientation:                         
 ---------------------------------------------------------------------
 Center     Atomic      Atomic             Coordinates (Angstroms)
 Number     Number       Type             X           Y           Z
 ---------------------------------------------------------------------
      1          8           0        1.922106    1.029277   -0.014437
      2         17           0        2.818125   -0.399463    0.000010
      3         53           0       -1.212606   -0.040640   -0.000929
      4          1           0        0.983119    0.710593    0.164572
 ---------------------------------------------------------------------
 Rotational constants (GHZ):          21.7359011           0.9694621           0.9281705
 Basis read from rwf:  (5D, 7F)
 Pseudo-potential data read from rwf file.
 There are   204 symmetry adapted cartesian basis functions of A   symmetry.
 There are   174 symmetry adapted basis functions of A   symmetry.
   174 basis functions,   383 primitive gaussians,   204 cartesian basis functions
    26 alpha electrons       26 beta electrons
       nuclear repulsion energy       144.2713798015 Hartrees.
 NAtoms=    4 NActive=    4 NUniq=    4 SFac= 1.00D+00 NAtFMM=   60 NAOKFM=F Big=F
 Integral buffers will be    131072 words long.
 Raffenetti 1 integral format.
 Two-electron integral symmetry is turned on.
 One-electron integrals computed using PRISM.
   1 Symmetry operations used in ECPInt.
 ECPInt:  NShTT=    1596 NPrTT=   10643 LenC2=    1597 LenP2D=    8416.
 LDataN:  DoStor=T MaxTD1= 7 Len=  274
 NBasis=   174 RedAO= T EigKep=  2.37D-04  NBF=   174
 NBsUse=   174 1.00D-06 EigRej= -1.00D+00 NBFU=   174
 Initial guess from the checkpoint file:  "/gscratch/ilahie/mccoygrp/coire_hocl/ihocl/ihocl_rOH_opt.chk"
 B after Tr=     0.000000    0.000000    0.000000
         Rot=    1.000000    0.000053   -0.000006    0.000033 Ang=   0.01 deg.
 Keep R1 ints in memory in canonical form, NReq=173964699.
 Requested convergence on RMS density matrix=1.00D-08 within 128 cycles.
 Requested convergence on MAX density matrix=1.00D-06.
 Requested convergence on             energy=1.00D-06.
 No special actions if energy rises.
 SCF Done:  E(RHF) =  -829.684907774     A.U. after   11 cycles
            NFock= 11  Conv=0.76D-08     -V/T= 2.2851
 ExpMin= 2.53D-02 ExpMax= 4.56D+05 ExpMxC= 1.44D+03 IAcc=3 IRadAn=         5 AccDes= 0.00D+00
 HarFok:  IExCor=  205 AccDes= 0.00D+00 IRadAn=         5 IDoV=-2 UseB2=F ITyADJ=14
 ICtDFT= 12500011 ScaDFX=  1.000000  1.000000  1.000000  1.000000
 Defaulting to unpruned grid for atomic number  53.
 Range of M.O.s used for correlation:    11   174
 NBasis=   174 NAE=    26 NBE=    26 NFC=    10 NFV=     0
 NROrb=    164 NOA=    16 NOB=    16 NVA=   148 NVB=   148

 **** Warning!!: The largest alpha MO coefficient is  0.16669511D+02

 Fully direct method using O(ONN) memory.
 JobTyp=1 Pass  1:  I=  11 to  26 NPSUse= 28 ParTrn=T ParDer=T DoDerP=T.
 Spin components of T(2) and E(2):
     alpha-alpha T2 =       0.3146985492D-01 E2=     -0.9170836226D-01
     alpha-beta  T2 =       0.1660507640D+00 E2=     -0.4991561461D+00
     beta-beta   T2 =       0.3146985492D-01 E2=     -0.9170836226D-01
 ANorm=    0.1108598428D+01
 E2 =    -0.6825728706D+00 EUMP2 =    -0.83036748064445D+03
          IDoAtm=1111
          Differentiating once with respect to electric field.
                with respect to dipole field.
          Differentiating once with respect to nuclear coordinates.
 Keep R1 ints in memory in canonical form, NReq=173969271.
          There are     1 degrees of freedom in the 1st order CPHF.  IDoFFX=0 NUNeed=     1.
 LinEq1:  Iter=  0 NonCon=     1 RMS=2.90D-03 Max=4.12D-02 NDo=     1
 AX will form     1 AO Fock derivatives at one time.
 LinEq1:  Iter=  1 NonCon=     1 RMS=4.55D-04 Max=4.12D-03 NDo=     1
 LinEq1:  Iter=  2 NonCon=     1 RMS=2.02D-04 Max=3.63D-03 NDo=     1
 LinEq1:  Iter=  3 NonCon=     1 RMS=6.21D-05 Max=9.42D-04 NDo=     1
 LinEq1:  Iter=  4 NonCon=     1 RMS=2.91D-05 Max=8.09D-04 NDo=     1
 LinEq1:  Iter=  5 NonCon=     1 RMS=7.97D-06 Max=1.18D-04 NDo=     1
 LinEq1:  Iter=  6 NonCon=     1 RMS=2.07D-06 Max=3.22D-05 NDo=     1
 LinEq1:  Iter=  7 NonCon=     1 RMS=5.72D-07 Max=1.28D-05 NDo=     1
 LinEq1:  Iter=  8 NonCon=     1 RMS=1.52D-07 Max=3.06D-06 NDo=     1
 LinEq1:  Iter=  9 NonCon=     1 RMS=5.00D-08 Max=7.73D-07 NDo=     1
 LinEq1:  Iter= 10 NonCon=     1 RMS=1.37D-08 Max=1.52D-07 NDo=     1
 LinEq1:  Iter= 11 NonCon=     1 RMS=3.08D-09 Max=6.35D-08 NDo=     1
 LinEq1:  Iter= 12 NonCon=     1 RMS=7.98D-10 Max=1.63D-08 NDo=     1
 LinEq1:  Iter= 13 NonCon=     1 RMS=2.73D-10 Max=4.12D-09 NDo=     1
 LinEq1:  Iter= 14 NonCon=     0 RMS=6.65D-11 Max=8.00D-10 NDo=     1
 Linear equations converged to 1.000D-10 1.000D-09 after    14 iterations.
 End of Minotr F.D. properties file   721 does not exist.
 End of Minotr F.D. properties file   722 does not exist.
 End of Minotr F.D. properties file   788 does not exist.
   1 Symmetry operations used in ECPInt.
 ECPInt:  NShTT=    1596 NPrTT=   10643 LenC2=    1597 LenP2D=    8416.
 LDataN:  DoStor=T MaxTD1= 8 Len=  415
 Calling FoFJK, ICntrl=  10002127 FMM=F ISym2X=0 I1Cent= 0 IOpClX= 0 NMat=1 NMatS=1 NMatT=0.
 ***** Axes restored to original set *****
 -------------------------------------------------------------------
 Center     Atomic                   Forces (Hartrees/Bohr)
 Number     Number              X              Y              Z
 -------------------------------------------------------------------
      1        8          -0.000995254   -0.000337628    0.003973340
      2       17           0.000334715    0.000216499    0.000110405
      3       53          -0.000389724    0.000179749    0.001751259
      4        1           0.001050263   -0.000058620   -0.005835004
 -------------------------------------------------------------------
 Cartesian Forces:  Max     0.005835004 RMS     0.002149960
 -----------------------------------------------------------------------------------------------
                       Internal Coordinate Forces (Hartree/Bohr or radian)
  Cent   Atom   N1       Length/X         N2         Alpha/Y        N3         Beta/Z          J
 -----------------------------------------------------------------------------------------------
      1  O 
         X        1   0.000000(     1)
      2  Cl       1   0.000335(     2)      2  -0.000352(     5)
      3  I        1  -0.000086(     3)      2  -0.010962(     6)      3   0.002632(     8)     0
      4  H        1  -0.001194(     4)      2   0.010881(     7)      3  -0.001942(     9)     0
 -----------------------------------------------------------------------------------------------
 Internal  Forces:  Max     0.010961721 RMS     0.005280234

 GradGradGradGradGradGradGradGradGradGradGradGradGradGradGradGradGradGrad
 Berny optimization.
 Search for a local minimum.
 Step number   1 out of a maximum of   20 on scan point     3 out of    11
 All quantities printed in internal units (Hartrees-Bohrs-Radians)
 Second derivative matrix not updated -- first step.
 The second derivative matrix:
                          r1        r2        r3        a1        OOP
           r1           0.37563
           r2           0.00000   0.01776
           r3           0.00000   0.00000   0.46300
           a1           0.00000  -0.00000  -0.00000   0.41000
           OOP          0.00000   0.00000   0.00000  -0.00000   0.17526
 ITU=  0
     Eigenvalues ---    0.463001000.000001000.000001000.000001000.00000
 RFO step:  Lambda=-3.07923725D-06 EMin= 4.63004217D-01
 Linear search not attempted -- first point.
 Variable       Old X    -DE/DX   Delta X   Delta X   Delta X     New X
                                 (Linear)    (Quad)   (Total)
    r1        3.18706   0.00033   0.00000   0.00000   0.00000   3.18706
    r2        6.25934  -0.00009   0.00000   0.00000   0.00000   6.25934
    r3        1.90413  -0.00119   0.00000  -0.00258  -0.00258   1.90155
    a1        1.80197   0.00069   0.00000   0.00000   0.00000   1.80197
   OOP        1.39626   0.01088   0.00000   0.00000   0.00000   1.39626
         Item               Value     Threshold  Converged?
 Maximum Force            0.001194     0.000450     NO 
 RMS     Force            0.001194     0.000300     NO 
 Maximum Displacement     0.002579     0.001800     NO 
 RMS     Displacement     0.001153     0.001200     YES
 Predicted change in Energy=-1.539619D-06
 GradGradGradGradGradGradGradGradGradGradGradGradGradGradGradGradGradGrad

 ---------------------------------------------------------------------------------------------------
                            Z-MATRIX (ANGSTROMS AND DEGREES)
   CD    Cent   Atom    N1       Length/X        N2       Alpha/Y        N3        Beta/Z          J
 ---------------------------------------------------------------------------------------------------
      1      1  O 
      2         X        1  10.000000(     1)
      3      2  Cl       1   1.686522(     2)      2   90.000(     5)
      4      3  I        1   3.312298(     3)      2   90.000(     6)      3  103.245(     8)      0
      5      4  H        1   1.006256(     4)      2   80.000(     7)      3  103.245(     9)      0
 ---------------------------------------------------------------------------------------------------
                         Z-Matrix orientation:                         
 ---------------------------------------------------------------------
 Center     Atomic      Atomic             Coordinates (Angstroms)
 Number     Number       Type             X           Y           Z
 ---------------------------------------------------------------------
      1          8           0        0.000000    0.000000    0.000000
      2         -1           0        0.000000    0.000000   10.000000
      3         17           0        1.686522    0.000000    0.000000
      4         53           0       -0.758920   -3.224184    0.000000
      5          1           0       -0.227053   -0.964607    0.174735
 ---------------------------------------------------------------------
                    Distance matrix (angstroms):
                    1          2          3          4          5
     1  O    0.000000
     2  X   10.000000   0.000000
     3  Cl   1.686522  10.141221   0.000000
     4  I    3.312298  10.534293   4.046671   0.000000
     5  H    1.006256   9.875113   2.150062   2.327896   0.000000
 Stoichiometry    ClHIO(1-)
 Framework group  C1[X(ClHIO)]
 Deg. of freedom     6
 Full point group                 C1      NOp   1
 Largest Abelian subgroup         C1      NOp   1
 Largest concise Abelian subgroup C1      NOp   1
                         Standard orientation:                         
 ---------------------------------------------------------------------
 Center     Atomic      Atomic             Coordinates (Angstroms)
 Number     Number       Type             X           Y           Z
 ---------------------------------------------------------------------
      1          8           0        1.922096    1.029260   -0.014425
      2         17           0        2.818107   -0.399484    0.000010
      3         53           0       -1.212622   -0.040639   -0.000927
      4          1           0        0.984378    0.711012    0.164338
 ---------------------------------------------------------------------
 Rotational constants (GHZ):          21.7353844           0.9694570           0.9281645
 Basis read from rwf:  (5D, 7F)
 Pseudo-potential data read from rwf file.
 There are   204 symmetry adapted cartesian basis functions of A   symmetry.
 There are   174 symmetry adapted basis functions of A   symmetry.
   174 basis functions,   383 primitive gaussians,   204 cartesian basis functions
    26 alpha electrons       26 beta electrons
       nuclear repulsion energy       144.2755604007 Hartrees.
 NAtoms=    4 NActive=    4 NUniq=    4 SFac= 1.00D+00 NAtFMM=   60 NAOKFM=F Big=F
 Integral buffers will be    131072 words long.
 Raffenetti 1 integral format.
 Two-electron integral symmetry is turned on.
 One-electron integrals computed using PRISM.
   1 Symmetry operations used in ECPInt.
 ECPInt:  NShTT=    1596 NPrTT=   10643 LenC2=    1597 LenP2D=    8416.
 LDataN:  DoStor=T MaxTD1= 7 Len=  274
 NBasis=   174 RedAO= T EigKep=  2.37D-04  NBF=   174
 NBsUse=   174 1.00D-06 EigRej= -1.00D+00 NBFU=   174
 Initial guess from the checkpoint file:  "/gscratch/ilahie/mccoygrp/coire_hocl/ihocl/ihocl_rOH_opt.chk"
 B after Tr=     0.000000    0.000000   -0.000000
         Rot=    1.000000    0.000006   -0.000001    0.000004 Ang=   0.00 deg.
 Keep R1 ints in memory in canonical form, NReq=173964699.
 Requested convergence on RMS density matrix=1.00D-08 within 128 cycles.
 Requested convergence on MAX density matrix=1.00D-06.
 Requested convergence on             energy=1.00D-06.
 No special actions if energy rises.
 SCF Done:  E(RHF) =  -829.684994681     A.U. after    8 cycles
            NFock=  8  Conv=0.35D-08     -V/T= 2.2850
 ExpMin= 2.53D-02 ExpMax= 4.56D+05 ExpMxC= 1.44D+03 IAcc=3 IRadAn=         5 AccDes= 0.00D+00
 HarFok:  IExCor=  205 AccDes= 0.00D+00 IRadAn=         5 IDoV=-2 UseB2=F ITyADJ=14
 ICtDFT= 12500011 ScaDFX=  1.000000  1.000000  1.000000  1.000000
 Defaulting to unpruned grid for atomic number  53.
 Range of M.O.s used for correlation:    11   174
 NBasis=   174 NAE=    26 NBE=    26 NFC=    10 NFV=     0
 NROrb=    164 NOA=    16 NOB=    16 NVA=   148 NVB=   148

 **** Warning!!: The largest alpha MO coefficient is  0.16702449D+02

 Fully direct method using O(ONN) memory.
 JobTyp=1 Pass  1:  I=  11 to  26 NPSUse= 28 ParTrn=T ParDer=T DoDerP=T.
 Spin components of T(2) and E(2):
     alpha-alpha T2 =       0.3146003590D-01 E2=     -0.9169349036D-01
     alpha-beta  T2 =       0.1660086295D+00 E2=     -0.4991009422D+00
     beta-beta   T2 =       0.3146003590D-01 E2=     -0.9169349036D-01
 ANorm=    0.1108570567D+01
 E2 =    -0.6824879229D+00 EUMP2 =    -0.83036748260428D+03
          IDoAtm=1111
          Differentiating once with respect to electric field.
                with respect to dipole field.
          Differentiating once with respect to nuclear coordinates.
 Keep R1 ints in memory in canonical form, NReq=173969271.
          There are     1 degrees of freedom in the 1st order CPHF.  IDoFFX=0 NUNeed=     1.
 LinEq1:  Iter=  0 NonCon=     1 RMS=2.90D-03 Max=4.12D-02 NDo=     1
 AX will form     1 AO Fock derivatives at one time.
 LinEq1:  Iter=  1 NonCon=     1 RMS=4.55D-04 Max=4.12D-03 NDo=     1
 LinEq1:  Iter=  2 NonCon=     1 RMS=2.02D-04 Max=3.63D-03 NDo=     1
 LinEq1:  Iter=  3 NonCon=     1 RMS=6.20D-05 Max=9.41D-04 NDo=     1
 LinEq1:  Iter=  4 NonCon=     1 RMS=2.90D-05 Max=8.07D-04 NDo=     1
 LinEq1:  Iter=  5 NonCon=     1 RMS=7.96D-06 Max=1.17D-04 NDo=     1
 LinEq1:  Iter=  6 NonCon=     1 RMS=2.07D-06 Max=3.22D-05 NDo=     1
 LinEq1:  Iter=  7 NonCon=     1 RMS=5.71D-07 Max=1.28D-05 NDo=     1
 LinEq1:  Iter=  8 NonCon=     1 RMS=1.51D-07 Max=3.06D-06 NDo=     1
 LinEq1:  Iter=  9 NonCon=     1 RMS=5.00D-08 Max=7.71D-07 NDo=     1
 LinEq1:  Iter= 10 NonCon=     1 RMS=1.37D-08 Max=1.52D-07 NDo=     1
 LinEq1:  Iter= 11 NonCon=     1 RMS=3.07D-09 Max=6.32D-08 NDo=     1
 LinEq1:  Iter= 12 NonCon=     1 RMS=7.93D-10 Max=1.63D-08 NDo=     1
 LinEq1:  Iter= 13 NonCon=     1 RMS=2.71D-10 Max=4.06D-09 NDo=     1
 LinEq1:  Iter= 14 NonCon=     0 RMS=6.61D-11 Max=8.00D-10 NDo=     1
 Linear equations converged to 1.000D-10 1.000D-09 after    14 iterations.
 End of Minotr F.D. properties file   721 does not exist.
 End of Minotr F.D. properties file   722 does not exist.
 End of Minotr F.D. properties file   788 does not exist.
   1 Symmetry operations used in ECPInt.
 ECPInt:  NShTT=    1596 NPrTT=   10643 LenC2=    1597 LenP2D=    8416.
 LDataN:  DoStor=T MaxTD1= 8 Len=  415
 Calling FoFJK, ICntrl=  10002127 FMM=F ISym2X=0 I1Cent= 0 IOpClX= 0 NMat=1 NMatS=1 NMatT=0.
 ***** Axes restored to original set *****
 -------------------------------------------------------------------
 Center     Atomic                   Forces (Hartrees/Bohr)
 Number     Number              X              Y              Z
 -------------------------------------------------------------------
      1        8          -0.000778908    0.000509659    0.003815931
      2       17           0.000322545    0.000219949    0.000109865
      3       53          -0.000395406    0.000156728    0.001744451
      4        1           0.000851768   -0.000886337   -0.005670247
 -------------------------------------------------------------------
 Cartesian Forces:  Max     0.005670247 RMS     0.002091233
 -----------------------------------------------------------------------------------------------
                       Internal Coordinate Forces (Hartree/Bohr or radian)
  Cent   Atom   N1       Length/X         N2         Alpha/Y        N3         Beta/Z          J
 -----------------------------------------------------------------------------------------------
      1  O 
         X        1   0.000000(     1)
      2  Cl       1   0.000323(     2)      2  -0.000350(     5)
      3  I        1  -0.000062(     3)      2  -0.010919(     6)      3   0.002634(     8)     0
      4  H        1  -0.000327(     4)      2   0.010839(     7)      3  -0.001933(     9)     0
 -----------------------------------------------------------------------------------------------
 Internal  Forces:  Max     0.010919108 RMS     0.005246371

 GradGradGradGradGradGradGradGradGradGradGradGradGradGradGradGradGradGrad
 Berny optimization.
 Search for a local minimum.
 Step number   2 out of a maximum of   20 on scan point     3 out of    11
 All quantities printed in internal units (Hartrees-Bohrs-Radians)
 Update second derivatives using D2CorN and points    1    2
 DE= -1.96D-06 DEPred=-1.54D-06 R= 1.27D+00
 TightC=F SS=  1.41D+00  RLast= 2.58D-03 DXNew= 5.0454D-01 7.7366D-03
 Trust test= 1.27D+00 RLast= 2.58D-03 DXMaxT set to 3.00D-01
 The second derivative matrix:
                          r1        r2        r3        a1        OOP
           r1           0.37563
           r2           0.00000   0.01776
           r3          -0.00236   0.00460   0.33614
           a1           0.00000  -0.00000   0.00212   0.41000
           OOP          0.00000   0.00000  -0.00818  -0.00000   0.17526
 ITU=  1  0
     Eigenvalues ---    0.336141000.000001000.000001000.000001000.00000
 RFO step:  Lambda= 0.00000000D+00 EMin= 3.36140303D-01
 Quartic linear search produced a step of  0.37972.
 Variable       Old X    -DE/DX   Delta X   Delta X   Delta X     New X
                                 (Linear)    (Quad)   (Total)
    r1        3.18706   0.00032   0.00000   0.00000   0.00000   3.18706
    r2        6.25934  -0.00006   0.00000   0.00000   0.00000   6.25934
    r3        1.90155  -0.00033  -0.00098  -0.00000  -0.00098   1.90057
    a1        1.80197   0.00070   0.00000   0.00000   0.00000   1.80197
   OOP        1.39626   0.01084   0.00000   0.00000   0.00000   1.39626
         Item               Value     Threshold  Converged?
 Maximum Force            0.000327     0.000450     YES
 RMS     Force            0.000327     0.000300     NO 
 Maximum Displacement     0.000979     0.001800     YES
 RMS     Displacement     0.000438     0.001200     YES
 Predicted change in Energy=-1.592146D-07
 GradGradGradGradGradGradGradGradGradGradGradGradGradGradGradGradGradGrad

 ---------------------------------------------------------------------------------------------------
                            Z-MATRIX (ANGSTROMS AND DEGREES)
   CD    Cent   Atom    N1       Length/X        N2       Alpha/Y        N3        Beta/Z          J
 ---------------------------------------------------------------------------------------------------
      1      1  O 
      2         X        1  10.000000(     1)
      3      2  Cl       1   1.686522(     2)      2   90.000(     5)
      4      3  I        1   3.312298(     3)      2   90.000(     6)      3  103.245(     8)      0
      5      4  H        1   1.005738(     4)      2   80.000(     7)      3  103.245(     9)      0
 ---------------------------------------------------------------------------------------------------
                         Z-Matrix orientation:                         
 ---------------------------------------------------------------------
 Center     Atomic      Atomic             Coordinates (Angstroms)
 Number     Number       Type             X           Y           Z
 ---------------------------------------------------------------------
      1          8           0        0.000000    0.000000    0.000000
      2         -1           0        0.000000    0.000000   10.000000
      3         17           0        1.686522    0.000000    0.000000
      4         53           0       -0.758920   -3.224184    0.000000
      5          1           0       -0.226936   -0.964110    0.174645
 ---------------------------------------------------------------------
                    Distance matrix (angstroms):
                    1          2          3          4          5
     1  O    0.000000
     2  X   10.000000   0.000000
     3  Cl   1.686522  10.141221   0.000000
     4  I    3.312298  10.534293   4.046671   0.000000
     5  H    1.005738   9.875152   2.149728   2.328399   0.000000
 Stoichiometry    ClHIO(1-)
 Framework group  C1[X(ClHIO)]
 Deg. of freedom     6
 Full point group                 C1      NOp   1
 Largest Abelian subgroup         C1      NOp   1
 Largest concise Abelian subgroup C1      NOp   1
                         Standard orientation:                         
 ---------------------------------------------------------------------
 Center     Atomic      Atomic             Coordinates (Angstroms)
 Number     Number       Type             X           Y           Z
 ---------------------------------------------------------------------
      1          8           0        1.922092    1.029254   -0.014420
      2         17           0        2.818100   -0.399493    0.000010
      3         53           0       -1.212628   -0.040638   -0.000926
      4          1           0        0.984857    0.711171    0.164250
 ---------------------------------------------------------------------
 Rotational constants (GHZ):          21.7351881           0.9694550           0.9281623
 Basis read from rwf:  (5D, 7F)
 Pseudo-potential data read from rwf file.
 There are   204 symmetry adapted cartesian basis functions of A   symmetry.
 There are   174 symmetry adapted basis functions of A   symmetry.
   174 basis functions,   383 primitive gaussians,   204 cartesian basis functions
    26 alpha electrons       26 beta electrons
       nuclear repulsion energy       144.2771529618 Hartrees.
 NAtoms=    4 NActive=    4 NUniq=    4 SFac= 1.00D+00 NAtFMM=   60 NAOKFM=F Big=F
 Integral buffers will be    131072 words long.
 Raffenetti 1 integral format.
 Two-electron integral symmetry is turned on.
 One-electron integrals computed using PRISM.
   1 Symmetry operations used in ECPInt.
 ECPInt:  NShTT=    1596 NPrTT=   10643 LenC2=    1597 LenP2D=    8416.
 LDataN:  DoStor=T MaxTD1= 7 Len=  274
 NBasis=   174 RedAO= T EigKep=  2.37D-04  NBF=   174
 NBsUse=   174 1.00D-06 EigRej= -1.00D+00 NBFU=   174
 Initial guess from the checkpoint file:  "/gscratch/ilahie/mccoygrp/coire_hocl/ihocl/ihocl_rOH_opt.chk"
 B after Tr=    -0.000000   -0.000000    0.000000
         Rot=    1.000000    0.000002   -0.000000    0.000001 Ang=   0.00 deg.
 Keep R1 ints in memory in canonical form, NReq=173964699.
 Requested convergence on RMS density matrix=1.00D-08 within 128 cycles.
 Requested convergence on MAX density matrix=1.00D-06.
 Requested convergence on             energy=1.00D-06.
 No special actions if energy rises.
 SCF Done:  E(RHF) =  -829.685027086     A.U. after    7 cycles
            NFock=  7  Conv=0.50D-08     -V/T= 2.2850
 ExpMin= 2.53D-02 ExpMax= 4.56D+05 ExpMxC= 1.44D+03 IAcc=3 IRadAn=         5 AccDes= 0.00D+00
 HarFok:  IExCor=  205 AccDes= 0.00D+00 IRadAn=         5 IDoV=-2 UseB2=F ITyADJ=14
 ICtDFT= 12500011 ScaDFX=  1.000000  1.000000  1.000000  1.000000
 Defaulting to unpruned grid for atomic number  53.
 Range of M.O.s used for correlation:    11   174
 NBasis=   174 NAE=    26 NBE=    26 NFC=    10 NFV=     0
 NROrb=    164 NOA=    16 NOB=    16 NVA=   148 NVB=   148

 **** Warning!!: The largest alpha MO coefficient is  0.16714929D+02

 Fully direct method using O(ONN) memory.
 JobTyp=1 Pass  1:  I=  11 to  26 NPSUse= 28 ParTrn=T ParDer=T DoDerP=T.
 Spin components of T(2) and E(2):
     alpha-alpha T2 =       0.3145630972D-01 E2=     -0.9168784587D-01
     alpha-beta  T2 =       0.1659926403D+00 E2=     -0.4990799846D+00
     beta-beta   T2 =       0.3145630972D-01 E2=     -0.9168784587D-01
 ANorm=    0.1108559994D+01
 E2 =    -0.6824556763D+00 EUMP2 =    -0.83036748276247D+03
          IDoAtm=1111
          Differentiating once with respect to electric field.
                with respect to dipole field.
          Differentiating once with respect to nuclear coordinates.
 Keep R1 ints in memory in canonical form, NReq=173969271.
          There are     1 degrees of freedom in the 1st order CPHF.  IDoFFX=0 NUNeed=     1.
 LinEq1:  Iter=  0 NonCon=     1 RMS=2.90D-03 Max=4.12D-02 NDo=     1
 AX will form     1 AO Fock derivatives at one time.
[...]
 Integral buffers will be    131072 words long.
 Raffenetti 1 integral format.
 Two-electron integral symmetry is turned on.
 One-electron integrals computed using PRISM.
   1 Symmetry operations used in ECPInt.
 ECPInt:  NShTT=    1596 NPrTT=   10643 LenC2=    1597 LenP2D=    8412.
 LDataN:  DoStor=T MaxTD1= 7 Len=  274
 NBasis=   174 RedAO= T EigKep=  2.96D-04  NBF=   174
 NBsUse=   174 1.00D-06 EigRej= -1.00D+00 NBFU=   174
 Initial guess from the checkpoint file:  "/gscratch/ilahie/mccoygrp/coire_hocl/ihocl/ihocl_rOH_opt.chk"
 B after Tr=    -0.000000   -0.000000    0.000000
         Rot=    1.000000    0.000019   -0.000005    0.000006 Ang=   0.00 deg.
 Keep R1 ints in memory in canonical form, NReq=173963951.
 Requested convergence on RMS density matrix=1.00D-08 within 128 cycles.
 Requested convergence on MAX density matrix=1.00D-06.
 Requested convergence on             energy=1.00D-06.
 No special actions if energy rises.
 SCF Done:  E(RHF) =  -829.673020646     A.U. after    8 cycles
            NFock=  8  Conv=0.87D-08     -V/T= 2.2850
 ExpMin= 2.53D-02 ExpMax= 4.56D+05 ExpMxC= 1.44D+03 IAcc=3 IRadAn=         5 AccDes= 0.00D+00
 HarFok:  IExCor=  205 AccDes= 0.00D+00 IRadAn=         5 IDoV=-2 UseB2=F ITyADJ=14
 ICtDFT= 12500011 ScaDFX=  1.000000  1.000000  1.000000  1.000000
 Defaulting to unpruned grid for atomic number  53.
 Range of M.O.s used for correlation:    11   174
 NBasis=   174 NAE=    26 NBE=    26 NFC=    10 NFV=     0
 NROrb=    164 NOA=    16 NOB=    16 NVA=   148 NVB=   148

 **** Warning!!: The largest alpha MO coefficient is  0.12146232D+02

 Fully direct method using O(ONN) memory.
 JobTyp=1 Pass  1:  I=  11 to  26 NPSUse= 28 ParTrn=T ParDer=T DoDerP=T.
 Spin components of T(2) and E(2):
     alpha-alpha T2 =       0.3115239856D-01 E2=     -0.9078501948D-01
     alpha-beta  T2 =       0.1654501614D+00 E2=     -0.4964401923D+00
     beta-beta   T2 =       0.3115239856D-01 E2=     -0.9078501948D-01
 ANorm=    0.1108041046D+01
 E2 =    -0.6780102313D+00 EUMP2 =    -0.83035103087733D+03
          IDoAtm=1111
          Differentiating once with respect to electric field.
                with respect to dipole field.
          Differentiating once with respect to nuclear coordinates.
 Keep R1 ints in memory in canonical form, NReq=173968831.
          There are     1 degrees of freedom in the 1st order CPHF.  IDoFFX=0 NUNeed=     1.
 LinEq1:  Iter=  0 NonCon=     1 RMS=2.84D-03 Max=4.27D-02 NDo=     1
 AX will form     1 AO Fock derivatives at one time.
 LinEq1:  Iter=  1 NonCon=     1 RMS=4.44D-04 Max=4.02D-03 NDo=     1
 LinEq1:  Iter=  2 NonCon=     1 RMS=2.04D-04 Max=2.65D-03 NDo=     1
 LinEq1:  Iter=  3 NonCon=     1 RMS=6.06D-05 Max=6.75D-04 NDo=     1
 LinEq1:  Iter=  4 NonCon=     1 RMS=2.80D-05 Max=5.59D-04 NDo=     1
 LinEq1:  Iter=  5 NonCon=     1 RMS=1.01D-05 Max=1.83D-04 NDo=     1
 LinEq1:  Iter=  6 NonCon=     1 RMS=3.12D-06 Max=5.35D-05 NDo=     1
 LinEq1:  Iter=  7 NonCon=     1 RMS=8.46D-07 Max=9.23D-06 NDo=     1
 LinEq1:  Iter=  8 NonCon=     1 RMS=2.07D-07 Max=2.75D-06 NDo=     1
 LinEq1:  Iter=  9 NonCon=     1 RMS=7.06D-08 Max=1.27D-06 NDo=     1
 LinEq1:  Iter= 10 NonCon=     1 RMS=1.85D-08 Max=3.09D-07 NDo=     1
 LinEq1:  Iter= 11 NonCon=     1 RMS=4.41D-09 Max=5.83D-08 NDo=     1
 LinEq1:  Iter= 12 NonCon=     1 RMS=1.36D-09 Max=1.43D-08 NDo=     1
 LinEq1:  Iter= 13 NonCon=     1 RMS=4.04D-10 Max=5.30D-09 NDo=     1
 LinEq1:  Iter= 14 NonCon=     0 RMS=7.36D-11 Max=9.91D-10 NDo=     1
 Linear equations converged to 1.000D-10 1.000D-09 after    14 iterations.
 End of Minotr F.D. properties file   721 does not exist.
 End of Minotr F.D. properties file   722 does not exist.
 End of Minotr F.D. properties file   788 does not exist.
   1 Symmetry operations used in ECPInt.
 ECPInt:  NShTT=    1596 NPrTT=   10643 LenC2=    1597 LenP2D=    8412.
 LDataN:  DoStor=T MaxTD1= 8 Len=  415
 Calling FoFJK, ICntrl=  10002127 FMM=F ISym2X=0 I1Cent= 0 IOpClX= 0 NMat=1 NMatS=1 NMatT=0.
 ***** Axes restored to original set *****
 -------------------------------------------------------------------
 Center     Atomic                   Forces (Hartrees/Bohr)
 Number     Number              X              Y              Z
 -------------------------------------------------------------------
      1        8           0.003591153    0.007473820    0.009160719
      2       17           0.007081917    0.003540566   -0.003416662
      3       53          -0.000648778   -0.001089732    0.004193947
      4        1          -0.010024292   -0.009924654   -0.009938005
 -------------------------------------------------------------------
 Cartesian Forces:  Max     0.010024292 RMS     0.006732896
 -----------------------------------------------------------------------------------------------
                       Internal Coordinate Forces (Hartree/Bohr or radian)
  Cent   Atom   N1       Length/X         N2         Alpha/Y        N3         Beta/Z          J
 -----------------------------------------------------------------------------------------------
      1  O 
         X        1   0.000000(     1)
      2  Cl       1   0.007082(     2)      2   0.010889(     5)
      3  I        1   0.001209(     3)      2  -0.026251(     6)      3   0.002390(     8)     0
      4  H        1   0.000073(     4)      2   0.028746(     7)      3   0.008894(     9)     0
 -----------------------------------------------------------------------------------------------
 Internal  Forces:  Max     0.028746245 RMS     0.014025716

 GradGradGradGradGradGradGradGradGradGradGradGradGradGradGradGradGradGrad
 Berny optimization.
 Search for a local minimum.
 Step number   2 out of a maximum of   20 on scan point    11 out of    11
 All quantities printed in internal units (Hartrees-Bohrs-Radians)
 Update second derivatives using D2CorN and points    1    2
 DE= -5.78D-06 DEPred=-5.95D-06 R= 9.72D-01
 TightC=F SS=  1.41D+00  RLast= 5.16D-03 DXNew= 5.0454D-01 1.5484D-02
 Trust test= 9.72D-01 RLast= 5.16D-03 DXMaxT set to 3.00D-01
 The second derivative matrix:
                          r1        r2        r3        a1        OOP
           r1           0.37563
           r2           0.00000   0.01776
           r3          -0.00755   0.00440   0.46074
           a1           0.00000  -0.00000   0.00434   0.41000
           OOP          0.00000   0.00000  -0.02829  -0.00000   0.17526
 ITU=  1  0
     Eigenvalues ---    0.460741000.000001000.000001000.000001000.00000
 RFO step:  Lambda= 0.00000000D+00 EMin= 4.60743652D-01
 Quartic linear search produced a step of -0.03043.
 Variable       Old X    -DE/DX   Delta X   Delta X   Delta X     New X
                                 (Linear)    (Quad)   (Total)
    r1        3.18706   0.00708   0.00000   0.00000   0.00000   3.18706
    r2        6.25934   0.00121   0.00000   0.00000   0.00000   6.25934
    r3        1.84888   0.00007   0.00016  -0.00000   0.00016   1.84904
    a1        1.80197   0.01128   0.00000   0.00000   0.00000   1.80197
   OOP        0.69813   0.02875   0.00000   0.00000   0.00000   0.69813
         Item               Value     Threshold  Converged?
 Maximum Force            0.000073     0.000450     YES
 RMS     Force            0.000073     0.000300     YES
 Maximum Displacement     0.000157     0.001800     YES
 RMS     Displacement     0.000070     0.001200     YES
 Predicted change in Energy=-5.802588D-09
 Optimization completed.
    -- Stationary point found.
                       ----------------------------
                       !   Optimized Parameters   !
                       ! (Angstroms and Degrees)  !
 ----------------------                            ----------------------
 !      Name          Value   Derivative information (Atomic Units)     !
 ------------------------------------------------------------------------
 !       r1          1.6865   -DE/DX =    0.0071                        !
 !       r2          3.3123   -DE/DX =    0.0012                        !
 !       r3          0.9784   -DE/DX =    0.0001                        !
 !       a1        103.2454   -DE/DX =    0.0113                        !
 !       OOP        40.0      -DE/DX =    0.0287                        !
 ------------------------------------------------------------------------
 Summary of Optimized Potential Surface Scan (add -830.0 to energies):
                           1         2         3         4         5
     Eigenvalues --    -0.36845  -0.36820  -0.36748  -0.36633  -0.36479
           r1           1.68652   1.68652   1.68652   1.68652   1.68652
           r2           3.31230   3.31230   3.31230   3.31230   3.31230
           r3           1.00805   1.00762   1.00574   1.00301   0.99958
           a1         103.24537 103.24537 103.24537 103.24537 103.24537
           OOP         90.00000  85.00000  80.00000  75.00000  70.00000
                           6         7         8         9        10
     Eigenvalues --    -0.36292  -0.36079  -0.35848  -0.35604  -0.35354
           r1           1.68652   1.68652   1.68652   1.68652   1.68652
           r2           3.31230   3.31230   3.31230   3.31230   3.31230
           r3           0.99573   0.99175   0.98788   0.98430   0.98112
           a1         103.24537 103.24537 103.24537 103.24537 103.24537
           OOP         65.00000  60.00000  55.00000  50.00000  45.00000
                          11
     Eigenvalues --    -0.35103
           r1           1.68652
           r2           3.31230
           r3           0.97838
           a1         103.24537
           OOP         40.00000
 GradGradGradGradGradGradGradGradGradGradGradGradGradGradGradGradGradGrad

 ---------------------------------------------------------------------------------------------------
                            Z-MATRIX (ANGSTROMS AND DEGREES)
   CD    Cent   Atom    N1       Length/X        N2       Alpha/Y        N3        Beta/Z          J
 ---------------------------------------------------------------------------------------------------
      1      1  O 
      2         X        1  10.000000(     1)
      3      2  Cl       1   1.686522(     2)      2   90.000(     5)
      4      3  I        1   3.312298(     3)      2   90.000(     6)      3  103.245(     8)      0
      5      4  H        1   0.978384(     4)      2   40.000(     7)      3  103.245(     9)      0
 ---------------------------------------------------------------------------------------------------
                         Z-Matrix orientation:                         
 ---------------------------------------------------------------------
 Center     Atomic      Atomic             Coordinates (Angstroms)
 Number     Number       Type             X           Y           Z
 ---------------------------------------------------------------------
      1          8           0        0.000000    0.000000    0.000000
      2         -1           0        0.000000    0.000000   10.000000
      3         17           0        1.686522    0.000000    0.000000
      4         53           0       -0.758920   -3.224184    0.000000
      5          1           0       -0.144093   -0.612163    0.749486
 ---------------------------------------------------------------------
                    Distance matrix (angstroms):
                    1          2          3          4          5
     1  O    0.000000
     2  X   10.000000   0.000000
     3  Cl   1.686522  10.141221   0.000000
     4  I    3.312298  10.534293   4.046671   0.000000
     5  H    0.978384   9.271867   2.070658   2.786107   0.000000
 Stoichiometry    ClHIO(1-)
 Framework group  C1[X(ClHIO)]
 Deg. of freedom     6
 Full point group                 C1      NOp   1
 Largest Abelian subgroup         C1      NOp   1
 Largest concise Abelian subgroup C1      NOp   1
                         Standard orientation:                         
 ---------------------------------------------------------------------
 Center     Atomic      Atomic             Coordinates (Angstroms)
 Number     Number       Type             X           Y           Z
 ---------------------------------------------------------------------
      1          8           0        1.919473    1.022155   -0.072399
      2         17           0        2.813015   -0.406328    0.000920
      3         53           0       -1.217057   -0.040197   -0.002373
      4          1           0        1.327004    0.860772    0.689291
 ---------------------------------------------------------------------
 Rotational constants (GHZ):          21.0869959           0.9668553           0.9263082

 **********************************************************************

            Population analysis using the MP2 Density.

 **********************************************************************

 Orbital symmetries:
       Occupied  (A) (A) (A) (A) (A) (A) (A) (A) (A) (A) (A) (A)
                 (A) (A) (A) (A) (A) (A) (A) (A) (A) (A) (A) (A)
                 (A) (A)
       Virtual   (A) (A) (A) (A) (A) (A) (A) (A) (A) (A) (A) (A)
                 (A) (A) (A) (A) (A) (A) (A) (A) (A) (A) (A) (A)
                 (A) (A) (A) (A) (A) (A) (A) (A) (A) (A) (A) (A)
                 (A) (A) (A) (A) (A) (A) (A) (A) (A) (A) (A) (A)
                 (A) (A) (A) (A) (A) (A) (A) (A) (A) (A) (A) (A)
                 (A) (A) (A) (A) (A) (A) (A) (A) (A) (A) (A) (A)
                 (A) (A) (A) (A) (A) (A) (A) (A) (A) (A) (A) (A)
                 (A) (A) (A) (A) (A) (A) (A) (A) (A) (A) (A) (A)
                 (A) (A) (A) (A) (A) (A) (A) (A) (A) (A) (A) (A)
                 (A) (A) (A) (A) (A) (A) (A) (A) (A) (A) (A) (A)
                 (A) (A) (A) (A) (A) (A) (A) (A) (A) (A) (A) (A)
                 (A) (A) (A) (A) (A) (A) (A) (A) (A) (A) (A) (A)
                 (A) (A) (A) (A)
 The electronic state is 1-A.
 Alpha  occ. eigenvalues -- -104.75271 -20.49714 -10.47240  -7.93959  -7.93680
 Alpha  occ. eigenvalues --   -7.93663  -7.46333  -5.28903  -5.28862  -5.28841
 Alpha  occ. eigenvalues --   -2.01646  -2.01635  -2.01615  -2.01567  -2.01564
 Alpha  occ. eigenvalues --   -1.26780  -0.91956  -0.62431  -0.57267  -0.47114
 Alpha  occ. eigenvalues --   -0.46193  -0.33105  -0.30478  -0.14285  -0.13882
 Alpha  occ. eigenvalues --   -0.13745
 Alpha virt. eigenvalues --    0.14392   0.17038   0.21363   0.22271   0.24326
 Alpha virt. eigenvalues --    0.25280   0.25537   0.26596   0.27008   0.29620
 Alpha virt. eigenvalues --    0.31029   0.31225   0.34017   0.37076   0.38268
 Alpha virt. eigenvalues --    0.38827   0.42111   0.43452   0.45693   0.48508
 Alpha virt. eigenvalues --    0.49426   0.52818   0.53630   0.56005   0.57021
 Alpha virt. eigenvalues --    0.57747   0.60312   0.63248   0.65977   0.73911
 Alpha virt. eigenvalues --    0.75022   0.78352   0.78845   0.79449   0.80056
 Alpha virt. eigenvalues --    0.80405   0.80456   0.81865   0.82461   0.84615
 Alpha virt. eigenvalues --    0.87755   0.88082   0.88470   0.89651   0.90313
 Alpha virt. eigenvalues --    0.91609   0.93900   0.94456   0.96891   0.99644
 Alpha virt. eigenvalues --    1.00741   1.04640   1.05073   1.09056   1.10010
 Alpha virt. eigenvalues --    1.12470   1.13324   1.19047   1.22039   1.23335
 Alpha virt. eigenvalues --    1.24226   1.28225   1.33174   1.34871   1.39048
 Alpha virt. eigenvalues --    1.42784   1.47595   1.51139   1.53939   1.60124
 Alpha virt. eigenvalues --    1.62103   1.66233   1.68510   1.72124   1.75806
 Alpha virt. eigenvalues --    1.75830   1.77947   1.78724   1.80678   1.83731
 Alpha virt. eigenvalues --    1.84110   1.87068   1.88945   1.95276   2.05521
 Alpha virt. eigenvalues --    2.06390   2.08002   2.10864   2.11888   2.26066
 Alpha virt. eigenvalues --    2.33585   2.40398   2.46919   2.48378   2.51386
 Alpha virt. eigenvalues --    2.57048   2.59670   2.62345   2.66393   2.68731
 Alpha virt. eigenvalues --    2.69048   2.71485   2.75003   2.77902   2.81530
 Alpha virt. eigenvalues --    2.90410   2.97793   3.08876   3.16445   3.18508
 Alpha virt. eigenvalues --    3.19352   3.20128   3.22099   3.22862   3.28032
 Alpha virt. eigenvalues --    3.31748   3.46221   3.52389   3.53464   3.74268
 Alpha virt. eigenvalues --    3.89271   3.93773   4.32749   4.40164   4.50309
 Alpha virt. eigenvalues --    4.53598   4.70955   4.88574   4.98540   5.35334
 Alpha virt. eigenvalues --    5.43378   5.66907   6.34748   6.60540   6.82299
 Alpha virt. eigenvalues --    6.88426   6.89581   6.94390   7.31606   7.34679
 Alpha virt. eigenvalues --    7.35902   7.43657   7.44803   7.65147   7.68538
 Alpha virt. eigenvalues --    8.37811  14.63053  59.20075
          Condensed to atoms (all electrons):
               1          2          3          4
     1  O    8.487429  -0.122126  -0.069788   0.078598
     2  Cl  -0.122126  17.040940   0.002711  -0.000783
     3  I   -0.069788   0.002711  25.935857   0.060650
     4  H    0.078598  -0.000783   0.060650   0.637249
 Mulliken charges:
               1
     1  O   -0.374114
     2  Cl   0.079258
     3  I   -0.929430
     4  H    0.224286
 Sum of Mulliken charges =  -1.00000
 Mulliken charges with hydrogens summed into heavy atoms:
               1
     1  O   -0.149828
     2  Cl   0.079258
     3  I   -0.929430
 Electronic spatial extent (au):  <R**2>=            897.4380
 Charge=             -1.0000 electrons
 Dipole moment (field-independent basis, Debye):
    X=              3.4351    Y=             -0.1734    Z=              0.6968  Tot=              3.5093
 Quadrupole moment (field-independent basis, Debye-Ang):
   XX=            -67.0443   YY=            -53.4961   ZZ=            -52.6439
   XY=             -2.0729   XZ=              1.3503   YZ=              0.9811
 Traceless Quadrupole moment (field-independent basis, Debye-Ang):
   XX=             -9.3162   YY=              4.2320   ZZ=              5.0842
   XY=             -2.0729   XZ=              1.3503   YZ=              0.9811
 Octapole moment (field-independent basis, Debye-Ang**2):
  XXX=            -35.1413  YYY=             -1.7402  ZZZ=             -0.8210  XYY=             -7.4070
  XXY=             -6.7927  XXZ=             -0.8062  XZZ=             -6.7476  YZZ=              1.3218
  YYZ=              0.3700  XYZ=              1.0043
 Hexadecapole moment (field-independent basis, Debye-Ang**3):
 XXXX=          -1218.8491 YYYY=           -141.0241 ZZZZ=            -92.2863 XXXY=            -18.9279
 XXXZ=             -1.5471 YYYX=             -4.7912 YYYZ=              0.4202 ZZZX=              1.2748
 ZZZY=              0.5667 XXYY=           -212.1435 XXZZ=           -208.0983 YYZZ=            -38.6757
 XXYZ=              0.7081 YYXZ=              1.1281 ZZXY=              3.4776
 N-N= 1.436212194359D+02 E-N=-2.195169825108D+03  KE= 6.460468634439D+02
 1\1\GINC-N2174\Scan\RMP2-FC\Gen\Cl1H1I1O1(1-)\CGAVINH\27-Sep-2021\1\\#
  opt=(z-matrix) mp2/gen Pseudo=read density=current\\title\\-1,1\O\X,1
 ,10.\Cl,1,r1,2,90.\I,1,r2,2,90.,3,a1,0\H,1,r3,2,OOP,3,a1,0\\r1=1.68652
 174,s,-1000,0.\r2=3.31229841,s,-1000,0.\r3=0.97838408\a1=103.24536914,
 s,-1000,0.\OOP=40.,s,10,-5.\\Version=ES64L-G16RevB.01\State=1-A\HF=-82
 9.6855841,-829.6854349,-829.6850271,-829.684332,-829.6833598,-829.6821
 244,-829.6806488,-829.6789644,-829.6771078,-829.6751156,-829.6730206\M
 P2=-830.3684462,-830.3682015,-830.3674828,-830.3663275,-830.3647861,-8
 30.3629185,-830.3607925,-830.3584784,-830.356043,-830.3535447,-830.351
 0309\RMSD=8.494e-09,4.091e-09,5.012e-09,7.114e-09,8.969e-09,4.996e-09,
 5.248e-09,5.132e-09,4.756e-09,9.772e-09,8.743e-09\PG=C01 [X(Cl1H1I1O1)
 ]\\@


 The chemist is a guest at the physicist's table and
 frequently dines well.
                   -- Richard Bersohn
 Job cpu time:       0 days  3 hours 43 minutes  3.3 seconds.
 Elapsed time:       0 days  0 hours  9 minutes 57.5 seconds.
 File lengths (MBytes):  RWF=     20 Int=      0 D2E=      0 Chk=      8 Scr=      1
 Normal termination of Gaussian 16 at Mon Sep 27 17:30:15 2021.
