title                                                                   
SP        RMP2-FC                                                     Aug-CC-pVTZ         
Number of atoms                            I                4
Info1-9                                    I   N=           9
          40          13           0           0           0         110
           1           2           1
Full Title                                 C   N=           1
title       
Route                                      C   N=           5
#p pop=saveNBO SP NoSymm mp2/aug-cc-pvtz density=current    
Charge                                     I               -1
Multiplicity                               I                1
Number of electrons                        I               44
Number of alpha electrons                  I               22
Number of beta electrons                   I               22
Number of basis functions                  I              169
Number of independent functions            I              169
Number of point charges in /Mol/           I                0
Number of translation vectors              I                0
Atomic numbers                             I   N=           4
           8          17          17           1
Nuclear charges                            R   N=           4
  8.00000000E+00  1.70000000E+01  1.70000000E+01  1.00000000E+00
Current cartesian coordinates              R   N=          12
  0.00000000E+00  0.00000000E+00  0.00000000E+00  5.48904212E+00  0.00000000E+00
  0.00000000E+00 -7.43959853E-01  3.09168378E+00  0.00000000E+00  1.90484389E+00
  0.00000000E+00  3.35875371E-01
Number of symbols in /Mol/                 I                0
Force Field                                I                0
Atom Types                                 C   N=           4
                                                
Int Atom Types                             I   N=           4
           0           0           0           0
MM charges                                 R   N=           4
  0.00000000E+00  0.00000000E+00  0.00000000E+00  0.00000000E+00
Integer atomic weights                     I   N=           4
          16          35          35           1
Real atomic weights                        R   N=           4
  1.59949146E+01  3.49688527E+01  3.49688527E+01  1.00782504E+00
Atom fragment info                         I   N=           4
           0           0           0           0
Atom residue num                           I   N=           4
           0           0           0           0
Nuclear spins                              I   N=           4
           0           3           3           1
Nuclear ZEff                               R   N=           4
 -5.60000000E+00 -1.42400000E+01 -1.42400000E+01 -1.00000000E+00
Nuclear ZNuc                               R   N=           4
  8.00000000E+00  1.70000000E+01  1.70000000E+01  1.00000000E+00
Nuclear QMom                               R   N=           4
  0.00000000E+00 -8.16500000E+00 -8.16500000E+00  0.00000000E+00
Nuclear GFac                               R   N=           4
  0.00000000E+00  8.21874000E-01  8.21874000E-01  2.79284600E+00
MicOpt                                     I   N=           4
          -1          -1          -1          -1
Number of residues                         I                0
Number of secondary structures             I                0
Number of contracted shells                I               55
Number of primitive shells                 I              140
Pure/Cartesian d shells                    I                0
Pure/Cartesian f shells                    I                0
Highest angular momentum                   I                3
Largest degree of contraction              I               11
Shell types                                I   N=          55
           0           0           0           0           0           1
           1           1           1          -2          -2          -2
          -3          -3           0           0           0           0
           0           0           1           1           1           1
           1          -2          -2          -2          -3          -3
           0           0           0           0           0           0
           1           1           1           1           1          -2
          -2          -2          -3          -3           0           0
           0           0           1           1           1          -2
          -2
Number of primitives per shell             I   N=          55
           7           6           1           1           1           3
           1           1           1           1           1           1
           1           1          11           9           8           1
           1           1           6           6           1           1
           1           1           1           1           1           1
          11           9           8           1           1           1
           6           6           1           1           1           1
           1           1           1           1           3           1
           1           1           1           1           1           1
           1
Shell to atom map                          I   N=          55
           1           1           1           1           1           1
           1           1           1           1           1           1
           1           1           2           2           2           2
           2           2           2           2           2           2
           2           2           2           2           2           2
           3           3           3           3           3           3
           3           3           3           3           3           3
           3           3           3           3           4           4
           4           4           4           4           4           4
           4
Primitive exponents                        R   N=         140
  1.53300000E+04  2.29900000E+03  5.22400000E+02  1.47300000E+02  4.75500000E+01
  1.67600000E+01  6.20700000E+00  5.22400000E+02  1.47300000E+02  4.75500000E+01
  1.67600000E+01  6.20700000E+00  6.88200000E-01  1.75200000E+00  2.38400000E-01
  7.37600000E-02  3.44600000E+01  7.74900000E+00  2.28000000E+00  7.15600000E-01
  2.14000000E-01  5.97400000E-02  2.31400000E+00  6.45000000E-01  2.14000000E-01
  1.42800000E+00  5.00000000E-01  4.56100000E+05  6.83300000E+04  1.55500000E+04
  4.40500000E+03  1.43900000E+03  5.20400000E+02  2.03100000E+02  8.39600000E+01
  3.62000000E+01  1.58300000E+01  6.33400000E+00  4.40500000E+03  1.43900000E+03
  5.20400000E+02  2.03100000E+02  8.39600000E+01  3.62000000E+01  1.58300000E+01
  6.33400000E+00  2.69400000E+00  1.43900000E+03  2.03100000E+02  8.39600000E+01
  3.62000000E+01  1.58300000E+01  6.33400000E+00  2.69400000E+00  4.31300000E-01
  9.76800000E-01  1.62500000E-01  5.91000000E-02  6.63300000E+02  1.56800000E+02
  4.99800000E+01  1.84200000E+01  7.24000000E+00  2.92200000E+00  1.56800000E+02
  4.99800000E+01  1.84200000E+01  7.24000000E+00  2.92200000E+00  3.81800000E-01
  1.02200000E+00  1.30100000E-01  4.19000000E-02  1.04600000E+00  3.44000000E-01
  1.35000000E-01  7.06000000E-01  3.12000000E-01  4.56100000E+05  6.83300000E+04
  1.55500000E+04  4.40500000E+03  1.43900000E+03  5.20400000E+02  2.03100000E+02
  8.39600000E+01  3.62000000E+01  1.58300000E+01  6.33400000E+00  4.40500000E+03
  1.43900000E+03  5.20400000E+02  2.03100000E+02  8.39600000E+01  3.62000000E+01
  1.58300000E+01  6.33400000E+00  2.69400000E+00  1.43900000E+03  2.03100000E+02
  8.39600000E+01  3.62000000E+01  1.58300000E+01  6.33400000E+00  2.69400000E+00
  4.31300000E-01  9.76800000E-01  1.62500000E-01  5.91000000E-02  6.63300000E+02
  1.56800000E+02  4.99800000E+01  1.84200000E+01  7.24000000E+00  2.92200000E+00
  1.56800000E+02  4.99800000E+01  1.84200000E+01  7.24000000E+00  2.92200000E+00
  3.81800000E-01  1.02200000E+00  1.30100000E-01  4.19000000E-02  1.04600000E+00
  3.44000000E-01  1.35000000E-01  7.06000000E-01  3.12000000E-01  3.38700000E+01
  5.09500000E+00  1.15900000E+00  3.25800000E-01  1.02700000E-01  2.52600000E-02
  1.40700000E+00  3.88000000E-01  1.02000000E-01  1.05700000E+00  2.47000000E-01
Contraction coefficients                   R   N=         140
  5.19808943E-04  4.02025621E-03  2.07128267E-02  8.10105536E-02  2.35962985E-01
  4.42653446E-01  3.57064423E-01 -4.42115008E-05 -1.22591041E-03 -1.05517725E-02
 -6.74452633E-02 -1.71198607E-01  1.07329856E+00  1.00000000E+00  1.00000000E+00
  1.00000000E+00  4.11634896E-02  2.57762836E-01  8.02419274E-01  1.00000000E+00
  1.00000000E+00  1.00000000E+00  1.00000000E+00  1.00000000E+00  1.00000000E+00
  1.00000000E+00  1.00000000E+00  4.93229477E-05  3.83207967E-04  2.00947816E-03
  8.38950124E-03  2.94843950E-02  8.78759948E-02  2.11589759E-01  3.65611554E-01
  3.41246350E-01  1.02162570E-01  2.14249949E-03 -2.21747925E-06 -1.71189708E-04
 -1.27922846E-03 -9.32956265E-03 -3.98910062E-02 -1.05536085E-01  9.36202446E-03
  5.10511140E-01  5.73150737E-01  4.03949245E-06  2.12481765E-04  8.59484452E-04
  4.63248159E-03  4.47343490E-04 -7.38438245E-02 -3.62271994E-01  1.16620337E+00
  1.00000000E+00  1.00000000E+00  1.00000000E+00  2.47206402E-03  1.97550234E-02
  9.09917355E-02  2.63187834E-01  4.49078073E-01  3.60183072E-01  3.03427809E-05
 -1.22475826E-03 -6.01429772E-03 -2.76401323E-02  4.35105612E-04  1.00307272E+00
  1.00000000E+00  1.00000000E+00  1.00000000E+00  1.00000000E+00  1.00000000E+00
  1.00000000E+00  1.00000000E+00  1.00000000E+00  4.93229477E-05  3.83207967E-04
  2.00947816E-03  8.38950124E-03  2.94843950E-02  8.78759948E-02  2.11589759E-01
  3.65611554E-01  3.41246350E-01  1.02162570E-01  2.14249949E-03 -2.21747925E-06
 -1.71189708E-04 -1.27922846E-03 -9.32956265E-03 -3.98910062E-02 -1.05536085E-01
  9.36202446E-03  5.10511140E-01  5.73150737E-01  4.03949245E-06  2.12481765E-04
  8.59484452E-04  4.63248159E-03  4.47343490E-04 -7.38438245E-02 -3.62271994E-01
  1.16620337E+00  1.00000000E+00  1.00000000E+00  1.00000000E+00  2.47206402E-03
  1.97550234E-02  9.09917355E-02  2.63187834E-01  4.49078073E-01  3.60183072E-01
  3.03427809E-05 -1.22475826E-03 -6.01429772E-03 -2.76401323E-02  4.35105612E-04
  1.00307272E+00  1.00000000E+00  1.00000000E+00  1.00000000E+00  1.00000000E+00
  1.00000000E+00  1.00000000E+00  1.00000000E+00  1.00000000E+00  2.54948632E-02
  1.90362766E-01  8.52162022E-01  1.00000000E+00  1.00000000E+00  1.00000000E+00
  1.00000000E+00  1.00000000E+00  1.00000000E+00  1.00000000E+00  1.00000000E+00
Coordinates of each shell                  R   N=         165
  0.00000000E+00  0.00000000E+00  0.00000000E+00  0.00000000E+00  0.00000000E+00
  0.00000000E+00  0.00000000E+00  0.00000000E+00  0.00000000E+00  0.00000000E+00
  0.00000000E+00  0.00000000E+00  0.00000000E+00  0.00000000E+00  0.00000000E+00
  0.00000000E+00  0.00000000E+00  0.00000000E+00  0.00000000E+00  0.00000000E+00
  0.00000000E+00  0.00000000E+00  0.00000000E+00  0.00000000E+00  0.00000000E+00
  0.00000000E+00  0.00000000E+00  0.00000000E+00  0.00000000E+00  0.00000000E+00
  0.00000000E+00  0.00000000E+00  0.00000000E+00  0.00000000E+00  0.00000000E+00
  0.00000000E+00  0.00000000E+00  0.00000000E+00  0.00000000E+00  0.00000000E+00
  0.00000000E+00  0.00000000E+00  5.48904212E+00  0.00000000E+00  0.00000000E+00
  5.48904212E+00  0.00000000E+00  0.00000000E+00  5.48904212E+00  0.00000000E+00
  0.00000000E+00  5.48904212E+00  0.00000000E+00  0.00000000E+00  5.48904212E+00
  0.00000000E+00  0.00000000E+00  5.48904212E+00  0.00000000E+00  0.00000000E+00
  5.48904212E+00  0.00000000E+00  0.00000000E+00  5.48904212E+00  0.00000000E+00
  0.00000000E+00  5.48904212E+00  0.00000000E+00  0.00000000E+00  5.48904212E+00
  0.00000000E+00  0.00000000E+00  5.48904212E+00  0.00000000E+00  0.00000000E+00
  5.48904212E+00  0.00000000E+00  0.00000000E+00  5.48904212E+00  0.00000000E+00
  0.00000000E+00  5.48904212E+00  0.00000000E+00  0.00000000E+00  5.48904212E+00
  0.00000000E+00  0.00000000E+00  5.48904212E+00  0.00000000E+00  0.00000000E+00
 -7.43959853E-01  3.09168378E+00  0.00000000E+00 -7.43959853E-01  3.09168378E+00
  0.00000000E+00 -7.43959853E-01  3.09168378E+00  0.00000000E+00 -7.43959853E-01
  3.09168378E+00  0.00000000E+00 -7.43959853E-01  3.09168378E+00  0.00000000E+00
 -7.43959853E-01  3.09168378E+00  0.00000000E+00 -7.43959853E-01  3.09168378E+00
  0.00000000E+00 -7.43959853E-01  3.09168378E+00  0.00000000E+00 -7.43959853E-01
  3.09168378E+00  0.00000000E+00 -7.43959853E-01  3.09168378E+00  0.00000000E+00
 -7.43959853E-01  3.09168378E+00  0.00000000E+00 -7.43959853E-01  3.09168378E+00
  0.00000000E+00 -7.43959853E-01  3.09168378E+00  0.00000000E+00 -7.43959853E-01
  3.09168378E+00  0.00000000E+00 -7.43959853E-01  3.09168378E+00  0.00000000E+00
 -7.43959853E-01  3.09168378E+00  0.00000000E+00  1.90484389E+00  0.00000000E+00
  3.35875371E-01  1.90484389E+00  0.00000000E+00  3.35875371E-01  1.90484389E+00
  0.00000000E+00  3.35875371E-01  1.90484389E+00  0.00000000E+00  3.35875371E-01
  1.90484389E+00  0.00000000E+00  3.35875371E-01  1.90484389E+00  0.00000000E+00
  3.35875371E-01  1.90484389E+00  0.00000000E+00  3.35875371E-01  1.90484389E+00
  0.00000000E+00  3.35875371E-01  1.90484389E+00  0.00000000E+00  3.35875371E-01
Num ILSW                                   I              100
ILSW                                       I   N=         100
           0           0           0           0           2           0
           0           0           0           0           0          -1
           5           0           0           0           0           0
           0           0           0           0           0           0
           1           1           0           0           0           0
           0           0      100000           0          -1           0
           0           0           0           0           0           0
           0           0           0           1           0           0
           0 -2000000000           1           0           0           0
           0           0           4          52           0           0
           0           0           0           0           0           0
           0           0           0           4           0           1
           0           0           0           0           0           0
           0           0           0           0           0           0
           0           0           0           0           0           0
           0           0           0           0           0           0
           0           0           0           0
Num RLSW                                   I               52
RLSW                                       R   N=          52
  1.00000000E+00  1.00000000E+00  1.00000000E+00  1.00000000E+00  1.00000000E+00
  0.00000000E+00  0.00000000E+00  1.00000000E+00  0.00000000E+00  0.00000000E+00
  0.00000000E+00  0.00000000E+00  1.00000000E+00  0.00000000E+00  0.00000000E+00
  0.00000000E+00  0.00000000E+00  1.00000000E+00  0.00000000E+00  0.00000000E+00
  0.00000000E+00  0.00000000E+00  1.00000000E+00  0.00000000E+00  0.00000000E+00
  0.00000000E+00  0.00000000E+00  1.00000000E+00  0.00000000E+00  0.00000000E+00
  0.00000000E+00  0.00000000E+00  1.00000000E+00  0.00000000E+00  0.00000000E+00
  0.00000000E+00  0.00000000E+00  0.00000000E+00  1.00000000E+00  1.00000000E+00
  0.00000000E+00  1.00000000E+00  0.00000000E+00  0.00000000E+00  0.00000000E+00
  0.00000000E+00  0.00000000E+00  0.00000000E+00  0.00000000E+00  0.00000000E+00
  0.00000000E+00  0.00000000E+00
MxBond                                     I                2
NBond                                      I   N=           4
           2           0           1           1
IBond                                      I   N=           8
           3           4           0           0           1           0
           1           0
RBond                                      R   N=           8
  1.00000000E+00  1.00000000E+00  0.00000000E+00  0.00000000E+00  1.00000000E+00
  0.00000000E+00  1.00000000E+00  0.00000000E+00
Virial Ratio                               R      2.000158649914538E+00
SCF Energy                                 R     -9.945227832313576E+02
MP2 Energy                                 R     -9.951906413184927E+02
Total Energy                               R     -9.951906413184927E+02
Post-SCF wavefunction norm                 R      1.103826782950786E+00
RMS Density                                R      3.860148173764286E-09
Job Status                                 I                1
Nuclear derivative order                   I                0
External E-field                           R   N=          35
  0.00000000E+00  0.00000000E+00  0.00000000E+00  0.00000000E+00  0.00000000E+00
  0.00000000E+00  0.00000000E+00  0.00000000E+00  0.00000000E+00  0.00000000E+00
  0.00000000E+00  0.00000000E+00  0.00000000E+00  0.00000000E+00  0.00000000E+00
  0.00000000E+00  0.00000000E+00  0.00000000E+00  0.00000000E+00  0.00000000E+00
  0.00000000E+00  0.00000000E+00  0.00000000E+00  0.00000000E+00  0.00000000E+00
  0.00000000E+00  0.00000000E+00  0.00000000E+00  0.00000000E+00  0.00000000E+00
  0.00000000E+00  0.00000000E+00  0.00000000E+00  0.00000000E+00  0.00000000E+00
IOpCl                                      I                0
IROHF                                      I                0
Alpha Orbital Energies                     R   N=         169
  1.99969064E+00  1.99979021E+00  1.99995070E+00  1.99996292E+00  2.00000030E+00
  2.00000038E+00  2.00002064E+00  2.00002560E+00  2.00002754E+00  2.00002760E+00
  2.00002985E+00  1.83501913E+00  1.93950030E+00  1.95205718E+00  1.95217777E+00
  1.95250367E+00  1.95479860E+00  1.95599179E+00  1.96406751E+00  1.96624543E+00
  1.97403484E+00  1.97698575E+00  5.76581129E-02  1.36978823E-01 -1.33653959E-05
 -2.26147649E-06  1.33223230E-05  2.27291226E-05  2.44402799E-05  3.03317756E-05
  3.31573441E-05  3.57666778E-05  3.80685663E-05  3.85870539E-05  3.98988146E-05
  4.77478819E-05  5.15741230E-05  5.17425186E-05  5.30422261E-05  5.38515539E-05
  5.85674519E-05  6.41103682E-05  6.51392704E-05  6.84653126E-05  6.98653373E-05
  7.03389311E-05  7.75204725E-05  8.14772226E-05  8.33185202E-05  8.36219186E-05
  8.39971515E-05  8.49489986E-05  8.80722400E-05  8.81468583E-05  9.32140242E-05
  9.46290311E-05  1.01064474E-04  1.01270890E-04  1.02432602E-04  1.03039698E-04
  1.06484191E-04  1.09559652E-04  1.19545705E-04  1.20782105E-04  1.21397443E-04
  1.24273824E-04  1.24291709E-04  1.24613233E-04  1.25152095E-04  1.27627532E-04
  1.27984087E-04  1.40171503E-04  1.40522231E-04  1.43274910E-04  1.45219774E-04
  1.46295058E-04  1.46836057E-04  1.60685140E-04  1.62007017E-04  1.74055597E-04
  1.75410867E-04  1.78616429E-04  1.84553954E-04  2.03922279E-04  2.09426282E-04
  2.39430789E-04  2.43300684E-04  2.47479806E-04  2.99611244E-04  3.07159577E-04
  3.15494412E-04  3.28366168E-04  3.55718556E-04  3.56738496E-04  3.57378331E-04
  4.20841327E-04  4.31592259E-04  4.43473408E-04  4.46514302E-04  4.47688693E-04
  4.48441499E-04  4.71290031E-04  4.76187268E-04  4.76808972E-04  4.90685634E-04
  5.03222843E-04  5.09224590E-04  5.10641605E-04  5.22533970E-04  5.24936829E-04
  5.67338774E-04  5.96237354E-04  6.08132445E-04  6.38207054E-04  6.47150089E-04
  6.48200678E-04  6.76757274E-04  6.99321176E-04  7.47608079E-04  7.61074596E-04
  7.67641615E-04  7.71510247E-04  9.49557114E-04  9.61877623E-04  9.67474013E-04
  1.11226389E-03  1.16755499E-03  1.19517490E-03  1.19990702E-03  1.23381015E-03
  1.26519570E-03  1.26531382E-03  1.26540219E-03  1.26579362E-03  1.28449142E-03
  1.28460243E-03  1.29288904E-03  1.29399233E-03  1.69662702E-03  1.77667172E-03
  2.44134888E-03  3.54885949E-03  3.64135073E-03  4.91437005E-03  5.39012988E-03
  5.72744627E-03  6.19434771E-03  1.00000000E+03  1.00000000E+03  1.00000000E+03
  1.00000000E+03  1.00000000E+03  1.00000000E+03  1.00000000E+03  1.00000000E+03
  1.00000000E+03  1.00000000E+03  1.00000000E+03  1.00000000E+03  1.00000000E+03
  1.00000000E+03  1.00000000E+03  1.00000000E+03  1.00000000E+03  1.00000000E+03
  1.00000000E+03  1.00000000E+03  1.00000000E+03  1.00000000E+03
Alpha MO coefficients                      R   N=       28561
  9.91366669E-01 -5.23047307E-02  3.13702766E-02 -3.14254673E-02 -2.75368859E-02
  1.99994309E-03 -1.10960701E-04  3.59290644E-04  1.11961229E-03 -1.27300828E-04
  2.71361821E-04  4.15014780E-03  8.37615799E-05  8.79415111E-05 -3.62827298E-03
 -4.21356357E-03 -9.89471798E-04  9.31947369E-06  7.33975810E-06  1.30199943E-05
  8.89199466E-06  3.17041970E-05 -4.07295696E-04  4.32610359E-05 -2.84752951E-05
 -1.11436454E-04 -1.97044808E-04  1.99646506E-04 -2.22469874E-04  2.48374491E-04
  1.08655312E-03  1.16964740E-03  2.70097453E-05  5.89338004E-05  6.32481494E-06
 -1.95036550E-05 -6.85662464E-06 -5.95296029E-05 -3.00117413E-05  1.58969370E-06
 -1.26762224E-04  3.75988203E-05 -4.93768155E-05  3.12398045E-05  5.31386830E-06
  1.97249513E-04  1.50064309E-04 -7.36569741E-04  9.57314318E-04  3.62123811E-04
  1.67944415E-03  3.27800080E-03  8.98333237E-04  1.02686079E-05 -1.07013048E-04
 -1.52652719E-03 -9.06949231E-05  5.65891332E-05 -1.10998187E-03 -8.21047643E-06
  1.70502147E-04 -2.98262604E-03  2.74386043E-04  2.38162586E-04 -1.48481401E-03
  6.38063629E-05  8.72497555E-05 -5.81599389E-05 -2.64449636E-05  3.07388991E-06
  1.49314609E-04 -1.67779699E-05 -8.64034820E-05  1.18266693E-04 -1.07245062E-05
 -6.85372030E-05  2.98616300E-05  5.48916837E-05 -2.11961193E-05  1.80617387E-05
  2.68278831E-04 -1.93453279E-04 -1.44327321E-05  6.89941192E-05  7.39730641E-06
  1.68928601E-05  7.59583526E-06 -3.52569688E-05 -2.09458492E-05  6.35991246E-05
 -1.19527202E-04 -1.84378323E-05 -7.74590814E-05 -1.35677848E-05  5.21832456E-05
  5.87294278E-05  2.59540619E-05  4.64896770E-04  1.59312725E-03 -4.10133021E-05
  1.07852506E-03  1.01094389E-02  1.93298438E-04 -1.11201627E-03 -1.13209983E-05
 -3.20025811E-04  1.78740686E-03  7.42773975E-05 -6.41115271E-05  4.50961817E-04
 -8.60357762E-06 -4.33598410E-04 -1.40675780E-03 -3.39038188E-04  1.05285887E-03
 -2.75392079E-03  1.58876956E-04  2.35809290E-04 -1.46127786E-05  1.16757106E-05
  2.61976767E-04  2.13627133E-04 -8.29121215E-05  2.70651936E-05  3.59599758E-05
 -1.48867660E-05  1.22369820E-04 -8.03683826E-05 -1.52958225E-04  1.89175358E-04
 -7.95806610E-04  2.52045325E-04 -1.97156915E-06  6.30104950E-06  2.46331482E-05
 -1.77606064E-05 -1.56578335E-05 -6.64542590E-05 -2.37394230E-05  2.10235157E-05
 -3.73455509E-05  8.34028210E-05  4.63213122E-05  4.53792183E-05  8.89704204E-06
  2.32112767E-04 -3.84627308E-04 -1.43335076E-02  1.13956414E-02  1.89510576E-03
 -1.45305823E-04  2.75535582E-05 -4.65546721E-05 -1.31371649E-03 -4.21408608E-04
  1.13392136E-04 -7.47744381E-03 -3.29823016E-04 -1.41398042E-04 -1.42002032E-04
  4.56029624E-05 -3.39438549E-06  2.74487293E-04  2.99071535E-05 -9.31993655E-04
  2.34681822E-04  6.46686733E-05  1.21204199E-03  4.72133460E-05  8.42361379E-04
 -7.64580580E-04 -3.97676083E-05  2.11691002E-03  7.32730732E-03  2.00149744E-03
 -6.64278149E-03  7.44898052E-05  2.43500236E-03 -7.39883385E-03  1.08619819E-04
  4.68716194E-03 -1.09945438E-02  3.81354989E-04 -1.13850962E-03  3.56636401E-03
  2.73902745E-05  3.31623381E-05 -1.77201343E-06 -1.63054685E-06  3.55170996E-05
  2.01019753E-05  3.45914728E-05  5.60821401E-05  2.71284605E-05  3.73182006E-04
  2.25359846E-04 -1.89918597E-04  8.13899029E-05 -1.65361906E-05 -1.25811889E-04
 -1.40770850E-04 -2.99792335E-06 -6.09867534E-06 -8.80336959E-06 -1.80720635E-06
  1.08709050E-06 -6.85005617E-07  1.46035147E-06 -4.12312315E-06  1.12455645E-05
 -2.47250947E-05  2.29912563E-05 -4.94706501E-06  7.34349345E-05 -6.40364242E-05
  2.62524212E-05 -3.09735751E-05  3.27724266E-04 -7.91010258E-06 -4.32965676E-05
  3.15739446E-04 -4.72448988E-05 -4.02792019E-05 -2.12584850E-05 -2.71329084E-05
  1.40052994E-04  3.44681436E-05  1.94043403E-05  3.73800050E-05  3.16773700E-05
 -1.60304111E-05 -1.10639128E-04  5.98173340E-05 -4.66790106E-04  1.64511899E-04
 -4.82863711E-05 -3.30565597E-05  1.18123721E-05  1.82181761E-06  1.03727045E-05
 -4.23980721E-05  1.02743958E-04 -8.47266282E-06  1.91117423E-05  3.94431475E-05
  1.90400567E-05 -2.17109659E-04 -4.10996870E-05 -3.86843913E-05  5.88571962E-05
  2.29034863E-05  4.21528012E-06 -2.39180554E-05  3.32630907E-06 -8.58550020E-06
 -1.32723162E-05 -1.03094563E-05  2.73882008E-06 -1.55577262E-05  4.58800161E-05
 -2.88187647E-06  2.78007535E-05  2.84365959E-05  4.74803871E-06 -2.43375795E-05
 -1.26829286E-01  9.93345230E-01 -6.96520585E-02  7.03234211E-02 -3.30235092E-02
 -9.74263485E-03 -1.71773622E-04  7.70192392E-04  1.10450978E-06  1.18751370E-03
 -4.24919991E-03  2.14077211E-05  1.42821509E-04 -9.25841088E-04 -1.04722722E-05
 -5.11153855E-04  9.12444293E-04 -1.43088529E-05 -9.13738055E-04  2.13893346E-03
 -6.61551416E-05 -2.15300391E-04  2.17256880E-06  4.84463348E-06 -3.47518449E-04
 -1.54935090E-04 -3.38941252E-05  1.22306064E-05 -1.29720235E-05  9.55514847E-05
 -2.16440916E-05  9.92167535E-04 -4.72681996E-05  3.50415343E-05  1.00765644E-03
  9.47905460E-04 -7.37635723E-06 -4.27824345E-05  6.61225917E-05  5.14809502E-06
 -9.55140425E-06 -4.07205879E-05  2.18413830E-06  1.37920262E-05  1.51306998E-04
 -3.79322752E-04 -1.60881535E-05  2.05647841E-05  2.95124195E-04 -2.40870168E-04
  1.81147012E-04 -4.14516495E-03 -2.08061567E-03  1.79721623E-03 -1.56366343E-05
  2.64951531E-06 -3.77615610E-06  7.85172871E-04 -1.09722469E-04  1.25060103E-04
  7.78623597E-04  4.51411222E-04  6.50413987E-05  1.96748156E-05 -4.22112344E-06
 -8.30293905E-07 -8.37690672E-06 -1.78245361E-05  4.32834966E-05 -7.28867063E-05
 -8.73542853E-06 -3.58950711E-04  3.79954630E-05 -3.76349822E-04  1.80674871E-03
  5.58122686E-04  9.92067062E-04 -1.04914915E-03  1.52261428E-03 -1.51973508E-04
  1.81612120E-04  1.58389733E-03 -2.31540114E-04  2.43610328E-04  2.30099556E-03
  1.50991939E-04  1.42424928E-04 -2.73804792E-04  4.26080464E-05 -1.46380657E-04
 -3.49918575E-07  1.94260690E-06  3.04840061E-06  3.39388517E-06 -4.26400488E-06
  1.83049742E-05 -3.91491257E-05 -8.87287426E-06 -6.17542806E-05  1.24956620E-05
 -1.47013962E-04 -5.27515008E-05  4.11334610E-05  1.38127964E-05 -1.46052746E-04
  1.38153622E-06  4.65985184E-06  1.96146129E-06  1.96193874E-06  5.99217972E-08
 -1.69932256E-05  1.47469530E-06  5.01652471E-06 -3.35837120E-05 -1.53012257E-05
 -1.45265657E-05  9.71351211E-07  8.54451227E-05 -9.87659060E-06 -9.00119294E-02
  9.77975015E-01 -4.55817664E-02  7.40220391E-02 -1.94455369E-02 -1.06297631E-03
  3.77004100E-04  4.00364798E-06 -5.22162190E-05 -9.22801399E-04  3.66624124E-06
  1.03335201E-04 -4.19000631E-04 -6.42268337E-06  6.12920198E-05 -2.87993333E-03
 -4.09745857E-05  3.23940642E-04 -4.86702399E-04  3.92949313E-07  6.32045300E-05
  1.88464382E-05  1.11626338E-07  7.71047681E-08 -2.85676893E-05  1.95756047E-06
 -1.36430000E-04 -2.65649120E-05 -1.92454257E-07  2.27136508E-04 -3.38426922E-06
 -2.71675975E-04 -1.23525319E-04 -2.83973790E-06  4.95059135E-04  3.22661489E-05
  4.73937143E-06 -3.47479915E-06 -2.54214708E-06 -4.81819899E-06 -1.00374803E-06
  8.24450989E-06  4.50233826E-06 -2.82512684E-05  9.85389097E-05  5.80151619E-06
  3.40921750E-05  2.84752199E-06 -1.35329100E-04 -1.34270961E-05  4.98990722E-05
 -1.18381520E-04  5.38922581E-04  7.46578439E-05 -2.72560618E-04 -5.28188856E-05
 -1.28593367E-04  1.82304219E-04 -9.86095366E-06  2.98591176E-04 -4.30925881E-04
  4.04430555E-05  1.26296405E-04 -2.24094459E-04  4.54506466E-06  2.55972110E-04
  6.43712375E-05 -6.07042042E-05 -6.42257891E-05 -6.32994029E-06  2.12278172E-05
 -4.13859282E-06 -1.22229679E-07  2.89857415E-06  4.35825276E-06  7.73549016E-07
  3.60899252E-05  1.47794159E-06 -9.81223764E-06  5.11225937E-05 -1.24544130E-05
  2.16589448E-05 -1.26395757E-05  4.52396736E-05  1.48688358E-04  9.08663362E-06
 -3.81357087E-07  1.63805213E-06 -7.04513743E-06 -4.31366511E-06 -3.35478332E-06
 -5.48456595E-06 -3.19961195E-06  1.24350214E-06 -2.93464951E-06 -5.81328491E-06
  7.70472228E-06  5.45390057E-06  5.87734240E-07 -2.05184506E-05 -4.45982301E-04
 -6.04630849E-03 -4.26968562E-03  6.15689772E-04  9.33527903E-05  2.50002737E-06
 -9.55889064E-06 -7.90484622E-04 -5.98442411E-06  7.93310670E-05 -3.03314572E-03
  3.93253330E-05  1.91645388E-04 -3.08145624E-05  9.04775422E-07 -2.14590785E-07
  3.82067247E-05  6.20869612E-07  1.74572095E-04  8.21913520E-05 -2.80346115E-06
 -2.76044045E-04  3.49766356E-05 -1.24606344E-03  2.35123652E-03  6.60890655E-04
  1.18771514E-03 -3.03792965E-03 -1.61691660E-03  4.57045444E-03 -5.34931888E-05
 -1.89976069E-03  5.27459203E-03 -7.50346845E-05 -3.08331911E-03  7.59455405E-03
 -9.79612487E-05  7.32117037E-04 -1.35646181E-03  2.39871667E-05 -3.30960540E-06
  5.36629786E-07  7.80020224E-07 -3.75399522E-06  7.37972953E-06 -3.63099776E-05
 -1.60886195E-05 -8.69974181E-06 -1.52750312E-04 -1.36586291E-04 -4.25598536E-05
  1.12425345E-05  2.54726309E-06 -1.39167236E-04  5.19896748E-05  2.83638202E-06
  2.32300595E-06  1.11570909E-05 -6.80278473E-07 -1.36489380E-06 -1.55795374E-06
  2.79874337E-06 -5.55517171E-06  8.67449673E-06 -5.94206934E-05 -3.25699259E-06
  1.35872926E-06  1.55008643E-05 -4.44740708E-05 -1.96878912E-05  2.22789558E-05
 -2.55218883E-04 -6.89552198E-06 -5.59961767E-05 -2.84051921E-04 -2.94710577E-05
  4.14844723E-05  1.40596608E-05  1.20497334E-04 -5.29064930E-05 -3.94079484E-05
  4.75558838E-05 -5.40828658E-05 -1.58851734E-05  1.27585095E-04  1.77254787E-05
 -2.28673472E-05  1.82776850E-04  5.27563456E-05  1.12885227E-05  3.36095856E-06
 -4.99016024E-06  5.92970819E-07 -8.70596828E-06  1.61407603E-06 -9.24537139E-06
  1.23483849E-05 -7.33484243E-06 -9.81406650E-06  4.22395910E-07  1.29521662E-05
 -3.22205154E-06  2.47062715E-05  1.43347529E-06 -8.03971456E-05  8.48819443E-07