title                                                                   
SP        RMP2-FC                                                     Aug-CC-pVTZ         
Number of atoms                            I                4
Info1-9                                    I   N=           9
          40          13           0           0           0         110
           1           2           1
Full Title                                 C   N=           1
title       
Route                                      C   N=           5
#p pop=saveNBO SP NoSymm mp2/aug-cc-pvtz density=current    
Charge                                     I               -1
Multiplicity                               I                1
Number of electrons                        I               44
Number of alpha electrons                  I               22
Number of beta electrons                   I               22
Number of basis functions                  I              169
Number of independent functions            I              169
Number of point charges in /Mol/           I                0
Number of translation vectors              I                0
Atomic numbers                             I   N=           4
           8          17          17           1
Nuclear charges                            R   N=           4
  8.00000000E+00  1.70000000E+01  1.70000000E+01  1.00000000E+00
Current cartesian coordinates              R   N=          12
  0.00000000E+00  0.00000000E+00  0.00000000E+00  5.48904212E+00  0.00000000E+00
  0.00000000E+00 -7.43959853E-01  3.09168378E+00  0.00000000E+00  1.79628950E+00
  0.00000000E+00  6.53795910E-01
Number of symbols in /Mol/                 I                0
Force Field                                I                0
Atom Types                                 C   N=           4
                                                
Int Atom Types                             I   N=           4
           0           0           0           0
MM charges                                 R   N=           4
  0.00000000E+00  0.00000000E+00  0.00000000E+00  0.00000000E+00
Integer atomic weights                     I   N=           4
          16          35          35           1
Real atomic weights                        R   N=           4
  1.59949146E+01  3.49688527E+01  3.49688527E+01  1.00782504E+00
Atom fragment info                         I   N=           4
           0           0           0           0
Atom residue num                           I   N=           4
           0           0           0           0
Nuclear spins                              I   N=           4
           0           3           3           1
Nuclear ZEff                               R   N=           4
 -5.60000000E+00 -1.42400000E+01 -1.42400000E+01 -1.00000000E+00
Nuclear ZNuc                               R   N=           4
  8.00000000E+00  1.70000000E+01  1.70000000E+01  1.00000000E+00
Nuclear QMom                               R   N=           4
  0.00000000E+00 -8.16500000E+00 -8.16500000E+00  0.00000000E+00
Nuclear GFac                               R   N=           4
  0.00000000E+00  8.21874000E-01  8.21874000E-01  2.79284600E+00
MicOpt                                     I   N=           4
          -1          -1          -1          -1
Number of residues                         I                0
Number of secondary structures             I                0
Number of contracted shells                I               55
Number of primitive shells                 I              140
Pure/Cartesian d shells                    I                0
Pure/Cartesian f shells                    I                0
Highest angular momentum                   I                3
Largest degree of contraction              I               11
Shell types                                I   N=          55
           0           0           0           0           0           1
           1           1           1          -2          -2          -2
          -3          -3           0           0           0           0
           0           0           1           1           1           1
           1          -2          -2          -2          -3          -3
           0           0           0           0           0           0
           1           1           1           1           1          -2
          -2          -2          -3          -3           0           0
           0           0           1           1           1          -2
          -2
Number of primitives per shell             I   N=          55
           7           6           1           1           1           3
           1           1           1           1           1           1
           1           1          11           9           8           1
           1           1           6           6           1           1
           1           1           1           1           1           1
          11           9           8           1           1           1
           6           6           1           1           1           1
           1           1           1           1           3           1
           1           1           1           1           1           1
           1
Shell to atom map                          I   N=          55
           1           1           1           1           1           1
           1           1           1           1           1           1
           1           1           2           2           2           2
           2           2           2           2           2           2
           2           2           2           2           2           2
           3           3           3           3           3           3
           3           3           3           3           3           3
           3           3           3           3           4           4
           4           4           4           4           4           4
           4
Primitive exponents                        R   N=         140
  1.53300000E+04  2.29900000E+03  5.22400000E+02  1.47300000E+02  4.75500000E+01
  1.67600000E+01  6.20700000E+00  5.22400000E+02  1.47300000E+02  4.75500000E+01
  1.67600000E+01  6.20700000E+00  6.88200000E-01  1.75200000E+00  2.38400000E-01
  7.37600000E-02  3.44600000E+01  7.74900000E+00  2.28000000E+00  7.15600000E-01
  2.14000000E-01  5.97400000E-02  2.31400000E+00  6.45000000E-01  2.14000000E-01
  1.42800000E+00  5.00000000E-01  4.56100000E+05  6.83300000E+04  1.55500000E+04
  4.40500000E+03  1.43900000E+03  5.20400000E+02  2.03100000E+02  8.39600000E+01
  3.62000000E+01  1.58300000E+01  6.33400000E+00  4.40500000E+03  1.43900000E+03
  5.20400000E+02  2.03100000E+02  8.39600000E+01  3.62000000E+01  1.58300000E+01
  6.33400000E+00  2.69400000E+00  1.43900000E+03  2.03100000E+02  8.39600000E+01
  3.62000000E+01  1.58300000E+01  6.33400000E+00  2.69400000E+00  4.31300000E-01
  9.76800000E-01  1.62500000E-01  5.91000000E-02  6.63300000E+02  1.56800000E+02
  4.99800000E+01  1.84200000E+01  7.24000000E+00  2.92200000E+00  1.56800000E+02
  4.99800000E+01  1.84200000E+01  7.24000000E+00  2.92200000E+00  3.81800000E-01
  1.02200000E+00  1.30100000E-01  4.19000000E-02  1.04600000E+00  3.44000000E-01
  1.35000000E-01  7.06000000E-01  3.12000000E-01  4.56100000E+05  6.83300000E+04
  1.55500000E+04  4.40500000E+03  1.43900000E+03  5.20400000E+02  2.03100000E+02
  8.39600000E+01  3.62000000E+01  1.58300000E+01  6.33400000E+00  4.40500000E+03
  1.43900000E+03  5.20400000E+02  2.03100000E+02  8.39600000E+01  3.62000000E+01
  1.58300000E+01  6.33400000E+00  2.69400000E+00  1.43900000E+03  2.03100000E+02
  8.39600000E+01  3.62000000E+01  1.58300000E+01  6.33400000E+00  2.69400000E+00
  4.31300000E-01  9.76800000E-01  1.62500000E-01  5.91000000E-02  6.63300000E+02
  1.56800000E+02  4.99800000E+01  1.84200000E+01  7.24000000E+00  2.92200000E+00
  1.56800000E+02  4.99800000E+01  1.84200000E+01  7.24000000E+00  2.92200000E+00
  3.81800000E-01  1.02200000E+00  1.30100000E-01  4.19000000E-02  1.04600000E+00
  3.44000000E-01  1.35000000E-01  7.06000000E-01  3.12000000E-01  3.38700000E+01
  5.09500000E+00  1.15900000E+00  3.25800000E-01  1.02700000E-01  2.52600000E-02
  1.40700000E+00  3.88000000E-01  1.02000000E-01  1.05700000E+00  2.47000000E-01
Contraction coefficients                   R   N=         140
  5.19808943E-04  4.02025621E-03  2.07128267E-02  8.10105536E-02  2.35962985E-01
  4.42653446E-01  3.57064423E-01 -4.42115008E-05 -1.22591041E-03 -1.05517725E-02
 -6.74452633E-02 -1.71198607E-01  1.07329856E+00  1.00000000E+00  1.00000000E+00
  1.00000000E+00  4.11634896E-02  2.57762836E-01  8.02419274E-01  1.00000000E+00
  1.00000000E+00  1.00000000E+00  1.00000000E+00  1.00000000E+00  1.00000000E+00
  1.00000000E+00  1.00000000E+00  4.93229477E-05  3.83207967E-04  2.00947816E-03
  8.38950124E-03  2.94843950E-02  8.78759948E-02  2.11589759E-01  3.65611554E-01
  3.41246350E-01  1.02162570E-01  2.14249949E-03 -2.21747925E-06 -1.71189708E-04
 -1.27922846E-03 -9.32956265E-03 -3.98910062E-02 -1.05536085E-01  9.36202446E-03
  5.10511140E-01  5.73150737E-01  4.03949245E-06  2.12481765E-04  8.59484452E-04
  4.63248159E-03  4.47343490E-04 -7.38438245E-02 -3.62271994E-01  1.16620337E+00
  1.00000000E+00  1.00000000E+00  1.00000000E+00  2.47206402E-03  1.97550234E-02
  9.09917355E-02  2.63187834E-01  4.49078073E-01  3.60183072E-01  3.03427809E-05
 -1.22475826E-03 -6.01429772E-03 -2.76401323E-02  4.35105612E-04  1.00307272E+00
  1.00000000E+00  1.00000000E+00  1.00000000E+00  1.00000000E+00  1.00000000E+00
  1.00000000E+00  1.00000000E+00  1.00000000E+00  4.93229477E-05  3.83207967E-04
  2.00947816E-03  8.38950124E-03  2.94843950E-02  8.78759948E-02  2.11589759E-01
  3.65611554E-01  3.41246350E-01  1.02162570E-01  2.14249949E-03 -2.21747925E-06
 -1.71189708E-04 -1.27922846E-03 -9.32956265E-03 -3.98910062E-02 -1.05536085E-01
  9.36202446E-03  5.10511140E-01  5.73150737E-01  4.03949245E-06  2.12481765E-04
  8.59484452E-04  4.63248159E-03  4.47343490E-04 -7.38438245E-02 -3.62271994E-01
  1.16620337E+00  1.00000000E+00  1.00000000E+00  1.00000000E+00  2.47206402E-03
  1.97550234E-02  9.09917355E-02  2.63187834E-01  4.49078073E-01  3.60183072E-01
  3.03427809E-05 -1.22475826E-03 -6.01429772E-03 -2.76401323E-02  4.35105612E-04
  1.00307272E+00  1.00000000E+00  1.00000000E+00  1.00000000E+00  1.00000000E+00
  1.00000000E+00  1.00000000E+00  1.00000000E+00  1.00000000E+00  2.54948632E-02
  1.90362766E-01  8.52162022E-01  1.00000000E+00  1.00000000E+00  1.00000000E+00
  1.00000000E+00  1.00000000E+00  1.00000000E+00  1.00000000E+00  1.00000000E+00
Coordinates of each shell                  R   N=         165
  0.00000000E+00  0.00000000E+00  0.00000000E+00  0.00000000E+00  0.00000000E+00
  0.00000000E+00  0.00000000E+00  0.00000000E+00  0.00000000E+00  0.00000000E+00
  0.00000000E+00  0.00000000E+00  0.00000000E+00  0.00000000E+00  0.00000000E+00
  0.00000000E+00  0.00000000E+00  0.00000000E+00  0.00000000E+00  0.00000000E+00
  0.00000000E+00  0.00000000E+00  0.00000000E+00  0.00000000E+00  0.00000000E+00
  0.00000000E+00  0.00000000E+00  0.00000000E+00  0.00000000E+00  0.00000000E+00
  0.00000000E+00  0.00000000E+00  0.00000000E+00  0.00000000E+00  0.00000000E+00
  0.00000000E+00  0.00000000E+00  0.00000000E+00  0.00000000E+00  0.00000000E+00
  0.00000000E+00  0.00000000E+00  5.48904212E+00  0.00000000E+00  0.00000000E+00
  5.48904212E+00  0.00000000E+00  0.00000000E+00  5.48904212E+00  0.00000000E+00
  0.00000000E+00  5.48904212E+00  0.00000000E+00  0.00000000E+00  5.48904212E+00
  0.00000000E+00  0.00000000E+00  5.48904212E+00  0.00000000E+00  0.00000000E+00
  5.48904212E+00  0.00000000E+00  0.00000000E+00  5.48904212E+00  0.00000000E+00
  0.00000000E+00  5.48904212E+00  0.00000000E+00  0.00000000E+00  5.48904212E+00
  0.00000000E+00  0.00000000E+00  5.48904212E+00  0.00000000E+00  0.00000000E+00
  5.48904212E+00  0.00000000E+00  0.00000000E+00  5.48904212E+00  0.00000000E+00
  0.00000000E+00  5.48904212E+00  0.00000000E+00  0.00000000E+00  5.48904212E+00
  0.00000000E+00  0.00000000E+00  5.48904212E+00  0.00000000E+00  0.00000000E+00
 -7.43959853E-01  3.09168378E+00  0.00000000E+00 -7.43959853E-01  3.09168378E+00
  0.00000000E+00 -7.43959853E-01  3.09168378E+00  0.00000000E+00 -7.43959853E-01
  3.09168378E+00  0.00000000E+00 -7.43959853E-01  3.09168378E+00  0.00000000E+00
 -7.43959853E-01  3.09168378E+00  0.00000000E+00 -7.43959853E-01  3.09168378E+00
  0.00000000E+00 -7.43959853E-01  3.09168378E+00  0.00000000E+00 -7.43959853E-01
  3.09168378E+00  0.00000000E+00 -7.43959853E-01  3.09168378E+00  0.00000000E+00
 -7.43959853E-01  3.09168378E+00  0.00000000E+00 -7.43959853E-01  3.09168378E+00
  0.00000000E+00 -7.43959853E-01  3.09168378E+00  0.00000000E+00 -7.43959853E-01
  3.09168378E+00  0.00000000E+00 -7.43959853E-01  3.09168378E+00  0.00000000E+00
 -7.43959853E-01  3.09168378E+00  0.00000000E+00  1.79628950E+00  0.00000000E+00
  6.53795910E-01  1.79628950E+00  0.00000000E+00  6.53795910E-01  1.79628950E+00
  0.00000000E+00  6.53795910E-01  1.79628950E+00  0.00000000E+00  6.53795910E-01
  1.79628950E+00  0.00000000E+00  6.53795910E-01  1.79628950E+00  0.00000000E+00
  6.53795910E-01  1.79628950E+00  0.00000000E+00  6.53795910E-01  1.79628950E+00
  0.00000000E+00  6.53795910E-01  1.79628950E+00  0.00000000E+00  6.53795910E-01
Num ILSW                                   I              100
ILSW                                       I   N=         100
           0           0           0           0           2           0
           0           0           0           0           0          -1
           5           0           0           0           0           0
           0           0           0           0           0           0
           1           1           0           0           0           0
           0           0      100000           0          -1           0
           0           0           0           0           0           0
           0           0           0           1           0           0
           0 -2000000000           1           0           0           0
           0           0           4          52           0           0
           0           0           0           0           0           0
           0           0           0           4           0           1
           0           0           0           0           0           0
           0           0           0           0           0           0
           0           0           0           0           0           0
           0           0           0           0           0           0
           0           0           0           0
Num RLSW                                   I               52
RLSW                                       R   N=          52
  1.00000000E+00  1.00000000E+00  1.00000000E+00  1.00000000E+00  1.00000000E+00
  0.00000000E+00  0.00000000E+00  1.00000000E+00  0.00000000E+00  0.00000000E+00
  0.00000000E+00  0.00000000E+00  1.00000000E+00  0.00000000E+00  0.00000000E+00
  0.00000000E+00  0.00000000E+00  1.00000000E+00  0.00000000E+00  0.00000000E+00
  0.00000000E+00  0.00000000E+00  1.00000000E+00  0.00000000E+00  0.00000000E+00
  0.00000000E+00  0.00000000E+00  1.00000000E+00  0.00000000E+00  0.00000000E+00
  0.00000000E+00  0.00000000E+00  1.00000000E+00  0.00000000E+00  0.00000000E+00
  0.00000000E+00  0.00000000E+00  0.00000000E+00  1.00000000E+00  1.00000000E+00
  0.00000000E+00  1.00000000E+00  0.00000000E+00  0.00000000E+00  0.00000000E+00
  0.00000000E+00  0.00000000E+00  0.00000000E+00  0.00000000E+00  0.00000000E+00
  0.00000000E+00  0.00000000E+00
MxBond                                     I                2
NBond                                      I   N=           4
           2           0           1           1
IBond                                      I   N=           8
           3           4           0           0           1           0
           1           0
RBond                                      R   N=           8
  1.00000000E+00  1.00000000E+00  0.00000000E+00  0.00000000E+00  1.00000000E+00
  0.00000000E+00  1.00000000E+00  0.00000000E+00
Virial Ratio                               R      2.000152873877857E+00
SCF Energy                                 R     -9.945196689182477E+02
MP2 Energy                                 R     -9.951865325530488E+02
Total Energy                               R     -9.951865325530488E+02
Post-SCF wavefunction norm                 R      1.103703205470091E+00
RMS Density                                R      4.464039995674907E-09
Job Status                                 I                1
Nuclear derivative order                   I                0
External E-field                           R   N=          35
  0.00000000E+00  0.00000000E+00  0.00000000E+00  0.00000000E+00  0.00000000E+00
  0.00000000E+00  0.00000000E+00  0.00000000E+00  0.00000000E+00  0.00000000E+00
  0.00000000E+00  0.00000000E+00  0.00000000E+00  0.00000000E+00  0.00000000E+00
  0.00000000E+00  0.00000000E+00  0.00000000E+00  0.00000000E+00  0.00000000E+00
  0.00000000E+00  0.00000000E+00  0.00000000E+00  0.00000000E+00  0.00000000E+00
  0.00000000E+00  0.00000000E+00  0.00000000E+00  0.00000000E+00  0.00000000E+00
  0.00000000E+00  0.00000000E+00  0.00000000E+00  0.00000000E+00  0.00000000E+00
IOpCl                                      I                0
IROHF                                      I                0
Alpha Orbital Energies                     R   N=         169
  1.99969347E+00  1.99979480E+00  1.99996415E+00  1.99997394E+00  2.00000030E+00
  2.00000048E+00  2.00002189E+00  2.00002564E+00  2.00002652E+00  2.00002705E+00
  2.00002964E+00  1.85895469E+00  1.93968561E+00  1.95206404E+00  1.95227509E+00
  1.95234335E+00  1.95487676E+00  1.95605155E+00  1.96417573E+00  1.96696484E+00
  1.97408840E+00  1.97770867E+00  5.76784926E-02  1.11701320E-01  0.00000000E+00
  1.47916988E-05  2.32292350E-05  2.49089702E-05  2.70571918E-05  2.93820670E-05
  3.06268902E-05  3.48731503E-05  3.87388209E-05  4.26106223E-05  4.55229019E-05
  4.62174824E-05  5.04693431E-05  5.04799137E-05  5.16447861E-05  5.48447499E-05
  5.64055002E-05  5.82709094E-05  6.64113137E-05  6.73578334E-05  7.37146788E-05
  7.74465966E-05  7.82413741E-05  7.91587553E-05  7.94241390E-05  8.00806243E-05
  8.05026068E-05  8.73582503E-05  8.77314335E-05  9.38533479E-05  9.45777134E-05
  9.71650660E-05  1.03662834E-04  1.05691573E-04  1.05979492E-04  1.06162810E-04
  1.06772095E-04  1.10629399E-04  1.13141915E-04  1.13262355E-04  1.20049302E-04
  1.23383044E-04  1.25941659E-04  1.27270521E-04  1.28021853E-04  1.32502106E-04
  1.35618173E-04  1.35968940E-04  1.40997003E-04  1.41001328E-04  1.42191966E-04
  1.45289954E-04  1.46414726E-04  1.48658256E-04  1.61020793E-04  1.64816808E-04
  1.73042231E-04  1.85552429E-04  1.87533196E-04  2.00351374E-04  2.11506214E-04
  2.22697802E-04  2.46031564E-04  2.50721864E-04  2.76586054E-04  3.04414082E-04
  3.08201173E-04  3.21326840E-04  3.37391022E-04  3.53474553E-04  3.72803632E-04
  4.21459786E-04  4.25586300E-04  4.45099621E-04  4.47427550E-04  4.48278915E-04
  4.49644848E-04  4.50697929E-04  4.71264577E-04  4.72967845E-04  4.84744163E-04
  5.01420777E-04  5.06658274E-04  5.07020429E-04  5.28974512E-04  5.30055754E-04
  5.60299654E-04  6.01055061E-04  6.04557464E-04  6.33423813E-04  6.42648083E-04
  6.49479616E-04  6.68370556E-04  7.13814696E-04  7.22555083E-04  7.51431803E-04
  7.69334844E-04  7.78100922E-04  9.45662672E-04  9.75991693E-04  9.77808898E-04
  1.10946152E-03  1.16581015E-03  1.19551496E-03  1.19609526E-03  1.24497717E-03
  1.26483010E-03  1.26522634E-03  1.27025253E-03  1.27099726E-03  1.28654565E-03
  1.28657365E-03  1.29922823E-03  1.30034351E-03  1.69153547E-03  2.10690335E-03
  2.46548796E-03  3.29559077E-03  3.33120708E-03  4.42036718E-03  5.31885321E-03
  5.72863307E-03  6.13965944E-03  1.00000000E+03  1.00000000E+03  1.00000000E+03
  1.00000000E+03  1.00000000E+03  1.00000000E+03  1.00000000E+03  1.00000000E+03
  1.00000000E+03  1.00000000E+03  1.00000000E+03  1.00000000E+03  1.00000000E+03
  1.00000000E+03  1.00000000E+03  1.00000000E+03  1.00000000E+03  1.00000000E+03
  1.00000000E+03  1.00000000E+03  1.00000000E+03  1.00000000E+03
Alpha MO coefficients                      R   N=       28561
  9.91381816E-01 -5.24197091E-02  3.13291986E-02 -3.02679833E-02 -2.55582377E-02
  1.91676419E-03 -1.05450247E-04  7.10716255E-04  1.16863805E-03 -1.11150011E-04
  5.44950343E-04  4.03429627E-03  8.84728619E-05  4.36665911E-04 -3.17597218E-03
 -4.11140469E-03 -1.77110983E-03  6.93046083E-06  1.73531930E-05  2.29293180E-05
  1.91823411E-06  2.34608170E-05 -4.21076791E-04  1.40449572E-04 -4.83483615E-05
 -7.62450413E-05 -1.94173210E-04  2.10044703E-04 -4.02193028E-04  4.36055686E-04
  8.93774216E-04  1.04649981E-03  3.51085153E-05  2.71600074E-05  6.68617134E-07
 -2.60954801E-05 -1.18016876E-05 -4.03163271E-05 -2.82294110E-05  2.33414657E-06
 -1.34335434E-04  6.54044758E-05 -8.54471795E-05  4.86529890E-05 -2.43852075E-05
  1.80091803E-04  1.32400195E-04 -5.85052387E-04  9.23024115E-04  2.43293707E-04
  1.19893779E-03  2.96528070E-03  8.03368786E-04  9.64986915E-06 -1.73452779E-04
 -1.42136111E-03 -8.91078026E-05  1.97306457E-04 -9.72658839E-04 -6.24816979E-06
  2.50035262E-04 -2.65237726E-03  2.66138242E-04  2.89095283E-04 -1.35634412E-03
  7.17031619E-05  1.43480947E-04 -4.24230323E-05 -3.49979177E-05  6.47440175E-06
  1.26825432E-04 -1.62764942E-05 -1.39032755E-04  1.06572263E-04 -2.37857432E-05
 -3.87469373E-05  3.62703962E-05  2.37252546E-05  3.62273098E-05  3.74047594E-05
  3.37930582E-04 -1.84711487E-04 -3.05637380E-05  5.33705949E-05  4.57155054E-06
  3.67677061E-05  1.23609905E-05 -2.83430359E-05 -1.62728486E-05  9.68929551E-05
 -5.77477183E-05 -1.19372371E-05 -1.20976382E-04 -2.04731626E-05  2.20449983E-05
  4.19828485E-05  2.02831216E-05  4.18266306E-04  1.43690411E-03 -7.42687234E-06
  1.25285094E-03  9.80464095E-03  2.01509297E-04 -1.12019557E-03 -2.14133347E-05
 -3.52354094E-04  1.83840799E-03  1.30325077E-04 -7.16584356E-05  4.66515796E-04
 -1.51360534E-05 -2.59365765E-04 -1.39609952E-03 -5.82005843E-04  9.80072724E-04
 -2.65178093E-03  2.84419716E-04  2.40252389E-04 -2.49009060E-05  2.49069875E-05
  2.75958030E-04  2.28028468E-04 -7.18592011E-05  4.07485671E-05  6.75535118E-05
 -1.83103203E-05  1.00921607E-04 -1.66863377E-04 -2.47943245E-04  3.30367902E-04
 -7.41528200E-04  1.68088839E-04 -8.69279670E-06 -4.36322105E-06  2.40493539E-05
 -2.86838845E-05 -2.61077845E-05 -6.51834394E-05 -9.01726091E-06  4.78539759E-05
 -2.36327693E-05  1.03489374E-04  7.54300877E-05  7.48758553E-05 -1.69260103E-06
  2.05374648E-04 -5.72754360E-04 -1.40609922E-02  1.00834971E-02  1.61777843E-03
 -1.09172543E-04  1.83849781E-05 -7.20220176E-05 -1.34618873E-03 -3.35555789E-04
  6.47535154E-05 -5.81382620E-03 -4.23113359E-04 -8.60835307E-05 -1.12551991E-04
  9.60825675E-05 -1.01195075E-05  2.47455923E-04  1.81798324E-05 -7.73048324E-04
  4.00684075E-04  1.29017001E-04  8.47628646E-04  6.92770026E-05  8.58123886E-04
 -8.37583359E-04 -5.93081974E-05  1.91810014E-03  7.18177959E-03  1.93142079E-03
 -6.61918098E-03  1.25081677E-04  2.36913056E-03 -7.43562477E-03  1.99063233E-04
  4.48267613E-03 -1.09345626E-02  7.29676635E-04 -1.10223604E-03  3.52568890E-03
  3.77998777E-05  3.29590773E-05 -3.98134514E-06 -2.09552702E-06  3.88908551E-05
  2.33971849E-05  5.94794603E-05  1.12013180E-04  4.78060879E-05  3.47128891E-04
  2.05204270E-04 -1.73297453E-04  1.61953271E-04 -4.03749420E-05 -1.28172413E-04
 -1.22708604E-04 -3.43490512E-06 -1.95450234E-06 -7.35656230E-06 -3.73755472E-06
  3.49546478E-06  6.19407765E-07  3.05206133E-07 -1.00763270E-05  1.53527272E-05
 -3.11113241E-05  4.16638839E-05 -1.40353696E-05  6.49561059E-05 -6.09890235E-05
  1.91664027E-05 -7.08881839E-06  2.64371911E-04 -1.50482090E-05 -1.76428071E-04
  3.09983670E-04 -9.09465942E-05 -3.54391316E-05 -3.31149025E-05  1.17515420E-04
  1.17587364E-04  3.84364549E-05  6.36399606E-05  3.49244734E-05  5.17686700E-05
  1.48587525E-04 -6.92393821E-05  8.93048648E-05 -4.25655241E-04  1.54453630E-04
 -8.72800469E-05 -3.30193331E-05  1.62598995E-05  2.17703514E-06  7.68426307E-06
 -3.35355822E-05  1.05328098E-04 -9.10234559E-06  3.49799026E-05  2.23943772E-05
  1.46530852E-05 -1.96490733E-04 -6.29763826E-05 -6.24255359E-05  4.49873766E-05
 -1.58491648E-05  6.57142785E-06 -2.03895016E-05  7.80727972E-06 -1.42291986E-05
 -2.07305252E-05 -1.01782743E-05 -5.68088617E-06 -2.25255382E-05  3.56302589E-05
 -1.43064259E-05  4.32418934E-05  4.21551791E-05  6.80258629E-06  3.28456831E-06
 -1.26147226E-01  9.93172323E-01 -6.94587170E-02  7.03334695E-02 -3.28915593E-02
 -9.64263741E-03 -1.69437178E-04  7.63860666E-04  3.01312914E-06  1.16087288E-03
 -4.21126386E-03  3.58117706E-05  1.46136356E-04 -9.19502760E-04 -2.01612070E-05
 -5.45799676E-04  9.28647577E-04 -3.40276192E-05 -8.92308862E-04  2.11193671E-03
 -1.22070358E-04 -2.13727253E-04  3.75628699E-06  8.98483874E-06 -3.48090090E-04
 -1.57100347E-04 -2.50322218E-05  2.19015212E-05 -2.13961936E-05  9.56174887E-05
 -9.81985817E-06  9.72507313E-04 -9.08856703E-05  6.82665801E-05  1.00233679E-03
  9.47995461E-04 -1.21678886E-05 -3.66439884E-05  6.13968835E-05  8.56523852E-06
 -1.83083543E-05 -4.19538055E-05  2.38703880E-06  2.36590709E-05  1.39311076E-04
 -3.71662971E-04 -2.64592583E-05  4.01781703E-05  3.03795622E-04 -2.38732350E-04
  1.55321171E-04 -3.95336005E-03 -1.49473877E-03  1.67716494E-03 -4.26544732E-06
 -3.41550460E-06 -1.72796302E-06  7.38192519E-04 -9.31969926E-05  2.37596609E-04
  6.90032895E-04  4.29633587E-04  8.54239118E-05  1.69481579E-05 -8.53552575E-06
 -2.37500472E-06 -9.55245362E-06 -1.53125445E-05  2.97308881E-05 -1.18123523E-04
 -9.98218993E-06 -3.07842555E-04 -1.55055775E-05 -1.25009443E-03  2.39282423E-03
  6.66601516E-04  1.21513639E-03 -2.97834433E-03 -1.57429445E-03  4.54856242E-03
 -9.48966553E-05 -1.86494039E-03  5.28457459E-03 -1.38776909E-04 -3.03405340E-03
  7.58645729E-03 -2.00936045E-04  7.14161299E-04 -1.33418238E-03  5.09377696E-05
 -3.28203883E-06  9.76827787E-07  1.01971001E-06 -4.22537118E-06  5.92061071E-06
 -4.09387866E-05 -3.62627000E-05 -1.49477888E-05 -1.52031710E-04 -1.29783017E-04
 -3.98122136E-05  8.45633520E-06  1.37751242E-05 -1.54352721E-04  3.52741121E-05
  4.54743071E-06 -6.30325623E-07  1.03438749E-05 -1.08241454E-06 -3.69175115E-06
 -2.95897809E-06  4.13641979E-06 -7.25689909E-06  1.41483183E-05 -5.84114321E-05
 -8.12627358E-06  6.26730103E-06  2.06913733E-05 -4.80862077E-05 -1.42115378E-05
  1.48392289E-05 -1.87912894E-04 -7.83498892E-06 -4.76194833E-06 -2.70775470E-04
 -6.55211241E-06  4.24129936E-05  2.22873712E-05  3.67116943E-05 -4.79890672E-05
 -5.53987295E-05  2.21489041E-05 -5.56626252E-05 -2.59942107E-05  7.19153882E-05
 -2.99841894E-05 -2.86599790E-05  1.61523494E-04  5.12620943E-05  2.11049508E-05
  2.92944006E-06 -6.76427352E-06  1.19405611E-06 -6.70191799E-06 -1.74728465E-06
 -1.17512135E-05  1.59608239E-05 -1.33423070E-05 -2.90487238E-06  7.48738680E-06
  1.36784438E-05 -9.34260036E-06  3.79714249E-05 -4.23751773E-07 -4.84792026E-05
  1.61463723E-06 -9.82611886E-07  6.91589510E-07  8.20609829E-07  1.32279866E-05
  4.60811719E-06  4.87094453E-07 -4.61859562E-07  5.31240338E-06 -1.33351548E-06
 -6.91083426E-06 -2.80100264E-05 -6.53270551E-06  4.93747231E-06 -2.39623962E-04
  3.20486605E-04 -3.09779945E-03 -2.06532175E-04 -1.75180615E-03  3.64143265E-03
  1.34471896E-04  9.76645046E-01 -9.56046885E-07 -8.51997768E-04 -1.23408917E-02
 -4.03055699E-05 -1.32196406E-04  5.47725379E-02  1.21496852E-05  1.91591826E-04
 -2.88325193E-03  8.61897202E-05  3.14042552E-04 -2.06577039E-03  3.35884544E-05
  6.16489463E-05  3.30247099E-06 -6.61201418E-06  1.06187376E-04  3.86884922E-05
  1.01813856E-04 -1.75233504E-05  1.61309799E-05  1.11903783E-04  6.89585639E-05
 -6.14647103E-04  7.43225012E-05 -6.15603140E-05 -7.64496005E-04 -5.15836907E-04
  1.00361747E-05  2.57410083E-05 -8.19462466E-05 -5.28193430E-06  1.30328842E-05
  5.95244212E-05 -5.75021936E-05 -2.10057036E-05 -6.77223007E-05  2.27038059E-04
  1.47045961E-05 -2.76071592E-05 -1.69067976E-04  1.75994743E-04  6.82561645E-05
  2.18289768E-03  2.79857778E-04 -4.85279578E-04 -7.73853894E-06  2.07633863E-05
  6.48764954E-08 -1.48347456E-04 -2.56494327E-05 -9.31471987E-05  4.05313324E-05
 -3.82780041E-04 -1.31483145E-04  4.18228547E-07  2.56956466E-06 -9.57695418E-07
  4.17067705E-06  7.51801131E-07  4.29674040E-05  5.83021350E-05 -7.96086758E-06
  1.12551417E-04 -1.59612080E-05 -3.07490445E-04  1.45307519E-03  4.62725793E-04
  8.63167655E-04 -7.69610563E-04  1.22172836E-03 -1.21842666E-04  2.95642231E-04
  1.28685964E-03 -1.76208493E-04  3.77352040E-04  1.77885417E-03  3.25909428E-05
  2.75808027E-04 -2.19881115E-04  6.32826978E-06 -1.95624656E-04 -1.41741627E-06
  3.32766872E-06  4.09166708E-06 -3.06808159E-07 -3.61014676E-06  5.59683427E-06
 -5.79410370E-05 -1.22245499E-05 -3.38030446E-05  9.57350961E-06 -6.48629920E-05
 -8.20754847E-05  5.02125158E-05 -3.64691321E-05 -1.02725526E-04 -4.28370526E-07
 -5.60090000E-08  6.97789669E-07  1.92899411E-06  6.62114439E-07 -1.06410656E-05
  4.91857755E-07  1.21117245E-05 -2.36895019E-05 -7.53718041E-06 -1.89034073E-05
 -1.28330990E-06  5.43737064E-05 -6.72313171E-06 -4.69194591E-02  9.66868628E-01
 -3.87425640E-02  7.40772929E-02 -1.57867094E-02 -1.19898858E-03  2.69179720E-04
  2.65832317E-06 -7.17683035E-05 -5.91460957E-04 -7.01526386E-07  1.42343399E-04
 -3.00405773E-04 -3.65094802E-06  8.16116448E-05 -2.05992050E-03 -1.48421369E-05
  4.15049440E-04 -3.68714099E-04  2.42211003E-06  8.78323201E-05  1.35279691E-05
  7.23502991E-07  2.08362463E-07 -2.03583273E-05  1.73616120E-06 -8.78484592E-05
 -3.55075466E-05 -4.60367189E-07  1.49578342E-04 -3.14334071E-06 -2.05579762E-04
 -1.60191633E-04 -2.69796451E-06  3.97494017E-04  1.26346647E-05  6.47607426E-06