title                                                                   
SP        RMP2-FC                                                     Aug-CC-pVTZ         
Number of atoms                            I                4
Info1-9                                    I   N=           9
          40          13           0           0           0         110
           1           2           1
Full Title                                 C   N=           1
title       
Route                                      C   N=           5
#p pop=saveNBO SP NoSymm mp2/aug-cc-pvtz density=current    
Charge                                     I               -1
Multiplicity                               I                1
Number of electrons                        I               44
Number of alpha electrons                  I               22
Number of beta electrons                   I               22
Number of basis functions                  I              169
Number of independent functions            I              169
Number of point charges in /Mol/           I                0
Number of translation vectors              I                0
Atomic numbers                             I   N=           4
           8          17          17           1
Nuclear charges                            R   N=           4
  8.00000000E+00  1.70000000E+01  1.70000000E+01  1.00000000E+00
Current cartesian coordinates              R   N=          12
  0.00000000E+00  0.00000000E+00  0.00000000E+00  5.48904212E+00  0.00000000E+00
  0.00000000E+00 -7.43959853E-01  3.09168378E+00  0.00000000E+00  1.94344348E+00
  0.00000000E+00  0.00000000E+00
Number of symbols in /Mol/                 I                0
Force Field                                I                0
Atom Types                                 C   N=           4
                                                
Int Atom Types                             I   N=           4
           0           0           0           0
MM charges                                 R   N=           4
  0.00000000E+00  0.00000000E+00  0.00000000E+00  0.00000000E+00
Integer atomic weights                     I   N=           4
          16          35          35           1
Real atomic weights                        R   N=           4
  1.59949146E+01  3.49688527E+01  3.49688527E+01  1.00782504E+00
Atom fragment info                         I   N=           4
           0           0           0           0
Atom residue num                           I   N=           4
           0           0           0           0
Nuclear spins                              I   N=           4
           0           3           3           1
Nuclear ZEff                               R   N=           4
 -5.60000000E+00 -1.42400000E+01 -1.42400000E+01 -1.00000000E+00
Nuclear ZNuc                               R   N=           4
  8.00000000E+00  1.70000000E+01  1.70000000E+01  1.00000000E+00
Nuclear QMom                               R   N=           4
  0.00000000E+00 -8.16500000E+00 -8.16500000E+00  0.00000000E+00
Nuclear GFac                               R   N=           4
  0.00000000E+00  8.21874000E-01  8.21874000E-01  2.79284600E+00
MicOpt                                     I   N=           4
          -1          -1          -1          -1
Number of residues                         I                0
Number of secondary structures             I                0
Number of contracted shells                I               55
Number of primitive shells                 I              140
Pure/Cartesian d shells                    I                0
Pure/Cartesian f shells                    I                0
Highest angular momentum                   I                3
Largest degree of contraction              I               11
Shell types                                I   N=          55
           0           0           0           0           0           1
           1           1           1          -2          -2          -2
          -3          -3           0           0           0           0
           0           0           1           1           1           1
           1          -2          -2          -2          -3          -3
           0           0           0           0           0           0
           1           1           1           1           1          -2
          -2          -2          -3          -3           0           0
           0           0           1           1           1          -2
          -2
Number of primitives per shell             I   N=          55
           7           6           1           1           1           3
           1           1           1           1           1           1
           1           1          11           9           8           1
           1           1           6           6           1           1
           1           1           1           1           1           1
          11           9           8           1           1           1
           6           6           1           1           1           1
           1           1           1           1           3           1
           1           1           1           1           1           1
           1
Shell to atom map                          I   N=          55
           1           1           1           1           1           1
           1           1           1           1           1           1
           1           1           2           2           2           2
           2           2           2           2           2           2
           2           2           2           2           2           2
           3           3           3           3           3           3
           3           3           3           3           3           3
           3           3           3           3           4           4
           4           4           4           4           4           4
           4
Primitive exponents                        R   N=         140
  1.53300000E+04  2.29900000E+03  5.22400000E+02  1.47300000E+02  4.75500000E+01
  1.67600000E+01  6.20700000E+00  5.22400000E+02  1.47300000E+02  4.75500000E+01
  1.67600000E+01  6.20700000E+00  6.88200000E-01  1.75200000E+00  2.38400000E-01
  7.37600000E-02  3.44600000E+01  7.74900000E+00  2.28000000E+00  7.15600000E-01
  2.14000000E-01  5.97400000E-02  2.31400000E+00  6.45000000E-01  2.14000000E-01
  1.42800000E+00  5.00000000E-01  4.56100000E+05  6.83300000E+04  1.55500000E+04
  4.40500000E+03  1.43900000E+03  5.20400000E+02  2.03100000E+02  8.39600000E+01
  3.62000000E+01  1.58300000E+01  6.33400000E+00  4.40500000E+03  1.43900000E+03
  5.20400000E+02  2.03100000E+02  8.39600000E+01  3.62000000E+01  1.58300000E+01
  6.33400000E+00  2.69400000E+00  1.43900000E+03  2.03100000E+02  8.39600000E+01
  3.62000000E+01  1.58300000E+01  6.33400000E+00  2.69400000E+00  4.31300000E-01
  9.76800000E-01  1.62500000E-01  5.91000000E-02  6.63300000E+02  1.56800000E+02
  4.99800000E+01  1.84200000E+01  7.24000000E+00  2.92200000E+00  1.56800000E+02
  4.99800000E+01  1.84200000E+01  7.24000000E+00  2.92200000E+00  3.81800000E-01
  1.02200000E+00  1.30100000E-01  4.19000000E-02  1.04600000E+00  3.44000000E-01
  1.35000000E-01  7.06000000E-01  3.12000000E-01  4.56100000E+05  6.83300000E+04
  1.55500000E+04  4.40500000E+03  1.43900000E+03  5.20400000E+02  2.03100000E+02
  8.39600000E+01  3.62000000E+01  1.58300000E+01  6.33400000E+00  4.40500000E+03
  1.43900000E+03  5.20400000E+02  2.03100000E+02  8.39600000E+01  3.62000000E+01
  1.58300000E+01  6.33400000E+00  2.69400000E+00  1.43900000E+03  2.03100000E+02
  8.39600000E+01  3.62000000E+01  1.58300000E+01  6.33400000E+00  2.69400000E+00
  4.31300000E-01  9.76800000E-01  1.62500000E-01  5.91000000E-02  6.63300000E+02
  1.56800000E+02  4.99800000E+01  1.84200000E+01  7.24000000E+00  2.92200000E+00
  1.56800000E+02  4.99800000E+01  1.84200000E+01  7.24000000E+00  2.92200000E+00
  3.81800000E-01  1.02200000E+00  1.30100000E-01  4.19000000E-02  1.04600000E+00
  3.44000000E-01  1.35000000E-01  7.06000000E-01  3.12000000E-01  3.38700000E+01
  5.09500000E+00  1.15900000E+00  3.25800000E-01  1.02700000E-01  2.52600000E-02
  1.40700000E+00  3.88000000E-01  1.02000000E-01  1.05700000E+00  2.47000000E-01
Contraction coefficients                   R   N=         140
  5.19808943E-04  4.02025621E-03  2.07128267E-02  8.10105536E-02  2.35962985E-01
  4.42653446E-01  3.57064423E-01 -4.42115008E-05 -1.22591041E-03 -1.05517725E-02
 -6.74452633E-02 -1.71198607E-01  1.07329856E+00  1.00000000E+00  1.00000000E+00
  1.00000000E+00  4.11634896E-02  2.57762836E-01  8.02419274E-01  1.00000000E+00
  1.00000000E+00  1.00000000E+00  1.00000000E+00  1.00000000E+00  1.00000000E+00
  1.00000000E+00  1.00000000E+00  4.93229477E-05  3.83207967E-04  2.00947816E-03
  8.38950124E-03  2.94843950E-02  8.78759948E-02  2.11589759E-01  3.65611554E-01
  3.41246350E-01  1.02162570E-01  2.14249949E-03 -2.21747925E-06 -1.71189708E-04
 -1.27922846E-03 -9.32956265E-03 -3.98910062E-02 -1.05536085E-01  9.36202446E-03
  5.10511140E-01  5.73150737E-01  4.03949245E-06  2.12481765E-04  8.59484452E-04
  4.63248159E-03  4.47343490E-04 -7.38438245E-02 -3.62271994E-01  1.16620337E+00
  1.00000000E+00  1.00000000E+00  1.00000000E+00  2.47206402E-03  1.97550234E-02
  9.09917355E-02  2.63187834E-01  4.49078073E-01  3.60183072E-01  3.03427809E-05
 -1.22475826E-03 -6.01429772E-03 -2.76401323E-02  4.35105612E-04  1.00307272E+00
  1.00000000E+00  1.00000000E+00  1.00000000E+00  1.00000000E+00  1.00000000E+00
  1.00000000E+00  1.00000000E+00  1.00000000E+00  4.93229477E-05  3.83207967E-04
  2.00947816E-03  8.38950124E-03  2.94843950E-02  8.78759948E-02  2.11589759E-01
  3.65611554E-01  3.41246350E-01  1.02162570E-01  2.14249949E-03 -2.21747925E-06
 -1.71189708E-04 -1.27922846E-03 -9.32956265E-03 -3.98910062E-02 -1.05536085E-01
  9.36202446E-03  5.10511140E-01  5.73150737E-01  4.03949245E-06  2.12481765E-04
  8.59484452E-04  4.63248159E-03  4.47343490E-04 -7.38438245E-02 -3.62271994E-01
  1.16620337E+00  1.00000000E+00  1.00000000E+00  1.00000000E+00  2.47206402E-03
  1.97550234E-02  9.09917355E-02  2.63187834E-01  4.49078073E-01  3.60183072E-01
  3.03427809E-05 -1.22475826E-03 -6.01429772E-03 -2.76401323E-02  4.35105612E-04
  1.00307272E+00  1.00000000E+00  1.00000000E+00  1.00000000E+00  1.00000000E+00
  1.00000000E+00  1.00000000E+00  1.00000000E+00  1.00000000E+00  2.54948632E-02
  1.90362766E-01  8.52162022E-01  1.00000000E+00  1.00000000E+00  1.00000000E+00
  1.00000000E+00  1.00000000E+00  1.00000000E+00  1.00000000E+00  1.00000000E+00
Coordinates of each shell                  R   N=         165
  0.00000000E+00  0.00000000E+00  0.00000000E+00  0.00000000E+00  0.00000000E+00
  0.00000000E+00  0.00000000E+00  0.00000000E+00  0.00000000E+00  0.00000000E+00
  0.00000000E+00  0.00000000E+00  0.00000000E+00  0.00000000E+00  0.00000000E+00
  0.00000000E+00  0.00000000E+00  0.00000000E+00  0.00000000E+00  0.00000000E+00
  0.00000000E+00  0.00000000E+00  0.00000000E+00  0.00000000E+00  0.00000000E+00
  0.00000000E+00  0.00000000E+00  0.00000000E+00  0.00000000E+00  0.00000000E+00
  0.00000000E+00  0.00000000E+00  0.00000000E+00  0.00000000E+00  0.00000000E+00
  0.00000000E+00  0.00000000E+00  0.00000000E+00  0.00000000E+00  0.00000000E+00
  0.00000000E+00  0.00000000E+00  5.48904212E+00  0.00000000E+00  0.00000000E+00
  5.48904212E+00  0.00000000E+00  0.00000000E+00  5.48904212E+00  0.00000000E+00
  0.00000000E+00  5.48904212E+00  0.00000000E+00  0.00000000E+00  5.48904212E+00
  0.00000000E+00  0.00000000E+00  5.48904212E+00  0.00000000E+00  0.00000000E+00
  5.48904212E+00  0.00000000E+00  0.00000000E+00  5.48904212E+00  0.00000000E+00
  0.00000000E+00  5.48904212E+00  0.00000000E+00  0.00000000E+00  5.48904212E+00
  0.00000000E+00  0.00000000E+00  5.48904212E+00  0.00000000E+00  0.00000000E+00
  5.48904212E+00  0.00000000E+00  0.00000000E+00  5.48904212E+00  0.00000000E+00
  0.00000000E+00  5.48904212E+00  0.00000000E+00  0.00000000E+00  5.48904212E+00
  0.00000000E+00  0.00000000E+00  5.48904212E+00  0.00000000E+00  0.00000000E+00
 -7.43959853E-01  3.09168378E+00  0.00000000E+00 -7.43959853E-01  3.09168378E+00
  0.00000000E+00 -7.43959853E-01  3.09168378E+00  0.00000000E+00 -7.43959853E-01
  3.09168378E+00  0.00000000E+00 -7.43959853E-01  3.09168378E+00  0.00000000E+00
 -7.43959853E-01  3.09168378E+00  0.00000000E+00 -7.43959853E-01  3.09168378E+00
  0.00000000E+00 -7.43959853E-01  3.09168378E+00  0.00000000E+00 -7.43959853E-01
  3.09168378E+00  0.00000000E+00 -7.43959853E-01  3.09168378E+00  0.00000000E+00
 -7.43959853E-01  3.09168378E+00  0.00000000E+00 -7.43959853E-01  3.09168378E+00
  0.00000000E+00 -7.43959853E-01  3.09168378E+00  0.00000000E+00 -7.43959853E-01
  3.09168378E+00  0.00000000E+00 -7.43959853E-01  3.09168378E+00  0.00000000E+00
 -7.43959853E-01  3.09168378E+00  0.00000000E+00  1.94344348E+00  0.00000000E+00
  0.00000000E+00  1.94344348E+00  0.00000000E+00  0.00000000E+00  1.94344348E+00
  0.00000000E+00  0.00000000E+00  1.94344348E+00  0.00000000E+00  0.00000000E+00
  1.94344348E+00  0.00000000E+00  0.00000000E+00  1.94344348E+00  0.00000000E+00
  0.00000000E+00  1.94344348E+00  0.00000000E+00  0.00000000E+00  1.94344348E+00
  0.00000000E+00  0.00000000E+00  1.94344348E+00  0.00000000E+00  0.00000000E+00
Num ILSW                                   I              100
ILSW                                       I   N=         100
           0           0           0           0           2           0
           0           0           0           0           0          -1
           5           0           0           0           0           0
           0           0           0           0           0           0
           1           1           0           0           0           0
           0           0      100000           0          -1           0
           0           0           0           0           0           0
           0           0           0           1           0           0
           0 -2000000000           1           0           0           0
           0           0           4          52           0           0
           0           0           0           0           0           0
           0           0           0           4           0           1
           0           0           0           0           0           0
           0           0           0           0           0           0
           0           0           0           0           0           0
           0           0           0           0           0           0
           0           0           0           0
Num RLSW                                   I               52
RLSW                                       R   N=          52
  1.00000000E+00  1.00000000E+00  1.00000000E+00  1.00000000E+00  1.00000000E+00
  0.00000000E+00  0.00000000E+00  1.00000000E+00  0.00000000E+00  0.00000000E+00
  0.00000000E+00  0.00000000E+00  1.00000000E+00  0.00000000E+00  0.00000000E+00
  0.00000000E+00  0.00000000E+00  1.00000000E+00  0.00000000E+00  0.00000000E+00
  0.00000000E+00  0.00000000E+00  1.00000000E+00  0.00000000E+00  0.00000000E+00
  0.00000000E+00  0.00000000E+00  1.00000000E+00  0.00000000E+00  0.00000000E+00
  0.00000000E+00  0.00000000E+00  1.00000000E+00  0.00000000E+00  0.00000000E+00
  0.00000000E+00  0.00000000E+00  0.00000000E+00  1.00000000E+00  1.00000000E+00
  0.00000000E+00  1.00000000E+00  0.00000000E+00  0.00000000E+00  0.00000000E+00
  0.00000000E+00  0.00000000E+00  0.00000000E+00  0.00000000E+00  0.00000000E+00
  0.00000000E+00  0.00000000E+00
MxBond                                     I                2
NBond                                      I   N=           4
           2           0           1           1
IBond                                      I   N=           8
           3           4           0           0           1           0
           1           0
RBond                                      R   N=           8
  1.00000000E+00  1.00000000E+00  0.00000000E+00  0.00000000E+00  1.00000000E+00
  0.00000000E+00  1.00000000E+00  0.00000000E+00
Virial Ratio                               R      2.000160091573833E+00
SCF Energy                                 R     -9.945238813915399E+02
MP2 Energy                                 R     -9.951921257351005E+02
Total Energy                               R     -9.951921257351005E+02
Post-SCF wavefunction norm                 R      1.103873145446676E+00
RMS Density                                R      3.890105022544205E-09
Job Status                                 I                1
Nuclear derivative order                   I                0
External E-field                           R   N=          35
  0.00000000E+00  0.00000000E+00  0.00000000E+00  0.00000000E+00  0.00000000E+00
  0.00000000E+00  0.00000000E+00  0.00000000E+00  0.00000000E+00  0.00000000E+00
  0.00000000E+00  0.00000000E+00  0.00000000E+00  0.00000000E+00  0.00000000E+00
  0.00000000E+00  0.00000000E+00  0.00000000E+00  0.00000000E+00  0.00000000E+00
  0.00000000E+00  0.00000000E+00  0.00000000E+00  0.00000000E+00  0.00000000E+00
  0.00000000E+00  0.00000000E+00  0.00000000E+00  0.00000000E+00  0.00000000E+00
  0.00000000E+00  0.00000000E+00  0.00000000E+00  0.00000000E+00  0.00000000E+00
IOpCl                                      I                0
IROHF                                      I                0
Alpha Orbital Energies                     R   N=         169
  1.99968996E+00  1.99978878E+00  1.99993973E+00  1.99996255E+00  2.00000030E+00
  2.00000036E+00  2.00001983E+00  2.00002557E+00  2.00002771E+00  2.00002803E+00
  2.00002991E+00  1.82550245E+00  1.93943441E+00  1.95193352E+00  1.95221365E+00
  1.95260045E+00  1.95476191E+00  1.95596691E+00  1.96399950E+00  1.96597102E+00
  1.97402964E+00  1.97671682E+00  5.76562932E-02  1.47078294E-01 -2.59574604E-05
 -3.41943080E-06  9.83711893E-06  2.23611002E-05  2.42449338E-05  2.77901135E-05
  3.22097241E-05  3.73055967E-05  3.98073596E-05  4.03262755E-05  4.24098856E-05
  4.53633963E-05  4.80893782E-05  5.14661294E-05  5.23703206E-05  5.47942300E-05
  5.52793315E-05  5.81958700E-05  6.54611999E-05  6.82751381E-05  7.19532742E-05
  7.38323902E-05  7.87823891E-05  8.05871329E-05  8.15040102E-05  8.16749229E-05
  8.47511864E-05  8.67873833E-05  9.16233236E-05  9.28570604E-05  9.43978256E-05
  9.62732198E-05  9.69676349E-05  1.00269317E-04  1.00656091E-04  1.01190335E-04
  1.02725262E-04  1.09648959E-04  1.19255923E-04  1.19454376E-04  1.20417113E-04
  1.22429042E-04  1.24093752E-04  1.24780839E-04  1.25314344E-04  1.28074408E-04
  1.28116778E-04  1.39765301E-04  1.40146732E-04  1.42160512E-04  1.44956496E-04
  1.45274796E-04  1.49200872E-04  1.61888575E-04  1.70267354E-04  1.71340396E-04
  1.77749334E-04  1.78298847E-04  1.84306200E-04  2.06653018E-04  2.13706790E-04
  2.31056391E-04  2.47742608E-04  2.48567424E-04  3.06663798E-04  3.08184070E-04
  3.19799590E-04  3.27728547E-04  3.55093808E-04  3.57659121E-04  3.59159309E-04
  4.20614209E-04  4.34116770E-04  4.42355993E-04  4.46563723E-04  4.46716140E-04
  4.50323694E-04  4.72832625E-04  4.72935071E-04  4.75921350E-04  4.83524121E-04
  5.03355065E-04  5.04186144E-04  5.10106894E-04  5.19015365E-04  5.60990675E-04
  5.70492894E-04  5.93899275E-04  6.10598777E-04  6.28769601E-04  6.46389397E-04
  6.50218005E-04  6.64834570E-04  6.91257375E-04  7.59618384E-04  7.68480684E-04
  7.72464405E-04  8.00970157E-04  9.51080968E-04  9.56037641E-04  9.63523054E-04
  1.11306943E-03  1.16852882E-03  1.19507677E-03  1.20149608E-03  1.22779972E-03
  1.26345645E-03  1.26378072E-03  1.26534352E-03  1.26552199E-03  1.28363397E-03
  1.28375985E-03  1.29013417E-03  1.29130836E-03  1.66250925E-03  1.69978642E-03
  2.43078033E-03  3.62333787E-03  3.77557989E-03  5.06921996E-03  5.43769138E-03
  5.72627942E-03  6.21699177E-03  1.00000000E+03  1.00000000E+03  1.00000000E+03
  1.00000000E+03  1.00000000E+03  1.00000000E+03  1.00000000E+03  1.00000000E+03
  1.00000000E+03  1.00000000E+03  1.00000000E+03  1.00000000E+03  1.00000000E+03
  1.00000000E+03  1.00000000E+03  1.00000000E+03  1.00000000E+03  1.00000000E+03
  1.00000000E+03  1.00000000E+03  1.00000000E+03  1.00000000E+03
Alpha MO coefficients                      R   N=       28561
  9.91361007E-01 -5.22576310E-02  3.13847461E-02 -3.18517261E-02 -2.83441900E-02
  2.02944436E-03 -1.11856235E-04  3.47005452E-16  1.10729678E-03 -1.34688878E-04
 -3.10733742E-16  4.19564960E-03  9.65197205E-05 -2.69717546E-15 -3.81676671E-03
 -4.26025537E-03 -1.40331365E-16  1.05266940E-05  2.34889314E-17  1.46161549E-17
  1.12995302E-05  3.48890188E-05 -3.95305406E-04 -4.55808415E-16  8.56735809E-18
 -1.28422158E-04 -1.99901587E-04  1.89919568E-04 -4.73609441E-16 -9.79460208E-16
  1.17268528E-03  1.21359634E-03 -7.06081268E-17  7.48777857E-05  8.75510147E-06
  9.97028977E-18  5.43389678E-17 -6.82982870E-05 -3.07032363E-05  4.23299282E-16
 -1.25176671E-04  2.56547936E-05 -6.73875808E-17  1.23428453E-16  1.80874145E-05
  2.03593979E-04  1.54795447E-04 -8.17320723E-04  9.07197694E-04  4.27140780E-04
  1.96884922E-03  3.45290397E-03  9.33675479E-04  1.07042112E-05  5.84933201E-17
 -1.53724822E-03 -8.98127580E-05  4.46208903E-16 -1.16566567E-03 -9.88064655E-06
 -2.10475407E-16 -3.17177891E-03  2.80346971E-04 -9.06629276E-17 -1.53740327E-03
  5.93750543E-05  7.43273121E-17 -6.49630360E-05  1.79974404E-17  1.73337620E-18
  1.55688943E-04 -1.59718066E-05 -4.88480561E-05 -2.64413647E-16 -1.41743575E-16
 -8.68836291E-05  2.35580254E-05  4.89672288E-05 -8.10696558E-17 -1.36533065E-17
  2.52029816E-04 -1.97242193E-04  2.62239317E-17  7.23219407E-05  8.60305027E-06
 -4.55346469E-17 -2.76493369E-17 -3.66465904E-05 -2.33142437E-05 -1.18694061E-16
 -1.48212325E-04 -2.17167321E-05  1.33243308E-16  9.20867051E-17  6.58167668E-05
  6.82777135E-05  2.77775793E-05  4.83795548E-04  1.64957907E-03 -5.33470844E-05
  9.88458106E-04  1.02369453E-02  1.90234996E-04 -1.10923432E-03  2.23875445E-17
 -3.16828047E-04  1.77854940E-03  4.27384682E-16 -5.95034118E-05  4.43961696E-04
 -1.97220608E-16 -5.03363669E-04 -1.39637344E-03  7.58612753E-16  1.08388391E-03
 -2.79453587E-03 -1.27949657E-16  2.35537128E-04 -2.46506148E-17  1.81004955E-16
  2.57416281E-04  2.08894741E-04 -8.63882024E-05  1.98710759E-16 -6.98065144E-16
 -1.22686620E-05  1.32530082E-04 -4.32834069E-05  7.71780810E-18 -3.72791127E-16
 -8.13901279E-04  2.83291606E-04  1.16875222E-16  1.22062174E-05  2.54154191E-05
  1.30874777E-16  2.53605213E-17 -6.73445327E-05 -2.92624783E-05 -3.55800524E-16
 -4.65052094E-05  7.40554474E-05 -5.00040276E-16 -2.00622371E-16  1.38714609E-05
  2.42269937E-04 -3.11797005E-04 -1.45490880E-02  1.19470358E-02  1.96544159E-03
 -1.60254707E-04  3.13883077E-05 -1.26273811E-16 -1.25954636E-03 -4.52254953E-04
  1.26862042E-15 -8.24080911E-03 -2.94206257E-04  7.30791540E-16 -1.49616414E-04
 -1.75672871E-16 -3.26800609E-17  2.82647122E-04  3.46291088E-05 -9.89010517E-04
 -1.25764435E-15  2.72460401E-16  1.35286499E-03  3.21209877E-05  8.38082032E-04
 -7.50178362E-04 -3.48030824E-05  2.16438814E-03  7.38863002E-03  2.02211778E-03
 -6.65315765E-03 -2.50808557E-16  2.45168527E-03 -7.38376305E-03  3.54348256E-16
  4.75008866E-03 -1.10209421E-02  2.37677186E-15 -1.14704639E-03  3.57936568E-03
 -6.80800070E-16  3.31591454E-05 -3.76950698E-16  3.59286255E-17  3.39451760E-05
  1.85941421E-05  2.70971914E-05  1.37806745E-15 -2.04195719E-16  3.82425819E-04
  2.34003028E-04 -1.90170590E-04  4.72226035E-19  3.82378342E-16 -1.22790259E-04
 -1.45636343E-04 -5.65064292E-16 -8.57967669E-06 -9.10399265E-06 -2.36288032E-16
  1.06300419E-16 -1.19283797E-06  1.73745771E-06 -4.44836767E-17  1.15505043E-05
 -2.27564077E-05  7.79127292E-16  4.06441625E-17  7.74671988E-05 -6.41737759E-05
  2.86851955E-05 -3.66749157E-05  3.53473930E-04 -7.20852322E-06  1.75260153E-06
  3.14263489E-04 -3.32908664E-05 -4.21702004E-05 -9.77122006E-17 -7.96497523E-05
  1.47469267E-04 -1.45985058E-15  5.71091448E-06  3.87389505E-05  7.08368776E-16
 -7.03509477E-05 -1.29731194E-04  7.97876270E-16 -4.79696357E-04  1.68898626E-04
 -1.75722527E-16 -3.20462741E-05 -7.04069053E-17 -1.49287386E-17  1.07955287E-05
 -4.63950363E-05  1.01535874E-04  5.51412017E-16  1.68576106E-16  4.57149662E-05
  2.28385047E-05 -2.24970669E-04 -4.39927654E-16 -5.19746874E-17  6.30766664E-05
  3.94899956E-05  6.41655472E-17 -2.54564912E-05  1.29196914E-06 -1.83674051E-16
  1.47418636E-16 -1.02328571E-05  6.33663419E-06  3.33612840E-17  5.12596066E-05
  2.58825526E-06  1.06671164E-16 -3.03375556E-17  3.46731600E-06 -3.69577297E-05
 -1.27041942E-01  9.93400135E-01 -6.97215209E-02  7.03207814E-02 -3.30586425E-02
 -9.77971127E-03 -1.72137144E-04  7.71685903E-04  4.38242583E-16  1.19845046E-03
 -4.26516018E-03  5.21525460E-16  1.40731221E-04 -9.26577701E-04 -2.69518648E-16
 -4.98841223E-04  9.05293742E-04 -9.59975200E-16 -9.21820406E-04  2.14925805E-03
  7.73850925E-16 -2.15651360E-04 -1.58136009E-16 -4.43524326E-16 -3.46906696E-04
 -1.54065435E-04 -3.83371678E-05  5.44869362E-16  4.62426970E-16  9.42719361E-05
 -2.78398324E-05  9.98438636E-04 -2.18928745E-16 -1.00627540E-16  1.00914553E-03
  9.47768742E-04 -2.58867691E-16 -4.54422398E-05  6.77764786E-05 -2.69786223E-16
 -1.11295592E-16 -4.05697334E-05  2.06989696E-06  2.69423440E-16  1.56096595E-04
 -3.81402047E-04  3.34584145E-16  9.45341551E-17  2.91597004E-04 -2.41704468E-04
  1.95868515E-04 -4.17880457E-03 -2.27539767E-03  1.83363033E-03 -1.86997423E-05
  4.55426251E-06 -2.22944630E-16  7.98159193E-04 -1.14814381E-04 -1.44524628E-15
  8.17645054E-04  4.61550686E-04 -4.32397848E-16  2.04927762E-05  5.79725103E-16
 -2.56458995E-17 -8.19636702E-06 -1.87788216E-05  4.56236653E-05  1.02984883E-15
 -1.71419712E-16 -3.78319539E-04  6.29418091E-05 -4.01527115E-04  1.94021108E-03
  5.92998864E-04  1.03674211E-03 -1.18685435E-03  1.63717704E-03 -1.62447507E-04
  9.65108348E-16  1.69618125E-03 -2.52410904E-04 -1.58350581E-15  2.52138369E-03
  2.12380429E-04 -1.50692865E-14 -3.00450970E-04  5.92058819E-05  5.80822965E-16
  2.65292860E-07  7.20132229E-16  2.64848718E-16  5.27244407E-06 -4.45847910E-06
  2.26762241E-05 -3.03154765E-15 -8.66141608E-17 -7.25345024E-05  1.36136809E-05
 -1.87624134E-04 -1.34520245E-15 -6.54337557E-15  4.74819184E-05 -1.62196320E-04
 -7.50346748E-16  6.90496035E-06  2.78939573E-06 -3.81286685E-16 -2.45662058E-16
 -1.94702393E-05  1.81977330E-06  2.54598748E-15 -3.90507428E-05 -1.97477579E-05
  9.19877804E-16  5.24747978E-16  1.00031354E-04 -1.06021850E-05 -9.84235562E-02
  9.80332335E-01 -4.79999936E-02  7.38831452E-02 -2.06441289E-02 -9.77014494E-04
  5.16670106E-04  4.69330510E-06  8.48379444E-16 -1.29190475E-03  5.63571535E-06
  4.18530570E-15 -5.70335202E-04 -7.85531935E-06 -2.78309616E-15 -3.38814010E-03
 -5.34251833E-05  1.27477214E-15 -5.64454488E-04 -6.96438004E-07  6.11777870E-16
  1.96857031E-05  3.64861301E-16  1.58709659E-16 -3.01544351E-05  2.12696899E-06
 -1.63296926E-04 -1.75480191E-15 -1.44887308E-16  2.71142782E-04 -3.86091877E-06
 -3.03263261E-04 -3.12525748E-15 -1.28476829E-16  5.32707273E-04  4.13370240E-05
  5.73527958E-16 -1.72141145E-06 -2.86349701E-06 -8.70070303E-16 -1.46002243E-16
  2.96596044E-06  5.67869691E-06 -1.99186306E-15  1.13839481E-04  6.77669652E-06
  2.60418530E-15  4.18994608E-16 -1.44449549E-04 -1.68203958E-05  5.37078529E-05
 -1.15145262E-04  5.99477725E-04  7.43678335E-05 -3.98545144E-04 -6.20636296E-05
 -1.39951306E-04  1.96654288E-04  4.22009677E-16  3.18751388E-04 -4.48822881E-04
  3.49293471E-15  1.37841903E-04 -2.44536301E-04 -1.61866958E-15  2.56988941E-04
  1.17807359E-04  3.91391289E-15 -6.62433888E-05 -1.70479331E-05 -5.50426543E-16
 -4.78770002E-06 -2.11293797E-16  5.21065108E-16  4.87329752E-06  8.25271663E-07
  4.42571212E-05  9.01838127E-16 -3.47490445E-15  6.15193663E-05 -1.19420770E-05
  2.92851372E-05  3.83880520E-16 -2.93516772E-15  1.68470657E-04  1.40943535E-05
  3.84070782E-16  4.06346181E-06 -7.73617384E-06  5.58041350E-16 -7.71965170E-17
 -6.02197174E-06 -4.75513677E-06 -1.90648816E-15 -8.04385494E-06 -8.65051576E-06
 -2.65381636E-15 -8.09843714E-16  5.67978823E-07 -2.35249406E-05 -4.20682251E-04
 -6.69232457E-03 -4.71488066E-03  7.09541471E-04  1.08855234E-04  2.87398129E-06
 -5.43841774E-16 -8.69273311E-04 -9.99424691E-06  6.04132657E-15 -3.50084190E-03
  5.72904662E-05 -6.24392353E-16 -3.05887393E-05 -4.11319477E-16 -1.79814629E-16
  3.72981112E-05  1.70107452E-06  1.97570619E-04 -9.88367754E-15  1.46437208E-15
 -2.75996214E-04  4.04141844E-05 -1.24498343E-03  2.34019229E-03  6.59540216E-04
  1.18544365E-03 -3.05961077E-03 -1.63099449E-03  4.57891154E-03  2.00005495E-17
 -1.90950484E-03  5.26926613E-03  2.64122103E-16 -3.09577597E-03  7.59563814E-03
  2.03865093E-14  7.37251921E-04 -1.36290634E-03  1.61536127E-15 -3.31393328E-06
 -7.42762696E-17 -1.93850407E-16 -3.46163727E-06  8.08705652E-06 -3.56515319E-05
  2.01922405E-15 -6.48871808E-17 -1.52517787E-04 -1.39779790E-04 -4.54464214E-05
  7.75667793E-15  2.70020456E-15 -1.33319109E-04  5.81391052E-05  5.80365313E-16
  3.58372540E-06  1.11548676E-05 -2.98147651E-16  3.33771250E-16 -8.31077965E-07
  2.39244507E-06 -2.19394000E-15  5.58369146E-06 -5.89792143E-05  1.09077895E-15
 -4.95129238E-16  1.29311209E-05 -4.35053698E-05 -2.17294647E-05  2.35544967E-05
 -2.82777865E-04 -5.47732525E-06 -7.67166923E-05 -2.89150743E-04 -3.73065956E-05
  4.11628386E-05  1.66338906E-16  1.53517663E-04 -5.46505564E-05  3.37420739E-16
  5.61732381E-05 -5.35860269E-05 -3.45363275E-16  1.46635085E-04  3.93164404E-05
 -4.65653893E-15  1.90209950E-04  5.31256611E-05  1.67712745E-15  3.20646059E-06
 -6.87039269E-16  2.01984096E-16 -9.39733115E-06  3.08888757E-06 -7.72553170E-06
  2.28404132E-15 -2.87201656E-16 -1.26967353E-05 -3.24015154E-06  1.29399896E-05
  2.31714130E-15  5.80672494E-16  3.07252994E-06 -9.46458055E-05 -4.02578582E-16