 Entering Gaussian System, Link 0=g16
 Input=brhod_pp_rOH_125_sp.gjf
 Output=brhod_pp_rOH_125_sp.log
 Initial command:
 /sw/contrib/gaussian/g16/B01/g16/l1.exe "/scr/Gau-13801.inp" -scrdir="/scr/"
 Entering Link 1 = /sw/contrib/gaussian/g16/B01/g16/l1.exe PID=     13802.
  
 Copyright (c) 1988-2017, Gaussian, Inc.  All Rights Reserved.
  
 This is part of the Gaussian(R) 16 program.  It is based on
 the Gaussian(R) 09 system (copyright 2009, Gaussian, Inc.),
 the Gaussian(R) 03 system (copyright 2003, Gaussian, Inc.),
 the Gaussian(R) 98 system (copyright 1998, Gaussian, Inc.),
 the Gaussian(R) 94 system (copyright 1995, Gaussian, Inc.),
 the Gaussian 92(TM) system (copyright 1992, Gaussian, Inc.),
 the Gaussian 90(TM) system (copyright 1990, Gaussian, Inc.),
 the Gaussian 88(TM) system (copyright 1988, Gaussian, Inc.),
 the Gaussian 86(TM) system (copyright 1986, Carnegie Mellon
 University), and the Gaussian 82(TM) system (copyright 1983,
 Carnegie Mellon University). Gaussian is a federally registered
 trademark of Gaussian, Inc.
  
 This software contains proprietary and confidential information,
 including trade secrets, belonging to Gaussian, Inc.
  
 This software is provided under written license and may be
 used, copied, transmitted, or stored only in accord with that
 written license.
  
 The following legend is applicable only to US Government
 contracts under FAR:
  
                    RESTRICTED RIGHTS LEGEND
  
 Use, reproduction and disclosure by the US Government is
 subject to restrictions as set forth in subparagraphs (a)
 and (c) of the Commercial Computer Software - Restricted
 Rights clause in FAR 52.227-19.
  
 Gaussian, Inc.
 340 Quinnipiac St., Bldg. 40, Wallingford CT 06492
  
  
 ---------------------------------------------------------------
 Warning -- This program may not be used in any manner that
 competes with the business of Gaussian, Inc. or will provide
 assistance to any competitor of Gaussian, Inc.  The licensee
 of this program is prohibited from giving any competitor of
 Gaussian, Inc. access to this program.  By using this program,
 the user acknowledges that Gaussian, Inc. is engaged in the
 business of creating and licensing software in the field of
 computational chemistry and represents and warrants to the
 licensee that it is not a competitor of Gaussian, Inc. and that
 it will not use this program in any manner prohibited above.
 ---------------------------------------------------------------
  

 Cite this work as:
 Gaussian 16, Revision B.01,
 M. J. Frisch, G. W. Trucks, H. B. Schlegel, G. E. Scuseria, 
 M. A. Robb, J. R. Cheeseman, G. Scalmani, V. Barone, 
 G. A. Petersson, H. Nakatsuji, X. Li, M. Caricato, A. V. Marenich, 
 J. Bloino, B. G. Janesko, R. Gomperts, B. Mennucci, H. P. Hratchian, 
 J. V. Ortiz, A. F. Izmaylov, J. L. Sonnenberg, D. Williams-Young, 
 F. Ding, F. Lipparini, F. Egidi, J. Goings, B. Peng, A. Petrone, 
 T. Henderson, D. Ranasinghe, V. G. Zakrzewski, J. Gao, N. Rega, 
 G. Zheng, W. Liang, M. Hada, M. Ehara, K. Toyota, R. Fukuda, 
 J. Hasegawa, M. Ishida, T. Nakajima, Y. Honda, O. Kitao, H. Nakai, 
 T. Vreven, K. Throssell, J. A. Montgomery, Jr., J. E. Peralta, 
 F. Ogliaro, M. J. Bearpark, J. J. Heyd, E. N. Brothers, K. N. Kudin, 
 V. N. Staroverov, T. A. Keith, R. Kobayashi, J. Normand, 
 K. Raghavachari, A. P. Rendell, J. C. Burant, S. S. Iyengar, 
 J. Tomasi, M. Cossi, J. M. Millam, M. Klene, C. Adamo, R. Cammi, 
 J. W. Ochterski, R. L. Martin, K. Morokuma, O. Farkas, 
 J. B. Foresman, and D. J. Fox, Gaussian, Inc., Wallingford CT, 2016.
 
 ******************************************
 Gaussian 16:  ES64L-G16RevB.01 20-Dec-2017
                15-Oct-2021 
 ******************************************
 %nproc=28
 Will use up to   28 processors via shared memory.
 %mem=120GB
 %chk=/gscratch/ilahie/mccoygrp/coire_hocl/rOH_s_oop_0/brhod_pp/brhod_pp_rOH_125_
 sp.chk
 --------------------------------------------------------
 #p pop=NBO SP NoSymm mp2/gen Pseudo=read density=current
 --------------------------------------------------------
 1/30=1,38=1,172=1/1;
 2/12=2,15=1,17=6,18=5,40=1/2;
 3/5=7,11=9,16=1,17=8,25=1,30=1,71=1/1,2,3;
 4//1;
 5/5=2,38=5/2;
 8/6=4,10=1/1;
 9/15=1,16=-3/6;
 10/5=1,13=10,31=1/2;
 6/7=2,8=2,9=2,10=2,22=-1,40=1/1,7;
 99/5=1,9=1/99;
 Leave Link    1 at Fri Oct 15 15:35:00 2021, MaxMem= 16106127360 cpu:               2.3 elap:               0.1
 (Enter /sw/contrib/gaussian/g16/B01/g16/l101.exe)
 -----
 title
 -----
 Symbolic Z-matrix:
 Charge = -1 Multiplicity = 1
 O
 X                    1     10. 
 H(iso=2)             1    r1       2     90. 
 Br                   1    r2       2     90.      3    a1       0
 H                    1    r3       2    oop      3    a1       0
       Variables:
  r1                    0.96048                  
  r2                    3.25083                  
  r3                    1.25                     
  a1                  101.65547                  
  OOP                  90.                       
 
 ITRead=  0  0  0  0
 MicOpt= -1 -1 -1 -1
 NAtoms=      4 NQM=        4 NQMF=       0 NMMI=      0 NMMIF=      0
                NMic=       0 NMicF=      0.
                    Isotopes and Nuclear Properties:
 (Nuclear quadrupole moments (NQMom) in fm**2, nuclear magnetic moments (NMagM)
  in nuclear magnetons)

  Atom         1           2           3           4
 IAtWgt=          16           2          79           1
 AtmWgt=  15.9949146   2.0141018  78.9183361   1.0078250
 NucSpn=           0           2           3           1
 AtZEff=  -0.0000000  -0.0000000  -0.0000000  -0.0000000
 NQMom=    0.0000000   0.2860000  31.3000000   0.0000000
 NMagM=    0.0000000   0.8574380   2.1063990   2.7928460
 AtZNuc=   8.0000000   1.0000000  35.0000000   1.0000000
 Leave Link  101 at Fri Oct 15 15:35:00 2021, MaxMem= 16106127360 cpu:               2.4 elap:               0.1
 (Enter /sw/contrib/gaussian/g16/B01/g16/l202.exe)
                          Input orientation:                          
 ---------------------------------------------------------------------
 Center     Atomic      Atomic             Coordinates (Angstroms)
 Number     Number       Type             X           Y           Z
 ---------------------------------------------------------------------
      1          8           0        0.000000    0.000000    0.000000
      2          1           0        0.960482    0.000000    0.000000
      3         35           0       -0.656753   -3.183800    0.000000
      4          1           0       -0.252533   -1.224225    0.000000
 ---------------------------------------------------------------------
                    Distance matrix (angstroms):
                    1          2          3          4
     1  O    0.000000
     2  H    0.960482   0.000000
     3  Br   3.250832   3.570999   0.000000
     4  H    1.250000   1.723407   2.000832   0.000000
 Symmetry turned off by external request.
 Stoichiometry    BrH2O(1-)
 Framework group  CS[SG(BrH2O)]
 Deg. of freedom     5
 Full point group                 CS      NOp   2
 Rotational constants (GHZ):         323.1382653           3.1741632           3.1432869
 Leave Link  202 at Fri Oct 15 15:35:00 2021, MaxMem= 16106127360 cpu:               0.5 elap:               0.0
 (Enter /sw/contrib/gaussian/g16/B01/g16/l301.exe)
 General basis read from cards:  (5D, 7F)
 Centers:       2      4      1      2      4
 aug-cc-pVTZ
 ****
 Centers:       3
 S 10 1.00
     Exponent=  9.6593900000D+03 Coefficients=  3.7100000000D-04
     Exponent=  1.4559600000D+03 Coefficients=  2.5710000000D-03
     Exponent=  3.2591400000D+02 Coefficients=  8.4850000000D-03
     Exponent=  4.6565700000D+01 Coefficients=  7.8222000000D-02
     Exponent=  1.8246900000D+01 Coefficients= -3.9714900000D-01
     Exponent=  3.8020100000D+00 Coefficients=  6.8586400000D-01
     Exponent=  1.7863200000D+00 Coefficients=  4.8681900000D-01
     Exponent=  6.0271400000D-01 Coefficients=  3.4913000000D-02
     Exponent=  2.8401400000D-01 Coefficients= -6.5730000000D-03
     Exponent=  1.2027100000D-01 Coefficients=  1.6420000000D-03
 S 10 1.00
     Exponent=  9.6593900000D+03 Coefficients= -1.5200000000D-04
     Exponent=  1.4559600000D+03 Coefficients= -1.0080000000D-03
     Exponent=  3.2591400000D+02 Coefficients= -3.6090000000D-03
     Exponent=  4.6565700000D+01 Coefficients= -2.7872000000D-02
     Exponent=  1.8246900000D+01 Coefficients=  1.5131700000D-01
     Exponent=  3.8020100000D+00 Coefficients= -3.5149700000D-01
     Exponent=  1.7863200000D+00 Coefficients= -4.1070300000D-01
     Exponent=  6.0271400000D-01 Coefficients=  3.4731600000D-01
     Exponent=  2.8401400000D-01 Coefficients=  6.7549100000D-01
     Exponent=  1.2027100000D-01 Coefficients=  2.4400800000D-01
 S 1 1.00
     Exponent=  6.0271400000D-01 Coefficients=  1.0000000000D+00
 S 1 1.00
     Exponent=  2.8401400000D-01 Coefficients=  1.0000000000D+00
 S 1 1.00
     Exponent=  1.2027100000D-01 Coefficients=  1.0000000000D+00
 S 1 1.00
     Exponent=  4.4500000000D-02 Coefficients=  1.0000000000D+00
 P 9 1.00
     Exponent=  4.9218700000D+02 Coefficients=  4.7200000000D-04
     Exponent=  9.2364200000D+01 Coefficients=  5.4940000000D-03
     Exponent=  2.7071800000D+01 Coefficients= -8.8030000000D-02
     Exponent=  7.2653900000D+00 Coefficients=  3.4348500000D-01
     Exponent=  3.4848100000D+00 Coefficients=  5.1020800000D-01
     Exponent=  1.6404800000D+00 Coefficients=  2.4863100000D-01
     Exponent=  6.4857000000D-01 Coefficients=  2.2201000000D-02
     Exponent=  2.5640700000D-01 Coefficients= -4.1900000000D-04
     Exponent=  9.5304000000D-02 Coefficients=  6.5600000000D-04
 P 9 1.00
     Exponent=  4.9218700000D+02 Coefficients= -1.5800000000D-04
     Exponent=  9.2364200000D+01 Coefficients= -1.3440000000D-03
     Exponent=  2.7071800000D+01 Coefficients=  2.4616000000D-02
     Exponent=  7.2653900000D+00 Coefficients= -1.1253200000D-01
     Exponent=  3.4848100000D+00 Coefficients= -1.7977500000D-01
     Exponent=  1.6404800000D+00 Coefficients= -7.3661000000D-02
     Exponent=  6.4857000000D-01 Coefficients=  3.4873400000D-01
     Exponent=  2.5640700000D-01 Coefficients=  5.5794800000D-01
     Exponent=  9.5304000000D-02 Coefficients=  2.6645600000D-01
 P 1 1.00
     Exponent=  7.6660000000D-01 Coefficients=  1.0000000000D+00
 P 1 1.00
     Exponent=  1.1820000000D-01 Coefficients=  1.0000000000D+00
 P 1 1.00
     Exponent=  3.9600000000D-02 Coefficients=  1.0000000000D+00
 D 8 1.00
     Exponent=  3.3899600000D+02 Coefficients=  1.5240000000D-03
     Exponent=  1.0321700000D+02 Coefficients=  1.5673000000D-02
     Exponent=  4.2363800000D+01 Coefficients=  7.2400000000D-02
     Exponent=  1.8435600000D+01 Coefficients=  1.8630300000D-01
     Exponent=  8.3725400000D+00 Coefficients=  3.2388100000D-01
     Exponent=  3.8022200000D+00 Coefficients=  3.7453400000D-01
     Exponent=  1.6867700000D+00 Coefficients=  2.5741800000D-01
     Exponent=  6.7752000000D-01 Coefficients=  6.8051000000D-02
 D 1 1.00
     Exponent=  6.7752000000D-01 Coefficients=  1.0000000000D+00
 D 1 1.00
     Exponent=  2.5530000000D-01 Coefficients=  1.0000000000D+00
 D 1 1.00
     Exponent=  1.0090000000D-01 Coefficients=  1.0000000000D+00
 F 1 1.00
     Exponent=  5.6060000000D-01 Coefficients=  1.0000000000D+00
 F 1 1.00
     Exponent=  2.4540000000D-01 Coefficients=  1.0000000000D+00
 ****
 ======================================================================================================
                                       Pseudopotential Parameters
 ======================================================================================================
  Center     Atomic      Valence      Angular      Power
  Number     Number     Electrons     Momentum     of R      Exponent        Coefficient   SO-Coeffient
 ======================================================================================================
    1          8
                                   No pseudopotential on this center.
    2          1
                                   No pseudopotential on this center.
    3         35           25
                                      G and up 
                                                     2        1.0000000        0.00000000    0.00000000
                                      S - G
                                                     2       70.0242570       49.96283400    0.00000000
                                                     2       31.1784120      370.01420500    0.00000000
                                                     2        7.1565930       10.24143900    0.00000000
                                      P - G
                                                     2       46.7734710       99.11224400    0.00000000
                                                     2       46.1841200      198.25304600    0.00000000
                                                     2       21.7138580       28.26174000    0.00000000
                                                     2       20.9417920       56.62336600    0.00000000
                                      D - G
                                                     2       50.6988390      -18.60585300    0.00000000
                                                     2       50.6447640      -27.92328000    0.00000000
                                                     2       15.4475090       -0.37969300    0.00000000
                                                     2       15.5002590       -0.78058300    0.00000000
                                                     2        2.8003910        0.03596800    0.00000000
                                                     2        1.0774800        0.09439700    0.00000000
                                      F - G
                                                     2       14.4656060       -1.09126900    0.00000000
                                                     2       21.2340650       -2.88769100    0.00000000
    4          1
                                   No pseudopotential on this center.
 ======================================================================================================
 Ernie: Thresh=  0.10000D-02 Tol=  0.10000D-05 Strict=F.
 Ernie:  18 primitive shells out of 132 were deleted.
   191 basis functions,   334 primitive gaussians,   218 cartesian basis functions
    18 alpha electrons       18 beta electrons
       nuclear repulsion energy        50.9744567095 Hartrees.
 IExCor=    0 DFT=F Ex=HF Corr=None ExCW=0 ScaHFX=  1.000000
 ScaDFX=  1.000000  1.000000  1.000000  1.000000 ScalE2=  1.000000  1.000000
 IRadAn=      5 IRanWt=     -1 IRanGd=            0 ICorTp=0 IEmpDi=  4
 NAtoms=    4 NActive=    4 NUniq=    4 SFac= 1.00D+00 NAtFMM=   60 NAOKFM=F Big=F
 Integral buffers will be    131072 words long.
 Raffenetti 1 integral format.
 Two-electron integral symmetry is turned off.
 Leave Link  301 at Fri Oct 15 15:35:01 2021, MaxMem= 16106127360 cpu:               3.2 elap:               0.1
 (Enter /sw/contrib/gaussian/g16/B01/g16/l302.exe)
 NPDir=0 NMtPBC=     1 NCelOv=     1 NCel=       1 NClECP=     1 NCelD=      1
         NCelK=      1 NCelE2=     1 NClLst=     1 CellRange=     0.0.
 One-electron integrals computed using PRISM.
   1 Symmetry operations used in ECPInt.
 ECPInt:  NShTT=    2145 NPrTT=    6720 LenC2=    2146 LenP2D=    6099.
 LDataN:  DoStor=T MaxTD1= 7 Len=  274
 NBasis=   191 RedAO= T EigKep=  4.45D-04  NBF=   191
 NBsUse=   147 1.00D-06 EigRej=  5.12D-15 NBFU=   147
 Leave Link  302 at Fri Oct 15 15:35:01 2021, MaxMem= 16106127360 cpu:               7.6 elap:               0.3
 (Enter /sw/contrib/gaussian/g16/B01/g16/l303.exe)
 DipDrv:  MaxL=1.
 Leave Link  303 at Fri Oct 15 15:35:01 2021, MaxMem= 16106127360 cpu:               1.5 elap:               0.1
 (Enter /sw/contrib/gaussian/g16/B01/g16/l401.exe)
 ExpMin= 2.53D-02 ExpMax= 1.53D+04 ExpMxC= 5.22D+02 IAcc=3 IRadAn=         5 AccDes= 0.00D+00
 Harris functional with IExCor=  205 and IRadAn=       5 diagonalized for initial guess.
 HarFok:  IExCor=  205 AccDes= 0.00D+00 IRadAn=         5 IDoV= 1 UseB2=F ITyADJ=14
 ICtDFT=  3500011 ScaDFX=  1.000000  1.000000  1.000000  1.000000
 FoFCou: FMM=F IPFlag=           0 FMFlag=      100000 FMFlg1=           0
         NFxFlg=           0 DoJE=T BraDBF=F KetDBF=T FulRan=T
         wScrn=  0.000000 ICntrl=       500 IOpCl=  0 I1Cent=   200000004 NGrid=           0
         NMat0=    1 NMatS0=      1 NMatT0=    0 NMatD0=    1 NMtDS0=    0 NMtDT0=    0
 Symmetry not used in FoFCou.
 Harris En= -493.528005428361    
 JPrj=0 DoOrth=F DoCkMO=F.
 Leave Link  401 at Fri Oct 15 15:35:01 2021, MaxMem= 16106127360 cpu:               8.3 elap:               0.4
 (Enter /sw/contrib/gaussian/g16/B01/g16/l502.exe)
 Keep R1 ints in memory in canonical form, NReq=204937585.
 FoFCou: FMM=F IPFlag=           0 FMFlag=           0 FMFlg1=           0
         NFxFlg=           0 DoJE=F BraDBF=F KetDBF=F FulRan=T
         wScrn=  0.000000 ICntrl=       600 IOpCl=  0 I1Cent=           0 NGrid=           0
         NMat0=    1 NMatS0=  18336 NMatT0=    0 NMatD0=    1 NMtDS0=    0 NMtDT0=    0
 Symmetry not used in FoFCou.
 Two-electron integral symmetry not used.
 Closed shell SCF:
 Using DIIS extrapolation, IDIIS=  1040.
 NGot= 16106127360 LenX= 15937911236 LenY= 15937863271
 Requested convergence on RMS density matrix=1.00D-08 within 128 cycles.
 Requested convergence on MAX density matrix=1.00D-06.
 Requested convergence on             energy=1.00D-06.
 No special actions if energy rises.

 Cycle   1  Pass 1  IDiag  1:
 E= -491.462172009852    
 DIIS: error= 4.24D-02 at cycle   1 NSaved=   1.
 NSaved= 1 IEnMin= 1 EnMin= -491.462172009852     IErMin= 1 ErrMin= 4.24D-02
 ErrMax= 4.24D-02  0.00D+00 EMaxC= 1.00D-01 BMatC= 2.58D-01 BMatP= 2.58D-01
 IDIUse=3 WtCom= 5.76D-01 WtEn= 4.24D-01
 Coeff-Com:  0.100D+01
 Coeff-En:   0.100D+01
 Coeff:      0.100D+01
 Gap=     0.486 Goal=   None    Shift=    0.000
 GapD=    0.486 DampG=2.000 DampE=0.500 DampFc=1.0000 IDamp=-1.
 RMSDP=4.01D-03 MaxDP=2.34D-01              OVMax= 1.36D-01

 Cycle   2  Pass 1  IDiag  1:
 E= -491.564181910118     Delta-E=       -0.102009900267 Rises=F Damp=F
 DIIS: error= 3.20D-02 at cycle   2 NSaved=   2.
 NSaved= 2 IEnMin= 2 EnMin= -491.564181910118     IErMin= 2 ErrMin= 3.20D-02
 ErrMax= 3.20D-02  0.00D+00 EMaxC= 1.00D-01 BMatC= 7.31D-02 BMatP= 2.58D-01
 IDIUse=3 WtCom= 6.80D-01 WtEn= 3.20D-01
 Coeff-Com:  0.311D+00 0.689D+00
 Coeff-En:   0.256D-01 0.974D+00
 Coeff:      0.220D+00 0.780D+00
 Gap=     0.329 Goal=   None    Shift=    0.000
 RMSDP=1.11D-03 MaxDP=4.11D-02 DE=-1.02D-01 OVMax= 8.05D-02

 Cycle   3  Pass 1  IDiag  1:
 E= -491.604607297162     Delta-E=       -0.040425387044 Rises=F Damp=F
 DIIS: error= 1.20D-02 at cycle   3 NSaved=   3.
 NSaved= 3 IEnMin= 3 EnMin= -491.604607297162     IErMin= 3 ErrMin= 1.20D-02
 ErrMax= 1.20D-02  0.00D+00 EMaxC= 1.00D-01 BMatC= 1.06D-02 BMatP= 7.31D-02
 IDIUse=3 WtCom= 8.80D-01 WtEn= 1.20D-01
 Coeff-Com: -0.138D-01 0.264D+00 0.750D+00
 Coeff-En:   0.000D+00 0.000D+00 0.100D+01
 Coeff:     -0.121D-01 0.232D+00 0.780D+00
 Gap=     0.326 Goal=   None    Shift=    0.000
 RMSDP=3.72D-04 MaxDP=1.92D-02 DE=-4.04D-02 OVMax= 2.33D-02

 Cycle   4  Pass 1  IDiag  1:
 E= -491.611263533827     Delta-E=       -0.006656236665 Rises=F Damp=F
 DIIS: error= 1.51D-03 at cycle   4 NSaved=   4.
 NSaved= 4 IEnMin= 4 EnMin= -491.611263533827     IErMin= 4 ErrMin= 1.51D-03
 ErrMax= 1.51D-03  0.00D+00 EMaxC= 1.00D-01 BMatC= 1.89D-04 BMatP= 1.06D-02
 IDIUse=3 WtCom= 9.85D-01 WtEn= 1.51D-02
 Coeff-Com: -0.389D-02 0.450D-01 0.204D+00 0.755D+00
 Coeff-En:   0.000D+00 0.000D+00 0.000D+00 0.100D+01
 Coeff:     -0.383D-02 0.443D-01 0.201D+00 0.758D+00
 Gap=     0.320 Goal=   None    Shift=    0.000
 RMSDP=6.50D-05 MaxDP=2.28D-03 DE=-6.66D-03 OVMax= 3.35D-03

 Cycle   5  Pass 1  IDiag  1:
 E= -491.611395807623     Delta-E=       -0.000132273796 Rises=F Damp=F
 DIIS: error= 1.72D-04 at cycle   5 NSaved=   5.
 NSaved= 5 IEnMin= 5 EnMin= -491.611395807623     IErMin= 5 ErrMin= 1.72D-04
 ErrMax= 1.72D-04  0.00D+00 EMaxC= 1.00D-01 BMatC= 6.30D-06 BMatP= 1.89D-04
 IDIUse=3 WtCom= 9.98D-01 WtEn= 1.72D-03
 Coeff-Com: -0.930D-03-0.143D-01-0.312D-01 0.877D-01 0.959D+00
 Coeff-En:   0.000D+00 0.000D+00 0.000D+00 0.000D+00 0.100D+01
 Coeff:     -0.929D-03-0.143D-01-0.311D-01 0.876D-01 0.959D+00
 Gap=     0.320 Goal=   None    Shift=    0.000
 RMSDP=2.61D-05 MaxDP=1.68D-03 DE=-1.32D-04 OVMax= 1.26D-03

 Cycle   6  Pass 1  IDiag  1:
 E= -491.611405699485     Delta-E=       -0.000009891862 Rises=F Damp=F
 DIIS: error= 8.36D-05 at cycle   6 NSaved=   6.
 NSaved= 6 IEnMin= 6 EnMin= -491.611405699485     IErMin= 6 ErrMin= 8.36D-05
 ErrMax= 8.36D-05  0.00D+00 EMaxC= 1.00D-01 BMatC= 4.67D-07 BMatP= 6.30D-06
 IDIUse=1 WtCom= 1.00D+00 WtEn= 0.00D+00
 Coeff-Com:  0.695D-03 0.179D-03-0.431D-02-0.598D-01-0.343D+00 0.141D+01
 Coeff:      0.695D-03 0.179D-03-0.431D-02-0.598D-01-0.343D+00 0.141D+01
 Gap=     0.320 Goal=   None    Shift=    0.000
 RMSDP=1.29D-05 MaxDP=8.48D-04 DE=-9.89D-06 OVMax= 6.32D-04

 Cycle   7  Pass 1  IDiag  1:
 E= -491.611407347845     Delta-E=       -0.000001648360 Rises=F Damp=F
 DIIS: error= 2.07D-05 at cycle   7 NSaved=   7.
 NSaved= 7 IEnMin= 7 EnMin= -491.611407347845     IErMin= 7 ErrMin= 2.07D-05
 ErrMax= 2.07D-05  0.00D+00 EMaxC= 1.00D-01 BMatC= 1.91D-08 BMatP= 4.67D-07
 IDIUse=1 WtCom= 1.00D+00 WtEn= 0.00D+00
 Coeff-Com: -0.260D-03 0.554D-03 0.297D-02 0.197D-01 0.106D+00-0.586D+00
 Coeff-Com:  0.146D+01
 Coeff:     -0.260D-03 0.554D-03 0.297D-02 0.197D-01 0.106D+00-0.586D+00
 Coeff:      0.146D+01
 Gap=     0.320 Goal=   None    Shift=    0.000
 RMSDP=2.45D-06 MaxDP=1.35D-04 DE=-1.65D-06 OVMax= 1.55D-04

 Cycle   8  Pass 1  IDiag  1:
 E= -491.611407417393     Delta-E=       -0.000000069547 Rises=F Damp=F
 DIIS: error= 3.11D-06 at cycle   8 NSaved=   8.
 NSaved= 8 IEnMin= 8 EnMin= -491.611407417393     IErMin= 8 ErrMin= 3.11D-06
 ErrMax= 3.11D-06  0.00D+00 EMaxC= 1.00D-01 BMatC= 6.95D-10 BMatP= 1.91D-08
 IDIUse=1 WtCom= 1.00D+00 WtEn= 0.00D+00
 Coeff-Com: -0.125D-04-0.602D-04-0.687D-04 0.145D-02 0.835D-02-0.224D-01
 Coeff-Com: -0.729D-01 0.109D+01
 Coeff:     -0.125D-04-0.602D-04-0.687D-04 0.145D-02 0.835D-02-0.224D-01
 Coeff:     -0.729D-01 0.109D+01
 Gap=     0.320 Goal=   None    Shift=    0.000
 RMSDP=3.10D-07 MaxDP=1.14D-05 DE=-6.95D-08 OVMax= 2.04D-05

 Cycle   9  Pass 1  IDiag  1:
 E= -491.611407419289     Delta-E=       -0.000000001897 Rises=F Damp=F
 DIIS: error= 1.12D-06 at cycle   9 NSaved=   9.
 NSaved= 9 IEnMin= 9 EnMin= -491.611407419289     IErMin= 9 ErrMin= 1.12D-06
 ErrMax= 1.12D-06  0.00D+00 EMaxC= 1.00D-01 BMatC= 8.67D-11 BMatP= 6.95D-10
 IDIUse=1 WtCom= 1.00D+00 WtEn= 0.00D+00
 Coeff-Com:  0.288D-04-0.639D-04-0.319D-03-0.220D-02-0.118D-01 0.663D-01
 Coeff-Com: -0.165D+00-0.197D-01 0.113D+01
 Coeff:      0.288D-04-0.639D-04-0.319D-03-0.220D-02-0.118D-01 0.663D-01
 Coeff:     -0.165D+00-0.197D-01 0.113D+01
 Gap=     0.320 Goal=   None    Shift=    0.000
 RMSDP=1.12D-07 MaxDP=3.14D-06 DE=-1.90D-09 OVMax= 9.20D-06

 Cycle  10  Pass 1  IDiag  1:
 E= -491.611407419557     Delta-E=       -0.000000000268 Rises=F Damp=F
 DIIS: error= 2.80D-07 at cycle  10 NSaved=  10.
 NSaved=10 IEnMin=10 EnMin= -491.611407419557     IErMin=10 ErrMin= 2.80D-07
 ErrMax= 2.80D-07  0.00D+00 EMaxC= 1.00D-01 BMatC= 6.35D-12 BMatP= 8.67D-11
 IDIUse=1 WtCom= 1.00D+00 WtEn= 0.00D+00
 Coeff-Com: -0.352D-05 0.151D-04 0.570D-04 0.144D-03 0.102D-02-0.776D-02
 Coeff-Com:  0.298D-01-0.804D-01-0.172D+00 0.123D+01
 Coeff:     -0.352D-05 0.151D-04 0.570D-04 0.144D-03 0.102D-02-0.776D-02
 Coeff:      0.298D-01-0.804D-01-0.172D+00 0.123D+01
 Gap=     0.320 Goal=   None    Shift=    0.000
 RMSDP=4.47D-08 MaxDP=2.21D-06 DE=-2.68D-10 OVMax= 2.57D-06

 Cycle  11  Pass 1  IDiag  1:
 E= -491.611407419578     Delta-E=       -0.000000000021 Rises=F Damp=F
 DIIS: error= 5.59D-08 at cycle  11 NSaved=  11.
 NSaved=11 IEnMin=11 EnMin= -491.611407419578     IErMin=11 ErrMin= 5.59D-08
 ErrMax= 5.59D-08  0.00D+00 EMaxC= 1.00D-01 BMatC= 3.55D-13 BMatP= 6.35D-12
 IDIUse=1 WtCom= 1.00D+00 WtEn= 0.00D+00
 Coeff-Com: -0.771D-06-0.470D-11 0.369D-05 0.955D-04 0.435D-03-0.189D-02
 Coeff-Com:  0.262D-02 0.173D-01-0.322D-01-0.251D+00 0.126D+01
 Coeff:     -0.771D-06-0.470D-11 0.369D-05 0.955D-04 0.435D-03-0.189D-02
 Coeff:      0.262D-02 0.173D-01-0.322D-01-0.251D+00 0.126D+01
 Gap=     0.320 Goal=   None    Shift=    0.000
 RMSDP=1.34D-08 MaxDP=6.37D-07 DE=-2.06D-11 OVMax= 7.55D-07

 Cycle  12  Pass 1  IDiag  1:
 E= -491.611407419579     Delta-E=       -0.000000000002 Rises=F Damp=F
 DIIS: error= 1.62D-08 at cycle  12 NSaved=  12.
 NSaved=12 IEnMin=12 EnMin= -491.611407419579     IErMin=12 ErrMin= 1.62D-08
 ErrMax= 1.62D-08  0.00D+00 EMaxC= 1.00D-01 BMatC= 2.13D-14 BMatP= 3.55D-13
 IDIUse=1 WtCom= 1.00D+00 WtEn= 0.00D+00
 Coeff-Com:  0.438D-06-0.122D-05-0.490D-05-0.296D-04-0.168D-03 0.946D-03
 Coeff-Com: -0.272D-02 0.311D-02 0.167D-01-0.363D-01-0.246D+00 0.126D+01
 Coeff:      0.438D-06-0.122D-05-0.490D-05-0.296D-04-0.168D-03 0.946D-03
 Coeff:     -0.272D-02 0.311D-02 0.167D-01-0.363D-01-0.246D+00 0.126D+01
 Gap=     0.320 Goal=   None    Shift=    0.000
 RMSDP=2.58D-09 MaxDP=1.27D-07 DE=-1.59D-12 OVMax= 1.58D-07

 SCF Done:  E(RHF) =  -491.611407420     A.U. after   12 cycles
            NFock= 12  Conv=0.26D-08     -V/T= 2.3233
 KE= 3.715003952411D+02 PE=-1.317320795836D+03 EE= 4.032345364662D+02
 Leave Link  502 at Fri Oct 15 15:35:06 2021, MaxMem= 16106127360 cpu:              39.8 elap:               4.7
 (Enter /sw/contrib/gaussian/g16/B01/g16/l801.exe)
 ExpMin= 2.53D-02 ExpMax= 1.53D+04 ExpMxC= 5.22D+02 IAcc=3 IRadAn=         5 AccDes= 0.00D+00
 HarFok:  IExCor=  205 AccDes= 0.00D+00 IRadAn=         5 IDoV=-2 UseB2=F ITyADJ=14
 ICtDFT= 12500011 ScaDFX=  1.000000  1.000000  1.000000  1.000000
 Largest valence mixing into a core orbital is  1.30D-04
 Largest core mixing into a valence orbital is  2.37D-05
 Range of M.O.s used for correlation:     6   147
 NBasis=   191 NAE=    18 NBE=    18 NFC=     5 NFV=     0
 NROrb=    142 NOA=    13 NOB=    13 NVA=   129 NVB=   129

 **** Warning!!: The largest alpha MO coefficient is  0.12342268D+02

 Leave Link  801 at Fri Oct 15 15:35:06 2021, MaxMem= 16106127360 cpu:               2.0 elap:               0.1
 (Enter /sw/contrib/gaussian/g16/B01/g16/l906.exe)
 Frozen-core derivative calculation, NFC=   5 NFV=   0.
 FulOut=F Deriv=T AODrv=F NAtomX=     4
   MMem=         107  MDisk=          13 MDiskD=          13
  W3Min=      576828 MinDsk=     1313419 NBas6D=         218
 NBas2D=       24339    NTT=       23871    LW2=    16556320
    MDV= 16105797306 MDiskM=      369353 NBas2p=       24313
 Fully in-core method, ICMem=   644650517.
 IMap=   1   2   3   4   5   6   7   8   9  10  11  12  13  14  15  16  17  18
 JobTyp=1 Pass  1 fully in-core, NPsUse= 28.
 Compute canonical integrals.
 FoFCou: FMM=F IPFlag=           0 FMFlag=           0 FMFlg1=           0
         NFxFlg=           0 DoJE=F BraDBF=F KetDBF=F FulRan=T
         wScrn=  0.000000 ICntrl=       600 IOpCl=  1 I1Cent=           0 NGrid=           0
         NMat0=    1 NMatS0=  24339 NMatT0=    0 NMatD0=    1 NMtDS0=    0 NMtDT0=    0
 Symmetry not used in FoFCou.
 Spin components of T(2) and E(2):
     alpha-alpha T2 =       0.2205546792D-01 E2=     -0.7189635000D-01
     alpha-beta  T2 =       0.1164805073D+00 E2=     -0.3886479013D+00
     beta-beta   T2 =       0.2205546792D-01 E2=     -0.7189635000D-01
 The integrals were generated   1 times.
 ANorm=    0.1077307497D+01
 E2 =    -0.5324406013D+00 EUMP2 =    -0.49214384802092D+03
 Leave Link  906 at Fri Oct 15 15:35:11 2021, MaxMem= 16106127360 cpu:             130.4 elap:               4.7
 (Enter /sw/contrib/gaussian/g16/B01/g16/l1002.exe)
 Minotr:  Closed shell wavefunction.
          Computing MP2/KS-MP2 derivatives.
          Using Z-Vector for PSCF gradient.
          Skipping F1 and S1 gradient terms here.
          Frozen-core window.
          Direct CPHF calculation.
          Differentiating once with respect to electric field.
                with respect to dipole field.
          Electric field/nuclear overlap derivatives assumed to be zero.
          Requested convergence is 1.0D-10 RMS, and 1.0D-09 maximum.
          NewPWx=F KeepS1=T KeepF1=T KeepIn=T MapXYZ=F SortEE=F KeepMc=T.
 Keep R1 ints in memory in canonical form, NReq=204939965.
 FoFCou: FMM=F IPFlag=           0 FMFlag=           0 FMFlg1=           0
         NFxFlg=           0 DoJE=F BraDBF=F KetDBF=F FulRan=T
         wScrn=  0.000000 ICntrl=       600 IOpCl=  0 I1Cent=           0 NGrid=           0
         NMat0=    1 NMatS0=  18336 NMatT0=    0 NMatD0=    1 NMtDS0=    0 NMtDT0=    0
 Symmetry not used in FoFCou.
 Two-electron integral symmetry not used.
          MDV=   16106127360 using IRadAn=       5.
          Solving linear equations separately, MaxMat=       0.
          There are     1 degrees of freedom in the 1st order CPHF.  IDoFFX=0 NUNeed=     1.
 LinEq1:  Iter=  0 NonCon=     1 RMS=3.30D-03 Max=6.47D-02 NDo=     1
 AX will form     1 AO Fock derivatives at one time.
 LinEq1:  Iter=  1 NonCon=     1 RMS=5.72D-04 Max=6.39D-03 NDo=     1
 LinEq1:  Iter=  2 NonCon=     1 RMS=2.27D-04 Max=2.37D-03 NDo=     1
 LinEq1:  Iter=  3 NonCon=     1 RMS=7.26D-05 Max=1.42D-03 NDo=     1
 LinEq1:  Iter=  4 NonCon=     1 RMS=1.62D-05 Max=1.76D-04 NDo=     1
 LinEq1:  Iter=  5 NonCon=     1 RMS=7.12D-06 Max=9.28D-05 NDo=     1
 LinEq1:  Iter=  6 NonCon=     1 RMS=1.81D-06 Max=2.53D-05 NDo=     1
 LinEq1:  Iter=  7 NonCon=     1 RMS=4.24D-07 Max=5.37D-06 NDo=     1
 LinEq1:  Iter=  8 NonCon=     1 RMS=1.13D-07 Max=1.13D-06 NDo=     1
 LinEq1:  Iter=  9 NonCon=     1 RMS=1.63D-08 Max=2.21D-07 NDo=     1
 LinEq1:  Iter= 10 NonCon=     1 RMS=2.96D-09 Max=3.54D-08 NDo=     1
 LinEq1:  Iter= 11 NonCon=     1 RMS=7.68D-10 Max=1.05D-08 NDo=     1
 LinEq1:  Iter= 12 NonCon=     1 RMS=1.25D-10 Max=1.58D-09 NDo=     1
 LinEq1:  Iter= 13 NonCon=     0 RMS=2.70D-11 Max=2.54D-10 NDo=     1
 Linear equations converged to 1.000D-10 1.000D-09 after    13 iterations.
 End of Minotr F.D. properties file   721 does not exist.
 End of Minotr F.D. properties file   722 does not exist.
 End of Minotr F.D. properties file   788 does not exist.
 Leave Link 1002 at Fri Oct 15 15:35:17 2021, MaxMem= 16106127360 cpu:              52.8 elap:               6.0
 (Enter /sw/contrib/gaussian/g16/B01/g16/l601.exe)
 Copying SCF densities to generalized density rwf, IOpCl= 0 IROHF=0.

 **********************************************************************

            Population analysis using the MP2 Density.

 **********************************************************************

 Alpha  occ. eigenvalues --  -20.36252  -9.56412  -7.31238  -7.31130  -7.31125
 Alpha  occ. eigenvalues --   -2.86348  -2.86305  -2.86300  -2.86190  -2.86190
 Alpha  occ. eigenvalues --   -1.09758  -0.76146  -0.45040  -0.36309  -0.29149
 Alpha  occ. eigenvalues --   -0.18113  -0.17807  -0.17753
 Alpha virt. eigenvalues --    0.14265   0.17338   0.24615   0.25815   0.26179
 Alpha virt. eigenvalues --    0.28300   0.30743   0.31296   0.33230   0.35524
 Alpha virt. eigenvalues --    0.40618   0.41908   0.41912   0.46150   0.46411
 Alpha virt. eigenvalues --    0.47258   0.48062   0.53403   0.56209   0.60336
 Alpha virt. eigenvalues --    0.61896   0.62434   0.72030   0.74360   0.81816
 Alpha virt. eigenvalues --    0.82953   0.83727   0.87699   0.90150   0.93324
 Alpha virt. eigenvalues --    0.94787   0.95357   0.97611   0.98136   0.98148
 Alpha virt. eigenvalues --    1.00467   1.01777   1.02670   1.05060   1.09237
 Alpha virt. eigenvalues --    1.10836   1.11875   1.14452   1.14509   1.18224
 Alpha virt. eigenvalues --    1.19090   1.20215   1.22039   1.24129   1.26288
 Alpha virt. eigenvalues --    1.32274   1.34974   1.43363   1.45117   1.46647
 Alpha virt. eigenvalues --    1.47137   1.65501   1.67364   1.71236   1.72779
 Alpha virt. eigenvalues --    1.75569   1.80193   2.02009   2.11736   2.13630
 Alpha virt. eigenvalues --    2.32947   2.45266   2.45670   2.46560   2.51479
 Alpha virt. eigenvalues --    2.52116   2.53084   2.53376   2.53426   2.54664
 Alpha virt. eigenvalues --    2.54852   2.57229   2.61885   2.62100   2.63356
 Alpha virt. eigenvalues --    2.63667   2.65758   2.67937   2.70832   2.75194
 Alpha virt. eigenvalues --    2.79824   2.82261   2.94067   2.98379   3.01332
 Alpha virt. eigenvalues --    3.11194   3.18114   3.22481   3.49255   3.88068
 Alpha virt. eigenvalues --    4.05202   4.17103   4.22071   4.29243   4.36375
 Alpha virt. eigenvalues --    4.42377   4.51532   4.55155   4.59219   4.62474
 Alpha virt. eigenvalues --    4.75143   4.81832   4.93386   5.01305   5.25735
 Alpha virt. eigenvalues --    5.43693   5.57004   5.63106   6.33077   6.64411
 Alpha virt. eigenvalues --    6.91254   6.99788   7.08478   7.33839   7.43512
 Alpha virt. eigenvalues --    7.47844   7.55446   7.60143   7.67433   7.84437
 Alpha virt. eigenvalues --    8.11738   8.38089  14.44711  79.87837
          Condensed to atoms (all electrons):
               1          2          3          4
     1  O    8.343619   0.183566  -0.086725   0.170552
     2  H    0.183566   0.621478  -0.003570   0.039307
     3  Br  -0.086725  -0.003570  25.873796   0.015914
     4  H    0.170552   0.039307   0.015914   0.523019
 Mulliken charges:
               1
     1  O   -0.611012
     2  H    0.159219
     3  Br  -0.799415
     4  H    0.251208
 Sum of Mulliken charges =  -1.00000
 Mulliken charges with hydrogens summed into heavy atoms:
               1
     1  O   -0.200585
     3  Br  -0.799415
 Electronic spatial extent (au):  <R**2>=           1048.0726
 Charge=             -1.0000 electrons
 Dipole moment (field-independent basis, Debye):
    X=              3.3766    Y=             10.5287    Z=              0.0000  Tot=             11.0569
 Quadrupole moment (field-independent basis, Debye-Ang):
   XX=            -30.1391   YY=            -67.3718   ZZ=            -31.2510
   XY=             -7.1048   XZ=             -0.0000   YZ=             -0.0000
 Traceless Quadrupole moment (field-independent basis, Debye-Ang):
   XX=             12.7815   YY=            -24.4512   ZZ=             11.6696
   XY=             -7.1048   XZ=             -0.0000   YZ=             -0.0000
 Octapole moment (field-independent basis, Debye-Ang**2):
  XXX=             45.0870  YYY=            334.7578  ZZZ=              0.0000  XYY=             37.7196
  XXY=             77.0681  XXZ=              0.0000  XZZ=             14.0917  YZZ=             72.2613
  YYZ=              0.0000  XYZ=              0.0000
 Hexadecapole moment (field-independent basis, Debye-Ang**3):
 XXXX=           -105.0338 YYYY=          -1780.6243 ZZZZ=            -48.0809 XXXY=           -143.5316
 XXXZ=             -0.0000 YYYX=           -212.9797 YYYZ=             -0.0000 ZZZX=             -0.0000
 ZZZY=             -0.0000 XXYY=           -268.8976 XXZZ=            -25.7664 YYZZ=           -244.5949
 XXYZ=             -0.0000 YYXZ=             -0.0000 ZZXY=            -46.8746
 N-N= 5.097445670947D+01 E-N=-1.316013443634D+03  KE= 3.711796231518D+02
 No NMR shielding tensors so no spin-rotation constants.
 Leave Link  601 at Fri Oct 15 15:35:17 2021, MaxMem= 16106127360 cpu:               5.2 elap:               0.2
 (Enter /sw/contrib/gaussian/g16/B01/g16/l607.exe)
 ******************************Gaussian NBO Version 3.1******************************
             N A T U R A L   A T O M I C   O R B I T A L   A N D
          N A T U R A L   B O N D   O R B I T A L   A N A L Y S I S
 ******************************Gaussian NBO Version 3.1******************************
       /RESON  / : Allow strongly delocalized NBO set

 Analyzing the MP2 density

 Job title: title                                                           

 Storage needed:    110417 in NPA,    146568 in NBO (********** available)
 GSVD:  LWork=       14857 too small for GESVD, short by       27473 words or       27473 for optimal perf.


 NATURAL POPULATIONS:  Natural atomic orbital occupancies 
                                                          
   NAO  Atom  No  lang   Type(AO)    Occupancy
 --------------------------------------------
     1    O    1  S      Cor( 1S)     1.99992
     2    O    1  S      Val( 2S)     1.90754
     3    O    1  S      Ryd( 3S)     0.00687
     4    O    1  S      Ryd( 4S)     0.00031
     5    O    1  S      Ryd( 5S)     0.00016
     6    O    1  px     Val( 2p)     1.67139
     7    O    1  px     Ryd( 3p)     0.01399
     8    O    1  px     Ryd( 4p)     0.00051
     9    O    1  px     Ryd( 5p)     0.00013
    10    O    1  py     Val( 2p)     1.77857
    11    O    1  py     Ryd( 3p)     0.01347
    12    O    1  py     Ryd( 4p)     0.00055
    13    O    1  py     Ryd( 5p)     0.00015
    14    O    1  pz     Val( 2p)     1.95273
    15    O    1  pz     Ryd( 3p)     0.02293
    16    O    1  pz     Ryd( 4p)     0.00055
    17    O    1  pz     Ryd( 5p)     0.00000
    18    O    1  dxy    Ryd( 3d)     0.00815
    19    O    1  dxy    Ryd( 4d)     0.00047
    20    O    1  dxy    Ryd( 5d)     0.00009
    21    O    1  dxz    Ryd( 3d)     0.00870
    22    O    1  dxz    Ryd( 4d)     0.00049
    23    O    1  dxz    Ryd( 5d)     0.00007
    24    O    1  dyz    Ryd( 3d)     0.00699
    25    O    1  dyz    Ryd( 4d)     0.00054
    26    O    1  dyz    Ryd( 5d)     0.00008
    27    O    1  dx2y2  Ryd( 3d)     0.01049
    28    O    1  dx2y2  Ryd( 4d)     0.00039
    29    O    1  dx2y2  Ryd( 5d)     0.00012
    30    O    1  dz2    Ryd( 3d)     0.00786
    31    O    1  dz2    Ryd( 4d)     0.00058
    32    O    1  dz2    Ryd( 5d)     0.00013
    33    O    1  f(0)   Ryd( 4f)     0.00065
    34    O    1  f(0)   Ryd( 5f)     0.00012
    35    O    1  f(C1)  Ryd( 4f)     0.00054
    36    O    1  f(C1)  Ryd( 5f)     0.00009
    37    O    1  f(S1)  Ryd( 4f)     0.00063
    38    O    1  f(S1)  Ryd( 5f)     0.00011
    39    O    1  f(C2)  Ryd( 4f)     0.00050
    40    O    1  f(C2)  Ryd( 5f)     0.00011
    41    O    1  f(S2)  Ryd( 4f)     0.00047
    42    O    1  f(S2)  Ryd( 5f)     0.00008
    43    O    1  f(C3)  Ryd( 4f)     0.00045
    44    O    1  f(C3)  Ryd( 5f)     0.00013
    45    O    1  f(S3)  Ryd( 4f)     0.00047
    46    O    1  f(S3)  Ryd( 5f)     0.00010

    47    H    2  S      Val( 1S)     0.33531
    48    H    2  S      Ryd( 2S)     0.00344
    49    H    2  S      Ryd( 3S)     0.00028
    50    H    2  S      Ryd( 4S)     0.00007
    51    H    2  px     Ryd( 2p)     0.00240
    52    H    2  px     Ryd( 3p)     0.00077
    53    H    2  px     Ryd( 4p)     0.00009
    54    H    2  py     Ryd( 2p)     0.00216
    55    H    2  py     Ryd( 3p)     0.00035
    56    H    2  py     Ryd( 4p)     0.00010
    57    H    2  pz     Ryd( 2p)     0.00480
    58    H    2  pz     Ryd( 3p)     0.00023
    59    H    2  pz     Ryd( 4p)     0.00006
    60    H    2  dxy    Ryd( 4d)     0.00006
    61    H    2  dxy    Ryd( 3d)     0.00006
    62    H    2  dxz    Ryd( 3d)     0.00007
    63    H    2  dxz    Ryd( 4d)     0.00007
    64    H    2  dyz    Ryd( 3d)     0.00012
    65    H    2  dyz    Ryd( 4d)     0.00005
    66    H    2  dx2y2  Ryd( 3d)     0.00009
    67    H    2  dx2y2  Ryd( 4d)     0.00005
    68    H    2  dz2    Ryd( 3d)     0.00012
    69    H    2  dz2    Ryd( 4d)     0.00008

    70   Br    3  S      Cor( 3S)     1.99993
    71   Br    3  S      Val( 4S)     1.97517
    72   Br    3  S      Ryd( 5S)     0.00174
    73   Br    3  S      Ryd( 6S)     0.00035
    74   Br    3  S      Ryd( 7S)     0.00011
    75   Br    3  S      Ryd( 8S)     0.00000
    76   Br    3  px     Cor( 3p)     2.00001
    77   Br    3  px     Val( 4p)     1.95057
    78   Br    3  px     Ryd( 5p)     0.01117
    79   Br    3  px     Ryd( 6p)     0.00079
    80   Br    3  px     Ryd( 7p)     0.00007
    81   Br    3  py     Cor( 3p)     1.99996
    82   Br    3  py     Val( 4p)     1.87266
    83   Br    3  py     Ryd( 5p)     0.00989
    84   Br    3  py     Ryd( 6p)     0.00074
    85   Br    3  py     Ryd( 7p)     0.00021
    86   Br    3  pz     Cor( 3p)     2.00001
    87   Br    3  pz     Val( 4p)     1.95438
    88   Br    3  pz     Ryd( 5p)     0.01120
    89   Br    3  pz     Ryd( 6p)     0.00079
    90   Br    3  pz     Ryd( 7p)     0.00005
    91   Br    3  dxy    Cor( 3d)     1.99768
    92   Br    3  dxy    Ryd( 4d)     0.01855
    93   Br    3  dxy    Ryd( 5d)     0.00137
    94   Br    3  dxy    Ryd( 6d)     0.00019
    95   Br    3  dxz    Cor( 3d)     1.99771
    96   Br    3  dxz    Ryd( 4d)     0.01829
    97   Br    3  dxz    Ryd( 5d)     0.00169
    98   Br    3  dxz    Ryd( 6d)     0.00019
    99   Br    3  dyz    Cor( 3d)     1.99768
   100   Br    3  dyz    Ryd( 4d)     0.01839
   101   Br    3  dyz    Ryd( 5d)     0.00135
   102   Br    3  dyz    Ryd( 6d)     0.00020
   103   Br    3  dx2y2  Cor( 3d)     1.99766
   104   Br    3  dx2y2  Ryd( 4d)     0.01912
   105   Br    3  dx2y2  Ryd( 5d)     0.00164
   106   Br    3  dx2y2  Ryd( 6d)     0.00018
   107   Br    3  dz2    Cor( 3d)     1.99769
   108   Br    3  dz2    Ryd( 4d)     0.01864
   109   Br    3  dz2    Ryd( 5d)     0.00170
   110   Br    3  dz2    Ryd( 6d)     0.00019
   111   Br    3  f(0)   Ryd( 4f)     0.00171
   112   Br    3  f(0)   Ryd( 5f)     0.00025
   113   Br    3  f(C1)  Ryd( 4f)     0.00173
   114   Br    3  f(C1)  Ryd( 5f)     0.00024
   115   Br    3  f(S1)  Ryd( 4f)     0.00179
   116   Br    3  f(S1)  Ryd( 5f)     0.00028
   117   Br    3  f(C2)  Ryd( 4f)     0.00169
   118   Br    3  f(C2)  Ryd( 5f)     0.00025
   119   Br    3  f(S2)  Ryd( 4f)     0.00172
   120   Br    3  f(S2)  Ryd( 5f)     0.00024
   121   Br    3  f(C3)  Ryd( 4f)     0.00171
   122   Br    3  f(C3)  Ryd( 5f)     0.00027
   123   Br    3  f(S3)  Ryd( 4f)     0.00177
   124   Br    3  f(S3)  Ryd( 5f)     0.00028

   125    H    4  S      Val( 1S)     0.31464
   126    H    4  S      Ryd( 2S)     0.00422
   127    H    4  S      Ryd( 3S)     0.00053
   128    H    4  S      Ryd( 4S)     0.00025
   129    H    4  px     Ryd( 2p)     0.00380
   130    H    4  px     Ryd( 3p)     0.00042
   131    H    4  px     Ryd( 4p)     0.00007
   132    H    4  py     Ryd( 2p)     0.00484
   133    H    4  py     Ryd( 3p)     0.00111
   134    H    4  py     Ryd( 4p)     0.00018
   135    H    4  pz     Ryd( 2p)     0.00398
   136    H    4  pz     Ryd( 3p)     0.00035
   137    H    4  pz     Ryd( 4p)     0.00006
   138    H    4  dxy    Ryd( 3d)     0.00026
   139    H    4  dxy    Ryd( 4d)     0.00008
   140    H    4  dxz    Ryd( 3d)     0.00020
   141    H    4  dxz    Ryd( 4d)     0.00004
   142    H    4  dyz    Ryd( 3d)     0.00028
   143    H    4  dyz    Ryd( 4d)     0.00010
   144    H    4  dx2y2  Ryd( 3d)     0.00018
   145    H    4  dx2y2  Ryd( 4d)     0.00010
   146    H    4  dz2    Ryd( 3d)     0.00020
   147    H    4  dz2    Ryd( 4d)     0.00006

 [ 10 electrons found in the effective core potential]

 WARNING:  5 low occupancy (<1.9990e) core orbitals found on Br    3


 Summary of Natural Population Analysis:                  
                                                          
                                       Natural Population 
                Natural  -----------------------------------------------
    Atom  No    Charge         Core      Valence    Rydberg      Total
 -----------------------------------------------------------------------
      O    1   -1.41936      1.99992     7.31023    0.10922     9.41936
      H    2    0.64912      0.00000     0.33531    0.01556     0.35088
     Br    3   -0.89383     27.98834     7.75278    0.15271    35.89383
      H    4    0.66402      0.00000     0.31464    0.02134     0.33598
 =======================================================================
   * Total *   -1.00005     29.98826    15.71296    0.29882    46.00005

                                 Natural Population      
 --------------------------------------------------------
   Effective Core            10.00000
   Core                      19.98826 ( 99.9413% of  20)
   Valence                   15.71296 ( 98.2060% of  16)
   Natural Minimal Basis     45.70123 ( 99.3505% of  46)
   Natural Rydberg Basis      0.29882 (  0.6496% of  46)
 --------------------------------------------------------

    Atom  No          Natural Electron Configuration
 ----------------------------------------------------------------------------
      O    1      [core]2S( 1.91)2p( 5.40)3S( 0.01)3p( 0.05)3d( 0.04)
      H    2            1S( 0.34)2p( 0.01)
     Br    3      [core]4S( 1.98)4p( 5.78)4d( 0.09)5p( 0.03)4f( 0.01)5d( 0.01)
      H    4            1S( 0.31)2p( 0.01)


 NATURAL BOND ORBITAL ANALYSIS:
 Warning:  a bond orbital has occupanc of -0.00017

                       Occupancies       Lewis Structure    Low   High
           Occ.    -------------------  -----------------   occ   occ
  Cycle   Thresh.   Lewis   Non-Lewis     CR  BD  3C  LP    (L)   (NL)   Dev
 =============================================================================
   1(1)    1.90    45.58613   0.41387     10   2   0   6     1      1    0.14
 Warning:  a bond orbital has occupanc of -0.00017
   2(2)    1.90    45.58613   0.41387     10   2   0   6     1      1    0.14
 Warning:  a bond orbital has occupanc of -0.00017
   3(1)    1.80    45.58613   0.41387     10   2   0   6     0      1    0.14
 Warning:  a bond orbital has occupanc of -0.00017
   4(2)    1.80    45.58613   0.41387     10   2   0   6     0      1    0.14
 Warning:  a bond orbital has occupanc of -0.00017
   5(1)    1.70    45.38202   0.61798     10   1   0   7     0      1    0.33
 Warning:  a bond orbital has occupanc of -0.00017
   6(2)    1.70    45.38202   0.61798     10   1   0   7     0      1    0.33
 Warning:  a bond orbital has occupanc of -0.00017
   7(1)    1.60    45.07221   0.92779     10   0   0   8     0      2    0.53
 Warning:  a bond orbital has occupanc of -0.00017
   8(2)    1.60    45.07221   0.92779     10   0   0   8     0      2    0.53
 Warning:  a bond orbital has occupanc of -0.00017
   9(1)    1.50    45.07221   0.92779     10   0   0   8     0      2    0.53
 Warning:  a bond orbital has occupanc of -0.00017
  10(2)    1.50    45.07221   0.92779     10   0   0   8     0      2    0.53
 Warning:  a bond orbital has occupanc of -0.00017
  11(1)    1.90    45.58613   0.41387     10   2   0   6     1      1    0.14
 -----------------------------------------------------------------------------

 Structure accepted: RESONANCE keyword permits strongly delocalized structure

 WARNING:  5 low occupancy (<1.9990e) core orbitals found on Br    3

 --------------------------------------------------------
   Effective Core           10.00000
   Core                     19.98826 ( 99.941% of  20)
   Valence Lewis            15.59787 ( 97.487% of  16)
  ==================       ============================
   Total Lewis              45.58613 ( 99.100% of  46)
  -----------------------------------------------------
   Valence non-Lewis         0.13697 (  0.298% of  46)
   Rydberg non-Lewis         0.27690 (  0.602% of  46)
  ==================       ============================
   Total non-Lewis           0.41387 (  0.900% of  46)
 --------------------------------------------------------


       (Occupancy)   Bond orbital/ Coefficients/ Hybrids
 ---------------------------------------------------------------------------------
     1. (1.96152) BD ( 1) O   1 - H   2  
                ( 83.70%)   0.9149* O   1 s( 14.43%)p 5.91( 85.21%)d 0.02(  0.35%)
                                                  f 0.00(  0.01%)
                                            0.0001  0.3798  0.0002 -0.0004 -0.0015
                                            0.9225 -0.0248 -0.0060 -0.0062 -0.0203
                                           -0.0067  0.0009 -0.0008  0.0000  0.0000
                                            0.0000  0.0000 -0.0171  0.0046 -0.0023
                                            0.0000  0.0000  0.0000  0.0000  0.0000
                                            0.0000  0.0481 -0.0034  0.0029 -0.0295
                                            0.0009 -0.0003  0.0000  0.0000 -0.0087
                                            0.0007  0.0000 -0.0001  0.0000  0.0000
                                            0.0000  0.0000  0.0036  0.0034  0.0008
                                           -0.0004
                ( 16.30%)   0.4037* H   2 s( 99.60%)p 0.00(  0.39%)d 0.00(  0.00%)
                                            0.9979 -0.0134  0.0002 -0.0006  0.0409
                                           -0.0446 -0.0037 -0.0154  0.0017 -0.0005
                                            0.0000  0.0000  0.0000  0.0004  0.0030
                                            0.0000  0.0000  0.0000  0.0000  0.0022
                                            0.0016 -0.0043 -0.0031
     2. (1.95152) BD ( 1) O   1 - H   4  
                ( 89.24%)   0.9447* O   1 s( 10.97%)p 8.09( 88.74%)d 0.03(  0.28%)
                                                  f 0.00(  0.01%)
                                           -0.0001 -0.3312  0.0001  0.0021 -0.0007
                                            0.1555 -0.0106 -0.0014 -0.0019  0.9290
                                           -0.0009 -0.0034 -0.0032  0.0000  0.0000
                                            0.0000  0.0000  0.0169 -0.0031  0.0013
                                            0.0000  0.0000  0.0000  0.0000  0.0000
                                            0.0000  0.0418 -0.0069  0.0016  0.0267
                                           -0.0039 -0.0005  0.0000  0.0000 -0.0013
                                            0.0002 -0.0095  0.0027  0.0000  0.0000
                                            0.0000  0.0000 -0.0030 -0.0002 -0.0006
                                            0.0001
                ( 10.76%)   0.3281* H   4 s( 99.67%)p 0.00(  0.31%)d 0.00(  0.02%)
                                           -0.9977  0.0333 -0.0162 -0.0010 -0.0349
                                           -0.0039 -0.0051 -0.0006 -0.0394 -0.0167
                                            0.0000  0.0000  0.0000 -0.0019  0.0008
                                            0.0000  0.0000  0.0000  0.0000  0.0080
                                            0.0033  0.0098  0.0009
     3. (1.99992) CR ( 1) O   1           s(100.00%)
                                            1.0000 -0.0003  0.0000  0.0000  0.0000
                                           -0.0000  0.0000  0.0000  0.0000  0.0001
                                           -0.0000 -0.0000 -0.0000  0.0000  0.0000
                                            0.0000  0.0000  0.0000 -0.0000  0.0000
                                            0.0000  0.0000  0.0000  0.0000  0.0000
                                            0.0000  0.0000 -0.0000 -0.0000  0.0000
                                           -0.0000 -0.0000  0.0000  0.0000  0.0000
                                            0.0000 -0.0000  0.0000  0.0000  0.0000
                                            0.0000  0.0000 -0.0000 -0.0000 -0.0000
                                            0.0000
     4. (1.99993) CR ( 1)Br   3           s(100.00%)
                                            1.0000 -0.0001 -0.0000 -0.0000  0.0000
                                            0.0000  0.0000  0.0000 -0.0000  0.0000
                                           -0.0000  0.0000  0.0000 -0.0000  0.0000
                                           -0.0000  0.0000  0.0000  0.0000  0.0000
                                            0.0000  0.0000 -0.0000  0.0000  0.0000
                                            0.0000  0.0000  0.0000  0.0000  0.0000
                                            0.0000  0.0000  0.0000 -0.0000  0.0000
                                           -0.0000 -0.0000 -0.0000  0.0000 -0.0000
                                           -0.0000  0.0000  0.0000  0.0000  0.0000
                                            0.0000  0.0000  0.0000  0.0000  0.0000
                                            0.0000  0.0000  0.0000  0.0000  0.0000
     5. (2.00001) CR ( 2)Br   3           s(  0.00%)p 1.00(100.00%)
                                            0.0000  0.0000 -0.0000 -0.0000  0.0000
                                           -0.0000  1.0000 -0.0002 -0.0000 -0.0000
                                            0.0000  0.0000  0.0000  0.0000  0.0000
                                            0.0000  0.0000  0.0000  0.0000  0.0000
                                            0.0000  0.0000 -0.0000  0.0000  0.0000
                                            0.0000  0.0000  0.0000  0.0000  0.0000
                                            0.0000  0.0000  0.0000  0.0000 -0.0000
                                            0.0000  0.0000  0.0000  0.0000 -0.0000
                                            0.0000  0.0000  0.0000  0.0000  0.0000
                                           -0.0000 -0.0000  0.0000  0.0000  0.0000
                                            0.0000  0.0000  0.0000 -0.0000 -0.0000
     6. (1.99996) CR ( 3)Br   3           s(  0.00%)p 1.00(100.00%)
                                            0.0000  0.0001  0.0000  0.0000 -0.0000
                                           -0.0000  0.0000  0.0000  0.0000  0.0000
                                           -0.0000  1.0000 -0.0000  0.0000 -0.0000
                                           -0.0000  0.0000  0.0000  0.0000  0.0000
                                            0.0000 -0.0000  0.0000 -0.0000 -0.0000
                                            0.0000  0.0000  0.0000  0.0000  0.0000
                                            0.0000  0.0000  0.0000  0.0000  0.0000
                                           -0.0000  0.0000  0.0000 -0.0000  0.0000
                                           -0.0000  0.0000  0.0000 -0.0000 -0.0000
                                           -0.0000 -0.0000  0.0000  0.0000  0.0000
                                            0.0000 -0.0000 -0.0000  0.0000  0.0000
     7. (2.00001) CR ( 4)Br   3           s(  0.00%)p 1.00(100.00%)
                                            0.0000  0.0000  0.0000  0.0000  0.0000
                                            0.0000  0.0000  0.0000  0.0000  0.0000
                                            0.0000  0.0000  0.0000  0.0000  0.0000
                                            0.0000  1.0000 -0.0002 -0.0000 -0.0000
                                            0.0000  0.0000  0.0000  0.0000  0.0000
                                            0.0000 -0.0000  0.0000 -0.0000  0.0000
                                           -0.0000  0.0000  0.0000  0.0000  0.0000
                                            0.0000  0.0000  0.0000  0.0000  0.0000
                                            0.0000  0.0000  0.0000  0.0000  0.0000
                                            0.0000  0.0000  0.0000  0.0000 -0.0000
                                           -0.0000  0.0000  0.0000  0.0000  0.0000
     8. (1.99768) CR ( 5)Br   3           s(  0.00%)p 0.00(  0.00%)d 1.00(100.00%)
                                            0.0000  0.0000  0.0000  0.0000 -0.0000
                                           -0.0000  0.0000  0.0000  0.0000  0.0000
                                           -0.0000 -0.0000 -0.0000  0.0000 -0.0000
                                           -0.0000  0.0000  0.0000  0.0000  0.0000
                                            0.0000  1.0000  0.0000 -0.0000 -0.0000
                                            0.0000  0.0000  0.0000  0.0000  0.0000
                                            0.0000  0.0000  0.0000  0.0000  0.0000
                                           -0.0000  0.0000  0.0000 -0.0000  0.0000
                                           -0.0000  0.0000  0.0000 -0.0000 -0.0000
                                           -0.0000 -0.0000  0.0000  0.0000  0.0000
                                            0.0000 -0.0000 -0.0000  0.0000  0.0000
     9. (1.99771) CR ( 6)Br   3           s(  0.00%)p 0.00(  0.00%)d 1.00(100.00%)
                                            0.0000  0.0000  0.0000  0.0000  0.0000
                                            0.0000  0.0000  0.0000  0.0000  0.0000
                                            0.0000  0.0000  0.0000  0.0000  0.0000
                                            0.0000  0.0000  0.0000  0.0000  0.0000
                                           -0.0000  0.0000  0.0000  0.0000  0.0000
                                            1.0000  0.0000 -0.0000  0.0000 -0.0000
                                            0.0000 -0.0000 -0.0000  0.0000  0.0000
                                            0.0000  0.0000  0.0000  0.0000  0.0000
                                            0.0000 -0.0000 -0.0000  0.0000  0.0000
                                            0.0000  0.0000 -0.0000 -0.0000  0.0000
                                            0.0000  0.0000  0.0000  0.0000  0.0000
    10. (1.99768) CR ( 7)Br   3           s(  0.00%)p 0.00(  0.00%)d 1.00(100.00%)
                                            0.0000  0.0000  0.0000  0.0000  0.0000
                                            0.0000  0.0000  0.0000  0.0000  0.0000
                                            0.0000  0.0000  0.0000  0.0000  0.0000
                                            0.0000  0.0000  0.0000  0.0000  0.0000
                                           -0.0000  0.0000  0.0000  0.0000  0.0000
                                           -0.0000  0.0000 -0.0000  0.0000  1.0000
                                            0.0000 -0.0000 -0.0000  0.0000  0.0000
                                            0.0000  0.0000  0.0000  0.0000  0.0000
                                            0.0000 -0.0000 -0.0000  0.0000  0.0000
                                            0.0000  0.0000 -0.0000 -0.0000  0.0000
                                            0.0000  0.0000  0.0000  0.0000  0.0000
    11. (1.99766) CR ( 8)Br   3           s(  0.00%)p 0.00(  0.00%)d 1.00(100.00%)
                                           -0.0000 -0.0000 -0.0000  0.0000 -0.0000
                                            0.0000  0.0000  0.0000  0.0000  0.0000
                                           -0.0000  0.0000  0.0000 -0.0000  0.0000
                                           -0.0000  0.0000  0.0000  0.0000  0.0000
                                            0.0000  0.0000  0.0000  0.0000 -0.0000
                                            0.0000  0.0000  0.0000  0.0000  0.0000
                                            0.0000  0.0000  0.0000  1.0000  0.0000
                                           -0.0000 -0.0000 -0.0000  0.0000 -0.0000
                                           -0.0000  0.0000  0.0000 -0.0000 -0.0000
                                            0.0000  0.0000  0.0000  0.0000  0.0000
                                            0.0000 -0.0000 -0.0000  0.0000  0.0000
    12. (1.99769) CR ( 9)Br   3           s(  0.00%)p 0.00(  0.00%)d 1.00(100.00%)
                                           -0.0000 -0.0000 -0.0000 -0.0000  0.0000
                                            0.0000  0.0000  0.0000 -0.0000  0.0000
                                           -0.0000  0.0000  0.0000 -0.0000  0.0000
                                           -0.0000  0.0000  0.0000  0.0000  0.0000
                                            0.0000  0.0000 -0.0000  0.0000  0.0000
                                            0.0000  0.0000  0.0000  0.0000  0.0000
                                            0.0000  0.0000  0.0000 -0.0000  0.0000
                                           -0.0000 -0.0000  1.0000  0.0000 -0.0000
                                           -0.0000  0.0000  0.0000  0.0000  0.0000
                                            0.0000  0.0000  0.0000  0.0000  0.0000
                                            0.0000  0.0000  0.0000  0.0000  0.0000
    13. (1.97218) LP ( 1) O   1           s( 74.55%)p 0.34( 25.39%)d 0.00(  0.06%)
                                                  f 0.00(  0.00%)
                                            0.0002  0.8634 -0.0002  0.0010  0.0002
                                           -0.3469 -0.0082 -0.0037  0.0010  0.3653
                                            0.0045  0.0048  0.0014  0.0000  0.0000
                                            0.0000  0.0000  0.0216 -0.0029 -0.0007
                                            0.0000  0.0000  0.0000  0.0000  0.0000
                                            0.0000 -0.0025  0.0004 -0.0004  0.0075
                                           -0.0026  0.0025  0.0000  0.0000  0.0017
                                           -0.0012 -0.0011  0.0004  0.0000  0.0000
                                            0.0000  0.0000  0.0020 -0.0009  0.0018
                                            0.0000
    14. (1.95719) LP ( 2) O   1           s(  0.00%)p 1.00( 99.81%)d 0.00(  0.17%)
                                                  f 0.00(  0.01%)
                                            0.0000  0.0000  0.0000  0.0000  0.0000
                                            0.0000  0.0000  0.0000  0.0000  0.0000
                                            0.0000  0.0000  0.0000  0.9989  0.0192
                                            0.0047  0.0070  0.0000  0.0000  0.0000
                                            0.0364 -0.0033 -0.0011 -0.0200  0.0025
                                            0.0015  0.0000  0.0000  0.0000  0.0000
                                            0.0000  0.0000 -0.0094  0.0032  0.0000
                                            0.0000  0.0000  0.0000  0.0016  0.0011
                                            0.0017 -0.0006  0.0000  0.0000  0.0000
                                            0.0000
    15. (1.97983) LP ( 1)Br   3           s( 95.97%)p 0.04(  4.03%)d 0.00(  0.00%)
                                                  f 0.00(  0.00%)
                                            0.0001  0.9796  0.0003  0.0003 -0.0004
                                           -0.0001 -0.0000 -0.0386  0.0005 -0.0001
                                            0.0001 -0.0001 -0.1971  0.0017 -0.0006
                                            0.0001  0.0000  0.0000  0.0000  0.0000
                                            0.0000 -0.0000  0.0001 -0.0003 -0.0000
                                            0.0000  0.0000  0.0000  0.0000  0.0000
                                            0.0000  0.0000  0.0000  0.0000 -0.0002
                                            0.0003  0.0001  0.0000 -0.0002  0.0003
                                            0.0001  0.0000  0.0000 -0.0001 -0.0000
                                           -0.0004 -0.0001  0.0000  0.0000  0.0000
                                            0.0000 -0.0003 -0.0001 -0.0004 -0.0001
    16. (1.95456) LP ( 2)Br   3           s(  0.00%)p 1.00( 99.99%)d 0.00(  0.01%)
                                                  f 0.00(  0.00%)
                                            0.0000  0.0000  0.0000  0.0000  0.0000
                                            0.0000  0.0000  0.0000  0.0000  0.0000
                                            0.0000  0.0000  0.0000  0.0000  0.0000
                                            0.0000  0.0002  1.0000  0.0027  0.0018
                                           -0.0007  0.0000  0.0000  0.0000  0.0000
                                           -0.0000  0.0025 -0.0008  0.0005 -0.0000
                                            0.0065 -0.0006 -0.0031  0.0000  0.0000
                                            0.0000  0.0000  0.0000  0.0000  0.0000
                                            0.0000 -0.0027 -0.0015  0.0000  0.0000
                                            0.0000  0.0000 -0.0028 -0.0013  0.0014
                                            0.0009  0.0000  0.0000  0.0000  0.0000
    17. (1.95431) LP ( 3)Br   3           s(  0.00%)p 1.00( 99.99%)d 0.00(  0.01%)
                                                  f 0.00(  0.00%)
                                            0.0000  0.0024 -0.0001 -0.0012  0.0015
                                           -0.0000 -0.0002 -0.9790 -0.0037 -0.0021
                                            0.0012  0.0000  0.2035  0.0004  0.0001
                                            0.0004 -0.0000 -0.0000 -0.0000 -0.0000
                                           -0.0000  0.0000 -0.0067  0.0005  0.0030
                                           -0.0000 -0.0000 -0.0000 -0.0000 -0.0000
                                           -0.0000 -0.0000 -0.0000  0.0000 -0.0045
                                            0.0012  0.0000 -0.0000  0.0005 -0.0003
                                            0.0006 -0.0000 -0.0000  0.0012  0.0007
                                           -0.0002 -0.0000 -0.0000 -0.0000 -0.0000
                                           -0.0000  0.0030  0.0014 -0.0024 -0.0013
    18. (1.86675) LP ( 4)Br   3           s(  4.03%)p23.80( 95.86%)d 0.02(  0.10%)
                                                  f 0.00(  0.01%)
                                            0.0000  0.2007 -0.0018 -0.0016  0.0021
                                            0.0003  0.0000  0.1998 -0.0011 -0.0008
                                            0.0003  0.0000  0.9584 -0.0064 -0.0041
                                            0.0019  0.0000  0.0000  0.0000  0.0000
                                            0.0000  0.0000  0.0111 -0.0024  0.0003
                                            0.0000  0.0000  0.0000  0.0000  0.0000
                                            0.0000  0.0000  0.0000  0.0000 -0.0240
                                            0.0057  0.0002  0.0000 -0.0158  0.0039
                                           -0.0006  0.0000  0.0000 -0.0014 -0.0007
                                           -0.0067 -0.0033  0.0000  0.0000  0.0000
                                            0.0000 -0.0048 -0.0020 -0.0068 -0.0030
    19. (0.02245) RY*( 1) O   1           s(  0.00%)p 1.00( 98.75%)d 0.01(  1.21%)
                                                  f 0.00(  0.04%)
                                            0.0000  0.0000  0.0000  0.0000  0.0000
                                            0.0000  0.0000  0.0000  0.0000  0.0000
                                            0.0000  0.0000  0.0000 -0.0236  0.9932
                                           -0.0201 -0.0108  0.0000  0.0000  0.0000
                                            0.0880 -0.0165  0.0057 -0.0613  0.0169
                                           -0.0071  0.0000  0.0000  0.0000  0.0000
                                            0.0000  0.0000 -0.0135  0.0125  0.0000
                                            0.0000  0.0000  0.0000 -0.0022  0.0018
                                           -0.0001 -0.0015  0.0000  0.0000  0.0000
                                            0.0000
    20. (0.01761) RY*( 2) O   1           s( 13.09%)p 6.46( 84.52%)d 0.18(  2.31%)
                                                  f 0.01(  0.08%)
                                           -0.0000 -0.0093  0.3612  0.0176 -0.0070
                                           -0.0032 -0.5723  0.0029  0.0133 -0.0123
                                            0.7192 -0.0018 -0.0110  0.0000  0.0000
                                            0.0000  0.0000  0.1462 -0.0239  0.0084
                                            0.0000  0.0000  0.0000  0.0000  0.0000
                                            0.0000  0.0031 -0.0042  0.0050  0.0247
                                           -0.0175  0.0100  0.0000  0.0000  0.0000
                                           -0.0038 -0.0021  0.0047  0.0000  0.0000
                                            0.0000  0.0000  0.0227 -0.0102  0.0105
                                           -0.0035
    21. (0.01061) RY*( 3) O   1           s(  0.39%)p99.99( 94.62%)d12.42(  4.82%)
                                                  f 0.45(  0.17%)
                                            0.0000  0.0090  0.0575  0.0210 -0.0069
                                            0.0330  0.7809 -0.0075 -0.0317  0.0144
                                            0.5778 -0.0053  0.0135  0.0000  0.0000
                                            0.0000  0.0000  0.0850  0.0072 -0.0044
                                            0.0000  0.0000  0.0000  0.0000  0.0000
                                            0.0000 -0.1977 -0.0363  0.0198 -0.0102
                                           -0.0011 -0.0041  0.0000  0.0000  0.0174
                                           -0.0005  0.0039  0.0000  0.0000  0.0000
                                            0.0000  0.0000 -0.0290  0.0094  0.0196
                                           -0.0108
    22. (0.00677) RY*( 4) O   1           s( 38.13%)p 0.05(  2.06%)d 1.56( 59.32%)
                                                  f 0.01(  0.49%)
                                            0.0000  0.0109  0.6170 -0.0119  0.0172
                                            0.0000  0.0862  0.0159 -0.0038  0.0131
                                           -0.1067 -0.0075 -0.0360 -0.0000 -0.0000
                                           -0.0000 -0.0000 -0.6943 -0.0073 -0.0097
                                           -0.0000 -0.0000 -0.0000 -0.0000 -0.0000
                                           -0.0000 -0.1037  0.0027  0.0085  0.3142
                                            0.0379 -0.0086 -0.0000 -0.0000  0.0008
                                            0.0099  0.0156 -0.0113 -0.0000 -0.0000
                                           -0.0000 -0.0000 -0.0526  0.0208 -0.0346
                                            0.0058
    23. (0.00635) RY*( 5) O   1           s(  0.00%)p 1.00(  0.01%)d99.99( 98.68%)
                                                  f99.99(  1.31%)
                                            0.0000  0.0000  0.0000  0.0000  0.0000
                                            0.0000  0.0000  0.0000  0.0000  0.0000
                                            0.0000  0.0000  0.0000 -0.0043 -0.0001
                                           -0.0095 -0.0014  0.0000  0.0000  0.0000
                                            0.5696  0.0316 -0.0053  0.8122  0.0409
                                            0.0012  0.0000  0.0000  0.0000  0.0000
                                            0.0000  0.0000  0.0117 -0.0128  0.0000
                                            0.0000  0.0000  0.0000  0.0967 -0.0582
                                            0.0013  0.0052  0.0000  0.0000  0.0000
                                            0.0000
    24. (0.00599) RY*( 6) O   1           s(  0.00%)p 1.00(  1.36%)d71.98( 97.61%)
                                                  f 0.76(  1.03%)
                                            0.0000  0.0000  0.0000  0.0000  0.0000
                                            0.0000  0.0000  0.0000  0.0000  0.0000
                                            0.0000  0.0000  0.0000 -0.0393 -0.1057
                                            0.0245  0.0153  0.0000  0.0000  0.0000
                                            0.8039  0.0707 -0.0245 -0.5673 -0.0484
                                            0.0106  0.0000  0.0000  0.0000  0.0000
                                            0.0000  0.0000 -0.0748  0.0412  0.0000
                                            0.0000  0.0000  0.0000  0.0329 -0.0139
                                           -0.0382  0.0170  0.0000  0.0000  0.0000
                                            0.0000
    25. (0.00592) RY*( 7) O   1           s(  4.92%)p 0.80(  3.96%)d18.36( 90.29%)
                                                  f 0.17(  0.84%)
                                           -0.0000  0.0077  0.2213 -0.0114  0.0031
                                            0.0187  0.1128 -0.0158 -0.0066 -0.0412
                                           -0.1554  0.0173 -0.0073  0.0000  0.0000
                                            0.0000  0.0000  0.5326  0.0203 -0.0020
                                            0.0000  0.0000  0.0000  0.0000  0.0000
                                            0.0000  0.2443  0.0169  0.0068  0.7431
                                            0.0780 -0.0226  0.0000  0.0000  0.0489
                                           -0.0222 -0.0532  0.0309  0.0000  0.0000
                                            0.0000  0.0000  0.0319 -0.0193  0.0178
                                           -0.0033
    26. (0.00438) RY*( 8) O   1           s( 27.19%)p 0.41( 11.27%)d 2.19( 59.57%)
                                                  f 0.07(  1.96%)
                                            0.0000 -0.0060  0.5204 -0.0326 -0.0076
                                            0.0245  0.0121 -0.0051 -0.0145  0.0200
                                           -0.3268  0.0025 -0.0674  0.0000  0.0000
                                            0.0000  0.0000  0.4289  0.0263 -0.0043
                                            0.0000  0.0000  0.0000  0.0000  0.0000
                                            0.0000 -0.5307 -0.0313  0.0271 -0.3550
                                           -0.0389  0.0115  0.0000  0.0000  0.0176
                                           -0.0073  0.0491 -0.0382  0.0000  0.0000
                                            0.0000  0.0000  0.0128 -0.0259  0.1020
                                           -0.0641
    27. (0.00313) RY*( 9) O   1           s( 15.40%)p 0.33(  5.02%)d 5.08( 78.23%)
                                                  f 0.09(  1.35%)
                                            0.0000 -0.0055  0.3922  0.0082 -0.0055
                                           -0.0448  0.1965  0.0786  0.0051 -0.0143
                                           -0.0469  0.0262 -0.0158  0.0000  0.0000
                                            0.0000  0.0000  0.0626 -0.0013 -0.0001
                                            0.0000  0.0000  0.0000  0.0000  0.0000
                                            0.0000  0.7533  0.0943  0.0167 -0.4383
                                           -0.0970  0.0147  0.0000  0.0000 -0.0393
                                            0.0449 -0.0012  0.0017  0.0000  0.0000
                                            0.0000  0.0000  0.0600 -0.0613 -0.0441
                                            0.0258
    28. (0.00060) RY*(10) O   1           s( 20.00%)p 3.28( 65.59%)d 0.64( 12.82%)
                                                  f 0.08(  1.59%)
                                            0.0000 -0.0065  0.0098  0.4471  0.0039
                                           -0.0015 -0.0117 -0.3234 -0.0347  0.0030
                                           -0.0035  0.7398  0.0522  0.0000  0.0000
                                            0.0000  0.0000 -0.0113  0.3233 -0.0845
                                            0.0000  0.0000  0.0000  0.0000  0.0000
                                            0.0000 -0.0118  0.1096  0.0156 -0.0058
                                            0.0089  0.0624  0.0000  0.0000  0.0006
                                           -0.0018  0.1015 -0.0141  0.0000  0.0000
                                            0.0000  0.0000 -0.0488  0.0180 -0.0476
                                            0.0206
    29. (0.00057) RY*(11) O   1           s(  0.00%)p 1.00( 46.71%)d 1.06( 49.53%)
                                                  f 0.08(  3.76%)
                                            0.0000  0.0000  0.0000  0.0000  0.0000
                                            0.0000  0.0000  0.0000  0.0000  0.0000
                                            0.0000  0.0000  0.0000  0.0024  0.0383
                                            0.6802 -0.0539  0.0000  0.0000  0.0000
                                           -0.0401  0.3524 -0.0314  0.0395 -0.6043
                                            0.0425  0.0000  0.0000  0.0000  0.0000
                                            0.0000  0.0000  0.1407 -0.0270  0.0000
                                            0.0000  0.0000  0.0000  0.0843 -0.0048
                                            0.0995  0.0058  0.0000  0.0000  0.0000
                                            0.0000
    30. (0.00053) RY*(12) O   1           s(  4.37%)p 0.11(  0.47%)d18.65( 81.52%)
                                                  f 3.12( 13.64%)
                                           -0.0000  0.0002 -0.0271  0.2019  0.0471
                                            0.0054  0.0096  0.0426  0.0033 -0.0065
                                           -0.0209  0.0245 -0.0409 -0.0000 -0.0000
                                           -0.0000 -0.0000 -0.0357 -0.1877 -0.0509
                                           -0.0000 -0.0000 -0.0000 -0.0000 -0.0000
                                           -0.0000 -0.0202 -0.2045  0.0183  0.1171
                                           -0.8415  0.1081 -0.0000 -0.0000  0.1484
                                           -0.0154  0.0711 -0.0005 -0.0000 -0.0000
                                           -0.0000 -0.0000  0.3094  0.0119  0.1150
                                            0.0017
    31. (0.00048) RY*(13) O   1           s(  0.00%)p 1.00( 37.09%)d 0.77( 28.48%)
                                                  f 0.93( 34.43%)
                                            0.0000  0.0000  0.0000  0.0000  0.0000
                                            0.0000  0.0000  0.0000  0.0000  0.0000
                                            0.0000  0.0000  0.0000  0.0022  0.0002
                                           -0.5949  0.1304  0.0000  0.0000  0.0000
                                           -0.0039  0.1379  0.0093  0.0078 -0.5144
                                           -0.0319  0.0000  0.0000  0.0000  0.0000
                                            0.0000  0.0000 -0.0699  0.0048  0.0000
                                            0.0000  0.0000  0.0000  0.0680 -0.0095
                                            0.5780  0.0239  0.0000  0.0000  0.0000
                                            0.0000
    32. (0.00046) RY*(14) O   1           s(  0.00%)p 1.00(  1.38%)d 1.63(  2.25%)
                                                  f69.73( 96.37%)
                                            0.0000  0.0000  0.0000  0.0000  0.0000
                                            0.0000  0.0000  0.0000  0.0000  0.0000
                                            0.0000  0.0000  0.0000  0.0044  0.0016
                                           -0.1101  0.0408  0.0000  0.0000  0.0000
                                           -0.0008 -0.0467 -0.0164 -0.0833  0.0968
                                           -0.0614  0.0000  0.0000  0.0000  0.0000
                                            0.0000  0.0000  0.7709  0.0525  0.0000
                                            0.0000  0.0000  0.0000  0.6043  0.0371
                                           -0.0051  0.0014  0.0000  0.0000  0.0000
                                            0.0000
    33. (0.00046) RY*(15) O   1           s(  2.41%)p 1.96(  4.72%)d 2.28(  5.50%)
                                                  f36.25( 87.37%)
                                           -0.0000  0.0016  0.0429  0.1485 -0.0141
[...]
                                            0.9892  0.0897 -0.0188  0.0000  0.0000
                                           -0.0120  0.0158 -0.0855  0.0736  0.0000
                                            0.0000  0.0000  0.0000
   126. (0.00361) RY*( 3) H   4           s(  0.51%)p99.99( 97.81%)d 3.31(  1.68%)
                                           -0.0334  0.0445  0.0258  0.0362  0.9505
                                           -0.0200 -0.0254 -0.2684  0.0386 -0.0079
                                            0.0000  0.0000  0.0000 -0.1185  0.0223
                                            0.0000  0.0000  0.0000  0.0000 -0.0166
                                            0.0223 -0.0314  0.0218
   127. (0.00260) RY*( 4) H   4           s( 53.45%)p 0.86( 46.18%)d 0.01(  0.36%)
                                            0.0264  0.7082 -0.0102 -0.1795  0.1593
                                            0.0409  0.0041  0.6305 -0.1927 -0.0122
                                            0.0000  0.0000  0.0000 -0.0259  0.0154
                                            0.0000  0.0000  0.0000  0.0000  0.0335
                                            0.0144  0.0364  0.0080
   128. (0.00171) RY*( 5) H   4           s( 32.74%)p 1.96( 64.15%)d 0.09(  3.11%)
                                           -0.0323  0.1858  0.5386  0.0419 -0.0422
                                            0.1851 -0.0053  0.0503  0.7764 -0.0116
                                            0.0000  0.0000  0.0000  0.0164 -0.0718
                                            0.0000  0.0000  0.0000  0.0000 -0.0377
                                            0.1312 -0.0156  0.0822
   129. (0.00043) RY*( 6) H   4           s(  7.32%)p12.19( 89.20%)d 0.48(  3.48%)
                                            0.0003 -0.0536  0.0162  0.2646  0.0061
                                            0.9065 -0.0904  0.0095 -0.2110  0.1322
                                            0.0000  0.0000  0.0000 -0.0783  0.1555
                                            0.0000  0.0000  0.0000  0.0000  0.0249
                                            0.0013 -0.0618 -0.0091
   130. (0.00034) RY*( 7) H   4           s(  0.00%)p 1.00( 86.37%)d 0.16( 13.63%)
                                            0.0000  0.0000  0.0000  0.0000  0.0000
                                            0.0000  0.0000  0.0000  0.0000  0.0000
                                           -0.0720  0.9244  0.0632  0.0000  0.0000
                                            0.0104  0.0743  0.3040  0.1957  0.0000
                                            0.0000  0.0000  0.0000
   131. (0.00027) RY*( 8) H   4           s(  0.00%)p 1.00( 19.12%)d 4.23( 80.88%)
                                            0.0000  0.0000  0.0000  0.0000  0.0000
                                            0.0000  0.0000  0.0000  0.0000  0.0000
                                            0.1076 -0.3197  0.2783  0.0000  0.0000
                                            0.0113  0.0546  0.8964  0.0460  0.0000
                                            0.0000  0.0000  0.0000
   132. (0.00024) RY*( 9) H   4           s(  3.91%)p 2.33(  9.11%)d22.26( 86.98%)
                                            0.0016  0.0063 -0.1305  0.1483  0.1033
                                            0.0641  0.2257  0.0082  0.0573 -0.1484
                                            0.0000  0.0000  0.0000  0.7455  0.0474
                                            0.0000  0.0000  0.0000  0.0000  0.5313
                                            0.1355  0.0878  0.0587
   133. (0.00020) RY*(10) H   4           s(  0.00%)p 1.00(  0.12%)d99.99( 99.88%)
                                            0.0000  0.0000  0.0000  0.0000  0.0000
                                            0.0000  0.0000  0.0000  0.0000  0.0000
                                            0.0138  0.0021 -0.0314  0.0000  0.0000
                                            0.9812 -0.1895  0.0074  0.0132  0.0000
                                            0.0000  0.0000  0.0000
   134. (0.00021) RY*(11) H   4           s( 11.03%)p 1.73( 19.05%)d 6.34( 69.92%)
                                           -0.0143  0.0062  0.2855 -0.1688  0.0624
                                           -0.0000  0.1376 -0.0458 -0.1311  0.3852
                                           -0.0000 -0.0000 -0.0000  0.5352  0.1736
                                           -0.0000 -0.0000 -0.0000 -0.0000 -0.5099
                                           -0.2306  0.0030 -0.2635
   135. (0.00020) RY*(12) H   4           s( 16.71%)p 0.05(  0.87%)d 4.93( 82.43%)
                                            0.0057  0.0285 -0.1355  0.3845  0.0228
                                           -0.0177  0.0286  0.0525  0.0565  0.0324
                                            0.0000  0.0000  0.0000 -0.0333 -0.1088
                                            0.0000  0.0000  0.0000  0.0000 -0.2547
                                            0.1068  0.8523 -0.0925
   136. (0.00013) RY*(13) H   4           s( 33.82%)p 1.61( 54.53%)d 0.34( 11.64%)
                                            0.0154 -0.1187  0.4450 -0.3549  0.0009
                                            0.1182 -0.1710 -0.0926 -0.3343 -0.6179
                                           -0.0000 -0.0000 -0.0000  0.0892 -0.0343
                                           -0.0000 -0.0000 -0.0000 -0.0000 -0.0839
                                            0.1814  0.2522  0.0611
   137. (0.00010) RY*(14) H   4           s( 69.10%)p 0.26( 17.68%)d 0.19( 13.22%)
                                            0.0061  0.0377  0.5203  0.6472 -0.0197
                                           -0.2922  0.0116  0.0847 -0.2737 -0.0937
                                            0.0000  0.0000  0.0000 -0.0891  0.1460
                                            0.0000  0.0000  0.0000  0.0000  0.1801
                                           -0.2060 -0.1181 -0.1189
   138. (0.00008) RY*(15) H   4           s(  0.00%)p 1.00( 21.11%)d 3.74( 78.89%)
   139. (0.00007) RY*(16) H   4           s(  0.24%)p82.79( 19.46%)d99.99( 80.30%)
   140. (0.00004) RY*(17) H   4           s(  4.79%)p14.38( 68.87%)d 5.50( 26.34%)
   141. (0.00004) RY*(18) H   4           s( 16.90%)p 2.06( 34.89%)d 2.85( 48.21%)
   142. (0.00003) RY*(19) H   4           s(  0.00%)p 1.00( 73.13%)d 0.37( 26.87%)
   143. (0.00003) RY*(20) H   4           s(  2.91%)p 7.12( 20.72%)d26.24( 76.37%)
   144. (0.00003) RY*(21) H   4           s(  0.00%)p 1.00(  1.47%)d66.90( 98.53%)
   145. (0.00003) RY*(22) H   4           s(  1.98%)p 1.08(  2.14%)d48.33( 95.88%)
   146. (0.02015) BD*( 1) O   1 - H   2  
                ( 16.30%)   0.4037* O   1 s( 14.43%)p 5.91( 85.21%)d 0.02(  0.35%)
                                                  f 0.00(  0.01%)
                                           -0.0001 -0.3798 -0.0002  0.0004  0.0015
                                           -0.9225  0.0248  0.0060  0.0062  0.0203
                                            0.0067 -0.0009  0.0008 -0.0000 -0.0000
                                           -0.0000 -0.0000  0.0171 -0.0046  0.0023
                                           -0.0000 -0.0000 -0.0000 -0.0000 -0.0000
                                           -0.0000 -0.0481  0.0034 -0.0029  0.0295
                                           -0.0009  0.0003 -0.0000 -0.0000  0.0087
                                           -0.0007 -0.0000  0.0001 -0.0000 -0.0000
                                           -0.0000 -0.0000 -0.0036 -0.0034 -0.0008
                                            0.0004
                ( 83.70%)  -0.9149* H   2 s( 99.60%)p 0.00(  0.39%)d 0.00(  0.00%)
                                           -0.9979  0.0134 -0.0002  0.0006 -0.0409
                                            0.0446  0.0037  0.0154 -0.0017  0.0005
                                           -0.0000 -0.0000 -0.0000 -0.0004 -0.0030
                                           -0.0000 -0.0000 -0.0000 -0.0000 -0.0022
                                           -0.0016  0.0043  0.0031
   147. (0.11681) BD*( 1) O   1 - H   4  
                ( 10.76%)   0.3281* O   1 s( 10.97%)p 8.09( 88.74%)d 0.03(  0.28%)
                                                  f 0.00(  0.01%)
                                            0.0001  0.3312 -0.0001 -0.0021  0.0007
                                           -0.1555  0.0106  0.0014  0.0019 -0.9290
                                            0.0009  0.0034  0.0032 -0.0000 -0.0000
                                           -0.0000 -0.0000 -0.0169  0.0031 -0.0013
                                           -0.0000 -0.0000 -0.0000 -0.0000 -0.0000
                                           -0.0000 -0.0418  0.0069 -0.0016 -0.0267
                                            0.0039  0.0005 -0.0000 -0.0000  0.0013
                                           -0.0002  0.0095 -0.0027 -0.0000 -0.0000
                                           -0.0000 -0.0000  0.0030  0.0002  0.0006
                                           -0.0001
                ( 89.24%)  -0.9447* H   4 s( 99.67%)p 0.00(  0.31%)d 0.00(  0.02%)
                                            0.9977 -0.0333  0.0162  0.0010  0.0349
                                            0.0039  0.0051  0.0006  0.0394  0.0167
                                           -0.0000 -0.0000 -0.0000  0.0019 -0.0008
                                           -0.0000 -0.0000 -0.0000 -0.0000 -0.0080
                                           -0.0033 -0.0098 -0.0009


 NHO Directionality and "Bond Bending" (deviations from line of nuclear centers)

         [Thresholds for printing:  angular deviation  >  1.0 degree]
                                    hybrid p-character > 25.0%
                                    orbital occupancy  >  0.10e

                                Line of Centers        Hybrid 1              Hybrid 2
                                ---------------  -------------------   ------------------
                NBO               Theta   Phi    Theta   Phi    Dev    Theta   Phi    Dev
 ========================================================================================
     1. BD (   1) O   1 - H   2    90.0    0.0    90.0  358.3   1.7      --     --    --
     2. BD (   1) O   1 - H   4    90.0  258.3    90.0  261.3   2.9      --     --    --
    13. LP (   1) O   1             --     --     90.0  133.6   --       --     --    --
    14. LP (   2) O   1             --     --      0.0    0.0   --       --     --    --
    16. LP (   2)Br   3             --     --      0.0    0.0   --       --     --    --
    17. LP (   3)Br   3             --     --     90.0  168.3   --       --     --    --
    18. LP (   4)Br   3             --     --     90.0   78.2   --       --     --    --
   147. BD*(   1) O   1 - H   4    90.0  258.3    90.0  261.3   2.9      --     --    --


 Natural Bond Orbitals (Summary):

           NBO                  Occupancy  
 -----------------------------------------------
 Molecular unit  1  (H2O)
     1. BD (   1) O   1 - H   2          1.96152
     2. BD (   1) O   1 - H   4          1.95152
     3. CR (   1) O   1                  1.99992
    13. LP (   1) O   1                  1.97218
    14. LP (   2) O   1                  1.95719
    19. RY*(   1) O   1                  0.02245
    20. RY*(   2) O   1                  0.01761
    21. RY*(   3) O   1                  0.01061
    22. RY*(   4) O   1                  0.00677
    23. RY*(   5) O   1                  0.00635
    24. RY*(   6) O   1                  0.00599
    25. RY*(   7) O   1                  0.00592
    26. RY*(   8) O   1                  0.00438
    27. RY*(   9) O   1                  0.00313
    28. RY*(  10) O   1                  0.00060
    29. RY*(  11) O   1                  0.00057
    30. RY*(  12) O   1                  0.00053
    31. RY*(  13) O   1                  0.00048
    32. RY*(  14) O   1                  0.00046
    33. RY*(  15) O   1                  0.00046
    34. RY*(  16) O   1                  0.00045
    35. RY*(  17) O   1                  0.00045
    36. RY*(  18) O   1                  0.00044
    37. RY*(  19) O   1                  0.00042
    38. RY*(  20) O   1                  0.00043
    39. RY*(  21) O   1                  0.00041
    40. RY*(  22) O   1                  0.00038
    41. RY*(  23) O   1                  0.00033
    42. RY*(  24) O   1                  0.00023
    43. RY*(  25) O   1                  0.00022
    44. RY*(  26) O   1                  0.00015
    45. RY*(  27) O   1                  0.00011
    46. RY*(  28) O   1                  0.00008
    47. RY*(  29) O   1                  0.00008
    48. RY*(  30) O   1                  0.00008
    49. RY*(  31) O   1                  0.00008
    50. RY*(  32) O   1                  0.00007
    51. RY*(  33) O   1                  0.00008
    52. RY*(  34) O   1                  0.00007
    53. RY*(  35) O   1                  0.00005
    54. RY*(  36) O   1                  0.00005
    55. RY*(  37) O   1                  0.00004
    56. RY*(  38) O   1                  0.00004
    57. RY*(  39) O   1                  0.00002
    58. RY*(  40) O   1                  0.00001
    59. RY*(  41) O   1                 -0.00017
    60. RY*(   1) H   2                  0.00489
    61. RY*(   2) H   2                  0.00454
    62. RY*(   3) H   2                  0.00211
    63. RY*(   4) H   2                  0.00105
    64. RY*(   5) H   2                  0.00036
    65. RY*(   6) H   2                  0.00022
    66. RY*(   7) H   2                  0.00016
    67. RY*(   8) H   2                  0.00014
    68. RY*(   9) H   2                  0.00012
    69. RY*(  10) H   2                  0.00012
    70. RY*(  11) H   2                  0.00009
    71. RY*(  12) H   2                  0.00009
    72. RY*(  13) H   2                  0.00008
    73. RY*(  14) H   2                  0.00005
    74. RY*(  15) H   2                  0.00005
    75. RY*(  16) H   2                  0.00004
    76. RY*(  17) H   2                  0.00003
    77. RY*(  18) H   2                  0.00003
    78. RY*(  19) H   2                  0.00003
    79. RY*(  20) H   2                  0.00002
    80. RY*(  21) H   2                  0.00002
    81. RY*(  22) H   2                  0.00001
   124. RY*(   1) H   4                  0.00724
   125. RY*(   2) H   4                  0.00406
   126. RY*(   3) H   4                  0.00361
   127. RY*(   4) H   4                  0.00260
   128. RY*(   5) H   4                  0.00171
   129. RY*(   6) H   4                  0.00043
   130. RY*(   7) H   4                  0.00034
   131. RY*(   8) H   4                  0.00027
   132. RY*(   9) H   4                  0.00024
   133. RY*(  10) H   4                  0.00020
   134. RY*(  11) H   4                  0.00021
   135. RY*(  12) H   4                  0.00020
   136. RY*(  13) H   4                  0.00013
   137. RY*(  14) H   4                  0.00010
   138. RY*(  15) H   4                  0.00008
   139. RY*(  16) H   4                  0.00007
   140. RY*(  17) H   4                  0.00004
   141. RY*(  18) H   4                  0.00004
   142. RY*(  19) H   4                  0.00003
   143. RY*(  20) H   4                  0.00003
   144. RY*(  21) H   4                  0.00003
   145. RY*(  22) H   4                  0.00003
   146. BD*(   1) O   1 - H   2          0.02015
   147. BD*(   1) O   1 - H   4          0.11681
       -------------------------------
              Total Lewis    9.84233  ( 97.3893%)
        Valence non-Lewis    0.13697  (  1.3553%)
        Rydberg non-Lewis    0.12688  (  1.2554%)
       -------------------------------
            Total unit  1   10.10617  (100.0000%)
           Charge unit  1   -0.10617

 Molecular unit  2  (Br)
     4. CR (   1)Br   3                  1.99993
     5. CR (   2)Br   3                  2.00001
     6. CR (   3)Br   3                  1.99996
     7. CR (   4)Br   3                  2.00001
     8. CR (   5)Br   3                  1.99768
     9. CR (   6)Br   3                  1.99771
    10. CR (   7)Br   3                  1.99768
    11. CR (   8)Br   3                  1.99766
    12. CR (   9)Br   3                  1.99769
    15. LP (   1)Br   3                  1.97983
    16. LP (   2)Br   3                  1.95456
    17. LP (   3)Br   3                  1.95431
    18. LP (   4)Br   3                  1.86675
    82. RY*(   1)Br   3                  0.01838
    83. RY*(   2)Br   3                  0.01834
    84. RY*(   3)Br   3                  0.01827
    85. RY*(   4)Br   3                  0.01826
    86. RY*(   5)Br   3                  0.01822
    87. RY*(   6)Br   3                  0.01122
    88. RY*(   7)Br   3                  0.01119
    89. RY*(   8)Br   3                  0.00949
    90. RY*(   9)Br   3                  0.00218
    91. RY*(  10)Br   3                  0.00173
    92. RY*(  11)Br   3                  0.00173
    93. RY*(  12)Br   3                  0.00174
    94. RY*(  13)Br   3                  0.00172
    95. RY*(  14)Br   3                  0.00171
    96. RY*(  15)Br   3                  0.00172
    97. RY*(  16)Br   3                  0.00171
    98. RY*(  17)Br   3                  0.00171
    99. RY*(  18)Br   3                  0.00167
   100. RY*(  19)Br   3                  0.00133
   101. RY*(  20)Br   3                  0.00131
   102. RY*(  21)Br   3                  0.00123
   103. RY*(  22)Br   3                  0.00077
   104. RY*(  23)Br   3                  0.00076
   105. RY*(  24)Br   3                  0.00070
   106. RY*(  25)Br   3                  0.00031
   107. RY*(  26)Br   3                  0.00025
   108. RY*(  27)Br   3                  0.00025
   109. RY*(  28)Br   3                  0.00024
   110. RY*(  29)Br   3                  0.00024
   111. RY*(  30)Br   3                  0.00025
   112. RY*(  31)Br   3                  0.00024
   113. RY*(  32)Br   3                  0.00024
   114. RY*(  33)Br   3                  0.00017
   115. RY*(  34)Br   3                  0.00017
   116. RY*(  35)Br   3                  0.00011
   117. RY*(  36)Br   3                  0.00011
   118. RY*(  37)Br   3                  0.00011
   119. RY*(  38)Br   3                  0.00008
   120. RY*(  39)Br   3                  0.00005
   121. RY*(  40)Br   3                  0.00006
   122. RY*(  41)Br   3                  0.00005
   123. RY*(  42)Br   3                  0.00000
       -------------------------------
              Total Lewis   35.74380  ( 99.5820%)
        Valence non-Lewis    0.00000  (  0.0000%)
        Rydberg non-Lewis    0.15003  (  0.4180%)
       -------------------------------
            Total unit  2   35.89383  (100.0000%)
           Charge unit  2   -0.89383
 Leave Link  607 at Fri Oct 15 15:35:20 2021, MaxMem= 16106127360 cpu:              74.7 elap:               2.7
 (Enter /sw/contrib/gaussian/g16/B01/g16/l9999.exe)
 1\1\GINC-N2098\SP\RMP2-FC\Gen\Br1H2O1(1-)\CGAVINH\15-Oct-2021\0\\#p po
 p=NBO SP NoSymm mp2/gen Pseudo=read density=current\\title\\-1,1\O\X,1
 ,10.\H,1,0.96048156,2,90.\Br,1,3.25083182,2,90.,3,101.65547111,0\H,1,1
 .25,2,90.,3,101.65547111,0\\Version=ES64L-G16RevB.01\HF=-491.6114074\M
 P2=-492.143848\RMSD=2.581e-09\Dipole=0.4801987,-0.2212878,0.\Quadrupol
 e=9.502761,-18.178834,8.676073,-5.2822664,0.,0.\PG=CS [SG(Br1H2O1)]\\@


 GETTING A SIMPLE ANSWER FROM A PROFESSOR IS LIKE
 GETTING A THIMBLE OF WATER FROM A FIRE HYDRANT.
     -- PROF. LEN SHAPIRO, NDSU
 Job cpu time:       0 days  0 hours  5 minutes 32.4 seconds.
 Elapsed time:       0 days  0 hours  0 minutes 19.7 seconds.
 File lengths (MBytes):  RWF=     16 Int=      0 D2E=      0 Chk=      8 Scr=      1
 Normal termination of Gaussian 16 at Fri Oct 15 15:35:20 2021.
