 Entering Gaussian System, Link 0=g16
 Input=brhod_pp_rOH_150_sp.gjf
 Output=brhod_pp_rOH_150_sp.log
 Initial command:
 /sw/contrib/gaussian/g16/B01/g16/l1.exe "/scr/Gau-16052.inp" -scrdir="/scr/"
 Entering Link 1 = /sw/contrib/gaussian/g16/B01/g16/l1.exe PID=     16053.
  
 Copyright (c) 1988-2017, Gaussian, Inc.  All Rights Reserved.
  
 This is part of the Gaussian(R) 16 program.  It is based on
 the Gaussian(R) 09 system (copyright 2009, Gaussian, Inc.),
 the Gaussian(R) 03 system (copyright 2003, Gaussian, Inc.),
 the Gaussian(R) 98 system (copyright 1998, Gaussian, Inc.),
 the Gaussian(R) 94 system (copyright 1995, Gaussian, Inc.),
 the Gaussian 92(TM) system (copyright 1992, Gaussian, Inc.),
 the Gaussian 90(TM) system (copyright 1990, Gaussian, Inc.),
 the Gaussian 88(TM) system (copyright 1988, Gaussian, Inc.),
 the Gaussian 86(TM) system (copyright 1986, Carnegie Mellon
 University), and the Gaussian 82(TM) system (copyright 1983,
 Carnegie Mellon University). Gaussian is a federally registered
 trademark of Gaussian, Inc.
  
 This software contains proprietary and confidential information,
 including trade secrets, belonging to Gaussian, Inc.
  
 This software is provided under written license and may be
 used, copied, transmitted, or stored only in accord with that
 written license.
  
 The following legend is applicable only to US Government
 contracts under FAR:
  
                    RESTRICTED RIGHTS LEGEND
  
 Use, reproduction and disclosure by the US Government is
 subject to restrictions as set forth in subparagraphs (a)
 and (c) of the Commercial Computer Software - Restricted
 Rights clause in FAR 52.227-19.
  
 Gaussian, Inc.
 340 Quinnipiac St., Bldg. 40, Wallingford CT 06492
  
  
 ---------------------------------------------------------------
 Warning -- This program may not be used in any manner that
 competes with the business of Gaussian, Inc. or will provide
 assistance to any competitor of Gaussian, Inc.  The licensee
 of this program is prohibited from giving any competitor of
 Gaussian, Inc. access to this program.  By using this program,
 the user acknowledges that Gaussian, Inc. is engaged in the
 business of creating and licensing software in the field of
 computational chemistry and represents and warrants to the
 licensee that it is not a competitor of Gaussian, Inc. and that
 it will not use this program in any manner prohibited above.
 ---------------------------------------------------------------
  

 Cite this work as:
 Gaussian 16, Revision B.01,
 M. J. Frisch, G. W. Trucks, H. B. Schlegel, G. E. Scuseria, 
 M. A. Robb, J. R. Cheeseman, G. Scalmani, V. Barone, 
 G. A. Petersson, H. Nakatsuji, X. Li, M. Caricato, A. V. Marenich, 
 J. Bloino, B. G. Janesko, R. Gomperts, B. Mennucci, H. P. Hratchian, 
 J. V. Ortiz, A. F. Izmaylov, J. L. Sonnenberg, D. Williams-Young, 
 F. Ding, F. Lipparini, F. Egidi, J. Goings, B. Peng, A. Petrone, 
 T. Henderson, D. Ranasinghe, V. G. Zakrzewski, J. Gao, N. Rega, 
 G. Zheng, W. Liang, M. Hada, M. Ehara, K. Toyota, R. Fukuda, 
 J. Hasegawa, M. Ishida, T. Nakajima, Y. Honda, O. Kitao, H. Nakai, 
 T. Vreven, K. Throssell, J. A. Montgomery, Jr., J. E. Peralta, 
 F. Ogliaro, M. J. Bearpark, J. J. Heyd, E. N. Brothers, K. N. Kudin, 
 V. N. Staroverov, T. A. Keith, R. Kobayashi, J. Normand, 
 K. Raghavachari, A. P. Rendell, J. C. Burant, S. S. Iyengar, 
 J. Tomasi, M. Cossi, J. M. Millam, M. Klene, C. Adamo, R. Cammi, 
 J. W. Ochterski, R. L. Martin, K. Morokuma, O. Farkas, 
 J. B. Foresman, and D. J. Fox, Gaussian, Inc., Wallingford CT, 2016.
 
 ******************************************
 Gaussian 16:  ES64L-G16RevB.01 20-Dec-2017
                15-Oct-2021 
 ******************************************
 %nproc=28
 Will use up to   28 processors via shared memory.
 %mem=120GB
 %chk=/gscratch/ilahie/mccoygrp/coire_hocl/rOH_s_oop_0/brhod_pp/brhod_pp_rOH_150_
 sp.chk
 --------------------------------------------------------
 #p pop=NBO SP NoSymm mp2/gen Pseudo=read density=current
 --------------------------------------------------------
 1/30=1,38=1,172=1/1;
 2/12=2,15=1,17=6,18=5,40=1/2;
 3/5=7,11=9,16=1,17=8,25=1,30=1,71=1/1,2,3;
 4//1;
 5/5=2,38=5/2;
 8/6=4,10=1/1;
 9/15=1,16=-3/6;
 10/5=1,13=10,31=1/2;
 6/7=2,8=2,9=2,10=2,22=-1,40=1/1,7;
 99/5=1,9=1/99;
 Leave Link    1 at Fri Oct 15 15:36:40 2021, MaxMem= 16106127360 cpu:               2.6 elap:               0.1
 (Enter /sw/contrib/gaussian/g16/B01/g16/l101.exe)
 -----
 title
 -----
 Symbolic Z-matrix:
 Charge = -1 Multiplicity = 1
 O
 X                    1     10. 
 H(iso=2)             1    r1       2     90. 
 Br                   1    r2       2     90.      3    a1       0
 H                    1    r3       2    oop      3    a1       0
       Variables:
  r1                    0.96048                  
  r2                    3.25083                  
  r3                    1.5                      
  a1                  101.65547                  
  OOP                  90.                       
 
 ITRead=  0  0  0  0
 MicOpt= -1 -1 -1 -1
 NAtoms=      4 NQM=        4 NQMF=       0 NMMI=      0 NMMIF=      0
                NMic=       0 NMicF=      0.
                    Isotopes and Nuclear Properties:
 (Nuclear quadrupole moments (NQMom) in fm**2, nuclear magnetic moments (NMagM)
  in nuclear magnetons)

  Atom         1           2           3           4
 IAtWgt=          16           2          79           1
 AtmWgt=  15.9949146   2.0141018  78.9183361   1.0078250
 NucSpn=           0           2           3           1
 AtZEff=  -0.0000000  -0.0000000  -0.0000000  -0.0000000
 NQMom=    0.0000000   0.2860000  31.3000000   0.0000000
 NMagM=    0.0000000   0.8574380   2.1063990   2.7928460
 AtZNuc=   8.0000000   1.0000000  35.0000000   1.0000000
 Leave Link  101 at Fri Oct 15 15:36:40 2021, MaxMem= 16106127360 cpu:               3.2 elap:               0.1
 (Enter /sw/contrib/gaussian/g16/B01/g16/l202.exe)
                          Input orientation:                          
 ---------------------------------------------------------------------
 Center     Atomic      Atomic             Coordinates (Angstroms)
 Number     Number       Type             X           Y           Z
 ---------------------------------------------------------------------
      1          8           0        0.000000    0.000000    0.000000
      2          1           0        0.960482    0.000000    0.000000
      3         35           0       -0.656753   -3.183800    0.000000
      4          1           0       -0.303039   -1.469070    0.000000
 ---------------------------------------------------------------------
                    Distance matrix (angstroms):
                    1          2          3          4
     1  O    0.000000
     2  H    0.960482   0.000000
     3  Br   3.250832   3.570999   0.000000
     4  H    1.500000   1.937692   1.750832   0.000000
 Symmetry turned off by external request.
 Stoichiometry    BrH2O(1-)
 Framework group  CS[SG(BrH2O)]
 Deg. of freedom     5
 Full point group                 CS      NOp   2
 Rotational constants (GHZ):         323.3581287           3.1867974           3.1556970
 Leave Link  202 at Fri Oct 15 15:36:40 2021, MaxMem= 16106127360 cpu:               0.3 elap:               0.0
 (Enter /sw/contrib/gaussian/g16/B01/g16/l301.exe)
 General basis read from cards:  (5D, 7F)
 Centers:       2      4      1      2      4
 aug-cc-pVTZ
 ****
 Centers:       3
 S 10 1.00
     Exponent=  9.6593900000D+03 Coefficients=  3.7100000000D-04
     Exponent=  1.4559600000D+03 Coefficients=  2.5710000000D-03
     Exponent=  3.2591400000D+02 Coefficients=  8.4850000000D-03
     Exponent=  4.6565700000D+01 Coefficients=  7.8222000000D-02
     Exponent=  1.8246900000D+01 Coefficients= -3.9714900000D-01
     Exponent=  3.8020100000D+00 Coefficients=  6.8586400000D-01
     Exponent=  1.7863200000D+00 Coefficients=  4.8681900000D-01
     Exponent=  6.0271400000D-01 Coefficients=  3.4913000000D-02
     Exponent=  2.8401400000D-01 Coefficients= -6.5730000000D-03
     Exponent=  1.2027100000D-01 Coefficients=  1.6420000000D-03
 S 10 1.00
     Exponent=  9.6593900000D+03 Coefficients= -1.5200000000D-04
     Exponent=  1.4559600000D+03 Coefficients= -1.0080000000D-03
     Exponent=  3.2591400000D+02 Coefficients= -3.6090000000D-03
     Exponent=  4.6565700000D+01 Coefficients= -2.7872000000D-02
     Exponent=  1.8246900000D+01 Coefficients=  1.5131700000D-01
     Exponent=  3.8020100000D+00 Coefficients= -3.5149700000D-01
     Exponent=  1.7863200000D+00 Coefficients= -4.1070300000D-01
     Exponent=  6.0271400000D-01 Coefficients=  3.4731600000D-01
     Exponent=  2.8401400000D-01 Coefficients=  6.7549100000D-01
     Exponent=  1.2027100000D-01 Coefficients=  2.4400800000D-01
 S 1 1.00
     Exponent=  6.0271400000D-01 Coefficients=  1.0000000000D+00
 S 1 1.00
     Exponent=  2.8401400000D-01 Coefficients=  1.0000000000D+00
 S 1 1.00
     Exponent=  1.2027100000D-01 Coefficients=  1.0000000000D+00
 S 1 1.00
     Exponent=  4.4500000000D-02 Coefficients=  1.0000000000D+00
 P 9 1.00
     Exponent=  4.9218700000D+02 Coefficients=  4.7200000000D-04
     Exponent=  9.2364200000D+01 Coefficients=  5.4940000000D-03
     Exponent=  2.7071800000D+01 Coefficients= -8.8030000000D-02
     Exponent=  7.2653900000D+00 Coefficients=  3.4348500000D-01
     Exponent=  3.4848100000D+00 Coefficients=  5.1020800000D-01
     Exponent=  1.6404800000D+00 Coefficients=  2.4863100000D-01
     Exponent=  6.4857000000D-01 Coefficients=  2.2201000000D-02
     Exponent=  2.5640700000D-01 Coefficients= -4.1900000000D-04
     Exponent=  9.5304000000D-02 Coefficients=  6.5600000000D-04
 P 9 1.00
     Exponent=  4.9218700000D+02 Coefficients= -1.5800000000D-04
     Exponent=  9.2364200000D+01 Coefficients= -1.3440000000D-03
     Exponent=  2.7071800000D+01 Coefficients=  2.4616000000D-02
     Exponent=  7.2653900000D+00 Coefficients= -1.1253200000D-01
     Exponent=  3.4848100000D+00 Coefficients= -1.7977500000D-01
     Exponent=  1.6404800000D+00 Coefficients= -7.3661000000D-02
     Exponent=  6.4857000000D-01 Coefficients=  3.4873400000D-01
     Exponent=  2.5640700000D-01 Coefficients=  5.5794800000D-01
     Exponent=  9.5304000000D-02 Coefficients=  2.6645600000D-01
 P 1 1.00
     Exponent=  7.6660000000D-01 Coefficients=  1.0000000000D+00
 P 1 1.00
     Exponent=  1.1820000000D-01 Coefficients=  1.0000000000D+00
 P 1 1.00
     Exponent=  3.9600000000D-02 Coefficients=  1.0000000000D+00
 D 8 1.00
     Exponent=  3.3899600000D+02 Coefficients=  1.5240000000D-03
     Exponent=  1.0321700000D+02 Coefficients=  1.5673000000D-02
     Exponent=  4.2363800000D+01 Coefficients=  7.2400000000D-02
     Exponent=  1.8435600000D+01 Coefficients=  1.8630300000D-01
     Exponent=  8.3725400000D+00 Coefficients=  3.2388100000D-01
     Exponent=  3.8022200000D+00 Coefficients=  3.7453400000D-01
     Exponent=  1.6867700000D+00 Coefficients=  2.5741800000D-01
     Exponent=  6.7752000000D-01 Coefficients=  6.8051000000D-02
 D 1 1.00
     Exponent=  6.7752000000D-01 Coefficients=  1.0000000000D+00
 D 1 1.00
     Exponent=  2.5530000000D-01 Coefficients=  1.0000000000D+00
 D 1 1.00
     Exponent=  1.0090000000D-01 Coefficients=  1.0000000000D+00
 F 1 1.00
     Exponent=  5.6060000000D-01 Coefficients=  1.0000000000D+00
 F 1 1.00
     Exponent=  2.4540000000D-01 Coefficients=  1.0000000000D+00
 ****
 ======================================================================================================
                                       Pseudopotential Parameters
 ======================================================================================================
  Center     Atomic      Valence      Angular      Power
  Number     Number     Electrons     Momentum     of R      Exponent        Coefficient   SO-Coeffient
 ======================================================================================================
    1          8
                                   No pseudopotential on this center.
    2          1
                                   No pseudopotential on this center.
    3         35           25
                                      G and up 
                                                     2        1.0000000        0.00000000    0.00000000
                                      S - G
                                                     2       70.0242570       49.96283400    0.00000000
                                                     2       31.1784120      370.01420500    0.00000000
                                                     2        7.1565930       10.24143900    0.00000000
                                      P - G
                                                     2       46.7734710       99.11224400    0.00000000
                                                     2       46.1841200      198.25304600    0.00000000
                                                     2       21.7138580       28.26174000    0.00000000
                                                     2       20.9417920       56.62336600    0.00000000
                                      D - G
                                                     2       50.6988390      -18.60585300    0.00000000
                                                     2       50.6447640      -27.92328000    0.00000000
                                                     2       15.4475090       -0.37969300    0.00000000
                                                     2       15.5002590       -0.78058300    0.00000000
                                                     2        2.8003910        0.03596800    0.00000000
                                                     2        1.0774800        0.09439700    0.00000000
                                      F - G
                                                     2       14.4656060       -1.09126900    0.00000000
                                                     2       21.2340650       -2.88769100    0.00000000
    4          1
                                   No pseudopotential on this center.
 ======================================================================================================
 Ernie: Thresh=  0.10000D-02 Tol=  0.10000D-05 Strict=F.
 Ernie:  18 primitive shells out of 132 were deleted.
   191 basis functions,   334 primitive gaussians,   218 cartesian basis functions
    18 alpha electrons       18 beta electrons
       nuclear repulsion energy        51.3201623025 Hartrees.
 IExCor=    0 DFT=F Ex=HF Corr=None ExCW=0 ScaHFX=  1.000000
 ScaDFX=  1.000000  1.000000  1.000000  1.000000 ScalE2=  1.000000  1.000000
 IRadAn=      5 IRanWt=     -1 IRanGd=            0 ICorTp=0 IEmpDi=  4
 NAtoms=    4 NActive=    4 NUniq=    4 SFac= 1.00D+00 NAtFMM=   60 NAOKFM=F Big=F
 Integral buffers will be    131072 words long.
 Raffenetti 1 integral format.
 Two-electron integral symmetry is turned off.
 Leave Link  301 at Fri Oct 15 15:36:40 2021, MaxMem= 16106127360 cpu:               2.7 elap:               0.1
 (Enter /sw/contrib/gaussian/g16/B01/g16/l302.exe)
 NPDir=0 NMtPBC=     1 NCelOv=     1 NCel=       1 NClECP=     1 NCelD=      1
         NCelK=      1 NCelE2=     1 NClLst=     1 CellRange=     0.0.
 One-electron integrals computed using PRISM.
   1 Symmetry operations used in ECPInt.
 ECPInt:  NShTT=    2145 NPrTT=    6720 LenC2=    2146 LenP2D=    6107.
 LDataN:  DoStor=T MaxTD1= 7 Len=  274
 NBasis=   191 RedAO= T EigKep=  3.33D-04  NBF=   191
 NBsUse=   147 1.00D-06 EigRej=  8.51D-16 NBFU=   147
 Leave Link  302 at Fri Oct 15 15:36:41 2021, MaxMem= 16106127360 cpu:               8.6 elap:               0.4
 (Enter /sw/contrib/gaussian/g16/B01/g16/l303.exe)
 DipDrv:  MaxL=1.
 Leave Link  303 at Fri Oct 15 15:36:41 2021, MaxMem= 16106127360 cpu:               0.8 elap:               0.1
 (Enter /sw/contrib/gaussian/g16/B01/g16/l401.exe)
 ExpMin= 2.53D-02 ExpMax= 1.53D+04 ExpMxC= 5.22D+02 IAcc=3 IRadAn=         5 AccDes= 0.00D+00
 Harris functional with IExCor=  205 and IRadAn=       5 diagonalized for initial guess.
 HarFok:  IExCor=  205 AccDes= 0.00D+00 IRadAn=         5 IDoV= 1 UseB2=F ITyADJ=14
 ICtDFT=  3500011 ScaDFX=  1.000000  1.000000  1.000000  1.000000
 FoFCou: FMM=F IPFlag=           0 FMFlag=      100000 FMFlg1=           0
         NFxFlg=           0 DoJE=T BraDBF=F KetDBF=T FulRan=T
         wScrn=  0.000000 ICntrl=       500 IOpCl=  0 I1Cent=   200000004 NGrid=           0
         NMat0=    1 NMatS0=      1 NMatT0=    0 NMatD0=    1 NMtDS0=    0 NMtDT0=    0
 Symmetry not used in FoFCou.
 Harris En= -493.498505488836    
 JPrj=0 DoOrth=F DoCkMO=F.
 Leave Link  401 at Fri Oct 15 15:36:41 2021, MaxMem= 16106127360 cpu:               7.3 elap:               0.3
 (Enter /sw/contrib/gaussian/g16/B01/g16/l502.exe)
 Keep R1 ints in memory in canonical form, NReq=204937541.
 FoFCou: FMM=F IPFlag=           0 FMFlag=           0 FMFlg1=           0
         NFxFlg=           0 DoJE=F BraDBF=F KetDBF=F FulRan=T
         wScrn=  0.000000 ICntrl=       600 IOpCl=  0 I1Cent=           0 NGrid=           0
         NMat0=    1 NMatS0=  18336 NMatT0=    0 NMatD0=    1 NMtDS0=    0 NMtDT0=    0
 Symmetry not used in FoFCou.
 Two-electron integral symmetry not used.
 Closed shell SCF:
 Using DIIS extrapolation, IDIIS=  1040.
 NGot= 16106127360 LenX= 15937911236 LenY= 15937863271
 Requested convergence on RMS density matrix=1.00D-08 within 128 cycles.
 Requested convergence on MAX density matrix=1.00D-06.
 Requested convergence on             energy=1.00D-06.
 No special actions if energy rises.

 Cycle   1  Pass 1  IDiag  1:
 E= -491.410515656410    
 DIIS: error= 3.84D-02 at cycle   1 NSaved=   1.
 NSaved= 1 IEnMin= 1 EnMin= -491.410515656410     IErMin= 1 ErrMin= 3.84D-02
 ErrMax= 3.84D-02  0.00D+00 EMaxC= 1.00D-01 BMatC= 2.88D-01 BMatP= 2.88D-01
 IDIUse=3 WtCom= 6.16D-01 WtEn= 3.84D-01
 Coeff-Com:  0.100D+01
 Coeff-En:   0.100D+01
 Coeff:      0.100D+01
 Gap=     0.467 Goal=   None    Shift=    0.000
 GapD=    0.467 DampG=2.000 DampE=0.500 DampFc=1.0000 IDamp=-1.
 RMSDP=3.55D-03 MaxDP=1.79D-01              OVMax= 1.77D-01

 Cycle   2  Pass 1  IDiag  1:
 E= -491.493142508255     Delta-E=       -0.082626851846 Rises=F Damp=F
 DIIS: error= 3.66D-02 at cycle   2 NSaved=   2.
 NSaved= 2 IEnMin= 2 EnMin= -491.493142508255     IErMin= 2 ErrMin= 3.66D-02
 ErrMax= 3.66D-02  0.00D+00 EMaxC= 1.00D-01 BMatC= 1.18D-01 BMatP= 2.88D-01
 IDIUse=3 WtCom= 6.34D-01 WtEn= 3.66D-01
 Coeff-Com:  0.367D+00 0.633D+00
 Coeff-En:   0.254D+00 0.746D+00
 Coeff:      0.326D+00 0.674D+00
 Gap=     0.369 Goal=   None    Shift=    0.000
 RMSDP=1.22D-03 MaxDP=3.95D-02 DE=-8.26D-02 OVMax= 1.03D-01

 Cycle   3  Pass 1  IDiag  1:
 E= -491.568109859261     Delta-E=       -0.074967351006 Rises=F Damp=F
 DIIS: error= 9.44D-03 at cycle   3 NSaved=   3.
 NSaved= 3 IEnMin= 3 EnMin= -491.568109859261     IErMin= 3 ErrMin= 9.44D-03
 ErrMax= 9.44D-03  0.00D+00 EMaxC= 1.00D-01 BMatC= 8.99D-03 BMatP= 1.18D-01
 IDIUse=3 WtCom= 9.06D-01 WtEn= 9.44D-02
 Coeff-Com: -0.197D-01 0.199D+00 0.821D+00
 Coeff-En:   0.000D+00 0.000D+00 0.100D+01
 Coeff:     -0.178D-01 0.180D+00 0.838D+00
 Gap=     0.366 Goal=   None    Shift=    0.000
 RMSDP=4.09D-04 MaxDP=2.73D-02 DE=-7.50D-02 OVMax= 2.63D-02

 Cycle   4  Pass 1  IDiag  1:
 E= -491.574253598809     Delta-E=       -0.006143739548 Rises=F Damp=F
 DIIS: error= 9.49D-04 at cycle   4 NSaved=   4.
 NSaved= 4 IEnMin= 4 EnMin= -491.574253598809     IErMin= 4 ErrMin= 9.49D-04
 ErrMax= 9.49D-04  0.00D+00 EMaxC= 1.00D-01 BMatC= 1.57D-04 BMatP= 8.99D-03
 IDIUse=3 WtCom= 9.91D-01 WtEn= 9.49D-03
 Coeff-Com: -0.533D-02 0.310D-01 0.199D+00 0.775D+00
 Coeff-En:   0.000D+00 0.000D+00 0.000D+00 0.100D+01
 Coeff:     -0.528D-02 0.307D-01 0.197D+00 0.777D+00
 Gap=     0.341 Goal=   None    Shift=    0.000
 RMSDP=7.45D-05 MaxDP=2.52D-03 DE=-6.14D-03 OVMax= 2.77D-03

 Cycle   5  Pass 1  IDiag  1:
 E= -491.574367303744     Delta-E=       -0.000113704935 Rises=F Damp=F
 DIIS: error= 1.53D-04 at cycle   5 NSaved=   5.
 NSaved= 5 IEnMin= 5 EnMin= -491.574367303744     IErMin= 5 ErrMin= 1.53D-04
 ErrMax= 1.53D-04  0.00D+00 EMaxC= 1.00D-01 BMatC= 6.62D-06 BMatP= 1.57D-04
 IDIUse=3 WtCom= 9.98D-01 WtEn= 1.53D-03
 Coeff-Com: -0.670D-03-0.114D-01-0.381D-01 0.716D-01 0.979D+00
 Coeff-En:   0.000D+00 0.000D+00 0.000D+00 0.000D+00 0.100D+01
 Coeff:     -0.669D-03-0.113D-01-0.380D-01 0.714D-01 0.979D+00
 Gap=     0.341 Goal=   None    Shift=    0.000
 RMSDP=2.89D-05 MaxDP=1.71D-03 DE=-1.14D-04 OVMax= 1.28D-03

 Cycle   6  Pass 1  IDiag  1:
 E= -491.574378296291     Delta-E=       -0.000010992547 Rises=F Damp=F
 DIIS: error= 5.74D-05 at cycle   6 NSaved=   6.
 NSaved= 6 IEnMin= 6 EnMin= -491.574378296291     IErMin= 6 ErrMin= 5.74D-05
 ErrMax= 5.74D-05  0.00D+00 EMaxC= 1.00D-01 BMatC= 4.72D-07 BMatP= 6.62D-06
 IDIUse=1 WtCom= 1.00D+00 WtEn= 0.00D+00
 Coeff-Com:  0.659D-03 0.836D-04-0.417D-02-0.490D-01-0.303D+00 0.136D+01
 Coeff:      0.659D-03 0.836D-04-0.417D-02-0.490D-01-0.303D+00 0.136D+01
 Gap=     0.342 Goal=   None    Shift=    0.000
 RMSDP=1.30D-05 MaxDP=7.94D-04 DE=-1.10D-05 OVMax= 6.53D-04

 Cycle   7  Pass 1  IDiag  1:
 E= -491.574379941893     Delta-E=       -0.000001645602 Rises=F Damp=F
 DIIS: error= 1.41D-05 at cycle   7 NSaved=   7.
 NSaved= 7 IEnMin= 7 EnMin= -491.574379941893     IErMin= 7 ErrMin= 1.41D-05
 ErrMax= 1.41D-05  0.00D+00 EMaxC= 1.00D-01 BMatC= 2.39D-08 BMatP= 4.72D-07
 IDIUse=1 WtCom= 1.00D+00 WtEn= 0.00D+00
 Coeff-Com: -0.243D-03 0.486D-03 0.295D-02 0.158D-01 0.833D-01-0.546D+00
 Coeff-Com:  0.144D+01
 Coeff:     -0.243D-03 0.486D-03 0.295D-02 0.158D-01 0.833D-01-0.546D+00
 Coeff:      0.144D+01
 Gap=     0.342 Goal=   None    Shift=    0.000
 RMSDP=2.36D-06 MaxDP=1.08D-04 DE=-1.65D-06 OVMax= 1.67D-04

 Cycle   8  Pass 1  IDiag  1:
 E= -491.574380023826     Delta-E=       -0.000000081933 Rises=F Damp=F
 DIIS: error= 3.55D-06 at cycle   8 NSaved=   8.
 NSaved= 8 IEnMin= 8 EnMin= -491.574380023826     IErMin= 8 ErrMin= 3.55D-06
 ErrMax= 3.55D-06  0.00D+00 EMaxC= 1.00D-01 BMatC= 1.19D-09 BMatP= 2.39D-08
 IDIUse=1 WtCom= 1.00D+00 WtEn= 0.00D+00
 Coeff-Com: -0.545D-04 0.272D-04 0.397D-03 0.370D-02 0.234D-01-0.117D+00
 Coeff-Com:  0.135D+00 0.954D+00
 Coeff:     -0.545D-04 0.272D-04 0.397D-03 0.370D-02 0.234D-01-0.117D+00
 Coeff:      0.135D+00 0.954D+00
 Gap=     0.342 Goal=   None    Shift=    0.000
 RMSDP=3.22D-07 MaxDP=8.59D-06 DE=-8.19D-08 OVMax= 2.40D-05

 Cycle   9  Pass 1  IDiag  1:
 E= -491.574380026639     Delta-E=       -0.000000002813 Rises=F Damp=F
 DIIS: error= 1.40D-06 at cycle   9 NSaved=   9.
 NSaved= 9 IEnMin= 9 EnMin= -491.574380026639     IErMin= 9 ErrMin= 1.40D-06
 ErrMax= 1.40D-06  0.00D+00 EMaxC= 1.00D-01 BMatC= 1.22D-10 BMatP= 1.19D-09
 IDIUse=1 WtCom= 1.00D+00 WtEn= 0.00D+00
 Coeff-Com:  0.312D-04-0.590D-04-0.339D-03-0.199D-02-0.113D-01 0.713D-01
 Coeff-Com: -0.174D+00-0.116D+00 0.123D+01
 Coeff:      0.312D-04-0.590D-04-0.339D-03-0.199D-02-0.113D-01 0.713D-01
 Coeff:     -0.174D+00-0.116D+00 0.123D+01
 Gap=     0.342 Goal=   None    Shift=    0.000
 RMSDP=1.72D-07 MaxDP=5.33D-06 DE=-2.81D-09 OVMax= 1.10D-05

 Cycle  10  Pass 1  IDiag  1:
 E= -491.574380027042     Delta-E=       -0.000000000403 Rises=F Damp=F
 DIIS: error= 3.32D-07 at cycle  10 NSaved=  10.
 NSaved=10 IEnMin=10 EnMin= -491.574380027042     IErMin=10 ErrMin= 3.32D-07
 ErrMax= 3.32D-07  0.00D+00 EMaxC= 1.00D-01 BMatC= 5.89D-12 BMatP= 1.22D-10
 IDIUse=1 WtCom= 1.00D+00 WtEn= 0.00D+00
 Coeff-Com: -0.355D-05 0.907D-05 0.463D-04 0.129D-03 0.889D-03-0.714D-02
 Coeff-Com:  0.258D-01-0.313D-01-0.212D+00 0.122D+01
 Coeff:     -0.355D-05 0.907D-05 0.463D-04 0.129D-03 0.889D-03-0.714D-02
 Coeff:      0.258D-01-0.313D-01-0.212D+00 0.122D+01
 Gap=     0.342 Goal=   None    Shift=    0.000
 RMSDP=4.49D-08 MaxDP=2.05D-06 DE=-4.03D-10 OVMax= 2.44D-06

 Cycle  11  Pass 1  IDiag  1:
 E= -491.574380027061     Delta-E=       -0.000000000019 Rises=F Damp=F
 DIIS: error= 6.63D-08 at cycle  11 NSaved=  11.
 NSaved=11 IEnMin=11 EnMin= -491.574380027061     IErMin=11 ErrMin= 6.63D-08
 ErrMax= 6.63D-08  0.00D+00 EMaxC= 1.00D-01 BMatC= 5.16D-13 BMatP= 5.89D-12
 IDIUse=1 WtCom= 1.00D+00 WtEn= 0.00D+00
 Coeff-Com: -0.108D-05 0.154D-05 0.889D-05 0.900D-04 0.489D-03-0.259D-02
 Coeff-Com:  0.450D-02 0.126D-01-0.226D-01-0.298D+00 0.131D+01
 Coeff:     -0.108D-05 0.154D-05 0.889D-05 0.900D-04 0.489D-03-0.259D-02
 Coeff:      0.450D-02 0.126D-01-0.226D-01-0.298D+00 0.131D+01
 Gap=     0.342 Goal=   None    Shift=    0.000
 RMSDP=1.36D-08 MaxDP=5.54D-07 DE=-1.88D-11 OVMax= 1.06D-06

 Cycle  12  Pass 1  IDiag  1:
 E= -491.574380027062     Delta-E=       -0.000000000001 Rises=F Damp=F
 DIIS: error= 2.19D-08 at cycle  12 NSaved=  12.
 NSaved=12 IEnMin=12 EnMin= -491.574380027062     IErMin=12 ErrMin= 2.19D-08
 ErrMax= 2.19D-08  0.00D+00 EMaxC= 1.00D-01 BMatC= 6.13D-14 BMatP= 5.16D-13
 IDIUse=1 WtCom= 1.00D+00 WtEn= 0.00D+00
 Coeff-Com:  0.700D-06-0.150D-05-0.680D-05-0.406D-04-0.246D-03 0.153D-02
 Coeff-Com: -0.413D-02-0.136D-03 0.286D-01-0.302D-01-0.474D+00 0.148D+01
 Coeff:      0.700D-06-0.150D-05-0.680D-05-0.406D-04-0.246D-03 0.153D-02
 Coeff:     -0.413D-02-0.136D-03 0.286D-01-0.302D-01-0.474D+00 0.148D+01
 Gap=     0.342 Goal=   None    Shift=    0.000
 RMSDP=4.83D-09 MaxDP=2.52D-07 DE=-1.36D-12 OVMax= 4.41D-07

 SCF Done:  E(RHF) =  -491.574380027     A.U. after   12 cycles
            NFock= 12  Conv=0.48D-08     -V/T= 2.3233
 KE= 3.714695700642D+02 PE=-1.317621268633D+03 EE= 4.032571562394D+02
 Leave Link  502 at Fri Oct 15 15:36:46 2021, MaxMem= 16106127360 cpu:              41.1 elap:               4.8
 (Enter /sw/contrib/gaussian/g16/B01/g16/l801.exe)
 ExpMin= 2.53D-02 ExpMax= 1.53D+04 ExpMxC= 5.22D+02 IAcc=3 IRadAn=         5 AccDes= 0.00D+00
 HarFok:  IExCor=  205 AccDes= 0.00D+00 IRadAn=         5 IDoV=-2 UseB2=F ITyADJ=14
 ICtDFT= 12500011 ScaDFX=  1.000000  1.000000  1.000000  1.000000
 Largest valence mixing into a core orbital is  1.31D-04
 Largest core mixing into a valence orbital is  2.42D-05
 Range of M.O.s used for correlation:     6   147
 NBasis=   191 NAE=    18 NBE=    18 NFC=     5 NFV=     0
 NROrb=    142 NOA=    13 NOB=    13 NVA=   129 NVB=   129

 **** Warning!!: The largest alpha MO coefficient is  0.15603279D+02

 Leave Link  801 at Fri Oct 15 15:36:46 2021, MaxMem= 16106127360 cpu:               2.0 elap:               0.1
 (Enter /sw/contrib/gaussian/g16/B01/g16/l906.exe)
 Frozen-core derivative calculation, NFC=   5 NFV=   0.
 FulOut=F Deriv=T AODrv=F NAtomX=     4
   MMem=         107  MDisk=          13 MDiskD=          13
  W3Min=      576828 MinDsk=     1313419 NBas6D=         218
 NBas2D=       24339    NTT=       23871    LW2=    16556320
    MDV= 16105797404 MDiskM=      369353 NBas2p=       24313
 Fully in-core method, ICMem=   644650517.
 IMap=   1   2   3   4   5   6   7   8   9  10  11  12  13  14  15  16  17  18
 JobTyp=1 Pass  1 fully in-core, NPsUse= 28.
 Compute canonical integrals.
 FoFCou: FMM=F IPFlag=           0 FMFlag=           0 FMFlg1=           0
         NFxFlg=           0 DoJE=F BraDBF=F KetDBF=F FulRan=T
         wScrn=  0.000000 ICntrl=       600 IOpCl=  1 I1Cent=           0 NGrid=           0
         NMat0=    1 NMatS0=  24339 NMatT0=    0 NMatD0=    1 NMtDS0=    0 NMtDT0=    0
 Symmetry not used in FoFCou.
 Spin components of T(2) and E(2):
     alpha-alpha T2 =       0.2308329540D-01 E2=     -0.7346483859D-01
     alpha-beta  T2 =       0.1215895847D+00 E2=     -0.3951377580D+00
     beta-beta   T2 =       0.2308329540D-01 E2=     -0.7346483859D-01
 The integrals were generated   1 times.
 ANorm=    0.1080627677D+01
 E2 =    -0.5420674352D+00 EUMP2 =    -0.49211644746223D+03
 Leave Link  906 at Fri Oct 15 15:36:51 2021, MaxMem= 16106127360 cpu:             128.3 elap:               4.6
 (Enter /sw/contrib/gaussian/g16/B01/g16/l1002.exe)
 Minotr:  Closed shell wavefunction.
          Computing MP2/KS-MP2 derivatives.
          Using Z-Vector for PSCF gradient.
          Skipping F1 and S1 gradient terms here.
          Frozen-core window.
          Direct CPHF calculation.
          Differentiating once with respect to electric field.
                with respect to dipole field.
          Electric field/nuclear overlap derivatives assumed to be zero.
          Requested convergence is 1.0D-10 RMS, and 1.0D-09 maximum.
          NewPWx=F KeepS1=T KeepF1=T KeepIn=T MapXYZ=F SortEE=F KeepMc=T.
 Keep R1 ints in memory in canonical form, NReq=204940053.
 FoFCou: FMM=F IPFlag=           0 FMFlag=           0 FMFlg1=           0
         NFxFlg=           0 DoJE=F BraDBF=F KetDBF=F FulRan=T
         wScrn=  0.000000 ICntrl=       600 IOpCl=  0 I1Cent=           0 NGrid=           0
         NMat0=    1 NMatS0=  18336 NMatT0=    0 NMatD0=    1 NMtDS0=    0 NMtDT0=    0
 Symmetry not used in FoFCou.
 Two-electron integral symmetry not used.
          MDV=   16106127360 using IRadAn=       5.
          Solving linear equations separately, MaxMat=       0.
          There are     1 degrees of freedom in the 1st order CPHF.  IDoFFX=0 NUNeed=     1.
 LinEq1:  Iter=  0 NonCon=     1 RMS=4.04D-03 Max=8.53D-02 NDo=     1
 AX will form     1 AO Fock derivatives at one time.
 LinEq1:  Iter=  1 NonCon=     1 RMS=7.32D-04 Max=1.18D-02 NDo=     1
 LinEq1:  Iter=  2 NonCon=     1 RMS=3.09D-04 Max=4.46D-03 NDo=     1
 LinEq1:  Iter=  3 NonCon=     1 RMS=1.15D-04 Max=1.23D-03 NDo=     1
 LinEq1:  Iter=  4 NonCon=     1 RMS=5.97D-05 Max=9.62D-04 NDo=     1
 LinEq1:  Iter=  5 NonCon=     1 RMS=1.04D-05 Max=1.39D-04 NDo=     1
 LinEq1:  Iter=  6 NonCon=     1 RMS=1.98D-06 Max=3.32D-05 NDo=     1
 LinEq1:  Iter=  7 NonCon=     1 RMS=3.90D-07 Max=4.18D-06 NDo=     1
 LinEq1:  Iter=  8 NonCon=     1 RMS=1.13D-07 Max=1.58D-06 NDo=     1
 LinEq1:  Iter=  9 NonCon=     1 RMS=2.90D-08 Max=3.73D-07 NDo=     1
 LinEq1:  Iter= 10 NonCon=     1 RMS=4.65D-09 Max=5.79D-08 NDo=     1
 LinEq1:  Iter= 11 NonCon=     1 RMS=1.04D-09 Max=1.13D-08 NDo=     1
 LinEq1:  Iter= 12 NonCon=     1 RMS=2.36D-10 Max=3.13D-09 NDo=     1
 LinEq1:  Iter= 13 NonCon=     0 RMS=5.60D-11 Max=5.70D-10 NDo=     1
 Linear equations converged to 1.000D-10 1.000D-09 after    13 iterations.
 End of Minotr F.D. properties file   721 does not exist.
 End of Minotr F.D. properties file   722 does not exist.
 End of Minotr F.D. properties file   788 does not exist.
 Leave Link 1002 at Fri Oct 15 15:36:56 2021, MaxMem= 16106127360 cpu:              40.1 elap:               5.5
 (Enter /sw/contrib/gaussian/g16/B01/g16/l601.exe)
 Copying SCF densities to generalized density rwf, IOpCl= 0 IROHF=0.

 **********************************************************************

            Population analysis using the MP2 Density.

 **********************************************************************

 Alpha  occ. eigenvalues --  -20.30784  -9.59872  -7.34795  -7.34540  -7.34535
 Alpha  occ. eigenvalues --   -2.89927  -2.89815  -2.89811  -2.89541  -2.89541
 Alpha  occ. eigenvalues --   -1.03186  -0.79990  -0.38876  -0.32706  -0.23595
 Alpha  occ. eigenvalues --   -0.20804  -0.20626  -0.18924
 Alpha virt. eigenvalues --    0.15237   0.16850   0.23909   0.25180   0.25333
 Alpha virt. eigenvalues --    0.28930   0.32090   0.32788   0.32842   0.36531
 Alpha virt. eigenvalues --    0.41049   0.41488   0.42509   0.44505   0.45743
 Alpha virt. eigenvalues --    0.46834   0.47695   0.53445   0.55385   0.60091
 Alpha virt. eigenvalues --    0.62276   0.64051   0.69259   0.73748   0.81065
 Alpha virt. eigenvalues --    0.81180   0.84128   0.90415   0.91896   0.94041
 Alpha virt. eigenvalues --    0.95348   0.95828   0.96074   0.97349   0.99438
 Alpha virt. eigenvalues --    1.00042   1.03136   1.04266   1.07746   1.11742
 Alpha virt. eigenvalues --    1.11932   1.12695   1.13010   1.15298   1.19048
 Alpha virt. eigenvalues --    1.21803   1.22480   1.22790   1.24685   1.28829
 Alpha virt. eigenvalues --    1.32577   1.33092   1.44521   1.45943   1.46943
 Alpha virt. eigenvalues --    1.49721   1.65010   1.71343   1.76461   1.76907
 Alpha virt. eigenvalues --    1.78732   1.82663   1.99726   2.01938   2.16796
 Alpha virt. eigenvalues --    2.34984   2.42637   2.42933   2.46804   2.49331
 Alpha virt. eigenvalues --    2.50536   2.50552   2.50947   2.51370   2.53243
 Alpha virt. eigenvalues --    2.53980   2.54755   2.58039   2.58830   2.61715
 Alpha virt. eigenvalues --    2.63686   2.66595   2.69208   2.72139   2.78717
 Alpha virt. eigenvalues --    2.79755   2.80972   2.94548   3.03614   3.03924
 Alpha virt. eigenvalues --    3.12931   3.21355   3.24908   3.70919   3.92044
 Alpha virt. eigenvalues --    4.05985   4.15150   4.16084   4.33640   4.34186
 Alpha virt. eigenvalues --    4.41630   4.48602   4.50928   4.51338   4.57357
 Alpha virt. eigenvalues --    4.61854   4.76549   4.84696   5.05501   5.17798
 Alpha virt. eigenvalues --    5.45197   5.56495   5.61397   5.96293   6.53290
 Alpha virt. eigenvalues --    6.95041   7.04949   7.12294   7.14893   7.47264
 Alpha virt. eigenvalues --    7.49596   7.54655   7.57071   7.58488   7.78019
 Alpha virt. eigenvalues --    7.87162   8.48275  14.51536  79.84582
          Condensed to atoms (all electrons):
               1          2          3          4
     1  O    8.452315   0.208171  -0.109868   0.178742
     2  H    0.208171   0.639339  -0.004984   0.024716
     3  Br  -0.109868  -0.004984  25.657616   0.044444
     4  H    0.178742   0.024716   0.044444   0.568287
 Mulliken charges:
               1
     1  O   -0.729359
     2  H    0.132757
     3  Br  -0.587209
     4  H    0.183810
 Sum of Mulliken charges =  -1.00000
 Mulliken charges with hydrogens summed into heavy atoms:
               1
     1  O   -0.412791
     3  Br  -0.587209
 Electronic spatial extent (au):  <R**2>=           1043.5181
 Charge=             -1.0000 electrons
 Dipole moment (field-independent basis, Debye):
    X=              2.7323    Y=              7.9779    Z=              0.0000  Tot=              8.4328
 Quadrupole moment (field-independent basis, Debye-Ang):
   XX=            -29.5415   YY=            -58.7606   ZZ=            -31.0317
   XY=             -5.4861   XZ=             -0.0000   YZ=             -0.0000
 Traceless Quadrupole moment (field-independent basis, Debye-Ang):
   XX=             10.2365   YY=            -18.9826   ZZ=              8.7462
   XY=             -5.4861   XZ=             -0.0000   YZ=             -0.0000
 Octapole moment (field-independent basis, Debye-Ang**2):
  XXX=             42.7955  YYY=            298.2439  ZZZ=              0.0000  XYY=             31.5234
  XXY=             73.1284  XXZ=              0.0000  XZZ=             13.4351  YZZ=             69.4313
  YYZ=              0.0000  XYZ=              0.0000
 Hexadecapole moment (field-independent basis, Debye-Ang**3):
 XXXX=           -100.5214 YYYY=          -1627.7610 ZZZZ=            -46.3790 XXXY=           -137.5674
 XXXZ=             -0.0000 YYYX=           -188.4228 YYYZ=             -0.0000 ZZZX=             -0.0000
 ZZZY=             -0.0000 XXYY=           -255.1104 XXZZ=            -24.7403 YYZZ=           -235.0892
 XXYZ=             -0.0000 YYXZ=             -0.0000 ZZXY=            -45.1332
 N-N= 5.132016230254D+01 E-N=-1.316323775257D+03  KE= 3.711567042675D+02
 No NMR shielding tensors so no spin-rotation constants.
 Leave Link  601 at Fri Oct 15 15:36:56 2021, MaxMem= 16106127360 cpu:               4.1 elap:               0.2
 (Enter /sw/contrib/gaussian/g16/B01/g16/l607.exe)
 ******************************Gaussian NBO Version 3.1******************************
             N A T U R A L   A T O M I C   O R B I T A L   A N D
          N A T U R A L   B O N D   O R B I T A L   A N A L Y S I S
 ******************************Gaussian NBO Version 3.1******************************
       /RESON  / : Allow strongly delocalized NBO set

 Analyzing the MP2 density

 Job title: title                                                           

 Storage needed:    110417 in NPA,    146568 in NBO (********** available)
 GSVD:  LWork=       14857 too small for GESVD, short by       27473 words or       27473 for optimal perf.


 NATURAL POPULATIONS:  Natural atomic orbital occupancies 
                                                          
   NAO  Atom  No  lang   Type(AO)    Occupancy
 --------------------------------------------
     1    O    1  S      Cor( 1S)     1.99993
     2    O    1  S      Val( 2S)     1.91555
     3    O    1  S      Ryd( 3S)     0.00805
     4    O    1  S      Ryd( 4S)     0.00032
     5    O    1  S      Ryd( 5S)     0.00017
     6    O    1  px     Val( 2p)     1.66580
     7    O    1  px     Ryd( 3p)     0.01667
     8    O    1  px     Ryd( 4p)     0.00057
     9    O    1  px     Ryd( 5p)     0.00022
    10    O    1  py     Val( 2p)     1.80358
    11    O    1  py     Ryd( 3p)     0.01759
    12    O    1  py     Ryd( 4p)     0.00056
    13    O    1  py     Ryd( 5p)     0.00003
    14    O    1  pz     Val( 2p)     1.94926
    15    O    1  pz     Ryd( 3p)     0.02622
    16    O    1  pz     Ryd( 4p)     0.00057
    17    O    1  pz     Ryd( 5p)     0.00000
    18    O    1  dxy    Ryd( 3d)     0.00823
    19    O    1  dxy    Ryd( 4d)     0.00048
    20    O    1  dxy    Ryd( 5d)     0.00009
    21    O    1  dxz    Ryd( 3d)     0.00876
    22    O    1  dxz    Ryd( 4d)     0.00051
    23    O    1  dxz    Ryd( 5d)     0.00008
    24    O    1  dyz    Ryd( 3d)     0.00662
    25    O    1  dyz    Ryd( 4d)     0.00058
    26    O    1  dyz    Ryd( 5d)     0.00008
    27    O    1  dx2y2  Ryd( 3d)     0.00958
    28    O    1  dx2y2  Ryd( 4d)     0.00053
    29    O    1  dx2y2  Ryd( 5d)     0.00011
    30    O    1  dz2    Ryd( 3d)     0.00731
    31    O    1  dz2    Ryd( 4d)     0.00066
    32    O    1  dz2    Ryd( 5d)     0.00012
    33    O    1  f(0)   Ryd( 4f)     0.00061
    34    O    1  f(0)   Ryd( 5f)     0.00011
    35    O    1  f(C1)  Ryd( 4f)     0.00052
    36    O    1  f(C1)  Ryd( 5f)     0.00010
    37    O    1  f(S1)  Ryd( 4f)     0.00062
    38    O    1  f(S1)  Ryd( 5f)     0.00014
    39    O    1  f(C2)  Ryd( 4f)     0.00052
    40    O    1  f(C2)  Ryd( 5f)     0.00010
    41    O    1  f(S2)  Ryd( 4f)     0.00048
    42    O    1  f(S2)  Ryd( 5f)     0.00008
    43    O    1  f(C3)  Ryd( 4f)     0.00046
    44    O    1  f(C3)  Ryd( 5f)     0.00013
    45    O    1  f(S3)  Ryd( 4f)     0.00050
    46    O    1  f(S3)  Ryd( 5f)     0.00012

    47    H    2  S      Val( 1S)     0.34289
    48    H    2  S      Ryd( 2S)     0.00385
    49    H    2  S      Ryd( 3S)     0.00028
    50    H    2  S      Ryd( 4S)     0.00010
    51    H    2  px     Ryd( 2p)     0.00296
    52    H    2  px     Ryd( 3p)     0.00086
    53    H    2  px     Ryd( 4p)     0.00009
    54    H    2  py     Ryd( 2p)     0.00340
    55    H    2  py     Ryd( 3p)     0.00032
    56    H    2  py     Ryd( 4p)     0.00012
    57    H    2  pz     Ryd( 2p)     0.00592
    58    H    2  pz     Ryd( 3p)     0.00023
    59    H    2  pz     Ryd( 4p)     0.00006
    60    H    2  dxy    Ryd( 3d)     0.00007
    61    H    2  dxy    Ryd( 4d)     0.00006
    62    H    2  dxz    Ryd( 3d)     0.00008
    63    H    2  dxz    Ryd( 4d)     0.00008
    64    H    2  dyz    Ryd( 3d)     0.00013
    65    H    2  dyz    Ryd( 4d)     0.00006
    66    H    2  dx2y2  Ryd( 3d)     0.00010
    67    H    2  dx2y2  Ryd( 4d)     0.00007
    68    H    2  dz2    Ryd( 3d)     0.00012
    69    H    2  dz2    Ryd( 4d)     0.00009

    70   Br    3  S      Cor( 3S)     1.99979
    71   Br    3  S      Val( 4S)     1.96522
    72   Br    3  S      Ryd( 5S)     0.00141
    73   Br    3  S      Ryd( 6S)     0.00031
    74   Br    3  S      Ryd( 7S)     0.00017
    75   Br    3  S      Ryd( 8S)     0.00000
    76   Br    3  px     Cor( 3p)     2.00000
    77   Br    3  px     Val( 4p)     1.94727
    78   Br    3  px     Ryd( 5p)     0.01024
    79   Br    3  px     Ryd( 6p)     0.00076
    80   Br    3  px     Ryd( 7p)     0.00007
    81   Br    3  py     Cor( 3p)     1.99994
    82   Br    3  py     Val( 4p)     1.77851
    83   Br    3  py     Ryd( 5p)     0.00914
    84   Br    3  py     Ryd( 6p)     0.00079
    85   Br    3  py     Ryd( 7p)     0.00024
    86   Br    3  pz     Cor( 3p)     2.00000
    87   Br    3  pz     Val( 4p)     1.95497
    88   Br    3  pz     Ryd( 5p)     0.01025
    89   Br    3  pz     Ryd( 6p)     0.00075
    90   Br    3  pz     Ryd( 7p)     0.00004
    91   Br    3  dxy    Cor( 3d)     1.99767
    92   Br    3  dxy    Ryd( 4d)     0.01810
    93   Br    3  dxy    Ryd( 5d)     0.00123
    94   Br    3  dxy    Ryd( 6d)     0.00023
    95   Br    3  dxz    Cor( 3d)     1.99771
    96   Br    3  dxz    Ryd( 4d)     0.01789
    97   Br    3  dxz    Ryd( 5d)     0.00161
    98   Br    3  dxz    Ryd( 6d)     0.00017
    99   Br    3  dyz    Cor( 3d)     1.99768
   100   Br    3  dyz    Ryd( 4d)     0.01777
   101   Br    3  dyz    Ryd( 5d)     0.00122
   102   Br    3  dyz    Ryd( 6d)     0.00024
   103   Br    3  dx2y2  Cor( 3d)     1.99765
   104   Br    3  dx2y2  Ryd( 4d)     0.01951
   105   Br    3  dx2y2  Ryd( 5d)     0.00142
   106   Br    3  dx2y2  Ryd( 6d)     0.00016
   107   Br    3  dz2    Cor( 3d)     1.99769
   108   Br    3  dz2    Ryd( 4d)     0.01859
   109   Br    3  dz2    Ryd( 5d)     0.00157
   110   Br    3  dz2    Ryd( 6d)     0.00016
   111   Br    3  f(0)   Ryd( 4f)     0.00169
   112   Br    3  f(0)   Ryd( 5f)     0.00024
   113   Br    3  f(C1)  Ryd( 4f)     0.00171
   114   Br    3  f(C1)  Ryd( 5f)     0.00023
   115   Br    3  f(S1)  Ryd( 4f)     0.00176
   116   Br    3  f(S1)  Ryd( 5f)     0.00024
   117   Br    3  f(C2)  Ryd( 4f)     0.00167
   118   Br    3  f(C2)  Ryd( 5f)     0.00024
   119   Br    3  f(S2)  Ryd( 4f)     0.00168
   120   Br    3  f(S2)  Ryd( 5f)     0.00023
   121   Br    3  f(C3)  Ryd( 4f)     0.00170
   122   Br    3  f(C3)  Ryd( 5f)     0.00025
   123   Br    3  f(S3)  Ryd( 4f)     0.00175
   124   Br    3  f(S3)  Ryd( 5f)     0.00025

   125    H    4  S      Val( 1S)     0.38152
   126    H    4  S      Ryd( 2S)     0.00430
   127    H    4  S      Ryd( 3S)     0.00030
   128    H    4  S      Ryd( 4S)     0.00020
   129    H    4  px     Ryd( 2p)     0.00428
   130    H    4  px     Ryd( 3p)     0.00039
   131    H    4  px     Ryd( 4p)     0.00007
   132    H    4  py     Ryd( 2p)     0.00426
   133    H    4  py     Ryd( 3p)     0.00126
   134    H    4  py     Ryd( 4p)     0.00013
   135    H    4  pz     Ryd( 2p)     0.00450
   136    H    4  pz     Ryd( 3p)     0.00031
   137    H    4  pz     Ryd( 4p)     0.00006
   138    H    4  dxy    Ryd( 3d)     0.00028
   139    H    4  dxy    Ryd( 4d)     0.00007
   140    H    4  dxz    Ryd( 3d)     0.00022
   141    H    4  dxz    Ryd( 4d)     0.00005
   142    H    4  dyz    Ryd( 3d)     0.00029
   143    H    4  dyz    Ryd( 4d)     0.00007
   144    H    4  dx2y2  Ryd( 3d)     0.00021
   145    H    4  dx2y2  Ryd( 4d)     0.00013
   146    H    4  dz2    Ryd( 3d)     0.00022
   147    H    4  dz2    Ryd( 4d)     0.00008

 [ 10 electrons found in the effective core potential]

 WARNING:  5 low occupancy (<1.9990e) core orbitals found on Br    3


 Summary of Natural Population Analysis:                  
                                                          
                                       Natural Population 
                Natural  -----------------------------------------------
    Atom  No    Charge         Core      Valence    Rydberg      Total
 -----------------------------------------------------------------------
      O    1   -1.45331      1.99993     7.33418    0.11920     9.45331
      H    2    0.63808      0.00000     0.34289    0.01903     0.36192
     Br    3   -0.78176     27.98812     7.64597    0.14767    35.78176
      H    4    0.59677      0.00000     0.38152    0.02170     0.40323
 =======================================================================
   * Total *   -1.00022     29.98805    15.70457    0.30760    46.00022

                                 Natural Population      
 --------------------------------------------------------
   Effective Core            10.00000
   Core                      19.98805 ( 99.9402% of  20)
   Valence                   15.70457 ( 98.1535% of  16)
   Natural Minimal Basis     45.69262 ( 99.3318% of  46)
   Natural Rydberg Basis      0.30760 (  0.6687% of  46)
 --------------------------------------------------------

    Atom  No          Natural Electron Configuration
 ----------------------------------------------------------------------------
      O    1      [core]2S( 1.92)2p( 5.42)3S( 0.01)3p( 0.06)3d( 0.04)
      H    2            1S( 0.34)2p( 0.01)
     Br    3      [core]4S( 1.97)4p( 5.68)4d( 0.09)5p( 0.03)4f( 0.01)5d( 0.01)
      H    4            1S( 0.38)2p( 0.01)


 NATURAL BOND ORBITAL ANALYSIS:
 Warning:  a bond orbital has occupanc of -0.00005
 Warning:  a bond orbital has occupanc of -0.00042

                       Occupancies       Lewis Structure    Low   High
           Occ.    -------------------  -----------------   occ   occ
  Cycle   Thresh.   Lewis   Non-Lewis     CR  BD  3C  LP    (L)   (NL)   Dev
 =============================================================================
   1(1)    1.90    45.46774   0.53226     10   2   0   6     1      1    0.30
 Warning:  a bond orbital has occupanc of -0.00005
 Warning:  a bond orbital has occupanc of -0.00042
   2(2)    1.90    45.49999   0.50001     10   2   0   6     1      1    0.25
 Warning:  a bond orbital has occupanc of -0.00005
 Warning:  a bond orbital has occupanc of -0.00042
   3(3)    1.90    45.46774   0.53226     10   2   0   6     1      1    0.30
 Warning:  a bond orbital has occupanc of -0.00005
 Warning:  a bond orbital has occupanc of -0.00042
   4(4)    1.90    45.49999   0.50001     10   2   0   6     1      1    0.25
 Warning:  a bond orbital has occupanc of -0.00005
 Warning:  a bond orbital has occupanc of -0.00042
   5(1)    1.80    45.49999   0.50001     10   2   0   6     1      1    0.25
 Warning:  a bond orbital has occupanc of -0.00005
 Warning:  a bond orbital has occupanc of -0.00042
   6(2)    1.80    45.46774   0.53226     10   2   0   6     1      1    0.30
 Warning:  a bond orbital has occupanc of -0.00005
 Warning:  a bond orbital has occupanc of -0.00042
   7(3)    1.80    45.49999   0.50001     10   2   0   6     1      1    0.25
 Warning:  a bond orbital has occupanc of -0.00005
 Warning:  a bond orbital has occupanc of -0.00042
   8(1)    1.70    45.31183   0.68817     10   1   0   7     0      1    0.30
 Warning:  a bond orbital has occupanc of -0.00005
 Warning:  a bond orbital has occupanc of -0.00042
   9(2)    1.70    45.31183   0.68817     10   1   0   7     0      1    0.30
 Warning:  a bond orbital has occupanc of -0.00005
 Warning:  a bond orbital has occupanc of -0.00042
  10(1)    1.60    44.99016   1.00984     10   0   0   8     0      2    0.54
 Warning:  a bond orbital has occupanc of -0.00005
 Warning:  a bond orbital has occupanc of -0.00042
  11(2)    1.60    44.99016   1.00984     10   0   0   8     0      2    0.54
 Warning:  a bond orbital has occupanc of -0.00005
 Warning:  a bond orbital has occupanc of -0.00042
  12(1)    1.50    44.99016   1.00984     10   0   0   8     0      2    0.54
 Warning:  a bond orbital has occupanc of -0.00005
 Warning:  a bond orbital has occupanc of -0.00042
  13(2)    1.50    44.99016   1.00984     10   0   0   8     0      2    0.54
 Warning:  a bond orbital has occupanc of -0.00005
 Warning:  a bond orbital has occupanc of -0.00042
  14(1)    1.90    45.49999   0.50001     10   2   0   6     1      1    0.25
 -----------------------------------------------------------------------------

 Structure accepted: RESONANCE keyword permits strongly delocalized structure

 WARNING:  5 low occupancy (<1.9990e) core orbitals found on Br    3

 --------------------------------------------------------
   Effective Core           10.00000
   Core                     19.98805 ( 99.940% of  20)
   Valence Lewis            15.51194 ( 96.950% of  16)
  ==================       ============================
   Total Lewis              45.49999 ( 98.913% of  46)
  -----------------------------------------------------
   Valence non-Lewis         0.21503 (  0.467% of  46)
   Rydberg non-Lewis         0.28498 (  0.620% of  46)
  ==================       ============================
   Total non-Lewis           0.50001 (  1.087% of  46)
 --------------------------------------------------------


       (Occupancy)   Bond orbital/ Coefficients/ Hybrids
 ---------------------------------------------------------------------------------
     1. (1.95994) BD ( 1) O   1 - H   2  
                ( 83.45%)   0.9135* O   1 s( 15.41%)p 5.47( 84.26%)d 0.02(  0.33%)
                                                  f 0.00(  0.01%)
                                            0.0001  0.3925 -0.0030 -0.0007 -0.0021
                                            0.9122 -0.0334 -0.0071 -0.0091 -0.0963
                                           -0.0049  0.0008 -0.0005  0.0000  0.0000
                                            0.0000  0.0000 -0.0136  0.0042 -0.0023
                                            0.0000  0.0000  0.0000  0.0000  0.0000
                                            0.0000  0.0460 -0.0027  0.0023 -0.0304
                                            0.0010 -0.0003  0.0000  0.0000 -0.0077
                                            0.0003  0.0004 -0.0001  0.0000  0.0000
                                            0.0000  0.0000  0.0049  0.0029  0.0002
                                           -0.0003
                ( 16.55%)   0.4068* H   2 s( 99.61%)p 0.00(  0.38%)d 0.00(  0.01%)
                                            0.9980 -0.0131  0.0004 -0.0004  0.0370
                                           -0.0463 -0.0028 -0.0177  0.0021 -0.0012
                                            0.0000  0.0000  0.0000  0.0008  0.0026
                                            0.0000  0.0000  0.0000  0.0000  0.0033
                                            0.0010 -0.0045 -0.0035
     2. (1.95143) BD ( 1)Br   3 - H   4  
                ( 89.23%)   0.9446*Br   3 s(  6.32%)p14.79( 93.42%)d 0.04(  0.24%)
                                                  f 0.00(  0.02%)
                                            0.0001  0.2513 -0.0030 -0.0031  0.0015
                                            0.0005  0.0001  0.1946 -0.0036 -0.0019
                                            0.0012  0.0003  0.9466 -0.0166 -0.0077
                                            0.0024  0.0000  0.0000  0.0000  0.0000
                                            0.0000 -0.0000  0.0168 -0.0014 -0.0008
                                            0.0000  0.0000  0.0000  0.0000  0.0000
                                            0.0000  0.0000  0.0000  0.0000 -0.0384
                                            0.0035  0.0013  0.0000 -0.0246  0.0024
                                            0.0007  0.0000  0.0000 -0.0019 -0.0001
                                           -0.0090 -0.0007  0.0000  0.0000  0.0000
                                            0.0000 -0.0066 -0.0003 -0.0095 -0.0003
                ( 10.77%)   0.3282* H   4 s( 99.61%)p 0.00(  0.35%)d 0.00(  0.05%)
                                            0.9974 -0.0339 -0.0009 -0.0059 -0.0061
                                           -0.0090 -0.0022 -0.0380 -0.0424 -0.0092
                                            0.0000  0.0000  0.0000  0.0042  0.0067
                                            0.0000  0.0000  0.0000  0.0000 -0.0081
                                           -0.0151 -0.0074 -0.0089
     3. (1.99993) CR ( 1) O   1           s(100.00%)
                                            1.0000 -0.0002  0.0000  0.0000  0.0000
                                           -0.0001  0.0000  0.0000  0.0000 -0.0000
                                            0.0000 -0.0000 -0.0000  0.0000  0.0000
                                            0.0000  0.0000 -0.0000 -0.0000  0.0000
                                            0.0000  0.0000  0.0000  0.0000  0.0000
                                            0.0000 -0.0000  0.0000 -0.0000  0.0000
                                            0.0000 -0.0000  0.0000  0.0000  0.0000
                                            0.0000  0.0000 -0.0000  0.0000  0.0000
                                            0.0000  0.0000 -0.0000 -0.0000 -0.0000
                                            0.0000
     4. (1.99979) CR ( 1)Br   3           s(100.00%)
                                            1.0000 -0.0003  0.0000  0.0000 -0.0000
                                           -0.0000 -0.0000 -0.0000  0.0000  0.0000
                                           -0.0000 -0.0000 -0.0001  0.0000  0.0000
                                           -0.0000  0.0000  0.0000  0.0000  0.0000
                                            0.0000  0.0000 -0.0000  0.0000  0.0000
                                            0.0000  0.0000  0.0000  0.0000  0.0000
                                            0.0000  0.0000  0.0000 -0.0000  0.0000
                                           -0.0000 -0.0000 -0.0000  0.0000 -0.0000
                                           -0.0000  0.0000  0.0000  0.0000  0.0000
                                            0.0000  0.0000  0.0000  0.0000  0.0000
                                            0.0000  0.0000  0.0000  0.0000  0.0000
     5. (2.00000) CR ( 2)Br   3           s(  0.00%)p 1.00(100.00%)
                                           -0.0000  0.0000  0.0000  0.0000  0.0000
                                           -0.0000  1.0000 -0.0003 -0.0000 -0.0000
                                            0.0000 -0.0000 -0.0000  0.0000  0.0000
                                           -0.0000  0.0000  0.0000  0.0000  0.0000
                                            0.0000  0.0000 -0.0000 -0.0000  0.0000
                                            0.0000  0.0000  0.0000  0.0000  0.0000
                                            0.0000  0.0000  0.0000  0.0000  0.0000
                                           -0.0000  0.0000 -0.0000  0.0000 -0.0000
                                            0.0000  0.0000  0.0000  0.0000  0.0000
                                            0.0000  0.0000  0.0000  0.0000  0.0000
                                            0.0000  0.0000  0.0000 -0.0000 -0.0000
     6. (1.99994) CR ( 3)Br   3           s(  0.00%)p 1.00(100.00%)
                                           -0.0000  0.0000  0.0000  0.0000 -0.0000
                                           -0.0000 -0.0000 -0.0000  0.0000  0.0000
                                           -0.0000  1.0000 -0.0003  0.0000  0.0000
                                           -0.0000  0.0000  0.0000  0.0000  0.0000
                                            0.0000  0.0000 -0.0000  0.0000 -0.0000
                                            0.0000  0.0000  0.0000  0.0000  0.0000
                                            0.0000  0.0000  0.0000 -0.0000  0.0000
                                           -0.0000 -0.0000 -0.0000  0.0000 -0.0000
                                           -0.0000  0.0000  0.0000  0.0000  0.0000
                                            0.0000  0.0000  0.0000  0.0000  0.0000
                                            0.0000  0.0000 -0.0000  0.0000  0.0000
     7. (2.00000) CR ( 4)Br   3           s(  0.00%)p 1.00(100.00%)
                                            0.0000  0.0000  0.0000  0.0000  0.0000
                                            0.0000  0.0000  0.0000  0.0000  0.0000
                                            0.0000  0.0000  0.0000  0.0000  0.0000
                                            0.0000  1.0000 -0.0003 -0.0000 -0.0000
                                            0.0000  0.0000  0.0000  0.0000  0.0000
                                            0.0000 -0.0000  0.0000  0.0000  0.0000
                                           -0.0000 -0.0000  0.0000  0.0000  0.0000
                                            0.0000  0.0000  0.0000  0.0000  0.0000
                                            0.0000  0.0000  0.0000  0.0000  0.0000
                                            0.0000  0.0000  0.0000  0.0000 -0.0000
                                           -0.0000  0.0000  0.0000  0.0000  0.0000
     8. (1.99767) CR ( 5)Br   3           s(  0.00%)p 0.00(  0.00%)d 1.00(100.00%)
                                            0.0000  0.0000 -0.0000 -0.0000 -0.0000
                                            0.0000  0.0000  0.0000  0.0000  0.0000
                                           -0.0000  0.0000  0.0000 -0.0000 -0.0000
                                            0.0000  0.0000  0.0000  0.0000  0.0000
                                            0.0000  1.0000  0.0000 -0.0000 -0.0000
                                            0.0000  0.0000  0.0000  0.0000  0.0000
                                            0.0000  0.0000  0.0000  0.0000 -0.0000
                                            0.0000 -0.0000  0.0000 -0.0000  0.0000
                                            0.0000  0.0000  0.0000 -0.0000 -0.0000
                                           -0.0000 -0.0000  0.0000  0.0000  0.0000
                                            0.0000 -0.0000 -0.0000 -0.0000  0.0000
     9. (1.99771) CR ( 6)Br   3           s(  0.00%)p 0.00(  0.00%)d 1.00(100.00%)
                                            0.0000  0.0000  0.0000  0.0000  0.0000
                                            0.0000  0.0000  0.0000  0.0000  0.0000
                                            0.0000  0.0000  0.0000  0.0000  0.0000
                                            0.0000  0.0000  0.0000  0.0000  0.0000
                                           -0.0000  0.0000  0.0000  0.0000  0.0000
                                            1.0000  0.0000 -0.0000 -0.0000 -0.0000
                                            0.0000  0.0000 -0.0000  0.0000  0.0000
                                            0.0000  0.0000  0.0000  0.0000  0.0000
                                            0.0000 -0.0000 -0.0000  0.0000  0.0000
                                            0.0000  0.0000 -0.0000 -0.0000  0.0000
                                            0.0000  0.0000  0.0000  0.0000  0.0000
    10. (1.99768) CR ( 7)Br   3           s(  0.00%)p 0.00(  0.00%)d 1.00(100.00%)
                                            0.0000  0.0000  0.0000  0.0000  0.0000
                                            0.0000  0.0000  0.0000  0.0000  0.0000
                                            0.0000  0.0000  0.0000  0.0000  0.0000
                                            0.0000  0.0000  0.0000  0.0000  0.0000
                                           -0.0000  0.0000  0.0000  0.0000  0.0000
                                           -0.0000  0.0000 -0.0000 -0.0000  1.0000
                                            0.0000  0.0000 -0.0000  0.0000  0.0000
                                            0.0000  0.0000  0.0000  0.0000  0.0000
                                            0.0000 -0.0000 -0.0000  0.0000  0.0000
                                            0.0000  0.0000 -0.0000 -0.0000  0.0000
                                            0.0000  0.0000  0.0000  0.0000  0.0000
    11. (1.99765) CR ( 8)Br   3           s(  0.00%)p 0.00(  0.00%)d 1.00(100.00%)
                                           -0.0000 -0.0000  0.0000  0.0000 -0.0000
                                           -0.0000  0.0000  0.0000  0.0000  0.0000
                                           -0.0000 -0.0000 -0.0000  0.0000  0.0000
                                           -0.0000  0.0000  0.0000  0.0000  0.0000
                                            0.0000  0.0000 -0.0000  0.0000 -0.0000
                                            0.0000  0.0000  0.0000  0.0000  0.0000
                                            0.0000  0.0000  0.0000  1.0000  0.0000
                                           -0.0000 -0.0000 -0.0000  0.0000 -0.0000
                                           -0.0000  0.0000  0.0000  0.0000 -0.0000
                                            0.0000  0.0000  0.0000  0.0000  0.0000
                                            0.0000  0.0000 -0.0000  0.0000  0.0000
    12. (1.99769) CR ( 9)Br   3           s(  0.00%)p 0.00(  0.00%)d 1.00(100.00%)
                                           -0.0000 -0.0000  0.0000  0.0000 -0.0000
                                           -0.0000 -0.0000 -0.0000  0.0000  0.0000
                                           -0.0000 -0.0000 -0.0000  0.0000  0.0000
                                           -0.0000  0.0000  0.0000  0.0000  0.0000
                                            0.0000  0.0000 -0.0000  0.0000  0.0000
                                            0.0000  0.0000  0.0000  0.0000  0.0000
                                            0.0000  0.0000  0.0000 -0.0000  0.0000
                                           -0.0000 -0.0000  1.0000  0.0000 -0.0000
                                           -0.0000  0.0000  0.0000  0.0000  0.0000
                                            0.0000  0.0000  0.0000  0.0000  0.0000
                                            0.0000  0.0000  0.0000  0.0000 -0.0000
    13. (1.97150) LP ( 1) O   1           s( 78.85%)p 0.27( 21.11%)d 0.00(  0.04%)
                                                  f 0.00(  0.00%)
                                            0.0002  0.8880 -0.0010  0.0001  0.0001
                                           -0.3502 -0.0067 -0.0033  0.0027  0.2973
                                            0.0033  0.0034  0.0022  0.0000  0.0000
                                            0.0000  0.0000  0.0165 -0.0022 -0.0004
                                            0.0000  0.0000  0.0000  0.0000  0.0000
                                            0.0000 -0.0054  0.0015 -0.0011  0.0061
                                           -0.0028  0.0025  0.0000  0.0000  0.0014
                                           -0.0011 -0.0006  0.0001  0.0000  0.0000
                                            0.0000  0.0000  0.0011 -0.0005  0.0017
                                           -0.0002
    14. (1.95327) LP ( 2) O   1           s(  0.00%)p 1.00( 99.84%)d 0.00(  0.15%)
                                                  f 0.00(  0.01%)
                                            0.0000  0.0000  0.0000  0.0000  0.0000
                                            0.0000  0.0000  0.0000  0.0000  0.0000
                                            0.0000  0.0000  0.0000  0.9990  0.0193
                                            0.0037  0.0090  0.0000  0.0000  0.0000
                                            0.0364 -0.0032 -0.0015 -0.0131  0.0019
                                            0.0009  0.0000  0.0000  0.0000  0.0000
                                            0.0000  0.0000 -0.0080  0.0027  0.0000
                                            0.0000  0.0000  0.0000  0.0033  0.0001
                                            0.0011 -0.0004  0.0000  0.0000  0.0000
                                            0.0000
    15. (1.78648) LP ( 3) O   1           s(  5.70%)p16.50( 94.09%)d 0.03(  0.20%)
                                                  f 0.00(  0.01%)
                                           -0.0000  0.2386  0.0089  0.0007  0.0027
                                           -0.2017  0.0093  0.0013  0.0034 -0.9487
                                           -0.0070  0.0001  0.0015 -0.0000 -0.0000
                                           -0.0000 -0.0000 -0.0240  0.0029 -0.0005
                                           -0.0000 -0.0000 -0.0000 -0.0000 -0.0000
                                           -0.0000 -0.0330  0.0080 -0.0027 -0.0147
                                            0.0039  0.0001 -0.0000 -0.0000  0.0015
                                           -0.0003  0.0078 -0.0035 -0.0000 -0.0000
                                           -0.0000 -0.0000  0.0020 -0.0009 -0.0016
                                           -0.0009
    16. (1.97888) LP ( 1)Br   3           s( 93.67%)p 0.07(  6.33%)d 0.00(  0.00%)
                                                  f 0.00(  0.00%)
                                            0.0003  0.9678  0.0007  0.0007 -0.0006
                                           -0.0001 -0.0000 -0.0489  0.0007  0.0000
                                           -0.0001 -0.0001 -0.2467  0.0027 -0.0001
                                           -0.0006  0.0000  0.0000  0.0000  0.0000
                                            0.0000 -0.0000 -0.0009  0.0001 -0.0003
                                            0.0000  0.0000  0.0000  0.0000  0.0000
                                            0.0000  0.0000  0.0000  0.0000  0.0021
                                           -0.0007  0.0007  0.0000  0.0012 -0.0003
                                            0.0005  0.0000  0.0000 -0.0000  0.0000
                                            0.0000  0.0001  0.0000  0.0000  0.0000
                                            0.0000  0.0000  0.0000  0.0001  0.0002
    17. (1.95534) LP ( 2)Br   3           s(  0.00%)p 1.00( 99.99%)d 0.00(  0.01%)
                                                  f 0.00(  0.00%)
                                            0.0000  0.0000  0.0000  0.0000  0.0000
                                            0.0000  0.0000  0.0000  0.0000  0.0000
                                            0.0000  0.0000  0.0000  0.0000  0.0000
                                            0.0000  0.0003  0.9999  0.0062  0.0029
                                           -0.0007  0.0000  0.0000  0.0000  0.0000
                                           -0.0000  0.0025 -0.0005 -0.0003 -0.0000
                                            0.0074  0.0004 -0.0057  0.0000  0.0000
                                            0.0000  0.0000  0.0000  0.0000  0.0000
                                            0.0000 -0.0040 -0.0018  0.0000  0.0000
                                            0.0000  0.0000 -0.0044 -0.0018  0.0021
                                            0.0010  0.0000  0.0000  0.0000  0.0000
    18. (1.95510) LP ( 3)Br   3           s(  0.00%)p 1.00( 99.98%)d 0.00(  0.01%)
                                                  f 0.00(  0.00%)
                                            0.0000  0.0017 -0.0002 -0.0008  0.0010
                                            0.0000 -0.0003 -0.9795 -0.0070 -0.0032
                                            0.0011  0.0001  0.2009  0.0012  0.0005
                                            0.0002 -0.0000 -0.0000 -0.0000 -0.0000
                                           -0.0000  0.0000 -0.0075 -0.0004  0.0054
                                           -0.0000 -0.0000 -0.0000 -0.0000 -0.0000
                                           -0.0000 -0.0000 -0.0000  0.0000 -0.0046
                                            0.0005  0.0012 -0.0000  0.0004 -0.0003
                                            0.0005 -0.0000 -0.0000  0.0017  0.0008
                                           -0.0002 -0.0000 -0.0000 -0.0000 -0.0000
                                           -0.0000  0.0049  0.0019 -0.0035 -0.0014
    19. (0.02570) RY*( 1) O   1           s(  0.00%)p 1.00( 99.17%)d 0.01(  0.81%)
                                                  f 0.00(  0.02%)
                                            0.0000  0.0000  0.0000  0.0000  0.0000
                                            0.0000  0.0000  0.0000  0.0000  0.0000
                                            0.0000  0.0000  0.0000 -0.0224  0.9951
                                           -0.0237 -0.0184  0.0000  0.0000  0.0000
                                            0.0747 -0.0190  0.0071 -0.0421  0.0165
                                           -0.0083  0.0000  0.0000  0.0000  0.0000
                                            0.0000  0.0000 -0.0104  0.0105  0.0000
                                            0.0000  0.0000  0.0000  0.0009 -0.0006
                                           -0.0000 -0.0013  0.0000  0.0000  0.0000
                                            0.0000
    20. (0.02010) RY*( 2) O   1           s(  8.83%)p10.14( 89.52%)d 0.18(  1.62%)
                                                  f 0.00(  0.03%)
                                            0.0000 -0.0079  0.2966  0.0041 -0.0142
                                           -0.0075 -0.4892  0.0036  0.0155 -0.0118
                                            0.8095 -0.0031 -0.0019  0.0000  0.0000
                                            0.0000  0.0000  0.1216 -0.0231  0.0090
                                            0.0000  0.0000  0.0000  0.0000  0.0000
                                            0.0000 -0.0065 -0.0098  0.0034  0.0163
                                           -0.0183  0.0098  0.0000  0.0000 -0.0028
                                           -0.0016 -0.0058  0.0073  0.0000  0.0000
                                            0.0000  0.0000  0.0131 -0.0042  0.0058
                                           -0.0006
    21. (0.01353) RY*( 3) O   1           s(  2.62%)p36.59( 95.98%)d 0.48(  1.25%)
                                                  f 0.06(  0.15%)
                                            0.0000 -0.0144  0.1610 -0.0005  0.0104
                                           -0.0302 -0.8141  0.0044  0.0375  0.0000
                                           -0.5422 -0.0048 -0.0248 -0.0000 -0.0000
                                           -0.0000 -0.0000 -0.0613 -0.0075  0.0037
                                           -0.0000 -0.0000 -0.0000 -0.0000 -0.0000
                                           -0.0000  0.0758  0.0481 -0.0235  0.0032
                                            0.0040  0.0045 -0.0000 -0.0000 -0.0093
                                           -0.0033  0.0118 -0.0127 -0.0000 -0.0000
                                           -0.0000 -0.0000  0.0291 -0.0144 -0.0002
                                           -0.0033
    22. (0.00737) RY*( 4) O   1           s( 65.76%)p 0.10(  6.68%)d 0.41( 27.17%)
                                                  f 0.01(  0.38%)
                                           -0.0000  0.0088  0.8109 -0.0057  0.0055
                                            0.0258  0.2298  0.0049 -0.0167  0.0255
                                           -0.1050 -0.0229 -0.0293  0.0000  0.0000
                                            0.0000  0.0000 -0.3730 -0.0028 -0.0061
                                            0.0000  0.0000  0.0000  0.0000  0.0000
                                            0.0000 -0.3131  0.0165  0.0042  0.1793
                                            0.0419 -0.0172  0.0000  0.0000  0.0193
                                            0.0009  0.0348 -0.0288  0.0000  0.0000
                                            0.0000  0.0000 -0.0310 -0.0002  0.0058
                                           -0.0196
    23. (0.00638) RY*( 5) O   1           s(  0.00%)p 1.00(  0.02%)d99.99( 99.02%)
                                                  f42.06(  0.95%)
                                            0.0000  0.0000  0.0000  0.0000  0.0000
                                            0.0000  0.0000  0.0000  0.0000  0.0000
                                            0.0000  0.0000  0.0000 -0.0069 -0.0014
                                           -0.0127 -0.0039  0.0000  0.0000  0.0000
                                            0.4960  0.0240 -0.0054  0.8613  0.0430
                                           -0.0010  0.0000  0.0000  0.0000  0.0000
                                            0.0000  0.0000  0.0061 -0.0116  0.0000
                                            0.0000  0.0000  0.0000  0.0807 -0.0515
                                            0.0144 -0.0004  0.0000  0.0000  0.0000
                                            0.0000
    24. (0.00611) RY*( 6) O   1           s(  0.00%)p 1.00(  0.90%)d99.99( 98.06%)
                                                  f 1.16(  1.04%)
                                            0.0000  0.0000  0.0000  0.0000  0.0000
                                            0.0000  0.0000  0.0000  0.0000  0.0000
                                            0.0000  0.0000  0.0000 -0.0367 -0.0843
                                            0.0199  0.0116  0.0000  0.0000  0.0000
                                            0.8535  0.0647 -0.0252 -0.4957 -0.0390
                                            0.0081  0.0000  0.0000  0.0000  0.0000
                                            0.0000  0.0000 -0.0696  0.0386  0.0000
                                            0.0000  0.0000  0.0000  0.0476 -0.0211
                                           -0.0340  0.0153  0.0000  0.0000  0.0000
                                            0.0000
    25. (0.00611) RY*( 7) O   1           s(  4.58%)p 0.64(  2.93%)d20.00( 91.62%)
                                                  f 0.19(  0.87%)
                                           -0.0000  0.0042  0.2136 -0.0118 -0.0015
                                            0.0189  0.0999 -0.0158 -0.0070 -0.0334
                                           -0.1317  0.0100 -0.0116  0.0000  0.0000
                                            0.0000  0.0000  0.6918  0.0185 -0.0009
                                            0.0000  0.0000  0.0000  0.0000  0.0000
                                            0.0000  0.2083  0.0149  0.0060  0.6240
                                            0.0618 -0.0213  0.0000  0.0000  0.0456
                                           -0.0217 -0.0403  0.0231  0.0000  0.0000
                                            0.0000  0.0000  0.0349 -0.0251  0.0437
                                           -0.0154
    26. (0.00585) RY*( 8) O   1           s(  3.63%)p 0.52(  1.90%)d25.56( 92.76%)
                                                  f 0.47(  1.71%)
                                            0.0000 -0.0054  0.1904  0.0052  0.0016
                                            0.0170  0.0355 -0.0123 -0.0071  0.0092
                                           -0.1295 -0.0117 -0.0165 -0.0000 -0.0000
                                           -0.0000 -0.0000  0.5892  0.0086  0.0004
                                           -0.0000 -0.0000 -0.0000 -0.0000 -0.0000
                                           -0.0000 -0.4707  0.0047  0.0073 -0.5977
                                           -0.0389  0.0105 -0.0000 -0.0000  0.0042
                                           -0.0064  0.0426 -0.0371 -0.0000 -0.0000
                                           -0.0000 -0.0000  0.0201 -0.0290  0.0956
                                           -0.0586
    27. (0.00321) RY*( 9) O   1           s( 13.63%)p 0.29(  4.01%)d 5.95( 81.14%)
                                                  f 0.09(  1.22%)
                                            0.0000 -0.0060  0.3689  0.0026 -0.0138
                                           -0.0435  0.1691  0.0918  0.0007 -0.0073
                                           -0.0266  0.0153 -0.0135  0.0000  0.0000
                                            0.0000  0.0000  0.0340 -0.0046  0.0009
                                            0.0000  0.0000  0.0000  0.0000  0.0000
                                            0.0000  0.7723  0.0966  0.0032 -0.4423
                                           -0.0923  0.0159  0.0000  0.0000 -0.0413
                                            0.0450 -0.0029  0.0045  0.0000  0.0000
                                            0.0000  0.0000  0.0573 -0.0575 -0.0364
                                            0.0236
    28. (0.00061) RY*(10) O   1           s( 14.96%)p 4.77( 71.36%)d 0.83( 12.42%)
                                                  f 0.08(  1.26%)
                                            0.0000 -0.0050  0.0150  0.3752 -0.0924
                                           -0.0011 -0.0020 -0.2991  0.0087  0.0029
                                            0.0084  0.7888  0.0428  0.0000  0.0000
                                            0.0000  0.0000 -0.0116  0.2991 -0.0406
                                            0.0000  0.0000  0.0000  0.0000  0.0000
                                            0.0000 -0.0087  0.1789 -0.0121 -0.0039
                                            0.0169  0.0208  0.0000  0.0000  0.0115
                                           -0.0007  0.1040 -0.0084  0.0000  0.0000
                                            0.0000  0.0000 -0.0111  0.0110 -0.0242
                                            0.0280
    29. (0.00060) RY*(11) O   1           s(  0.00%)p 1.00( 53.19%)d 0.84( 44.63%)
                                                  f 0.04(  2.17%)
                                            0.0000  0.0000  0.0000  0.0000  0.0000
                                            0.0000  0.0000  0.0000  0.0000  0.0000
                                            0.0000  0.0000  0.0000  0.0020  0.0366
                                            0.7191 -0.1161  0.0000  0.0000  0.0000
                                           -0.0344  0.3425 -0.0183  0.0393 -0.5706
                                            0.0178  0.0000  0.0000  0.0000  0.0000
                                            0.0000  0.0000  0.0871 -0.0191  0.0000
                                            0.0000  0.0000  0.0000  0.0787  0.0027
                                            0.0870 -0.0011  0.0000  0.0000  0.0000
                                            0.0000
    30. (0.00061) RY*(12) O   1           s(  3.85%)p 0.21(  0.83%)d24.37( 93.85%)
                                                  f 0.38(  1.47%)
                                           -0.0000  0.0001  0.0266  0.1722 -0.0902
                                            0.0024  0.0037 -0.0728  0.0220 -0.0075
                                           -0.0379 -0.0158  0.0267 -0.0000 -0.0000
                                           -0.0000 -0.0000 -0.0083  0.0040 -0.0070
                                           -0.0000 -0.0000 -0.0000 -0.0000 -0.0000
                                           -0.0000 -0.0226 -0.3571 -0.0107  0.0861
                                           -0.8942  0.0572 -0.0000 -0.0000  0.0303
                                           -0.0004 -0.0602  0.0285 -0.0000 -0.0000
                                           -0.0000 -0.0000  0.0816  0.0227  0.0442
                                            0.0147
    31. (0.00053) RY*(13) O   1           s(  0.00%)p 1.00( 32.33%)d 1.76( 56.78%)
                                                  f 0.34( 10.88%)
                                            0.0000  0.0000  0.0000  0.0000  0.0000
                                            0.0000  0.0000  0.0000  0.0000  0.0000
                                            0.0000  0.0000  0.0000 -0.0015  0.0007
                                            0.5600 -0.0986  0.0000  0.0000  0.0000
                                           -0.0008  0.0454 -0.0020 -0.0344  0.7507
                                            0.0331  0.0000  0.0000  0.0000  0.0000
                                            0.0000  0.0000  0.1804 -0.0079  0.0000
                                            0.0000  0.0000  0.0000  0.0810  0.0105
                                           -0.2637 -0.0019  0.0000  0.0000  0.0000
                                            0.0000
    32. (0.00048) RY*(14) O   1           s(  0.22%)p99.99( 31.49%)d46.18( 10.03%)
[...]
                                           -0.0129  0.4381  0.1140 -0.0122 -0.5082
                                            0.0480 -0.0153 -0.7236  0.0688 -0.0594
                                           -0.0000 -0.0000 -0.0000  0.0365 -0.0033
                                           -0.0000 -0.0000 -0.0000 -0.0000  0.0184
                                            0.0038  0.0176 -0.0080
   126. (0.00455) RY*( 3) H   4           s(  0.00%)p 1.00( 99.20%)d 0.01(  0.80%)
                                            0.0000  0.0000  0.0000  0.0000  0.0000
                                            0.0000  0.0000  0.0000  0.0000  0.0000
                                            0.9940  0.0482 -0.0398  0.0000  0.0000
                                           -0.0123  0.0070 -0.0825  0.0309  0.0000
                                            0.0000  0.0000  0.0000
   127. (0.00387) RY*( 4) H   4           s( 11.03%)p 7.98( 87.99%)d 0.09(  0.98%)
                                            0.0313  0.3122 -0.1071 -0.0201 -0.6757
                                            0.0045  0.0400  0.6488 -0.0130  0.0236
                                           -0.0000 -0.0000 -0.0000  0.0859 -0.0080
                                           -0.0000 -0.0000 -0.0000 -0.0000  0.0304
                                            0.0238  0.0293 -0.0017
   128. (0.00140) RY*( 5) H   4           s( 14.38%)p 5.87( 84.46%)d 0.08(  1.16%)
                                           -0.0312  0.2945 -0.1161 -0.2065  0.1455
                                           -0.0544 -0.0828 -0.0147 -0.8911 -0.1391
                                           -0.0000 -0.0000 -0.0000 -0.0646  0.0337
                                           -0.0000 -0.0000 -0.0000 -0.0000  0.0309
                                           -0.0419  0.0465 -0.0371
   129. (0.00041) RY*( 6) H   4           s(  6.34%)p13.79( 87.39%)d 0.99(  6.27%)
                                            0.0049 -0.0474  0.2344  0.0783 -0.0358
                                            0.8916 -0.2194  0.0627 -0.1065  0.1195
                                            0.0000  0.0000  0.0000 -0.2318 -0.0349
                                            0.0000  0.0000  0.0000  0.0000 -0.0283
                                           -0.0810 -0.0190 -0.0083
   130. (0.00036) RY*( 7) H   4           s(  0.00%)p 1.00( 68.00%)d 0.47( 32.00%)
                                            0.0000  0.0000  0.0000  0.0000  0.0000
                                            0.0000  0.0000  0.0000  0.0000  0.0000
                                           -0.0888  0.7786 -0.2565  0.0000  0.0000
                                           -0.0255 -0.0665 -0.5444 -0.1365  0.0000
                                            0.0000  0.0000  0.0000
   131. (0.00026) RY*( 8) H   4           s( 30.70%)p 0.11(  3.38%)d 2.15( 65.92%)
                                            0.0031 -0.0110  0.4969 -0.2448  0.0819
                                            0.0646  0.1059  0.0531 -0.0370  0.0867
                                            0.0000  0.0000  0.0000  0.5455  0.1139
                                            0.0000  0.0000  0.0000  0.0000  0.5860
                                           -0.0170  0.0705 -0.0028
   132. (0.00025) RY*( 9) H   4           s(  0.00%)p 1.00(  0.07%)d99.99( 99.93%)
                                            0.0000  0.0000  0.0000  0.0000  0.0000
                                            0.0000  0.0000  0.0000  0.0000  0.0000
                                            0.0115  0.0023 -0.0234  0.0000  0.0000
                                            0.9327 -0.3562 -0.0000  0.0493  0.0000
                                            0.0000  0.0000  0.0000
   133. (0.00025) RY*(10) H   4           s( 16.79%)p 0.23(  3.81%)d 4.73( 79.39%)
                                            0.0043 -0.0066  0.3596 -0.1962 -0.0033
                                           -0.1190  0.0511  0.0454  0.0226  0.1371
                                            0.0000  0.0000  0.0000 -0.1638 -0.0426
                                            0.0000  0.0000  0.0000  0.0000 -0.3344
                                            0.0747  0.7499 -0.2924
   134. (0.00024) RY*(11) H   4           s(  0.00%)p 1.00( 35.04%)d 1.85( 64.96%)
                                            0.0000  0.0000  0.0000  0.0000  0.0000
                                            0.0000  0.0000  0.0000  0.0000  0.0000
                                            0.0386  0.5893  0.0399  0.0000  0.0000
                                            0.0261  0.0738  0.8018  0.0228  0.0000
                                            0.0000  0.0000  0.0000
   135. (0.00022) RY*(12) H   4           s( 26.31%)p 0.26(  6.90%)d 2.54( 66.79%)
                                           -0.0054  0.0104 -0.2648  0.4391  0.0760
                                            0.2165 -0.0029 -0.0495 -0.0979 -0.0661
                                            0.0000  0.0000  0.0000  0.6989 -0.0140
                                            0.0000  0.0000  0.0000  0.0000 -0.2934
                                            0.0708  0.2417 -0.1723
   136. (0.00014) RY*(13) H   4           s(  7.45%)p 3.20( 23.81%)d 9.23( 68.74%)
                                            0.0147 -0.0488 -0.1057  0.2465  0.0031
                                            0.0536 -0.0897  0.0075  0.0338 -0.4754
                                            0.0000  0.0000  0.0000 -0.1904 -0.2104
                                            0.0000  0.0000  0.0000  0.0000  0.4540
                                            0.4073  0.4184  0.2444
   137. (0.00012) RY*(14) H   4           s( 77.85%)p 0.14( 10.87%)d 0.14( 11.28%)
                                           -0.0042  0.0658  0.5285  0.7035 -0.0215
                                           -0.2490  0.0196  0.0895 -0.1665 -0.1003
                                           -0.0000 -0.0000 -0.0000 -0.1532  0.2380
                                           -0.0000 -0.0000 -0.0000 -0.0000 -0.0198
                                           -0.0906 -0.1387 -0.0697
   138. (0.00006) RY*(15) H   4           s(  7.70%)p 8.17( 62.89%)d 3.82( 29.40%)
   139. (0.00006) RY*(16) H   4           s(  0.00%)p 1.00(  8.52%)d10.74( 91.48%)
   140. (0.00005) RY*(17) H   4           s(  3.89%)p 2.81( 10.95%)d21.88( 85.16%)
   141. (0.00003) RY*(18) H   4           s(  0.00%)p 1.00( 87.13%)d 0.15( 12.87%)
   142. (0.00004) RY*(19) H   4           s(  0.00%)p 1.00( 97.75%)d 0.02(  2.24%)
   143. (0.00002) RY*(20) H   4           s( 12.98%)p 0.17(  2.24%)d 6.53( 84.78%)
   144. (0.00002) RY*(21) H   4           s(  0.00%)p 1.00(  2.05%)d47.88( 97.95%)
   145. (0.00002) RY*(22) H   4           s(  2.69%)p 0.15(  0.42%)d36.06( 96.90%)
   146. (0.02388) BD*( 1) O   1 - H   2  
                ( 16.55%)   0.4068* O   1 s( 15.41%)p 5.47( 84.26%)d 0.02(  0.33%)
                                                  f 0.00(  0.01%)
                                           -0.0001 -0.3925  0.0030  0.0007  0.0021
                                           -0.9122  0.0334  0.0071  0.0091  0.0963
                                            0.0049 -0.0008  0.0005 -0.0000 -0.0000
                                           -0.0000 -0.0000  0.0136 -0.0042  0.0023
                                           -0.0000 -0.0000 -0.0000 -0.0000 -0.0000
                                           -0.0000 -0.0460  0.0027 -0.0023  0.0304
                                           -0.0010  0.0003 -0.0000 -0.0000  0.0077
                                           -0.0003 -0.0004  0.0001 -0.0000 -0.0000
                                           -0.0000 -0.0000 -0.0049 -0.0029 -0.0002
                                            0.0003
                ( 83.45%)  -0.9135* H   2 s( 99.61%)p 0.00(  0.38%)d 0.00(  0.01%)
                                           -0.9980  0.0131 -0.0004  0.0004 -0.0370
                                            0.0463  0.0028  0.0177 -0.0021  0.0012
                                           -0.0000 -0.0000 -0.0000 -0.0008 -0.0026
                                           -0.0000 -0.0000 -0.0000 -0.0000 -0.0033
                                           -0.0010  0.0045  0.0035
   147. (0.19115) BD*( 1)Br   3 - H   4  
                ( 10.77%)   0.3282*Br   3 s(  6.32%)p14.79( 93.42%)d 0.04(  0.24%)
                                                  f 0.00(  0.02%)
                                           -0.0001 -0.2513  0.0030  0.0031 -0.0015
                                           -0.0005 -0.0001 -0.1946  0.0036  0.0019
                                           -0.0012 -0.0003 -0.9466  0.0166  0.0077
                                           -0.0024 -0.0000 -0.0000 -0.0000 -0.0000
                                           -0.0000  0.0000 -0.0168  0.0014  0.0008
                                           -0.0000 -0.0000 -0.0000 -0.0000 -0.0000
                                           -0.0000 -0.0000 -0.0000 -0.0000  0.0384
                                           -0.0035 -0.0013 -0.0000  0.0246 -0.0024
                                           -0.0007 -0.0000 -0.0000  0.0019  0.0001
                                            0.0090  0.0007 -0.0000 -0.0000 -0.0000
                                           -0.0000  0.0066  0.0003  0.0095  0.0003
                ( 89.23%)  -0.9446* H   4 s( 99.61%)p 0.00(  0.35%)d 0.00(  0.05%)
                                           -0.9974  0.0339  0.0009  0.0059  0.0061
                                            0.0090  0.0022  0.0380  0.0424  0.0092
                                           -0.0000 -0.0000 -0.0000 -0.0042 -0.0067
                                           -0.0000 -0.0000 -0.0000 -0.0000  0.0081
                                            0.0151  0.0074  0.0089


 NHO Directionality and "Bond Bending" (deviations from line of nuclear centers)

         [Thresholds for printing:  angular deviation  >  1.0 degree]
                                    hybrid p-character > 25.0%
                                    orbital occupancy  >  0.10e

                                Line of Centers        Hybrid 1              Hybrid 2
                                ---------------  -------------------   ------------------
                NBO               Theta   Phi    Theta   Phi    Dev    Theta   Phi    Dev
 ========================================================================================
     1. BD (   1) O   1 - H   2    90.0    0.0    90.0  353.3   6.7      --     --    --
    14. LP (   2) O   1             --     --      0.0    0.0   --       --     --    --
    15. LP (   3) O   1             --     --     90.0  258.9   --       --     --    --
    17. LP (   2)Br   3             --     --      0.0    0.0   --       --     --    --
    18. LP (   3)Br   3             --     --     90.0  168.4   --       --     --    --


 Natural Bond Orbitals (Summary):

           NBO                  Occupancy  
 -----------------------------------------------
 Molecular unit  1  (HO)
     1. BD (   1) O   1 - H   2          1.95994
     3. CR (   1) O   1                  1.99993
    13. LP (   1) O   1                  1.97150
    14. LP (   2) O   1                  1.95327
    15. LP (   3) O   1                  1.78648
    19. RY*(   1) O   1                  0.02570
    20. RY*(   2) O   1                  0.02010
    21. RY*(   3) O   1                  0.01353
    22. RY*(   4) O   1                  0.00737
    23. RY*(   5) O   1                  0.00638
    24. RY*(   6) O   1                  0.00611
    25. RY*(   7) O   1                  0.00611
    26. RY*(   8) O   1                  0.00585
    27. RY*(   9) O   1                  0.00321
    28. RY*(  10) O   1                  0.00061
    29. RY*(  11) O   1                  0.00060
    30. RY*(  12) O   1                  0.00061
    31. RY*(  13) O   1                  0.00053
    32. RY*(  14) O   1                  0.00048
    33. RY*(  15) O   1                  0.00048
    34. RY*(  16) O   1                  0.00048
    35. RY*(  17) O   1                  0.00047
    36. RY*(  18) O   1                  0.00046
    37. RY*(  19) O   1                  0.00044
    38. RY*(  20) O   1                  0.00042
    39. RY*(  21) O   1                  0.00042
    40. RY*(  22) O   1                  0.00042
    41. RY*(  23) O   1                  0.00039
    42. RY*(  24) O   1                  0.00031
    43. RY*(  25) O   1                  0.00022
    44. RY*(  26) O   1                  0.00015
    45. RY*(  27) O   1                  0.00008
    46. RY*(  28) O   1                  0.00009
    47. RY*(  29) O   1                  0.00009
    48. RY*(  30) O   1                  0.00008
    49. RY*(  31) O   1                  0.00008
    50. RY*(  32) O   1                  0.00009
    51. RY*(  33) O   1                  0.00009
    52. RY*(  34) O   1                  0.00008
    53. RY*(  35) O   1                  0.00007
    54. RY*(  36) O   1                  0.00006
    55. RY*(  37) O   1                  0.00004
    56. RY*(  38) O   1                  0.00005
    57. RY*(  39) O   1                  0.00002
    58. RY*(  40) O   1                 -0.00005
    59. RY*(  41) O   1                 -0.00042
    60. RY*(   1) H   2                  0.00599
    61. RY*(   2) H   2                  0.00536
    62. RY*(   3) H   2                  0.00334
    63. RY*(   4) H   2                  0.00121
    64. RY*(   5) H   2                  0.00036
    65. RY*(   6) H   2                  0.00024
    66. RY*(   7) H   2                  0.00018
    67. RY*(   8) H   2                  0.00017
    68. RY*(   9) H   2                  0.00013
    69. RY*(  10) H   2                  0.00012
    70. RY*(  11) H   2                  0.00013
    71. RY*(  12) H   2                  0.00010
    72. RY*(  13) H   2                  0.00009
    73. RY*(  14) H   2                  0.00005
    74. RY*(  15) H   2                  0.00006
    75. RY*(  16) H   2                  0.00003
    76. RY*(  17) H   2                  0.00004
    77. RY*(  18) H   2                  0.00004
    78. RY*(  19) H   2                  0.00003
    79. RY*(  20) H   2                  0.00001
    80. RY*(  21) H   2                  0.00002
    81. RY*(  22) H   2                  0.00002
   146. BD*(   1) O   1 - H   2          0.02388
       -------------------------------
              Total Lewis    9.67112  ( 98.5340%)
        Valence non-Lewis    0.02388  (  0.2433%)
        Rydberg non-Lewis    0.12001  (  1.2227%)
       -------------------------------
            Total unit  1    9.81501  (100.0000%)
           Charge unit  1   -0.81501

 Molecular unit  2  (HBr)
     2. BD (   1)Br   3 - H   4          1.95143
     4. CR (   1)Br   3                  1.99979
     5. CR (   2)Br   3                  2.00000
     6. CR (   3)Br   3                  1.99994
     7. CR (   4)Br   3                  2.00000
     8. CR (   5)Br   3                  1.99767
     9. CR (   6)Br   3                  1.99771
    10. CR (   7)Br   3                  1.99768
    11. CR (   8)Br   3                  1.99765
    12. CR (   9)Br   3                  1.99769
    16. LP (   1)Br   3                  1.97888
    17. LP (   2)Br   3                  1.95534
    18. LP (   3)Br   3                  1.95510
    82. RY*(   1)Br   3                  0.01794
    83. RY*(   2)Br   3                  0.01789
    84. RY*(   3)Br   3                  0.01789
    85. RY*(   4)Br   3                  0.01770
    86. RY*(   5)Br   3                  0.01750
    87. RY*(   6)Br   3                  0.01023
    88. RY*(   7)Br   3                  0.01018
    89. RY*(   8)Br   3                  0.00815
    90. RY*(   9)Br   3                  0.00172
    91. RY*(  10)Br   3                  0.00171
    92. RY*(  11)Br   3                  0.00171
    93. RY*(  12)Br   3                  0.00168
    94. RY*(  13)Br   3                  0.00168
    95. RY*(  14)Br   3                  0.00166
    96. RY*(  15)Br   3                  0.00166
    97. RY*(  16)Br   3                  0.00164
    98. RY*(  17)Br   3                  0.00164
    99. RY*(  18)Br   3                  0.00153
   100. RY*(  19)Br   3                  0.00120
   101. RY*(  20)Br   3                  0.00119
   102. RY*(  21)Br   3                  0.00114
   103. RY*(  22)Br   3                  0.00072
   104. RY*(  23)Br   3                  0.00072
   105. RY*(  24)Br   3                  0.00067
   106. RY*(  25)Br   3                  0.00030
   107. RY*(  26)Br   3                  0.00022
   108. RY*(  27)Br   3                  0.00022
   109. RY*(  28)Br   3                  0.00022
   110. RY*(  29)Br   3                  0.00022
   111. RY*(  30)Br   3                  0.00022
   112. RY*(  31)Br   3                  0.00023
   113. RY*(  32)Br   3                  0.00022
   114. RY*(  33)Br   3                  0.00017
   115. RY*(  34)Br   3                  0.00015
   116. RY*(  35)Br   3                  0.00015
   117. RY*(  36)Br   3                  0.00010
   118. RY*(  37)Br   3                  0.00009
   119. RY*(  38)Br   3                  0.00008
   120. RY*(  39)Br   3                  0.00004
   121. RY*(  40)Br   3                  0.00004
   122. RY*(  41)Br   3                  0.00003
   123. RY*(  42)Br   3                  0.00000
   124. RY*(   1) H   4                  0.00542
   125. RY*(   2) H   4                  0.00473
   126. RY*(   3) H   4                  0.00455
   127. RY*(   4) H   4                  0.00387
   128. RY*(   5) H   4                  0.00140
   129. RY*(   6) H   4                  0.00041
   130. RY*(   7) H   4                  0.00036
   131. RY*(   8) H   4                  0.00026
   132. RY*(   9) H   4                  0.00025
   133. RY*(  10) H   4                  0.00025
   134. RY*(  11) H   4                  0.00024
   135. RY*(  12) H   4                  0.00022
   136. RY*(  13) H   4                  0.00014
   137. RY*(  14) H   4                  0.00012
   138. RY*(  15) H   4                  0.00006
   139. RY*(  16) H   4                  0.00006
   140. RY*(  17) H   4                  0.00005
   141. RY*(  18) H   4                  0.00003
   142. RY*(  19) H   4                  0.00004
   143. RY*(  20) H   4                  0.00002
   144. RY*(  21) H   4                  0.00002
   145. RY*(  22) H   4                  0.00002
   147. BD*(   1)Br   3 - H   4          0.19115
       -------------------------------
              Total Lewis   35.82887  ( 99.0158%)
        Valence non-Lewis    0.19115  (  0.5283%)
        Rydberg non-Lewis    0.16497  (  0.4559%)
       -------------------------------
            Total unit  2   36.18499  (100.0000%)
           Charge unit  2   -0.18499
 Leave Link  607 at Fri Oct 15 15:36:59 2021, MaxMem= 16106127360 cpu:              75.9 elap:               2.7
 (Enter /sw/contrib/gaussian/g16/B01/g16/l9999.exe)
 1\1\GINC-N2098\SP\RMP2-FC\Gen\Br1H2O1(1-)\CGAVINH\15-Oct-2021\0\\#p po
 p=NBO SP NoSymm mp2/gen Pseudo=read density=current\\title\\-1,1\O\X,1
 ,10.\H,1,0.96048156,2,90.\Br,1,3.25083182,2,90.,3,101.65547111,0\H,1,1
 .5,2,90.,3,101.65547111,0\\Version=ES64L-G16RevB.01\HF=-491.57438\MP2=
 -492.1164475\RMSD=4.831e-09\Dipole=0.2239625,-1.2380598,0.\Quadrupole=
 7.6105546,-14.1131266,6.502572,-4.0787481,0.,0.\PG=CS [SG(Br1H2O1)]\\@


 WHEN ALL ELSE FAILS, TRY THE BOSS'S SUGGESTION.
 Job cpu time:       0 days  0 hours  5 minutes 18.8 seconds.
 Elapsed time:       0 days  0 hours  0 minutes 19.1 seconds.
 File lengths (MBytes):  RWF=     16 Int=      0 D2E=      0 Chk=      8 Scr=      1
 Normal termination of Gaussian 16 at Fri Oct 15 15:36:59 2021.
