 Entering Gaussian System, Link 0=g16
 Input=brhod_pp_rOH_110_sp.gjf
 Output=brhod_pp_rOH_110_sp.log
 Initial command:
 /sw/contrib/gaussian/g16/B01/g16/l1.exe "/scr/Gau-12413.inp" -scrdir="/scr/"
 Entering Link 1 = /sw/contrib/gaussian/g16/B01/g16/l1.exe PID=     12414.
  
 Copyright (c) 1988-2017, Gaussian, Inc.  All Rights Reserved.
  
 This is part of the Gaussian(R) 16 program.  It is based on
 the Gaussian(R) 09 system (copyright 2009, Gaussian, Inc.),
 the Gaussian(R) 03 system (copyright 2003, Gaussian, Inc.),
 the Gaussian(R) 98 system (copyright 1998, Gaussian, Inc.),
 the Gaussian(R) 94 system (copyright 1995, Gaussian, Inc.),
 the Gaussian 92(TM) system (copyright 1992, Gaussian, Inc.),
 the Gaussian 90(TM) system (copyright 1990, Gaussian, Inc.),
 the Gaussian 88(TM) system (copyright 1988, Gaussian, Inc.),
 the Gaussian 86(TM) system (copyright 1986, Carnegie Mellon
 University), and the Gaussian 82(TM) system (copyright 1983,
 Carnegie Mellon University). Gaussian is a federally registered
 trademark of Gaussian, Inc.
  
 This software contains proprietary and confidential information,
 including trade secrets, belonging to Gaussian, Inc.
  
 This software is provided under written license and may be
 used, copied, transmitted, or stored only in accord with that
 written license.
  
 The following legend is applicable only to US Government
 contracts under FAR:
  
                    RESTRICTED RIGHTS LEGEND
  
 Use, reproduction and disclosure by the US Government is
 subject to restrictions as set forth in subparagraphs (a)
 and (c) of the Commercial Computer Software - Restricted
 Rights clause in FAR 52.227-19.
  
 Gaussian, Inc.
 340 Quinnipiac St., Bldg. 40, Wallingford CT 06492
  
  
 ---------------------------------------------------------------
 Warning -- This program may not be used in any manner that
 competes with the business of Gaussian, Inc. or will provide
 assistance to any competitor of Gaussian, Inc.  The licensee
 of this program is prohibited from giving any competitor of
 Gaussian, Inc. access to this program.  By using this program,
 the user acknowledges that Gaussian, Inc. is engaged in the
 business of creating and licensing software in the field of
 computational chemistry and represents and warrants to the
 licensee that it is not a competitor of Gaussian, Inc. and that
 it will not use this program in any manner prohibited above.
 ---------------------------------------------------------------
  

 Cite this work as:
 Gaussian 16, Revision B.01,
 M. J. Frisch, G. W. Trucks, H. B. Schlegel, G. E. Scuseria, 
 M. A. Robb, J. R. Cheeseman, G. Scalmani, V. Barone, 
 G. A. Petersson, H. Nakatsuji, X. Li, M. Caricato, A. V. Marenich, 
 J. Bloino, B. G. Janesko, R. Gomperts, B. Mennucci, H. P. Hratchian, 
 J. V. Ortiz, A. F. Izmaylov, J. L. Sonnenberg, D. Williams-Young, 
 F. Ding, F. Lipparini, F. Egidi, J. Goings, B. Peng, A. Petrone, 
 T. Henderson, D. Ranasinghe, V. G. Zakrzewski, J. Gao, N. Rega, 
 G. Zheng, W. Liang, M. Hada, M. Ehara, K. Toyota, R. Fukuda, 
 J. Hasegawa, M. Ishida, T. Nakajima, Y. Honda, O. Kitao, H. Nakai, 
 T. Vreven, K. Throssell, J. A. Montgomery, Jr., J. E. Peralta, 
 F. Ogliaro, M. J. Bearpark, J. J. Heyd, E. N. Brothers, K. N. Kudin, 
 V. N. Staroverov, T. A. Keith, R. Kobayashi, J. Normand, 
 K. Raghavachari, A. P. Rendell, J. C. Burant, S. S. Iyengar, 
 J. Tomasi, M. Cossi, J. M. Millam, M. Klene, C. Adamo, R. Cammi, 
 J. W. Ochterski, R. L. Martin, K. Morokuma, O. Farkas, 
 J. B. Foresman, and D. J. Fox, Gaussian, Inc., Wallingford CT, 2016.
 
 ******************************************
 Gaussian 16:  ES64L-G16RevB.01 20-Dec-2017
                15-Oct-2021 
 ******************************************
 %nproc=28
 Will use up to   28 processors via shared memory.
 %mem=120GB
 %chk=/gscratch/ilahie/mccoygrp/coire_hocl/rOH_s_oop_0/brhod_pp/brhod_pp_rOH_110_
 sp.chk
 --------------------------------------------------------
 #p pop=NBO SP NoSymm mp2/gen Pseudo=read density=current
 --------------------------------------------------------
 1/30=1,38=1,172=1/1;
 2/12=2,15=1,17=6,18=5,40=1/2;
 3/5=7,11=9,16=1,17=8,25=1,30=1,71=1/1,2,3;
 4//1;
 5/5=2,38=5/2;
 8/6=4,10=1/1;
 9/15=1,16=-3/6;
 10/5=1,13=10,31=1/2;
 6/7=2,8=2,9=2,10=2,22=-1,40=1/1,7;
 99/5=1,9=1/99;
 Leave Link    1 at Fri Oct 15 15:34:01 2021, MaxMem= 16106127360 cpu:               2.4 elap:               0.1
 (Enter /sw/contrib/gaussian/g16/B01/g16/l101.exe)
 -----
 title
 -----
 Symbolic Z-matrix:
 Charge = -1 Multiplicity = 1
 O
 X                    1     10. 
 H(iso=2)             1    r1       2     90. 
 Br                   1    r2       2     90.      3    a1       0
 H                    1    r3       2    oop      3    a1       0
       Variables:
  r1                    0.96048                  
  r2                    3.25083                  
  r3                    1.1                      
  a1                  101.65547                  
  OOP                  90.                       
 
 ITRead=  0  0  0  0
 MicOpt= -1 -1 -1 -1
 NAtoms=      4 NQM=        4 NQMF=       0 NMMI=      0 NMMIF=      0
                NMic=       0 NMicF=      0.
                    Isotopes and Nuclear Properties:
 (Nuclear quadrupole moments (NQMom) in fm**2, nuclear magnetic moments (NMagM)
  in nuclear magnetons)

  Atom         1           2           3           4
 IAtWgt=          16           2          79           1
 AtmWgt=  15.9949146   2.0141018  78.9183361   1.0078250
 NucSpn=           0           2           3           1
 AtZEff=  -0.0000000  -0.0000000  -0.0000000  -0.0000000
 NQMom=    0.0000000   0.2860000  31.3000000   0.0000000
 NMagM=    0.0000000   0.8574380   2.1063990   2.7928460
 AtZNuc=   8.0000000   1.0000000  35.0000000   1.0000000
 Leave Link  101 at Fri Oct 15 15:34:01 2021, MaxMem= 16106127360 cpu:               3.2 elap:               0.1
 (Enter /sw/contrib/gaussian/g16/B01/g16/l202.exe)
                          Input orientation:                          
 ---------------------------------------------------------------------
 Center     Atomic      Atomic             Coordinates (Angstroms)
 Number     Number       Type             X           Y           Z
 ---------------------------------------------------------------------
      1          8           0        0.000000    0.000000    0.000000
      2          1           0        0.960482    0.000000    0.000000
      3         35           0       -0.656753   -3.183800    0.000000
      4          1           0       -0.222229   -1.077318    0.000000
 ---------------------------------------------------------------------
                    Distance matrix (angstroms):
                    1          2          3          4
     1  O    0.000000
     2  H    0.960482   0.000000
     3  Br   3.250832   3.570999   0.000000
     4  H    1.100000   1.599818   2.150832   0.000000
 Symmetry turned off by external request.
 Stoichiometry    BrH2O(1-)
 Framework group  CS[SG(BrH2O)]
 Deg. of freedom     5
 Full point group                 CS      NOp   2
 Rotational constants (GHZ):         322.9932199           3.1654449           3.1347235
 Leave Link  202 at Fri Oct 15 15:34:01 2021, MaxMem= 16106127360 cpu:               0.5 elap:               0.0
 (Enter /sw/contrib/gaussian/g16/B01/g16/l301.exe)
 General basis read from cards:  (5D, 7F)
 Centers:       2      4      1      2      4
 aug-cc-pVTZ
 ****
 Centers:       3
 S 10 1.00
     Exponent=  9.6593900000D+03 Coefficients=  3.7100000000D-04
     Exponent=  1.4559600000D+03 Coefficients=  2.5710000000D-03
     Exponent=  3.2591400000D+02 Coefficients=  8.4850000000D-03
     Exponent=  4.6565700000D+01 Coefficients=  7.8222000000D-02
     Exponent=  1.8246900000D+01 Coefficients= -3.9714900000D-01
     Exponent=  3.8020100000D+00 Coefficients=  6.8586400000D-01
     Exponent=  1.7863200000D+00 Coefficients=  4.8681900000D-01
     Exponent=  6.0271400000D-01 Coefficients=  3.4913000000D-02
     Exponent=  2.8401400000D-01 Coefficients= -6.5730000000D-03
     Exponent=  1.2027100000D-01 Coefficients=  1.6420000000D-03
 S 10 1.00
     Exponent=  9.6593900000D+03 Coefficients= -1.5200000000D-04
     Exponent=  1.4559600000D+03 Coefficients= -1.0080000000D-03
     Exponent=  3.2591400000D+02 Coefficients= -3.6090000000D-03
     Exponent=  4.6565700000D+01 Coefficients= -2.7872000000D-02
     Exponent=  1.8246900000D+01 Coefficients=  1.5131700000D-01
     Exponent=  3.8020100000D+00 Coefficients= -3.5149700000D-01
     Exponent=  1.7863200000D+00 Coefficients= -4.1070300000D-01
     Exponent=  6.0271400000D-01 Coefficients=  3.4731600000D-01
     Exponent=  2.8401400000D-01 Coefficients=  6.7549100000D-01
     Exponent=  1.2027100000D-01 Coefficients=  2.4400800000D-01
 S 1 1.00
     Exponent=  6.0271400000D-01 Coefficients=  1.0000000000D+00
 S 1 1.00
     Exponent=  2.8401400000D-01 Coefficients=  1.0000000000D+00
 S 1 1.00
     Exponent=  1.2027100000D-01 Coefficients=  1.0000000000D+00
 S 1 1.00
     Exponent=  4.4500000000D-02 Coefficients=  1.0000000000D+00
 P 9 1.00
     Exponent=  4.9218700000D+02 Coefficients=  4.7200000000D-04
     Exponent=  9.2364200000D+01 Coefficients=  5.4940000000D-03
     Exponent=  2.7071800000D+01 Coefficients= -8.8030000000D-02
     Exponent=  7.2653900000D+00 Coefficients=  3.4348500000D-01
     Exponent=  3.4848100000D+00 Coefficients=  5.1020800000D-01
     Exponent=  1.6404800000D+00 Coefficients=  2.4863100000D-01
     Exponent=  6.4857000000D-01 Coefficients=  2.2201000000D-02
     Exponent=  2.5640700000D-01 Coefficients= -4.1900000000D-04
     Exponent=  9.5304000000D-02 Coefficients=  6.5600000000D-04
 P 9 1.00
     Exponent=  4.9218700000D+02 Coefficients= -1.5800000000D-04
     Exponent=  9.2364200000D+01 Coefficients= -1.3440000000D-03
     Exponent=  2.7071800000D+01 Coefficients=  2.4616000000D-02
     Exponent=  7.2653900000D+00 Coefficients= -1.1253200000D-01
     Exponent=  3.4848100000D+00 Coefficients= -1.7977500000D-01
     Exponent=  1.6404800000D+00 Coefficients= -7.3661000000D-02
     Exponent=  6.4857000000D-01 Coefficients=  3.4873400000D-01
     Exponent=  2.5640700000D-01 Coefficients=  5.5794800000D-01
     Exponent=  9.5304000000D-02 Coefficients=  2.6645600000D-01
 P 1 1.00
     Exponent=  7.6660000000D-01 Coefficients=  1.0000000000D+00
 P 1 1.00
     Exponent=  1.1820000000D-01 Coefficients=  1.0000000000D+00
 P 1 1.00
     Exponent=  3.9600000000D-02 Coefficients=  1.0000000000D+00
 D 8 1.00
     Exponent=  3.3899600000D+02 Coefficients=  1.5240000000D-03
     Exponent=  1.0321700000D+02 Coefficients=  1.5673000000D-02
     Exponent=  4.2363800000D+01 Coefficients=  7.2400000000D-02
     Exponent=  1.8435600000D+01 Coefficients=  1.8630300000D-01
     Exponent=  8.3725400000D+00 Coefficients=  3.2388100000D-01
     Exponent=  3.8022200000D+00 Coefficients=  3.7453400000D-01
     Exponent=  1.6867700000D+00 Coefficients=  2.5741800000D-01
     Exponent=  6.7752000000D-01 Coefficients=  6.8051000000D-02
 D 1 1.00
     Exponent=  6.7752000000D-01 Coefficients=  1.0000000000D+00
 D 1 1.00
     Exponent=  2.5530000000D-01 Coefficients=  1.0000000000D+00
 D 1 1.00
     Exponent=  1.0090000000D-01 Coefficients=  1.0000000000D+00
 F 1 1.00
     Exponent=  5.6060000000D-01 Coefficients=  1.0000000000D+00
 F 1 1.00
     Exponent=  2.4540000000D-01 Coefficients=  1.0000000000D+00
 ****
 ======================================================================================================
                                       Pseudopotential Parameters
 ======================================================================================================
  Center     Atomic      Valence      Angular      Power
  Number     Number     Electrons     Momentum     of R      Exponent        Coefficient   SO-Coeffient
 ======================================================================================================
    1          8
                                   No pseudopotential on this center.
    2          1
                                   No pseudopotential on this center.
    3         35           25
                                      G and up 
                                                     2        1.0000000        0.00000000    0.00000000
                                      S - G
                                                     2       70.0242570       49.96283400    0.00000000
                                                     2       31.1784120      370.01420500    0.00000000
                                                     2        7.1565930       10.24143900    0.00000000
                                      P - G
                                                     2       46.7734710       99.11224400    0.00000000
                                                     2       46.1841200      198.25304600    0.00000000
                                                     2       21.7138580       28.26174000    0.00000000
                                                     2       20.9417920       56.62336600    0.00000000
                                      D - G
                                                     2       50.6988390      -18.60585300    0.00000000
                                                     2       50.6447640      -27.92328000    0.00000000
                                                     2       15.4475090       -0.37969300    0.00000000
                                                     2       15.5002590       -0.78058300    0.00000000
                                                     2        2.8003910        0.03596800    0.00000000
                                                     2        1.0774800        0.09439700    0.00000000
                                      F - G
                                                     2       14.4656060       -1.09126900    0.00000000
                                                     2       21.2340650       -2.88769100    0.00000000
    4          1
                                   No pseudopotential on this center.
 ======================================================================================================
 Ernie: Thresh=  0.10000D-02 Tol=  0.10000D-05 Strict=F.
 Ernie:  18 primitive shells out of 132 were deleted.
   191 basis functions,   334 primitive gaussians,   218 cartesian basis functions
    18 alpha electrons       18 beta electrons
       nuclear repulsion energy        50.9988829560 Hartrees.
 IExCor=    0 DFT=F Ex=HF Corr=None ExCW=0 ScaHFX=  1.000000
 ScaDFX=  1.000000  1.000000  1.000000  1.000000 ScalE2=  1.000000  1.000000
 IRadAn=      5 IRanWt=     -1 IRanGd=            0 ICorTp=0 IEmpDi=  4
 NAtoms=    4 NActive=    4 NUniq=    4 SFac= 1.00D+00 NAtFMM=   60 NAOKFM=F Big=F
 Integral buffers will be    131072 words long.
 Raffenetti 1 integral format.
 Two-electron integral symmetry is turned off.
 Leave Link  301 at Fri Oct 15 15:34:02 2021, MaxMem= 16106127360 cpu:               2.1 elap:               0.1
 (Enter /sw/contrib/gaussian/g16/B01/g16/l302.exe)
 NPDir=0 NMtPBC=     1 NCelOv=     1 NCel=       1 NClECP=     1 NCelD=      1
         NCelK=      1 NCelE2=     1 NClLst=     1 CellRange=     0.0.
 One-electron integrals computed using PRISM.
   1 Symmetry operations used in ECPInt.
 ECPInt:  NShTT=    2145 NPrTT=    6720 LenC2=    2146 LenP2D=    6099.
 LDataN:  DoStor=T MaxTD1= 7 Len=  274
 NBasis=   191 RedAO= T EigKep=  4.21D-04  NBF=   191
 NBsUse=   147 1.00D-06 EigRej=  5.18D-15 NBFU=   147
 Leave Link  302 at Fri Oct 15 15:34:02 2021, MaxMem= 16106127360 cpu:               6.4 elap:               0.3
 (Enter /sw/contrib/gaussian/g16/B01/g16/l303.exe)
 DipDrv:  MaxL=1.
 Leave Link  303 at Fri Oct 15 15:34:02 2021, MaxMem= 16106127360 cpu:               1.3 elap:               0.1
 (Enter /sw/contrib/gaussian/g16/B01/g16/l401.exe)
 ExpMin= 2.53D-02 ExpMax= 1.53D+04 ExpMxC= 5.22D+02 IAcc=3 IRadAn=         5 AccDes= 0.00D+00
 Harris functional with IExCor=  205 and IRadAn=       5 diagonalized for initial guess.
 HarFok:  IExCor=  205 AccDes= 0.00D+00 IRadAn=         5 IDoV= 1 UseB2=F ITyADJ=14
 ICtDFT=  3500011 ScaDFX=  1.000000  1.000000  1.000000  1.000000
 FoFCou: FMM=F IPFlag=           0 FMFlag=      100000 FMFlg1=           0
         NFxFlg=           0 DoJE=T BraDBF=F KetDBF=T FulRan=T
         wScrn=  0.000000 ICntrl=       500 IOpCl=  0 I1Cent=   200000004 NGrid=           0
         NMat0=    1 NMatS0=      1 NMatT0=    0 NMatD0=    1 NMtDS0=    0 NMtDT0=    0
 Symmetry not used in FoFCou.
 Harris En= -493.551183758680    
 JPrj=0 DoOrth=F DoCkMO=F.
 Leave Link  401 at Fri Oct 15 15:34:02 2021, MaxMem= 16106127360 cpu:               6.4 elap:               0.3
 (Enter /sw/contrib/gaussian/g16/B01/g16/l502.exe)
 Keep R1 ints in memory in canonical form, NReq=204937549.
 FoFCou: FMM=F IPFlag=           0 FMFlag=           0 FMFlg1=           0
         NFxFlg=           0 DoJE=F BraDBF=F KetDBF=F FulRan=T
         wScrn=  0.000000 ICntrl=       600 IOpCl=  0 I1Cent=           0 NGrid=           0
         NMat0=    1 NMatS0=  18336 NMatT0=    0 NMatD0=    1 NMtDS0=    0 NMtDT0=    0
 Symmetry not used in FoFCou.
 Two-electron integral symmetry not used.
 Closed shell SCF:
 Using DIIS extrapolation, IDIIS=  1040.
 NGot= 16106127360 LenX= 15937911228 LenY= 15937863263
 Requested convergence on RMS density matrix=1.00D-08 within 128 cycles.
 Requested convergence on MAX density matrix=1.00D-06.
 Requested convergence on             energy=1.00D-06.
 No special actions if energy rises.

 Cycle   1  Pass 1  IDiag  1:
 E= -491.488110921467    
 DIIS: error= 4.90D-02 at cycle   1 NSaved=   1.
 NSaved= 1 IEnMin= 1 EnMin= -491.488110921467     IErMin= 1 ErrMin= 4.90D-02
 ErrMax= 4.90D-02  0.00D+00 EMaxC= 1.00D-01 BMatC= 2.55D-01 BMatP= 2.55D-01
 IDIUse=3 WtCom= 5.10D-01 WtEn= 4.90D-01
 Coeff-Com:  0.100D+01
 Coeff-En:   0.100D+01
 Coeff:      0.100D+01
 Gap=     0.409 Goal=   None    Shift=    0.000
 GapD=    0.409 DampG=2.000 DampE=0.500 DampFc=1.0000 IDamp=-1.
 RMSDP=4.26D-03 MaxDP=2.56D-01              OVMax= 1.26D-01

 Cycle   2  Pass 1  IDiag  1:
 E= -491.599168852411     Delta-E=       -0.111057930944 Rises=F Damp=F
 DIIS: error= 3.40D-02 at cycle   2 NSaved=   2.
 NSaved= 2 IEnMin= 2 EnMin= -491.599168852411     IErMin= 2 ErrMin= 3.40D-02
 ErrMax= 3.40D-02  0.00D+00 EMaxC= 1.00D-01 BMatC= 6.26D-02 BMatP= 2.55D-01
 IDIUse=3 WtCom= 6.60D-01 WtEn= 3.40D-01
 Coeff-Com:  0.291D+00 0.709D+00
 Coeff-En:   0.000D+00 0.100D+01
 Coeff:      0.192D+00 0.808D+00
 Gap=     0.308 Goal=   None    Shift=    0.000
 RMSDP=1.12D-03 MaxDP=4.03D-02 DE=-1.11D-01 OVMax= 7.20D-02

 Cycle   3  Pass 1  IDiag  1:
 E= -491.632910747297     Delta-E=       -0.033741894886 Rises=F Damp=F
 DIIS: error= 1.29D-02 at cycle   3 NSaved=   3.
 NSaved= 3 IEnMin= 3 EnMin= -491.632910747297     IErMin= 3 ErrMin= 1.29D-02
 ErrMax= 1.29D-02  0.00D+00 EMaxC= 1.00D-01 BMatC= 9.07D-03 BMatP= 6.26D-02
 IDIUse=3 WtCom= 8.71D-01 WtEn= 1.29D-01
 Coeff-Com: -0.119D-01 0.265D+00 0.747D+00
 Coeff-En:   0.000D+00 0.000D+00 0.100D+01
 Coeff:     -0.104D-01 0.231D+00 0.780D+00
 Gap=     0.308 Goal=   None    Shift=    0.000
 RMSDP=3.26D-04 MaxDP=1.32D-02 DE=-3.37D-02 OVMax= 2.13D-02

 Cycle   4  Pass 1  IDiag  1:
 E= -491.638362590526     Delta-E=       -0.005451843229 Rises=F Damp=F
 DIIS: error= 1.63D-03 at cycle   4 NSaved=   4.
 NSaved= 4 IEnMin= 4 EnMin= -491.638362590526     IErMin= 4 ErrMin= 1.63D-03
 ErrMax= 1.63D-03  0.00D+00 EMaxC= 1.00D-01 BMatC= 1.47D-04 BMatP= 9.07D-03
 IDIUse=3 WtCom= 9.84D-01 WtEn= 1.63D-02
 Coeff-Com: -0.292D-02 0.391D-01 0.186D+00 0.778D+00
 Coeff-En:   0.000D+00 0.000D+00 0.000D+00 0.100D+01
 Coeff:     -0.287D-02 0.385D-01 0.183D+00 0.782D+00
 Gap=     0.303 Goal=   None    Shift=    0.000
 RMSDP=5.64D-05 MaxDP=1.84D-03 DE=-5.45D-03 OVMax= 3.07D-03

 Cycle   5  Pass 1  IDiag  1:
 E= -491.638465643324     Delta-E=       -0.000103052797 Rises=F Damp=F
 DIIS: error= 1.87D-04 at cycle   5 NSaved=   5.
 NSaved= 5 IEnMin= 5 EnMin= -491.638465643324     IErMin= 5 ErrMin= 1.87D-04
 ErrMax= 1.87D-04  0.00D+00 EMaxC= 1.00D-01 BMatC= 6.16D-06 BMatP= 1.47D-04
 IDIUse=3 WtCom= 9.98D-01 WtEn= 1.87D-03
 Coeff-Com: -0.878D-03-0.151D-01-0.300D-01 0.121D+00 0.925D+00
 Coeff-En:   0.000D+00 0.000D+00 0.000D+00 0.000D+00 0.100D+01
 Coeff:     -0.876D-03-0.151D-01-0.300D-01 0.121D+00 0.925D+00
 Gap=     0.304 Goal=   None    Shift=    0.000
 RMSDP=2.31D-05 MaxDP=1.49D-03 DE=-1.03D-04 OVMax= 1.04D-03

 Cycle   6  Pass 1  IDiag  1:
 E= -491.638474047367     Delta-E=       -0.000008404043 Rises=F Damp=F
 DIIS: error= 8.78D-05 at cycle   6 NSaved=   6.
 NSaved= 6 IEnMin= 6 EnMin= -491.638474047367     IErMin= 6 ErrMin= 8.78D-05
 ErrMax= 8.78D-05  0.00D+00 EMaxC= 1.00D-01 BMatC= 4.07D-07 BMatP= 6.16D-06
 IDIUse=1 WtCom= 1.00D+00 WtEn= 0.00D+00
 Coeff-Com:  0.653D-03 0.309D-03-0.498D-02-0.726D-01-0.328D+00 0.140D+01
 Coeff:      0.653D-03 0.309D-03-0.498D-02-0.726D-01-0.328D+00 0.140D+01
 Gap=     0.304 Goal=   None    Shift=    0.000
 RMSDP=1.09D-05 MaxDP=7.26D-04 DE=-8.40D-06 OVMax= 5.21D-04

 Cycle   7  Pass 1  IDiag  1:
 E= -491.638475391528     Delta-E=       -0.000001344161 Rises=F Damp=F
 DIIS: error= 1.88D-05 at cycle   7 NSaved=   7.
 NSaved= 7 IEnMin= 7 EnMin= -491.638475391528     IErMin= 7 ErrMin= 1.88D-05
 ErrMax= 1.88D-05  0.00D+00 EMaxC= 1.00D-01 BMatC= 1.30D-08 BMatP= 4.07D-07
 IDIUse=1 WtCom= 1.00D+00 WtEn= 0.00D+00
 Coeff-Com: -0.225D-03 0.506D-03 0.293D-02 0.214D-01 0.927D-01-0.533D+00
 Coeff-Com:  0.142D+01
 Coeff:     -0.225D-03 0.506D-03 0.293D-02 0.214D-01 0.927D-01-0.533D+00
 Coeff:      0.142D+01
 Gap=     0.304 Goal=   None    Shift=    0.000
 RMSDP=1.93D-06 MaxDP=1.11D-04 DE=-1.34D-06 OVMax= 1.16D-04

 Cycle   8  Pass 1  IDiag  1:
 E= -491.638475434880     Delta-E=       -0.000000043352 Rises=F Damp=F
 DIIS: error= 2.32D-06 at cycle   8 NSaved=   8.
 NSaved= 8 IEnMin= 8 EnMin= -491.638475434880     IErMin= 8 ErrMin= 2.32D-06
 ErrMax= 2.32D-06  0.00D+00 EMaxC= 1.00D-01 BMatC= 3.98D-10 BMatP= 1.30D-08
 IDIUse=1 WtCom= 1.00D+00 WtEn= 0.00D+00
 Coeff-Com: -0.795D-05-0.628D-04-0.880D-04 0.152D-02 0.615D-02-0.155D-01
 Coeff-Com: -0.796D-01 0.109D+01
 Coeff:     -0.795D-05-0.628D-04-0.880D-04 0.152D-02 0.615D-02-0.155D-01
 Coeff:     -0.796D-01 0.109D+01
 Gap=     0.304 Goal=   None    Shift=    0.000
 RMSDP=2.80D-07 MaxDP=9.32D-06 DE=-4.34D-08 OVMax= 1.43D-05

 Cycle   9  Pass 1  IDiag  1:
 E= -491.638475435812     Delta-E=       -0.000000000932 Rises=F Damp=F
 DIIS: error= 8.43D-07 at cycle   9 NSaved=   9.
 NSaved= 9 IEnMin= 9 EnMin= -491.638475435812     IErMin= 9 ErrMin= 8.43D-07
 ErrMax= 8.43D-07  0.00D+00 EMaxC= 1.00D-01 BMatC= 3.73D-11 BMatP= 3.98D-10
 IDIUse=1 WtCom= 1.00D+00 WtEn= 0.00D+00
 Coeff-Com:  0.198D-04-0.452D-04-0.255D-03-0.190D-02-0.832D-02 0.478D-01
 Coeff-Com: -0.126D+00-0.176D-01 0.111D+01
 Coeff:      0.198D-04-0.452D-04-0.255D-03-0.190D-02-0.832D-02 0.478D-01
 Coeff:     -0.126D+00-0.176D-01 0.111D+01
 Gap=     0.304 Goal=   None    Shift=    0.000
 RMSDP=7.76D-08 MaxDP=2.34D-06 DE=-9.32D-10 OVMax= 4.81D-06

 Cycle  10  Pass 1  IDiag  1:
 E= -491.638475435910     Delta-E=       -0.000000000098 Rises=F Damp=F
 DIIS: error= 2.27D-07 at cycle  10 NSaved=  10.
 NSaved=10 IEnMin=10 EnMin= -491.638475435910     IErMin=10 ErrMin= 2.27D-07
 ErrMax= 2.27D-07  0.00D+00 EMaxC= 1.00D-01 BMatC= 2.57D-12 BMatP= 3.73D-11
 IDIUse=1 WtCom= 1.00D+00 WtEn= 0.00D+00
 Coeff-Com: -0.179D-05 0.108D-04 0.380D-04 0.563D-04 0.452D-03-0.404D-02
 Coeff-Com:  0.196D-01-0.733D-01-0.116D+00 0.117D+01
 Coeff:     -0.179D-05 0.108D-04 0.380D-04 0.563D-04 0.452D-03-0.404D-02
 Coeff:      0.196D-01-0.733D-01-0.116D+00 0.117D+01
 Gap=     0.304 Goal=   None    Shift=    0.000
 RMSDP=2.43D-08 MaxDP=1.13D-06 DE=-9.78D-11 OVMax= 1.21D-06

 Cycle  11  Pass 1  IDiag  1:
 E= -491.638475435918     Delta-E=       -0.000000000009 Rises=F Damp=F
 DIIS: error= 3.14D-08 at cycle  11 NSaved=  11.
 NSaved=11 IEnMin=11 EnMin= -491.638475435918     IErMin=11 ErrMin= 3.14D-08
 ErrMax= 3.14D-08  0.00D+00 EMaxC= 1.00D-01 BMatC= 1.43D-13 BMatP= 2.57D-12
 IDIUse=1 WtCom= 1.00D+00 WtEn= 0.00D+00
 Coeff-Com: -0.625D-06 0.391D-07 0.461D-05 0.887D-04 0.329D-03-0.158D-02
 Coeff-Com:  0.267D-02 0.128D-01-0.428D-01-0.202D+00 0.123D+01
 Coeff:     -0.625D-06 0.391D-07 0.461D-05 0.887D-04 0.329D-03-0.158D-02
 Coeff:      0.267D-02 0.128D-01-0.428D-01-0.202D+00 0.123D+01
 Gap=     0.304 Goal=   None    Shift=    0.000
 RMSDP=9.28D-09 MaxDP=4.65D-07 DE=-8.64D-12 OVMax= 4.05D-07

 SCF Done:  E(RHF) =  -491.638475436     A.U. after   11 cycles
            NFock= 11  Conv=0.93D-08     -V/T= 2.3230
 KE= 3.716075812610D+02 PE=-1.317562004944D+03 EE= 4.033170652915D+02
 Leave Link  502 at Fri Oct 15 15:34:06 2021, MaxMem= 16106127360 cpu:              37.3 elap:               4.3
 (Enter /sw/contrib/gaussian/g16/B01/g16/l801.exe)
 ExpMin= 2.53D-02 ExpMax= 1.53D+04 ExpMxC= 5.22D+02 IAcc=3 IRadAn=         5 AccDes= 0.00D+00
 HarFok:  IExCor=  205 AccDes= 0.00D+00 IRadAn=         5 IDoV=-2 UseB2=F ITyADJ=14
 ICtDFT= 12500011 ScaDFX=  1.000000  1.000000  1.000000  1.000000
 Largest valence mixing into a core orbital is  1.29D-04
 Largest core mixing into a valence orbital is  2.26D-05
 Range of M.O.s used for correlation:     6   147
 NBasis=   191 NAE=    18 NBE=    18 NFC=     5 NFV=     0
 NROrb=    142 NOA=    13 NOB=    13 NVA=   129 NVB=   129

 **** Warning!!: The largest alpha MO coefficient is  0.12356130D+02

 Leave Link  801 at Fri Oct 15 15:34:07 2021, MaxMem= 16106127360 cpu:               2.0 elap:               0.1
 (Enter /sw/contrib/gaussian/g16/B01/g16/l906.exe)
 Frozen-core derivative calculation, NFC=   5 NFV=   0.
 FulOut=F Deriv=T AODrv=F NAtomX=     4
   MMem=         107  MDisk=          13 MDiskD=          13
  W3Min=      576828 MinDsk=     1313419 NBas6D=         218
 NBas2D=       24339    NTT=       23871    LW2=    16556320
    MDV= 16105797306 MDiskM=      369353 NBas2p=       24313
 Fully in-core method, ICMem=   644650517.
 IMap=   1   2   3   4   5   6   7   8   9  10  11  12  13  14  15  16  17  18
 JobTyp=1 Pass  1 fully in-core, NPsUse= 28.
 Compute canonical integrals.
 FoFCou: FMM=F IPFlag=           0 FMFlag=           0 FMFlg1=           0
         NFxFlg=           0 DoJE=F BraDBF=F KetDBF=F FulRan=T
         wScrn=  0.000000 ICntrl=       600 IOpCl=  1 I1Cent=           0 NGrid=           0
         NMat0=    1 NMatS0=  24339 NMatT0=    0 NMatD0=    1 NMtDS0=    0 NMtDT0=    0
 Symmetry not used in FoFCou.
 Spin components of T(2) and E(2):
     alpha-alpha T2 =       0.2116712623D-01 E2=     -0.7054947762D-01
     alpha-beta  T2 =       0.1120265244D+00 E2=     -0.3831380950D+00
     beta-beta   T2 =       0.2116712623D-01 E2=     -0.7054947762D-01
 The integrals were generated   1 times.
 ANorm=    0.1074411828D+01
 E2 =    -0.5242370503D+00 EUMP2 =    -0.49216271248620D+03
 Leave Link  906 at Fri Oct 15 15:34:11 2021, MaxMem= 16106127360 cpu:             131.5 elap:               4.7
 (Enter /sw/contrib/gaussian/g16/B01/g16/l1002.exe)
 Minotr:  Closed shell wavefunction.
          Computing MP2/KS-MP2 derivatives.
          Using Z-Vector for PSCF gradient.
          Skipping F1 and S1 gradient terms here.
          Frozen-core window.
          Direct CPHF calculation.
          Differentiating once with respect to electric field.
                with respect to dipole field.
          Electric field/nuclear overlap derivatives assumed to be zero.
          Requested convergence is 1.0D-10 RMS, and 1.0D-09 maximum.
          NewPWx=F KeepS1=T KeepF1=T KeepIn=T MapXYZ=F SortEE=F KeepMc=T.
 Keep R1 ints in memory in canonical form, NReq=204939885.
 FoFCou: FMM=F IPFlag=           0 FMFlag=           0 FMFlg1=           0
         NFxFlg=           0 DoJE=F BraDBF=F KetDBF=F FulRan=T
         wScrn=  0.000000 ICntrl=       600 IOpCl=  0 I1Cent=           0 NGrid=           0
         NMat0=    1 NMatS0=  18336 NMatT0=    0 NMatD0=    1 NMtDS0=    0 NMtDT0=    0
 Symmetry not used in FoFCou.
 Two-electron integral symmetry not used.
          MDV=   16106127360 using IRadAn=       5.
          Solving linear equations separately, MaxMat=       0.
          There are     1 degrees of freedom in the 1st order CPHF.  IDoFFX=0 NUNeed=     1.
 LinEq1:  Iter=  0 NonCon=     1 RMS=2.94D-03 Max=5.11D-02 NDo=     1
 AX will form     1 AO Fock derivatives at one time.
 LinEq1:  Iter=  1 NonCon=     1 RMS=5.03D-04 Max=5.44D-03 NDo=     1
 LinEq1:  Iter=  2 NonCon=     1 RMS=2.23D-04 Max=2.91D-03 NDo=     1
 LinEq1:  Iter=  3 NonCon=     1 RMS=6.55D-05 Max=1.23D-03 NDo=     1
 LinEq1:  Iter=  4 NonCon=     1 RMS=1.24D-05 Max=1.27D-04 NDo=     1
 LinEq1:  Iter=  5 NonCon=     1 RMS=5.51D-06 Max=6.16D-05 NDo=     1
 LinEq1:  Iter=  6 NonCon=     1 RMS=1.27D-06 Max=2.82D-05 NDo=     1
 LinEq1:  Iter=  7 NonCon=     1 RMS=3.01D-07 Max=4.41D-06 NDo=     1
 LinEq1:  Iter=  8 NonCon=     1 RMS=7.97D-08 Max=9.93D-07 NDo=     1
 LinEq1:  Iter=  9 NonCon=     1 RMS=1.00D-08 Max=1.81D-07 NDo=     1
 LinEq1:  Iter= 10 NonCon=     1 RMS=1.55D-09 Max=1.82D-08 NDo=     1
 LinEq1:  Iter= 11 NonCon=     1 RMS=4.55D-10 Max=7.39D-09 NDo=     1
 LinEq1:  Iter= 12 NonCon=     0 RMS=8.09D-11 Max=8.73D-10 NDo=     1
 Linear equations converged to 1.000D-10 1.000D-09 after    12 iterations.
 End of Minotr F.D. properties file   721 does not exist.
 End of Minotr F.D. properties file   722 does not exist.
 End of Minotr F.D. properties file   788 does not exist.
 Leave Link 1002 at Fri Oct 15 15:34:17 2021, MaxMem= 16106127360 cpu:              46.5 elap:               5.7
 (Enter /sw/contrib/gaussian/g16/B01/g16/l601.exe)
 Copying SCF densities to generalized density rwf, IOpCl= 0 IROHF=0.

 **********************************************************************

            Population analysis using the MP2 Density.

 **********************************************************************

 Alpha  occ. eigenvalues --  -20.38185  -9.55031  -7.29820  -7.29769  -7.29764
 Alpha  occ. eigenvalues --   -2.84923  -2.84905  -2.84900  -2.84852  -2.84852
 Alpha  occ. eigenvalues --   -1.13717  -0.74626  -0.49211  -0.39486  -0.31750
 Alpha  occ. eigenvalues --   -0.17105  -0.16583  -0.16536
 Alpha virt. eigenvalues --    0.13836   0.17432   0.24835   0.25957   0.26541
 Alpha virt. eigenvalues --    0.28058   0.30270   0.30596   0.33447   0.35009
 Alpha virt. eigenvalues --    0.40185   0.41364   0.41793   0.46198   0.47220
 Alpha virt. eigenvalues --    0.47628   0.50123   0.53346   0.56697   0.60086
 Alpha virt. eigenvalues --    0.61360   0.62589   0.71942   0.76657   0.82401
 Alpha virt. eigenvalues --    0.83805   0.84016   0.86817   0.89136   0.91433
 Alpha virt. eigenvalues --    0.92341   0.95182   0.97986   0.99149   0.99226
 Alpha virt. eigenvalues --    1.00514   1.01036   1.02605   1.05306   1.08146
 Alpha virt. eigenvalues --    1.10001   1.10606   1.15196   1.15337   1.17227
 Alpha virt. eigenvalues --    1.17697   1.18817   1.21440   1.23561   1.24484
 Alpha virt. eigenvalues --    1.31683   1.35099   1.42231   1.45103   1.46336
 Alpha virt. eigenvalues --    1.46431   1.64088   1.65349   1.68956   1.70990
 Alpha virt. eigenvalues --    1.78640   1.79113   2.04956   2.09424   2.18540
 Alpha virt. eigenvalues --    2.36575   2.44908   2.46340   2.46813   2.50558
 Alpha virt. eigenvalues --    2.53438   2.53827   2.54428   2.54556   2.54989
 Alpha virt. eigenvalues --    2.56056   2.57954   2.61336   2.63109   2.63877
 Alpha virt. eigenvalues --    2.64801   2.67159   2.68182   2.70345   2.73918
 Alpha virt. eigenvalues --    2.80053   2.82470   2.91596   2.94907   3.00471
 Alpha virt. eigenvalues --    3.09765   3.14545   3.15822   3.42484   3.87269
 Alpha virt. eigenvalues --    4.11654   4.19567   4.28846   4.31077   4.40549
 Alpha virt. eigenvalues --    4.43696   4.53977   4.58658   4.58849   4.72906
 Alpha virt. eigenvalues --    4.87901   4.97417   5.08961   5.17162   5.36704
 Alpha virt. eigenvalues --    5.45150   5.58665   5.74267   6.36206   6.74320
 Alpha virt. eigenvalues --    6.89785   7.02665   7.16980   7.39407   7.42308
 Alpha virt. eigenvalues --    7.46529   7.54737   7.62397   7.72244   8.01642
 Alpha virt. eigenvalues --    8.10126   8.61227  14.87033  79.89099
          Condensed to atoms (all electrons):
               1          2          3          4
     1  O    8.317126   0.190934  -0.069866   0.139677
     2  H    0.190934   0.609928   0.000257   0.032749
     3  Br  -0.069866   0.000257  25.943009   0.011761
     4  H    0.139677   0.032749   0.011761   0.518910
 Mulliken charges:
               1
     1  O   -0.577872
     2  H    0.166132
     3  Br  -0.885162
     4  H    0.296902
 Sum of Mulliken charges =  -1.00000
 Mulliken charges with hydrogens summed into heavy atoms:
               1
     1  O   -0.114838
     3  Br  -0.885162
 Electronic spatial extent (au):  <R**2>=           1050.0332
 Charge=             -1.0000 electrons
 Dipole moment (field-independent basis, Debye):
    X=              3.6787    Y=             11.7021    Z=              0.0000  Tot=             12.2667
 Quadrupole moment (field-independent basis, Debye-Ang):
   XX=            -30.3836   YY=            -71.3759   ZZ=            -31.3326
   XY=             -7.8531   XZ=             -0.0000   YZ=             -0.0000
 Traceless Quadrupole moment (field-independent basis, Debye-Ang):
   XX=             13.9805   YY=            -27.0119   ZZ=             13.0314
   XY=             -7.8531   XZ=             -0.0000   YZ=             -0.0000
 Octapole moment (field-independent basis, Debye-Ang**2):
  XXX=             46.1291  YYY=            351.5387  ZZZ=              0.0000  XYY=             40.5468
  XXY=             78.8561  XXZ=              0.0000  XZZ=             14.3879  YZZ=             73.5486
  YYZ=              0.0000  XYZ=              0.0000
 Hexadecapole moment (field-independent basis, Debye-Ang**3):
 XXXX=           -107.3283 YYYY=          -1852.5614 ZZZZ=            -49.1563 XXXY=           -146.3130
 XXXZ=              0.0000 YYYX=           -224.3556 YYYZ=              0.0000 ZZZX=              0.0000
 ZZZY=             -0.0000 XXYY=           -275.4491 XXZZ=            -26.3262 YYZZ=           -249.1972
 XXYZ=             -0.0000 YYXZ=             -0.0000 ZZXY=            -47.6915
 N-N= 5.099888295600D+01 E-N=-1.316253613969D+03  KE= 3.712704795121D+02
 No NMR shielding tensors so no spin-rotation constants.
 Leave Link  601 at Fri Oct 15 15:34:17 2021, MaxMem= 16106127360 cpu:               4.2 elap:               0.2
 (Enter /sw/contrib/gaussian/g16/B01/g16/l607.exe)
 ******************************Gaussian NBO Version 3.1******************************
             N A T U R A L   A T O M I C   O R B I T A L   A N D
          N A T U R A L   B O N D   O R B I T A L   A N A L Y S I S
 ******************************Gaussian NBO Version 3.1******************************
       /RESON  / : Allow strongly delocalized NBO set

 Analyzing the MP2 density

 Job title: title                                                           

 Storage needed:    110417 in NPA,    146568 in NBO (********** available)
 GSVD:  LWork=       13161 too small for GESVD, short by       32525 words or       32525 for optimal perf.


 NATURAL POPULATIONS:  Natural atomic orbital occupancies 
                                                          
   NAO  Atom  No  lang   Type(AO)    Occupancy
 --------------------------------------------
     1    O    1  S      Cor( 1S)     1.99992
     2    O    1  S      Val( 2S)     1.89910
     3    O    1  S      Ryd( 3S)     0.00663
     4    O    1  S      Ryd( 4S)     0.00035
     5    O    1  S      Ryd( 5S)     0.00015
     6    O    1  px     Val( 2p)     1.67225
     7    O    1  px     Ryd( 3p)     0.01372
     8    O    1  px     Ryd( 4p)     0.00064
     9    O    1  px     Ryd( 5p)     0.00008
    10    O    1  py     Val( 2p)     1.77203
    11    O    1  py     Ryd( 3p)     0.01325
    12    O    1  py     Ryd( 4p)     0.00064
    13    O    1  py     Ryd( 5p)     0.00029
    14    O    1  pz     Val( 2p)     1.95349
    15    O    1  pz     Ryd( 3p)     0.02221
    16    O    1  pz     Ryd( 4p)     0.00055
    17    O    1  pz     Ryd( 5p)     0.00000
    18    O    1  dxy    Ryd( 3d)     0.00858
    19    O    1  dxy    Ryd( 4d)     0.00051
    20    O    1  dxy    Ryd( 5d)     0.00013
    21    O    1  dxz    Ryd( 3d)     0.00996
    22    O    1  dxz    Ryd( 4d)     0.00098
    23    O    1  dxz    Ryd( 5d)     0.00012
    24    O    1  dyz    Ryd( 3d)     0.00718
    25    O    1  dyz    Ryd( 4d)     0.00049
    26    O    1  dyz    Ryd( 5d)     0.00016
    27    O    1  dx2y2  Ryd( 3d)     0.01094
    28    O    1  dx2y2  Ryd( 4d)     0.00079
    29    O    1  dx2y2  Ryd( 5d)     0.00025
    30    O    1  dz2    Ryd( 3d)     0.00813
    31    O    1  dz2    Ryd( 4d)     0.00077
    32    O    1  dz2    Ryd( 5d)     0.00020
    33    O    1  f(0)   Ryd( 4f)     0.00086
    34    O    1  f(0)   Ryd( 5f)     0.00016
    35    O    1  f(C1)  Ryd( 4f)     0.00057
    36    O    1  f(C1)  Ryd( 5f)     0.00011
    37    O    1  f(S1)  Ryd( 4f)     0.00066
    38    O    1  f(S1)  Ryd( 5f)     0.00010
    39    O    1  f(C2)  Ryd( 4f)     0.00057
    40    O    1  f(C2)  Ryd( 5f)     0.00012
    41    O    1  f(S2)  Ryd( 4f)     0.00046
    42    O    1  f(S2)  Ryd( 5f)     0.00008
    43    O    1  f(C3)  Ryd( 4f)     0.00041
    44    O    1  f(C3)  Ryd( 5f)     0.00013
    45    O    1  f(S3)  Ryd( 4f)     0.00050
    46    O    1  f(S3)  Ryd( 5f)     0.00012

    47    H    2  S      Val( 1S)     0.33241
    48    H    2  S      Ryd( 2S)     0.00056
    49    H    2  S      Ryd( 3S)     0.00023
    50    H    2  S      Ryd( 4S)     0.00006
    51    H    2  px     Ryd( 2p)     0.00097
    52    H    2  px     Ryd( 3p)     0.00075
    53    H    2  px     Ryd( 4p)     0.00006
    54    H    2  py     Ryd( 2p)     0.00052
    55    H    2  py     Ryd( 3p)     0.00023
    56    H    2  py     Ryd( 4p)     0.00009
    57    H    2  pz     Ryd( 2p)     0.00134
    58    H    2  pz     Ryd( 3p)     0.00017
    59    H    2  pz     Ryd( 4p)     0.00007
    60    H    2  dxy    Ryd( 3d)     0.00011
    61    H    2  dxy    Ryd( 4d)     0.00007
    62    H    2  dxz    Ryd( 3d)     0.00039
    63    H    2  dxz    Ryd( 4d)     0.00008
    64    H    2  dyz    Ryd( 3d)     0.00010
    65    H    2  dyz    Ryd( 4d)     0.00007
    66    H    2  dx2y2  Ryd( 3d)     0.00027
    67    H    2  dx2y2  Ryd( 4d)     0.00006
    68    H    2  dz2    Ryd( 3d)     0.00022
    69    H    2  dz2    Ryd( 4d)     0.00007

    70   Br    3  S      Cor( 3S)     2.00000
    71   Br    3  S      Val( 4S)     1.97901
    72   Br    3  S      Ryd( 5S)     0.00220
    73   Br    3  S      Ryd( 6S)     0.00048
    74   Br    3  S      Ryd( 7S)     0.00011
    75   Br    3  S      Ryd( 8S)     0.00000
    76   Br    3  px     Cor( 3p)     2.00002
    77   Br    3  px     Val( 4p)     1.95226
    78   Br    3  px     Ryd( 5p)     0.01160
    79   Br    3  px     Ryd( 6p)     0.00080
    80   Br    3  px     Ryd( 7p)     0.00007
    81   Br    3  py     Cor( 3p)     1.99999
    82   Br    3  py     Val( 4p)     1.91541
    83   Br    3  py     Ryd( 5p)     0.01045
    84   Br    3  py     Ryd( 6p)     0.00076
    85   Br    3  py     Ryd( 7p)     0.00019
    86   Br    3  pz     Cor( 3p)     2.00002
    87   Br    3  pz     Val( 4p)     1.95427
    88   Br    3  pz     Ryd( 5p)     0.01162
    89   Br    3  pz     Ryd( 6p)     0.00080
    90   Br    3  pz     Ryd( 7p)     0.00006
    91   Br    3  dxy    Cor( 3d)     1.99768
    92   Br    3  dxy    Ryd( 4d)     0.01867
    93   Br    3  dxy    Ryd( 5d)     0.00145
    94   Br    3  dxy    Ryd( 6d)     0.00020
    95   Br    3  dxz    Cor( 3d)     1.99771
    96   Br    3  dxz    Ryd( 4d)     0.01843
    97   Br    3  dxz    Ryd( 5d)     0.00173
    98   Br    3  dxz    Ryd( 6d)     0.00020
    99   Br    3  dyz    Cor( 3d)     1.99769
   100   Br    3  dyz    Ryd( 4d)     0.01857
   101   Br    3  dyz    Ryd( 5d)     0.00143
   102   Br    3  dyz    Ryd( 6d)     0.00019
   103   Br    3  dx2y2  Cor( 3d)     1.99767
   104   Br    3  dx2y2  Ryd( 4d)     0.01890
   105   Br    3  dx2y2  Ryd( 5d)     0.00167
   106   Br    3  dx2y2  Ryd( 6d)     0.00020
   107   Br    3  dz2    Cor( 3d)     1.99770
   108   Br    3  dz2    Ryd( 4d)     0.01863
   109   Br    3  dz2    Ryd( 5d)     0.00173
   110   Br    3  dz2    Ryd( 6d)     0.00020
   111   Br    3  f(0)   Ryd( 4f)     0.00172
   112   Br    3  f(0)   Ryd( 5f)     0.00025
   113   Br    3  f(C1)  Ryd( 4f)     0.00174
   114   Br    3  f(C1)  Ryd( 5f)     0.00025
   115   Br    3  f(S1)  Ryd( 4f)     0.00178
   116   Br    3  f(S1)  Ryd( 5f)     0.00028
   117   Br    3  f(C2)  Ryd( 4f)     0.00170
   118   Br    3  f(C2)  Ryd( 5f)     0.00025
   119   Br    3  f(S2)  Ryd( 4f)     0.00174
   120   Br    3  f(S2)  Ryd( 5f)     0.00025
   121   Br    3  f(C3)  Ryd( 4f)     0.00171
   122   Br    3  f(C3)  Ryd( 5f)     0.00027
   123   Br    3  f(S3)  Ryd( 4f)     0.00176
   124   Br    3  f(S3)  Ryd( 5f)     0.00029

   125    H    4  S      Val( 1S)     0.28428
   126    H    4  S      Ryd( 2S)     0.00551
   127    H    4  S      Ryd( 3S)     0.00059
   128    H    4  S      Ryd( 4S)     0.00027
   129    H    4  px     Ryd( 2p)     0.00399
   130    H    4  px     Ryd( 3p)     0.00042
   131    H    4  px     Ryd( 4p)     0.00014
   132    H    4  py     Ryd( 2p)     0.00464
   133    H    4  py     Ryd( 3p)     0.00086
   134    H    4  py     Ryd( 4p)     0.00025
   135    H    4  pz     Ryd( 2p)     0.00410
   136    H    4  pz     Ryd( 3p)     0.00038
   137    H    4  pz     Ryd( 4p)     0.00012
   138    H    4  dxy    Ryd( 3d)     0.00024
   139    H    4  dxy    Ryd( 4d)     0.00010
   140    H    4  dxz    Ryd( 3d)     0.00018
   141    H    4  dxz    Ryd( 4d)     0.00005
   142    H    4  dyz    Ryd( 3d)     0.00025
   143    H    4  dyz    Ryd( 4d)     0.00011
   144    H    4  dx2y2  Ryd( 3d)     0.00019
   145    H    4  dx2y2  Ryd( 4d)     0.00009
   146    H    4  dz2    Ryd( 3d)     0.00025
   147    H    4  dz2    Ryd( 4d)     0.00006

 [ 10 electrons found in the effective core potential]

 WARNING:  5 low occupancy (<1.9990e) core orbitals found on Br    3


 Summary of Natural Population Analysis:                  
                                                          
                                       Natural Population 
                Natural  -----------------------------------------------
    Atom  No    Charge         Core      Valence    Rydberg      Total
 -----------------------------------------------------------------------
      O    1   -1.40936      1.99992     7.29688    0.11256     9.40936
      H    2    0.66111      0.00000     0.33241    0.00648     0.33889
     Br    3   -0.94472     27.98848     7.80094    0.15530    35.94472
      H    4    0.69293      0.00000     0.28428    0.02279     0.30707
 =======================================================================
   * Total *   -1.00004     29.98840    15.71452    0.29713    46.00004

                                 Natural Population      
 --------------------------------------------------------
   Effective Core            10.00000
   Core                      19.98840 ( 99.9420% of  20)
   Valence                   15.71452 ( 98.2157% of  16)
   Natural Minimal Basis     45.70291 ( 99.3542% of  46)
   Natural Rydberg Basis      0.29713 (  0.6459% of  46)
 --------------------------------------------------------

    Atom  No          Natural Electron Configuration
 ----------------------------------------------------------------------------
      O    1      [core]2S( 1.90)2p( 5.40)3S( 0.01)3p( 0.05)3d( 0.04)
      H    2            1S( 0.33)
     Br    3      [core]4S( 1.98)4p( 5.82)4d( 0.09)5p( 0.03)4f( 0.01)5d( 0.01)
      H    4            1S( 0.28)2S( 0.01)2p( 0.01)


 NATURAL BOND ORBITAL ANALYSIS:
 Warning:  a bond orbital has occupanc of -0.00018

                       Occupancies       Lewis Structure    Low   High
           Occ.    -------------------  -----------------   occ   occ
  Cycle   Thresh.   Lewis   Non-Lewis     CR  BD  3C  LP    (L)   (NL)   Dev
 =============================================================================
   1(1)    1.90    45.64607   0.35393     10   2   0   6     0      0    0.07
 -----------------------------------------------------------------------------

 Structure accepted: No low occupancy Lewis orbitals

 WARNING:  5 low occupancy (<1.9990e) core orbitals found on Br    3

 --------------------------------------------------------
   Effective Core           10.00000
   Core                     19.98839 ( 99.942% of  20)
   Valence Lewis            15.65767 ( 97.860% of  16)
  ==================       ============================
   Total Lewis              45.64607 ( 99.231% of  46)
  -----------------------------------------------------
   Valence non-Lewis         0.08269 (  0.180% of  46)
   Rydberg non-Lewis         0.27124 (  0.590% of  46)
  ==================       ============================
   Total non-Lewis           0.35393 (  0.769% of  46)
 --------------------------------------------------------


       (Occupancy)   Bond orbital/ Coefficients/ Hybrids
 ---------------------------------------------------------------------------------
     1. (1.96304) BD ( 1) O   1 - H   2  
                ( 83.87%)   0.9158* O   1 s( 14.74%)p 5.76( 84.87%)d 0.03(  0.37%)
                                                  f 0.00(  0.01%)
                                            0.0001  0.3839  0.0001  0.0020 -0.0028
                                            0.9209 -0.0218  0.0052 -0.0033 -0.0113
                                           -0.0094 -0.0002 -0.0022  0.0000  0.0000
                                            0.0000  0.0000 -0.0202  0.0033  0.0009
                                            0.0000  0.0000  0.0000  0.0000  0.0000
                                            0.0000  0.0480 -0.0077  0.0050 -0.0305
                                            0.0029 -0.0020  0.0000  0.0000 -0.0097
                                            0.0012  0.0000 -0.0002  0.0000  0.0000
                                            0.0000  0.0000  0.0034  0.0021  0.0012
                                           -0.0004
                ( 16.13%)   0.4016* H   2 s( 99.73%)p 0.00(  0.22%)d 0.00(  0.05%)
                                            0.9987 -0.0016  0.0007 -0.0000  0.0117
                                            0.0449 -0.0022 -0.0012  0.0002 -0.0005
                                            0.0000  0.0000  0.0000  0.0019 -0.0026
                                            0.0000  0.0000  0.0000  0.0000  0.0177
                                           -0.0018 -0.0135  0.0006
     2. (1.95898) BD ( 1) O   1 - H   4  
                ( 88.32%)   0.9398* O   1 s( 14.50%)p 5.87( 85.14%)d 0.02(  0.34%)
                                                  f 0.00(  0.01%)
                                           -0.0001 -0.3808  0.0045  0.0028  0.0004
                                            0.1682 -0.0102 -0.0003 -0.0006  0.9071
                                           -0.0104  0.0071 -0.0058  0.0000  0.0000
                                            0.0000  0.0000  0.0136 -0.0052  0.0010
                                            0.0000  0.0000  0.0000  0.0000  0.0000
                                            0.0000  0.0478 -0.0073  0.0001  0.0298
                                           -0.0007 -0.0026  0.0000  0.0000 -0.0021
                                            0.0007 -0.0105  0.0019  0.0000  0.0000
                                            0.0000  0.0000 -0.0027 -0.0012  0.0011
                                           -0.0027
                ( 11.68%)   0.3417* H   4 s( 99.74%)p 0.00(  0.25%)d 0.00(  0.02%)
                                           -0.9978  0.0404 -0.0096  0.0006 -0.0315
                                           -0.0016 -0.0045  0.0107 -0.0320 -0.0175
                                            0.0000  0.0000  0.0000 -0.0043  0.0054
                                            0.0000  0.0000  0.0000  0.0000 -0.0005
                                            0.0005  0.0100 -0.0018
     3. (1.99992) CR ( 1) O   1           s(100.00%)
                                            1.0000 -0.0003  0.0000  0.0000  0.0000
                                           -0.0000  0.0000 -0.0000  0.0000  0.0001
                                           -0.0000  0.0000 -0.0000  0.0000  0.0000
                                            0.0000  0.0000  0.0000 -0.0000  0.0000
                                            0.0000  0.0000  0.0000  0.0000  0.0000
                                            0.0000  0.0000 -0.0000  0.0000  0.0000
                                            0.0000 -0.0000  0.0000  0.0000  0.0000
                                            0.0000 -0.0000  0.0000  0.0000  0.0000
                                            0.0000  0.0000 -0.0000 -0.0000 -0.0000
                                           -0.0000
     4. (2.00000) CR ( 1)Br   3           s(100.00%)p 0.00(  0.00%)
                                            1.0000  0.0000 -0.0000 -0.0000  0.0000
                                            0.0000 -0.0000  0.0000 -0.0000 -0.0000
                                            0.0000 -0.0000  0.0002 -0.0000 -0.0000
                                            0.0000  0.0000  0.0000  0.0000  0.0000
                                            0.0000 -0.0000  0.0000 -0.0000 -0.0000
                                            0.0000  0.0000  0.0000  0.0000  0.0000
                                            0.0000  0.0000  0.0000  0.0000 -0.0000
                                            0.0000  0.0000  0.0000 -0.0000  0.0000
                                            0.0000  0.0000  0.0000 -0.0000 -0.0000
                                           -0.0000 -0.0000  0.0000  0.0000  0.0000
                                            0.0000 -0.0000 -0.0000 -0.0000 -0.0000
     5. (2.00002) CR ( 2)Br   3           s(  0.00%)p 1.00(100.00%)
                                           -0.0000  0.0000 -0.0000 -0.0000  0.0000
                                            0.0000  1.0000 -0.0001 -0.0000 -0.0000
                                            0.0000 -0.0000  0.0001 -0.0000 -0.0000
                                            0.0000  0.0000  0.0000  0.0000  0.0000
                                            0.0000 -0.0000 -0.0000  0.0000  0.0000
                                            0.0000  0.0000  0.0000  0.0000  0.0000
                                            0.0000  0.0000  0.0000  0.0000 -0.0000
                                            0.0000 -0.0000  0.0000 -0.0000  0.0000
                                            0.0000  0.0000  0.0000  0.0000  0.0000
                                           -0.0000 -0.0000  0.0000  0.0000  0.0000
                                            0.0000  0.0000  0.0000 -0.0000 -0.0000
     6. (1.99999) CR ( 3)Br   3           s(  0.00%)p 1.00(100.00%)
                                           -0.0000  0.0001 -0.0000 -0.0000  0.0000
                                            0.0000 -0.0000  0.0001  0.0000 -0.0000
                                            0.0000  1.0000  0.0002 -0.0000 -0.0000
                                            0.0000  0.0000  0.0000  0.0000  0.0000
                                            0.0000 -0.0000  0.0000 -0.0000 -0.0000
                                            0.0000  0.0000  0.0000  0.0000  0.0000
                                            0.0000  0.0000  0.0000  0.0000 -0.0000
                                            0.0000  0.0000  0.0000 -0.0000  0.0000
                                           -0.0000  0.0000  0.0000 -0.0000 -0.0000
                                           -0.0000 -0.0000  0.0000  0.0000  0.0000
                                            0.0000 -0.0000 -0.0000 -0.0000 -0.0000
     7. (2.00002) CR ( 4)Br   3           s(  0.00%)p 1.00(100.00%)
                                            0.0000  0.0000  0.0000  0.0000  0.0000
                                            0.0000  0.0000  0.0000  0.0000  0.0000
                                            0.0000  0.0000  0.0000  0.0000  0.0000
                                            0.0000  1.0000 -0.0001 -0.0000 -0.0000
                                            0.0000  0.0000  0.0000  0.0000  0.0000
                                            0.0000 -0.0000  0.0000 -0.0000  0.0000
                                           -0.0000  0.0000  0.0000  0.0000  0.0000
                                            0.0000  0.0000  0.0000  0.0000  0.0000
                                            0.0000  0.0000  0.0000  0.0000  0.0000
                                            0.0000  0.0000  0.0000  0.0000 -0.0000
                                           -0.0000  0.0000  0.0000  0.0000  0.0000
     8. (1.99768) CR ( 5)Br   3           s(  0.00%)p 0.00(  0.00%)d 1.00(100.00%)
                                           -0.0000  0.0000 -0.0000 -0.0000  0.0000
                                            0.0000 -0.0000  0.0000  0.0000 -0.0000
                                           -0.0000 -0.0000  0.0000 -0.0000 -0.0000
                                            0.0000  0.0000  0.0000  0.0000  0.0000
                                            0.0000  1.0000  0.0000 -0.0000 -0.0000
                                            0.0000  0.0000  0.0000  0.0000  0.0000
                                            0.0000  0.0000  0.0000  0.0000 -0.0000
                                            0.0000  0.0000  0.0000 -0.0000  0.0000
                                           -0.0000  0.0000  0.0000 -0.0000 -0.0000
                                           -0.0000 -0.0000  0.0000  0.0000  0.0000
                                            0.0000 -0.0000 -0.0000 -0.0000 -0.0000
     9. (1.99771) CR ( 6)Br   3           s(  0.00%)p 0.00(  0.00%)d 1.00(100.00%)
                                            0.0000  0.0000  0.0000  0.0000  0.0000
                                            0.0000  0.0000  0.0000  0.0000  0.0000
                                            0.0000  0.0000  0.0000  0.0000  0.0000
                                            0.0000  0.0000  0.0000  0.0000  0.0000
                                           -0.0000  0.0000  0.0000  0.0000  0.0000
                                            1.0000  0.0000 -0.0000  0.0000 -0.0000
                                            0.0000 -0.0000 -0.0000  0.0000  0.0000
                                            0.0000  0.0000  0.0000  0.0000  0.0000
                                            0.0000 -0.0000 -0.0000  0.0000  0.0000
                                            0.0000  0.0000 -0.0000 -0.0000  0.0000
                                            0.0000  0.0000  0.0000  0.0000  0.0000
    10. (1.99769) CR ( 7)Br   3           s(  0.00%)p 0.00(  0.00%)d 1.00(100.00%)
                                            0.0000  0.0000  0.0000  0.0000  0.0000
                                            0.0000  0.0000  0.0000  0.0000  0.0000
                                            0.0000  0.0000  0.0000  0.0000  0.0000
                                            0.0000  0.0000  0.0000  0.0000  0.0000
                                           -0.0000  0.0000  0.0000  0.0000  0.0000
                                           -0.0000  0.0000 -0.0000  0.0000  1.0000
                                            0.0000 -0.0000 -0.0000  0.0000  0.0000
                                            0.0000  0.0000  0.0000  0.0000  0.0000
                                            0.0000 -0.0000 -0.0000  0.0000  0.0000
                                            0.0000  0.0000 -0.0000 -0.0000  0.0000
                                            0.0000  0.0000  0.0000  0.0000  0.0000
    11. (1.99767) CR ( 8)Br   3           s(  0.00%)p 0.00(  0.00%)d 1.00(100.00%)
                                            0.0000 -0.0000  0.0000  0.0000 -0.0000
                                           -0.0000  0.0000 -0.0000  0.0000  0.0000
                                           -0.0000  0.0000 -0.0001  0.0000  0.0000
                                           -0.0000  0.0000  0.0000  0.0000  0.0000
                                            0.0000  0.0000 -0.0000  0.0000  0.0000
                                            0.0000  0.0000  0.0000  0.0000  0.0000
                                            0.0000  0.0000  0.0000  1.0000  0.0000
                                           -0.0000 -0.0000 -0.0000  0.0000 -0.0000
                                           -0.0000  0.0000  0.0000  0.0000  0.0000
                                            0.0000  0.0000  0.0000  0.0000  0.0000
                                            0.0000  0.0000  0.0000  0.0000  0.0000
    12. (1.99770) CR ( 9)Br   3           s(  0.00%)p 0.00(  0.00%)d 1.00(100.00%)
                                            0.0000 -0.0000  0.0000  0.0000 -0.0000
                                           -0.0000  0.0000 -0.0000  0.0000  0.0000
                                           -0.0000  0.0000 -0.0001  0.0000  0.0000
                                           -0.0000  0.0000  0.0000  0.0000  0.0000
                                            0.0000  0.0000 -0.0000  0.0000  0.0000
                                            0.0000  0.0000  0.0000  0.0000  0.0000
                                            0.0000  0.0000  0.0000 -0.0000  0.0000
                                           -0.0000 -0.0000  1.0000  0.0000 -0.0000
                                           -0.0000  0.0000  0.0000  0.0000  0.0000
                                            0.0000  0.0000  0.0000  0.0000  0.0000
                                            0.0000  0.0000  0.0000  0.0000  0.0000
    13. (1.97270) LP ( 1) O   1           s( 70.69%)p 0.41( 29.21%)d 0.00(  0.09%)
                                                  f 0.00(  0.00%)
                                            0.0002  0.8408  0.0018  0.0005  0.0012
                                           -0.3445 -0.0112  0.0065 -0.0005  0.4162
                                            0.0067 -0.0048  0.0005  0.0000  0.0000
                                            0.0000  0.0000  0.0259 -0.0028 -0.0022
                                            0.0000  0.0000  0.0000  0.0000  0.0000
                                            0.0000 -0.0025  0.0068 -0.0051  0.0101
                                           -0.0075  0.0047  0.0000  0.0000  0.0025
                                           -0.0023 -0.0023  0.0014  0.0000  0.0000
                                            0.0000  0.0000  0.0010  0.0018  0.0033
                                           -0.0009
    14. (1.96032) LP ( 2) O   1           s(  0.00%)p 1.00( 99.71%)d 0.00(  0.27%)
                                                  f 0.00(  0.03%)
                                            0.0000  0.0000  0.0000  0.0000  0.0000
                                            0.0000  0.0000  0.0000  0.0000  0.0000
                                            0.0000  0.0000  0.0000  0.9982  0.0226
                                           -0.0054  0.0064  0.0000  0.0000  0.0000
                                            0.0434 -0.0132  0.0038 -0.0236 -0.0012
                                            0.0049  0.0000  0.0000  0.0000  0.0000
                                            0.0000  0.0000 -0.0138  0.0053  0.0000
                                            0.0000  0.0000  0.0000  0.0055 -0.0030
                                            0.0020 -0.0004  0.0000  0.0000  0.0000
                                            0.0000
    15. (1.98049) LP ( 1)Br   3           s( 97.90%)p 0.02(  2.10%)d 0.00(  0.00%)
                                                  f 0.00(  0.00%)
                                            0.0000  0.9895  0.0001  0.0003 -0.0003
                                           -0.0000 -0.0000 -0.0272  0.0003 -0.0001
                                            0.0002 -0.0000 -0.1422  0.0009 -0.0007
                                            0.0003  0.0000  0.0000  0.0000  0.0000
                                            0.0000 -0.0000  0.0007 -0.0004  0.0000
                                            0.0000  0.0000  0.0000  0.0000  0.0000
                                            0.0000  0.0000  0.0000  0.0000 -0.0014
                                            0.0007  0.0001  0.0000 -0.0010  0.0005
                                            0.0000  0.0000  0.0000 -0.0002 -0.0001
                                           -0.0007 -0.0004  0.0000  0.0000  0.0000
                                            0.0000 -0.0005 -0.0003 -0.0007 -0.0004
    16. (1.95440) LP ( 2)Br   3           s(  0.00%)p 1.00( 99.99%)d 0.00(  0.01%)
                                                  f 0.00(  0.00%)
                                            0.0000  0.0000  0.0000  0.0000  0.0000
                                            0.0000  0.0000  0.0000  0.0000  0.0000
                                            0.0000  0.0000  0.0000  0.0000  0.0000
                                            0.0000  0.0001  1.0000  0.0014  0.0015
                                           -0.0005  0.0000  0.0000  0.0000  0.0000
                                           -0.0000  0.0025 -0.0010  0.0007 -0.0000
                                            0.0062 -0.0012 -0.0018  0.0000  0.0000
                                            0.0000  0.0000  0.0000  0.0000  0.0000
                                            0.0000 -0.0021 -0.0013  0.0000  0.0000
                                            0.0000  0.0000 -0.0021 -0.0011  0.0012
                                            0.0008  0.0000  0.0000  0.0000  0.0000
    17. (1.95416) LP ( 3)Br   3           s(  0.00%)p 1.00( 99.99%)d 0.00(  0.01%)
                                                  f 0.00(  0.00%)
                                           -0.0000  0.0028  0.0001 -0.0015  0.0018
                                           -0.0001 -0.0001 -0.9783 -0.0026 -0.0018
                                            0.0012  0.0000  0.2069 -0.0001 -0.0001
                                            0.0006 -0.0000 -0.0000 -0.0000 -0.0000
                                           -0.0000  0.0000 -0.0064  0.0010  0.0017
                                           -0.0000 -0.0000 -0.0000 -0.0000 -0.0000
                                           -0.0000 -0.0000 -0.0000  0.0000 -0.0045
                                            0.0015 -0.0005 -0.0000  0.0006 -0.0004
                                            0.0007 -0.0000 -0.0000  0.0009  0.0006
                                           -0.0002 -0.0001 -0.0000 -0.0000 -0.0000
                                           -0.0000  0.0021  0.0010 -0.0020 -0.0013
    18. (1.91360) LP ( 4)Br   3           s(  2.09%)p46.71( 97.84%)d 0.03(  0.06%)
                                                  f 0.00(  0.01%)
                                           -0.0002  0.1447 -0.0010 -0.0020  0.0021
                                            0.0002 -0.0000  0.2051 -0.0003 -0.0008
                                            0.0002 -0.0002  0.9676 -0.0039 -0.0033
                                            0.0016  0.0000  0.0000  0.0000  0.0000
                                            0.0000 -0.0001  0.0090 -0.0020 -0.0003
                                            0.0000  0.0000  0.0000  0.0000  0.0000
                                            0.0000  0.0000  0.0000  0.0001 -0.0180
                                            0.0043  0.0011  0.0001 -0.0122  0.0031
                                            0.0000  0.0000  0.0000 -0.0011 -0.0007
                                           -0.0050 -0.0034  0.0000  0.0000  0.0000
                                            0.0000 -0.0036 -0.0021 -0.0050 -0.0032
    19. (0.02164) RY*( 1) O   1           s(  0.00%)p 1.00( 97.70%)d 0.02(  2.22%)
                                                  f 0.00(  0.08%)
                                            0.0000  0.0000  0.0000  0.0000  0.0000
                                            0.0000  0.0000  0.0000  0.0000  0.0000
                                            0.0000  0.0000  0.0000 -0.0301  0.9873
                                            0.0335 -0.0135  0.0000  0.0000  0.0000
                                            0.1332 -0.0342  0.0078 -0.0558  0.0074
                                            0.0052  0.0000  0.0000  0.0000  0.0000
                                            0.0000  0.0000 -0.0210  0.0157  0.0000
                                            0.0000  0.0000  0.0000  0.0097 -0.0069
                                           -0.0015 -0.0006  0.0000  0.0000  0.0000
                                            0.0000
    20. (0.01717) RY*( 2) O   1           s( 13.10%)p 6.38( 83.63%)d 0.24(  3.17%)
                                                  f 0.01(  0.10%)
                                           -0.0000 -0.0136  0.3616  0.0081 -0.0032
                                            0.0045 -0.5708  0.0027  0.0063 -0.0102
                                            0.7140  0.0166 -0.0183  0.0000  0.0000
                                            0.0000  0.0000  0.1658 -0.0180 -0.0063
                                            0.0000  0.0000  0.0000  0.0000  0.0000
                                            0.0000 -0.0025  0.0267 -0.0149  0.0333
                                           -0.0384  0.0175  0.0000  0.0000  0.0042
                                           -0.0095 -0.0039  0.0074  0.0000  0.0000
                                            0.0000  0.0000  0.0191  0.0020  0.0197
                                           -0.0069
    21. (0.01070) RY*( 3) O   1           s(  1.01%)p91.95( 92.62%)d 6.09(  6.14%)
                                                  f 0.23(  0.23%)
                                           -0.0000  0.0072  0.0897  0.0445 -0.0012
                                            0.0316  0.7839 -0.0192 -0.0092  0.0176
                                            0.5566  0.0091 -0.0095  0.0000  0.0000
                                            0.0000  0.0000  0.1321 -0.0078  0.0064
                                            0.0000  0.0000  0.0000  0.0000  0.0000
                                            0.0000 -0.1672 -0.1080  0.0429 -0.0066
                                            0.0393 -0.0284  0.0000  0.0000  0.0116
                                            0.0120  0.0033 -0.0001  0.0000  0.0000
                                            0.0000  0.0000 -0.0132 -0.0126  0.0362
                                           -0.0199
    22. (0.00680) RY*( 4) O   1           s( 36.80%)p 0.04(  1.55%)d 1.66( 61.03%)
                                                  f 0.02(  0.62%)
                                            0.0000  0.0132  0.6062 -0.0116  0.0145
                                           -0.0049  0.0885 -0.0076 -0.0101  0.0083
                                           -0.0811  0.0062 -0.0281 -0.0000 -0.0000
                                           -0.0000 -0.0000 -0.7097 -0.0297  0.0025
                                           -0.0000 -0.0000 -0.0000 -0.0000 -0.0000
                                           -0.0000 -0.0875 -0.0088  0.0113  0.3095
                                            0.0456  0.0014 -0.0000 -0.0000 -0.0030
                                            0.0109  0.0121 -0.0057 -0.0000 -0.0000
                                           -0.0000 -0.0000 -0.0618  0.0199 -0.0403
                                            0.0094
    23. (0.00638) RY*( 5) O   1           s(  0.00%)p 1.00(  0.31%)d99.99( 98.37%)
                                                  f 4.20(  1.32%)
                                            0.0000  0.0000  0.0000  0.0000  0.0000
                                            0.0000  0.0000  0.0000  0.0000  0.0000
                                            0.0000  0.0000  0.0000 -0.0115 -0.0528
                                            0.0039 -0.0140  0.0000  0.0000  0.0000
                                            0.6913  0.0786 -0.0173  0.7036  0.0646
                                           -0.0055  0.0000  0.0000  0.0000  0.0000
                                            0.0000  0.0000  0.0072 -0.0086  0.0000
                                            0.0000  0.0000  0.0000  0.1036 -0.0461
                                           -0.0106  0.0079  0.0000  0.0000  0.0000
                                            0.0000
    24. (0.00596) RY*( 6) O   1           s(  0.00%)p 1.00(  1.93%)d50.38( 97.22%)
                                                  f 0.44(  0.85%)
                                            0.0000  0.0000  0.0000  0.0000  0.0000
                                            0.0000  0.0000  0.0000  0.0000  0.0000
                                            0.0000  0.0000  0.0000  0.0431  0.1302
                                            0.0219  0.0026  0.0000  0.0000  0.0000
                                           -0.6883 -0.1098  0.0245  0.6920  0.0830
                                           -0.0035  0.0000  0.0000  0.0000  0.0000
                                            0.0000  0.0000  0.0754 -0.0324  0.0000
                                            0.0000  0.0000  0.0000 -0.0047 -0.0038
                                            0.0394 -0.0135  0.0000  0.0000  0.0000
                                            0.0000
    25. (0.00588) RY*( 7) O   1           s(  5.56%)p 0.91(  5.08%)d15.93( 88.53%)
                                                  f 0.15(  0.83%)
                                           -0.0000  0.0092  0.2352 -0.0125  0.0046
                                            0.0180  0.0832  0.0096 -0.0122 -0.0467
                                           -0.2012 -0.0248 -0.0091  0.0000  0.0000
                                            0.0000  0.0000  0.5219  0.0558 -0.0121
                                            0.0000  0.0000  0.0000  0.0000  0.0000
                                            0.0000  0.2476  0.0112  0.0135  0.7305
                                            0.1192 -0.0146  0.0000  0.0000  0.0477
                                           -0.0161 -0.0564  0.0242  0.0000  0.0000
                                            0.0000  0.0000  0.0383 -0.0216  0.0042
                                            0.0054
    26. (0.00349) RY*( 8) O   1           s( 29.22%)p 0.46( 13.53%)d 1.92( 56.17%)
                                                  f 0.04(  1.08%)
                                            0.0000 -0.0080  0.5395 -0.0290 -0.0173
                                            0.0211  0.0014  0.0288 -0.0385  0.0184
                                           -0.3515  0.0158 -0.0918  0.0000  0.0000
                                            0.0000  0.0000  0.3916  0.0870 -0.0121
                                            0.0000  0.0000  0.0000  0.0000  0.0000
                                            0.0000 -0.4992 -0.0728  0.0173 -0.3717
                                           -0.0871  0.0070  0.0000  0.0000  0.0161
                                           -0.0045  0.0485 -0.0316  0.0000  0.0000
                                            0.0000  0.0000  0.0079 -0.0204  0.0743
                                           -0.0344
    27. (0.00314) RY*( 9) O   1           s( 13.43%)p 0.29(  3.90%)d 6.06( 81.44%)
                                                  f 0.09(  1.23%)
                                            0.0000 -0.0034  0.3662  0.0016 -0.0133
                                           -0.0471  0.1728 -0.0616  0.0005 -0.0190
                                           -0.0456 -0.0252 -0.0061  0.0000  0.0000
                                            0.0000  0.0000  0.0470 -0.0013 -0.0028
                                            0.0000  0.0000  0.0000  0.0000  0.0000
                                            0.0000  0.7700  0.1412  0.0179 -0.4284
                                           -0.1240  0.0036  0.0000  0.0000 -0.0338
                                            0.0327 -0.0024  0.0018  0.0000  0.0000
                                            0.0000  0.0000  0.0573 -0.0469 -0.0612
                                            0.0296
    28. (0.00064) RY*(10) O   1           s( 30.42%)p 2.06( 62.52%)d 0.20(  6.14%)
                                                  f 0.03(  0.92%)
                                            0.0000 -0.0042  0.0002  0.5507  0.0303
                                           -0.0034 -0.0433 -0.1044 -0.0223  0.0008
                                           -0.0143 -0.7784 -0.0759 -0.0000 -0.0000
                                           -0.0000 -0.0000 -0.0198  0.0456 -0.0554
                                           -0.0000 -0.0000 -0.0000 -0.0000 -0.0000
                                           -0.0000  0.0102 -0.2057  0.0939 -0.0006
                                           -0.0350  0.0588 -0.0000 -0.0000  0.0094
                                            0.0206  0.0207  0.0100 -0.0000 -0.0000
                                           -0.0000 -0.0000 -0.0098 -0.0084  0.0881
                                            0.0144
    29. (0.00059) RY*(11) O   1           s(  0.00%)p 1.00(  7.93%)d 9.83( 77.90%)
                                                  f 1.79( 14.17%)
                                            0.0000  0.0000  0.0000  0.0000  0.0000
                                            0.0000  0.0000  0.0000  0.0000  0.0000
                                            0.0000  0.0000  0.0000  0.0159  0.0597
                                           -0.2742  0.0152  0.0000  0.0000  0.0000
                                           -0.0655  0.7789  0.1619  0.0528 -0.3669
                                           -0.0660  0.0000  0.0000  0.0000  0.0000
                                            0.0000  0.0000  0.2863 -0.0328  0.0000
                                            0.0000  0.0000  0.0000 -0.2156  0.0269
                                            0.1065  0.0117  0.0000  0.0000  0.0000
                                            0.0000
    30. (0.00060) RY*(12) O   1           s(  0.37%)p99.99( 65.77%)d85.58( 31.40%)
                                                  f 6.73(  2.47%)
                                            0.0000 -0.0090 -0.0292  0.0002  0.0523
                                            0.0021  0.0520  0.7886 -0.0579  0.0026
                                            0.0508 -0.1330 -0.0974  0.0000  0.0000
                                            0.0000  0.0000 -0.0377  0.4185  0.0256
                                            0.0000  0.0000  0.0000  0.0000  0.0000
                                            0.0000  0.0073  0.2940  0.0185  0.0400
                                           -0.2145  0.0475  0.0000  0.0000 -0.0486
                                           -0.0241  0.1136  0.0119  0.0000  0.0000
                                            0.0000  0.0000 -0.0491  0.0777 -0.0026
                                            0.0159
    31. (0.00055) RY*(13) O   1           s(  0.00%)p 1.00( 55.52%)d 0.60( 33.35%)
                                                  f 0.20( 11.13%)
                                            0.0000  0.0000  0.0000  0.0000  0.0000
                                            0.0000  0.0000  0.0000  0.0000  0.0000
                                            0.0000  0.0000  0.0000  0.0088 -0.0135
                                            0.7295  0.1509  0.0000  0.0000  0.0000
                                            0.0033  0.3368  0.1119 -0.0301  0.4386
                                            0.1193  0.0000  0.0000  0.0000  0.0000
                                            0.0000  0.0000  0.0490  0.0102  0.0000
                                            0.0000  0.0000  0.0000 -0.3274  0.0125
                                            0.0376 -0.0053  0.0000  0.0000  0.0000
                                            0.0000
    32. (0.00053) RY*(14) O   1           s(  0.26%)p 9.98(  2.59%)d99.99( 73.94%)
                                                  f89.47( 23.21%)
                                            0.0000  0.0011  0.0343 -0.0213 -0.0311
                                           -0.0063 -0.0353 -0.0206  0.0002  0.0114
                                            0.0236 -0.0948  0.1204  0.0000  0.0000
                                            0.0000  0.0000  0.0308  0.3407  0.1443
                                            0.0000  0.0000  0.0000  0.0000  0.0000
                                            0.0000 -0.0011  0.0555 -0.0049 -0.1449
                                            0.7525  0.1057  0.0000  0.0000 -0.0072
                                            0.0211  0.1142 -0.0237  0.0000  0.0000
                                            0.0000  0.0000 -0.2277 -0.0644 -0.4020
                                           -0.0186
    33. (0.00048) RY*(15) O   1           s(  0.84%)p 7.60(  6.39%)d21.08( 17.72%)
                                                  f89.28( 75.05%)
                                            0.0000  0.0025 -0.0412  0.0720  0.0390
                                           -0.0004 -0.0149 -0.1495 -0.0471  0.0035
                                            0.0108  0.1622 -0.1126  0.0000  0.0000
                                            0.0000  0.0000 -0.0131  0.2088  0.0268
                                            0.0000  0.0000  0.0000  0.0000  0.0000
                                            0.0000  0.0380 -0.2634  0.0145  0.0710
                                           -0.2378 -0.0058  0.0000  0.0000  0.2985
                                            0.0411  0.6989  0.0965  0.0000  0.0000
                                            0.0000  0.0000  0.2192  0.0254 -0.3355
                                            0.0247
    34. (0.00046) RY*(16) O   1           s(  0.00%)p 1.00(  5.46%)d 1.07(  5.85%)
                                                  f16.25( 88.69%)
                                            0.0000  0.0000  0.0000  0.0000  0.0000
                                            0.0000  0.0000  0.0000  0.0000  0.0000
                                            0.0000  0.0000  0.0000 -0.0045 -0.0113
                                            0.2263  0.0568  0.0000  0.0000  0.0000
                                            0.0089 -0.0350 -0.0150 -0.0083 -0.2175
                                           -0.0981  0.0000  0.0000  0.0000  0.0000
                                            0.0000  0.0000 -0.1326 -0.0043  0.0000
                                            0.0000  0.0000  0.0000  0.2450  0.0212
                                            0.8930  0.1062  0.0000  0.0000  0.0000
                                            0.0000
    35. (0.00045) RY*(17) O   1           s(  0.00%)p 1.00(  0.31%)d17.41(  5.40%)
                                                  f99.99( 94.29%)
                                            0.0000  0.0000  0.0000  0.0000  0.0000
                                            0.0000  0.0000  0.0000  0.0000  0.0000
                                            0.0000  0.0000  0.0000  0.0051 -0.0004
[...]
                                            0.0000  0.0000  0.0000  0.0000  0.0000
                                            0.9857  0.1367  0.0129  0.0000  0.0000
                                            0.0138 -0.0050 -0.0642  0.0722  0.0000
                                            0.0000  0.0000  0.0000
   126. (0.00394) RY*( 3) H   4           s(  3.42%)p27.85( 95.38%)d 0.35(  1.20%)
                                           -0.0182  0.1790 -0.0426 -0.0076  0.9619
                                           -0.0377  0.0249  0.1212 -0.1084 -0.0015
                                            0.0000  0.0000  0.0000 -0.0793  0.0259
                                            0.0000  0.0000  0.0000  0.0000  0.0223
                                           -0.0139 -0.0638  0.0168
   127. (0.00259) RY*( 4) H   4           s( 32.10%)p 2.10( 67.40%)d 0.02(  0.50%)
                                            0.0470  0.5117 -0.2049 -0.1223 -0.2298
                                           -0.0293  0.0550  0.7235 -0.3058  0.0183
                                            0.0000  0.0000  0.0000  0.0440  0.0207
                                            0.0000  0.0000  0.0000  0.0000  0.0178
                                           -0.0450  0.0070 -0.0153
   128. (0.00110) RY*( 5) H   4           s( 47.91%)p 1.03( 49.18%)d 0.06(  2.91%)
                                           -0.0106  0.2560  0.6160 -0.1844  0.0248
                                            0.2232 -0.0189  0.2455  0.5990 -0.1480
                                            0.0000  0.0000  0.0000 -0.0138 -0.0507
                                            0.0000  0.0000  0.0000  0.0000  0.0945
                                            0.0979  0.0468  0.0749
   129. (0.00044) RY*( 6) H   4           s(  9.25%)p 8.95( 82.74%)d 0.87(  8.01%)
                                            0.0041 -0.0287  0.1206  0.2777 -0.0009
                                            0.8529  0.0164  0.0163 -0.2693  0.1638
                                            0.0000  0.0000  0.0000 -0.1133  0.2414
                                            0.0000  0.0000  0.0000  0.0000 -0.0799
                                           -0.0182 -0.0188 -0.0435
   130. (0.00034) RY*( 7) H   4           s(  0.00%)p 1.00( 83.96%)d 0.19( 16.04%)
                                            0.0000  0.0000  0.0000  0.0000  0.0000
                                            0.0000  0.0000  0.0000  0.0000  0.0000
                                           -0.1251  0.8758  0.2388  0.0000  0.0000
                                            0.1083  0.0121  0.2940  0.2491  0.0000
                                            0.0000  0.0000  0.0000
   131. (0.00032) RY*( 8) H   4           s( 26.32%)p 1.16( 30.56%)d 1.64( 43.12%)
                                           -0.0113 -0.0007  0.3023  0.4143 -0.0060
                                           -0.1844  0.4825  0.0469 -0.0310  0.1887
                                            0.0000  0.0000  0.0000  0.4684  0.0799
                                            0.0000  0.0000  0.0000  0.0000  0.2338
                                           -0.2010 -0.3321 -0.0094
   132. (0.00025) RY*( 9) H   4           s(  0.00%)p 1.00( 27.90%)d 2.58( 72.10%)
                                            0.0000  0.0000  0.0000  0.0000  0.0000
                                            0.0000  0.0000  0.0000  0.0000  0.0000
                                            0.1014 -0.3753  0.3577  0.0000  0.0000
                                            0.0768 -0.0265  0.8452 -0.0022  0.0000
                                            0.0000  0.0000  0.0000
   133. (0.00024) RY*(10) H   4           s(  8.59%)p 4.03( 34.66%)d 6.60( 56.74%)
                                           -0.0120  0.0056  0.2328 -0.1775 -0.0049
                                           -0.1915 -0.0388  0.0442  0.0802  0.5478
                                           -0.0000 -0.0000 -0.0000 -0.1765  0.1291
                                           -0.0000 -0.0000 -0.0000 -0.0000 -0.5955
                                           -0.3158 -0.0882 -0.2398
   134. (0.00018) RY*(11) H   4           s( 37.09%)p 0.31( 11.65%)d 1.38( 51.25%)
                                            0.0116  0.0549  0.1904  0.5758 -0.0862
                                           -0.2728 -0.0084  0.1019 -0.0482 -0.1480
                                           -0.0000 -0.0000 -0.0000 -0.7061 -0.0544
                                           -0.0000 -0.0000 -0.0000 -0.0000  0.0283
                                           -0.0220 -0.0117  0.0980
   135. (0.00018) RY*(12) H   4           s(  0.00%)p 1.00(  0.59%)d99.99( 99.41%)
                                            0.0000  0.0000  0.0000  0.0000  0.0000
                                            0.0000  0.0000  0.0000  0.0000  0.0000
                                           -0.0098 -0.0759 -0.0009  0.0000  0.0000
                                            0.9890 -0.0202 -0.1227 -0.0216  0.0000
                                            0.0000  0.0000  0.0000
   136. (0.00019) RY*(13) H   4           s(  9.63%)p 0.31(  2.94%)d 9.08( 87.43%)
                                            0.0077  0.0334  0.1000  0.2918  0.0716
                                           -0.0920  0.1098  0.0332 -0.0317 -0.0404
                                            0.0000  0.0000  0.0000  0.2788  0.0328
                                            0.0000  0.0000  0.0000  0.0000 -0.2701
                                            0.0169  0.8498 -0.0124
   137. (0.00011) RY*(14) H   4           s(  0.00%)p 1.00( 48.67%)d 1.05( 51.33%)
                                            0.0000  0.0000  0.0000  0.0000  0.0000
                                            0.0000  0.0000  0.0000  0.0000  0.0000
                                           -0.0445 -0.2305  0.6570  0.0000  0.0000
                                           -0.0490  0.0402 -0.3677  0.6116  0.0000
                                            0.0000  0.0000  0.0000
   138. (0.00009) RY*(15) H   4           s( 30.49%)p 1.52( 46.43%)d 0.76( 23.07%)
   139. (0.00010) RY*(16) H   4           s( 12.74%)p 3.22( 41.01%)d 3.63( 46.24%)
   140. (0.00004) RY*(17) H   4           s(  7.35%)p 6.64( 48.78%)d 5.97( 43.87%)
   141. (0.00004) RY*(18) H   4           s(  0.00%)p 1.00( 39.76%)d 1.51( 60.24%)
   142. (0.00005) RY*(19) H   4           s(  4.53%)p 4.39( 19.90%)d16.67( 75.57%)
   143. (0.00005) RY*(20) H   4           s(  0.00%)p 1.00(  0.07%)d99.99( 99.93%)
   144. (0.00004) RY*(21) H   4           s(  1.43%)p 0.63(  0.90%)d68.19( 97.67%)
   145. (0.00003) RY*(22) H   4           s(  7.39%)p 4.16( 30.76%)d 8.37( 61.85%)
   146. (0.01980) BD*( 1) O   1 - H   2  
                ( 16.13%)   0.4016* O   1 s( 14.74%)p 5.76( 84.87%)d 0.03(  0.37%)
                                                  f 0.00(  0.01%)
                                           -0.0001 -0.3839 -0.0001 -0.0020  0.0028
                                           -0.9209  0.0218 -0.0052  0.0033  0.0113
                                            0.0094  0.0002  0.0022 -0.0000 -0.0000
                                           -0.0000 -0.0000  0.0202 -0.0033 -0.0009
                                           -0.0000 -0.0000 -0.0000 -0.0000 -0.0000
                                           -0.0000 -0.0480  0.0077 -0.0050  0.0305
                                           -0.0029  0.0020 -0.0000 -0.0000  0.0097
                                           -0.0012 -0.0000  0.0002 -0.0000 -0.0000
                                           -0.0000 -0.0000 -0.0034 -0.0021 -0.0012
                                            0.0004
                ( 83.87%)  -0.9158* H   2 s( 99.73%)p 0.00(  0.22%)d 0.00(  0.05%)
                                           -0.9987  0.0016 -0.0007  0.0000 -0.0117
                                           -0.0449  0.0022  0.0012 -0.0002  0.0005
                                           -0.0000 -0.0000 -0.0000 -0.0019  0.0026
                                           -0.0000 -0.0000 -0.0000 -0.0000 -0.0177
                                            0.0018  0.0135 -0.0006
   147. (0.06288) BD*( 1) O   1 - H   4  
                ( 11.68%)   0.3417* O   1 s( 14.50%)p 5.87( 85.14%)d 0.02(  0.34%)
                                                  f 0.00(  0.01%)
                                            0.0001  0.3808 -0.0045 -0.0028 -0.0004
                                           -0.1682  0.0102  0.0003  0.0006 -0.9071
                                            0.0104 -0.0071  0.0058 -0.0000 -0.0000
                                           -0.0000 -0.0000 -0.0136  0.0052 -0.0010
                                           -0.0000 -0.0000 -0.0000 -0.0000 -0.0000
                                           -0.0000 -0.0478  0.0073 -0.0001 -0.0298
                                            0.0007  0.0026 -0.0000 -0.0000  0.0021
                                           -0.0007  0.0105 -0.0019 -0.0000 -0.0000
                                           -0.0000 -0.0000  0.0027  0.0012 -0.0011
                                            0.0027
                ( 88.32%)  -0.9398* H   4 s( 99.74%)p 0.00(  0.25%)d 0.00(  0.02%)
                                            0.9978 -0.0404  0.0096 -0.0006  0.0315
                                            0.0016  0.0045 -0.0107  0.0320  0.0175
                                           -0.0000 -0.0000 -0.0000  0.0043 -0.0054
                                           -0.0000 -0.0000 -0.0000 -0.0000  0.0005
                                           -0.0005 -0.0100  0.0018


 NHO Directionality and "Bond Bending" (deviations from line of nuclear centers)

         [Thresholds for printing:  angular deviation  >  1.0 degree]
                                    hybrid p-character > 25.0%
                                    orbital occupancy  >  0.10e

                                Line of Centers        Hybrid 1              Hybrid 2
                                ---------------  -------------------   ------------------
                NBO               Theta   Phi    Theta   Phi    Dev    Theta   Phi    Dev
 ========================================================================================
     1. BD (   1) O   1 - H   2    90.0    0.0    90.0  358.5   1.5      --     --    --
     2. BD (   1) O   1 - H   4    90.0  258.3    90.0  260.1   1.7      --     --    --
    13. LP (   1) O   1             --     --     90.0  129.9   --       --     --    --
    14. LP (   2) O   1             --     --      0.0    0.0   --       --     --    --
    16. LP (   2)Br   3             --     --      0.0    0.0   --       --     --    --
    17. LP (   3)Br   3             --     --     90.0  168.1   --       --     --    --
    18. LP (   4)Br   3             --     --     90.0   78.0   --       --     --    --


 Natural Bond Orbitals (Summary):

           NBO                  Occupancy  
 -----------------------------------------------
 Molecular unit  1  (H2O)
     1. BD (   1) O   1 - H   2          1.96304
     2. BD (   1) O   1 - H   4          1.95898
     3. CR (   1) O   1                  1.99992
    13. LP (   1) O   1                  1.97270
    14. LP (   2) O   1                  1.96032
    19. RY*(   1) O   1                  0.02164
    20. RY*(   2) O   1                  0.01717
    21. RY*(   3) O   1                  0.01070
    22. RY*(   4) O   1                  0.00680
    23. RY*(   5) O   1                  0.00638
    24. RY*(   6) O   1                  0.00596
    25. RY*(   7) O   1                  0.00588
    26. RY*(   8) O   1                  0.00349
    27. RY*(   9) O   1                  0.00314
    28. RY*(  10) O   1                  0.00064
    29. RY*(  11) O   1                  0.00059
    30. RY*(  12) O   1                  0.00060
    31. RY*(  13) O   1                  0.00055
    32. RY*(  14) O   1                  0.00053
    33. RY*(  15) O   1                  0.00048
    34. RY*(  16) O   1                  0.00046
    35. RY*(  17) O   1                  0.00045
    36. RY*(  18) O   1                  0.00045
    37. RY*(  19) O   1                  0.00043
    38. RY*(  20) O   1                  0.00043
    39. RY*(  21) O   1                  0.00041
    40. RY*(  22) O   1                  0.00036
    41. RY*(  23) O   1                  0.00036
    42. RY*(  24) O   1                  0.00025
    43. RY*(  25) O   1                  0.00026
    44. RY*(  26) O   1                  0.00017
    45. RY*(  27) O   1                  0.00011
    46. RY*(  28) O   1                  0.00008
    47. RY*(  29) O   1                  0.00008
    48. RY*(  30) O   1                  0.00008
    49. RY*(  31) O   1                  0.00008
    50. RY*(  32) O   1                  0.00008
    51. RY*(  33) O   1                  0.00007
    52. RY*(  34) O   1                  0.00006
    53. RY*(  35) O   1                  0.00006
    54. RY*(  36) O   1                  0.00007
    55. RY*(  37) O   1                  0.00006
    56. RY*(  38) O   1                  0.00005
    57. RY*(  39) O   1                  0.00003
    58. RY*(  40) O   1                  0.00001
    59. RY*(  41) O   1                 -0.00018
    60. RY*(   1) H   2                  0.00174
    61. RY*(   2) H   2                  0.00163
    62. RY*(   3) H   2                  0.00069
    63. RY*(   4) H   2                  0.00034
    64. RY*(   5) H   2                  0.00022
    65. RY*(   6) H   2                  0.00016
    66. RY*(   7) H   2                  0.00015
    67. RY*(   8) H   2                  0.00011
    68. RY*(   9) H   2                  0.00011
    69. RY*(  10) H   2                  0.00007
    70. RY*(  11) H   2                  0.00008
    71. RY*(  12) H   2                  0.00006
    72. RY*(  13) H   2                  0.00005
    73. RY*(  14) H   2                  0.00004
    74. RY*(  15) H   2                  0.00004
    75. RY*(  16) H   2                  0.00003
    76. RY*(  17) H   2                  0.00003
    77. RY*(  18) H   2                  0.00003
    78. RY*(  19) H   2                  0.00001
    79. RY*(  20) H   2                  0.00001
    80. RY*(  21) H   2                  0.00001
    81. RY*(  22) H   2                  0.00001
   124. RY*(   1) H   4                  0.00821
   125. RY*(   2) H   4                  0.00422
   126. RY*(   3) H   4                  0.00394
   127. RY*(   4) H   4                  0.00259
   128. RY*(   5) H   4                  0.00110
   129. RY*(   6) H   4                  0.00044
   130. RY*(   7) H   4                  0.00034
   131. RY*(   8) H   4                  0.00032
   132. RY*(   9) H   4                  0.00025
   133. RY*(  10) H   4                  0.00024
   134. RY*(  11) H   4                  0.00018
   135. RY*(  12) H   4                  0.00018
   136. RY*(  13) H   4                  0.00019
   137. RY*(  14) H   4                  0.00011
   138. RY*(  15) H   4                  0.00009
   139. RY*(  16) H   4                  0.00010
   140. RY*(  17) H   4                  0.00004
   141. RY*(  18) H   4                  0.00004
   142. RY*(  19) H   4                  0.00005
   143. RY*(  20) H   4                  0.00005
   144. RY*(  21) H   4                  0.00004
   145. RY*(  22) H   4                  0.00003
   146. BD*(   1) O   1 - H   2          0.01980
   147. BD*(   1) O   1 - H   4          0.06288
       -------------------------------
              Total Lewis    9.85495  ( 98.0077%)
        Valence non-Lewis    0.08269  (  0.8223%)
        Rydberg non-Lewis    0.11765  (  1.1700%)
       -------------------------------
            Total unit  1   10.05528  (100.0000%)
           Charge unit  1   -0.05528

 Molecular unit  2  (Br)
     4. CR (   1)Br   3                  2.00000
     5. CR (   2)Br   3                  2.00002
     6. CR (   3)Br   3                  1.99999
     7. CR (   4)Br   3                  2.00002
     8. CR (   5)Br   3                  1.99768
     9. CR (   6)Br   3                  1.99771
    10. CR (   7)Br   3                  1.99769
    11. CR (   8)Br   3                  1.99767
    12. CR (   9)Br   3                  1.99770
    15. LP (   1)Br   3                  1.98049
    16. LP (   2)Br   3                  1.95440
    17. LP (   3)Br   3                  1.95416
    18. LP (   4)Br   3                  1.91360
    82. RY*(   1)Br   3                  0.01852
    83. RY*(   2)Br   3                  0.01849
    84. RY*(   3)Br   3                  0.01840
    85. RY*(   4)Br   3                  0.01841
    86. RY*(   5)Br   3                  0.01840
    87. RY*(   6)Br   3                  0.01165
    88. RY*(   7)Br   3                  0.01161
    89. RY*(   8)Br   3                  0.01025
    90. RY*(   9)Br   3                  0.00275
    91. RY*(  10)Br   3                  0.00176
    92. RY*(  11)Br   3                  0.00176
    93. RY*(  12)Br   3                  0.00173
    94. RY*(  13)Br   3                  0.00173
    95. RY*(  14)Br   3                  0.00173
    96. RY*(  15)Br   3                  0.00173
    97. RY*(  16)Br   3                  0.00173
    98. RY*(  17)Br   3                  0.00173
    99. RY*(  18)Br   3                  0.00173
   100. RY*(  19)Br   3                  0.00140
   101. RY*(  20)Br   3                  0.00141
   102. RY*(  21)Br   3                  0.00124
   103. RY*(  22)Br   3                  0.00079
   104. RY*(  23)Br   3                  0.00078
   105. RY*(  24)Br   3                  0.00073
   106. RY*(  25)Br   3                  0.00040
   107. RY*(  26)Br   3                  0.00024
   108. RY*(  27)Br   3                  0.00024
   109. RY*(  28)Br   3                  0.00025
   110. RY*(  29)Br   3                  0.00025
   111. RY*(  30)Br   3                  0.00025
   112. RY*(  31)Br   3                  0.00024
   113. RY*(  32)Br   3                  0.00025
   114. RY*(  33)Br   3                  0.00018
   115. RY*(  34)Br   3                  0.00019
   116. RY*(  35)Br   3                  0.00013
   117. RY*(  36)Br   3                  0.00014
   118. RY*(  37)Br   3                  0.00008
   119. RY*(  38)Br   3                  0.00008
   120. RY*(  39)Br   3                  0.00006
   121. RY*(  40)Br   3                  0.00006
   122. RY*(  41)Br   3                  0.00005
   123. RY*(  42)Br   3                  0.00000
       -------------------------------
              Total Lewis   35.79112  ( 99.5727%)
        Valence non-Lewis    0.00000  (  0.0000%)
        Rydberg non-Lewis    0.15360  (  0.4273%)
       -------------------------------
            Total unit  2   35.94472  (100.0000%)
           Charge unit  2   -0.94472
 Leave Link  607 at Fri Oct 15 15:34:20 2021, MaxMem= 16106127360 cpu:              69.0 elap:               2.5
 (Enter /sw/contrib/gaussian/g16/B01/g16/l9999.exe)
 1\1\GINC-N2098\SP\RMP2-FC\Gen\Br1H2O1(1-)\CGAVINH\15-Oct-2021\0\\#p po
 p=NBO SP NoSymm mp2/gen Pseudo=read density=current\\title\\-1,1\O\X,1
 ,10.\H,1,0.96048156,2,90.\Br,1,3.25083182,2,90.,3,101.65547111,0\H,1,1
 .1,2,90.,3,101.65547111,0\\Version=ES64L-G16RevB.01\HF=-491.6384754\MP
 2=-492.1627125\RMSD=9.280e-09\Dipole=0.6006856,0.248304,0.\Quadrupole=
 10.3941246,-20.0826756,9.688551,-5.838621,0.,0.\PG=CS [SG(Br1H2O1)]\\@


 THERE IS NO CURE FOR BIRTH AND DEATH SAVE TO ENJOY THE INTERVAL.

                               -- GEORGE SANTAYANA
 Job cpu time:       0 days  0 hours  5 minutes 15.3 seconds.
 Elapsed time:       0 days  0 hours  0 minutes 18.7 seconds.
 File lengths (MBytes):  RWF=     16 Int=      0 D2E=      0 Chk=      8 Scr=      1
 Normal termination of Gaussian 16 at Fri Oct 15 15:34:20 2021.
