 Entering Gaussian System, Link 0=g16
 Input=brhod_pp_rOH_115_sp.gjf
 Output=brhod_pp_rOH_115_sp.log
 Initial command:
 /sw/contrib/gaussian/g16/B01/g16/l1.exe "/scr/Gau-12882.inp" -scrdir="/scr/"
 Entering Link 1 = /sw/contrib/gaussian/g16/B01/g16/l1.exe PID=     12883.
  
 Copyright (c) 1988-2017, Gaussian, Inc.  All Rights Reserved.
  
 This is part of the Gaussian(R) 16 program.  It is based on
 the Gaussian(R) 09 system (copyright 2009, Gaussian, Inc.),
 the Gaussian(R) 03 system (copyright 2003, Gaussian, Inc.),
 the Gaussian(R) 98 system (copyright 1998, Gaussian, Inc.),
 the Gaussian(R) 94 system (copyright 1995, Gaussian, Inc.),
 the Gaussian 92(TM) system (copyright 1992, Gaussian, Inc.),
 the Gaussian 90(TM) system (copyright 1990, Gaussian, Inc.),
 the Gaussian 88(TM) system (copyright 1988, Gaussian, Inc.),
 the Gaussian 86(TM) system (copyright 1986, Carnegie Mellon
 University), and the Gaussian 82(TM) system (copyright 1983,
 Carnegie Mellon University). Gaussian is a federally registered
 trademark of Gaussian, Inc.
  
 This software contains proprietary and confidential information,
 including trade secrets, belonging to Gaussian, Inc.
  
 This software is provided under written license and may be
 used, copied, transmitted, or stored only in accord with that
 written license.
  
 The following legend is applicable only to US Government
 contracts under FAR:
  
                    RESTRICTED RIGHTS LEGEND
  
 Use, reproduction and disclosure by the US Government is
 subject to restrictions as set forth in subparagraphs (a)
 and (c) of the Commercial Computer Software - Restricted
 Rights clause in FAR 52.227-19.
  
 Gaussian, Inc.
 340 Quinnipiac St., Bldg. 40, Wallingford CT 06492
  
  
 ---------------------------------------------------------------
 Warning -- This program may not be used in any manner that
 competes with the business of Gaussian, Inc. or will provide
 assistance to any competitor of Gaussian, Inc.  The licensee
 of this program is prohibited from giving any competitor of
 Gaussian, Inc. access to this program.  By using this program,
 the user acknowledges that Gaussian, Inc. is engaged in the
 business of creating and licensing software in the field of
 computational chemistry and represents and warrants to the
 licensee that it is not a competitor of Gaussian, Inc. and that
 it will not use this program in any manner prohibited above.
 ---------------------------------------------------------------
  

 Cite this work as:
 Gaussian 16, Revision B.01,
 M. J. Frisch, G. W. Trucks, H. B. Schlegel, G. E. Scuseria, 
 M. A. Robb, J. R. Cheeseman, G. Scalmani, V. Barone, 
 G. A. Petersson, H. Nakatsuji, X. Li, M. Caricato, A. V. Marenich, 
 J. Bloino, B. G. Janesko, R. Gomperts, B. Mennucci, H. P. Hratchian, 
 J. V. Ortiz, A. F. Izmaylov, J. L. Sonnenberg, D. Williams-Young, 
 F. Ding, F. Lipparini, F. Egidi, J. Goings, B. Peng, A. Petrone, 
 T. Henderson, D. Ranasinghe, V. G. Zakrzewski, J. Gao, N. Rega, 
 G. Zheng, W. Liang, M. Hada, M. Ehara, K. Toyota, R. Fukuda, 
 J. Hasegawa, M. Ishida, T. Nakajima, Y. Honda, O. Kitao, H. Nakai, 
 T. Vreven, K. Throssell, J. A. Montgomery, Jr., J. E. Peralta, 
 F. Ogliaro, M. J. Bearpark, J. J. Heyd, E. N. Brothers, K. N. Kudin, 
 V. N. Staroverov, T. A. Keith, R. Kobayashi, J. Normand, 
 K. Raghavachari, A. P. Rendell, J. C. Burant, S. S. Iyengar, 
 J. Tomasi, M. Cossi, J. M. Millam, M. Klene, C. Adamo, R. Cammi, 
 J. W. Ochterski, R. L. Martin, K. Morokuma, O. Farkas, 
 J. B. Foresman, and D. J. Fox, Gaussian, Inc., Wallingford CT, 2016.
 
 ******************************************
 Gaussian 16:  ES64L-G16RevB.01 20-Dec-2017
                15-Oct-2021 
 ******************************************
 %nproc=28
 Will use up to   28 processors via shared memory.
 %mem=120GB
 %chk=/gscratch/ilahie/mccoygrp/coire_hocl/rOH_s_oop_0/brhod_pp/brhod_pp_rOH_115_
 sp.chk
 --------------------------------------------------------
 #p pop=NBO SP NoSymm mp2/gen Pseudo=read density=current
 --------------------------------------------------------
 1/30=1,38=1,172=1/1;
 2/12=2,15=1,17=6,18=5,40=1/2;
 3/5=7,11=9,16=1,17=8,25=1,30=1,71=1/1,2,3;
 4//1;
 5/5=2,38=5/2;
 8/6=4,10=1/1;
 9/15=1,16=-3/6;
 10/5=1,13=10,31=1/2;
 6/7=2,8=2,9=2,10=2,22=-1,40=1/1,7;
 99/5=1,9=1/99;
 Leave Link    1 at Fri Oct 15 15:34:20 2021, MaxMem= 16106127360 cpu:               2.9 elap:               0.1
 (Enter /sw/contrib/gaussian/g16/B01/g16/l101.exe)
 -----
 title
 -----
 Symbolic Z-matrix:
 Charge = -1 Multiplicity = 1
 O
 X                    1     10. 
 H(iso=2)             1    r1       2     90. 
 Br                   1    r2       2     90.      3    a1       0
 H                    1    r3       2    oop      3    a1       0
       Variables:
  r1                    0.96048                  
  r2                    3.25083                  
  r3                    1.15                     
  a1                  101.65547                  
  OOP                  90.                       
 
 ITRead=  0  0  0  0
 MicOpt= -1 -1 -1 -1
 NAtoms=      4 NQM=        4 NQMF=       0 NMMI=      0 NMMIF=      0
                NMic=       0 NMicF=      0.
                    Isotopes and Nuclear Properties:
 (Nuclear quadrupole moments (NQMom) in fm**2, nuclear magnetic moments (NMagM)
  in nuclear magnetons)

  Atom         1           2           3           4
 IAtWgt=          16           2          79           1
 AtmWgt=  15.9949146   2.0141018  78.9183361   1.0078250
 NucSpn=           0           2           3           1
 AtZEff=  -0.0000000  -0.0000000  -0.0000000  -0.0000000
 NQMom=    0.0000000   0.2860000  31.3000000   0.0000000
 NMagM=    0.0000000   0.8574380   2.1063990   2.7928460
 AtZNuc=   8.0000000   1.0000000  35.0000000   1.0000000
 Leave Link  101 at Fri Oct 15 15:34:20 2021, MaxMem= 16106127360 cpu:               2.1 elap:               0.1
 (Enter /sw/contrib/gaussian/g16/B01/g16/l202.exe)
                          Input orientation:                          
 ---------------------------------------------------------------------
 Center     Atomic      Atomic             Coordinates (Angstroms)
 Number     Number       Type             X           Y           Z
 ---------------------------------------------------------------------
      1          8           0        0.000000    0.000000    0.000000
      2          1           0        0.960482    0.000000    0.000000
      3         35           0       -0.656753   -3.183800    0.000000
      4          1           0       -0.232330   -1.126287    0.000000
 ---------------------------------------------------------------------
                    Distance matrix (angstroms):
                    1          2          3          4
     1  O    0.000000
     2  H    0.960482   0.000000
     3  Br   3.250832   3.570999   0.000000
     4  H    1.150000   1.640525   2.100832   0.000000
 Symmetry turned off by external request.
 Stoichiometry    BrH2O(1-)
 Framework group  CS[SG(BrH2O)]
 Deg. of freedom     5
 Full point group                 CS      NOp   2
 Rotational constants (GHZ):         323.0426430           3.1684446           3.1376699
 Leave Link  202 at Fri Oct 15 15:34:21 2021, MaxMem= 16106127360 cpu:               0.2 elap:               0.0
 (Enter /sw/contrib/gaussian/g16/B01/g16/l301.exe)
 General basis read from cards:  (5D, 7F)
 Centers:       2      4      1      2      4
 aug-cc-pVTZ
 ****
 Centers:       3
 S 10 1.00
     Exponent=  9.6593900000D+03 Coefficients=  3.7100000000D-04
     Exponent=  1.4559600000D+03 Coefficients=  2.5710000000D-03
     Exponent=  3.2591400000D+02 Coefficients=  8.4850000000D-03
     Exponent=  4.6565700000D+01 Coefficients=  7.8222000000D-02
     Exponent=  1.8246900000D+01 Coefficients= -3.9714900000D-01
     Exponent=  3.8020100000D+00 Coefficients=  6.8586400000D-01
     Exponent=  1.7863200000D+00 Coefficients=  4.8681900000D-01
     Exponent=  6.0271400000D-01 Coefficients=  3.4913000000D-02
     Exponent=  2.8401400000D-01 Coefficients= -6.5730000000D-03
     Exponent=  1.2027100000D-01 Coefficients=  1.6420000000D-03
 S 10 1.00
     Exponent=  9.6593900000D+03 Coefficients= -1.5200000000D-04
     Exponent=  1.4559600000D+03 Coefficients= -1.0080000000D-03
     Exponent=  3.2591400000D+02 Coefficients= -3.6090000000D-03
     Exponent=  4.6565700000D+01 Coefficients= -2.7872000000D-02
     Exponent=  1.8246900000D+01 Coefficients=  1.5131700000D-01
     Exponent=  3.8020100000D+00 Coefficients= -3.5149700000D-01
     Exponent=  1.7863200000D+00 Coefficients= -4.1070300000D-01
     Exponent=  6.0271400000D-01 Coefficients=  3.4731600000D-01
     Exponent=  2.8401400000D-01 Coefficients=  6.7549100000D-01
     Exponent=  1.2027100000D-01 Coefficients=  2.4400800000D-01
 S 1 1.00
     Exponent=  6.0271400000D-01 Coefficients=  1.0000000000D+00
 S 1 1.00
     Exponent=  2.8401400000D-01 Coefficients=  1.0000000000D+00
 S 1 1.00
     Exponent=  1.2027100000D-01 Coefficients=  1.0000000000D+00
 S 1 1.00
     Exponent=  4.4500000000D-02 Coefficients=  1.0000000000D+00
 P 9 1.00
     Exponent=  4.9218700000D+02 Coefficients=  4.7200000000D-04
     Exponent=  9.2364200000D+01 Coefficients=  5.4940000000D-03
     Exponent=  2.7071800000D+01 Coefficients= -8.8030000000D-02
     Exponent=  7.2653900000D+00 Coefficients=  3.4348500000D-01
     Exponent=  3.4848100000D+00 Coefficients=  5.1020800000D-01
     Exponent=  1.6404800000D+00 Coefficients=  2.4863100000D-01
     Exponent=  6.4857000000D-01 Coefficients=  2.2201000000D-02
     Exponent=  2.5640700000D-01 Coefficients= -4.1900000000D-04
     Exponent=  9.5304000000D-02 Coefficients=  6.5600000000D-04
 P 9 1.00
     Exponent=  4.9218700000D+02 Coefficients= -1.5800000000D-04
     Exponent=  9.2364200000D+01 Coefficients= -1.3440000000D-03
     Exponent=  2.7071800000D+01 Coefficients=  2.4616000000D-02
     Exponent=  7.2653900000D+00 Coefficients= -1.1253200000D-01
     Exponent=  3.4848100000D+00 Coefficients= -1.7977500000D-01
     Exponent=  1.6404800000D+00 Coefficients= -7.3661000000D-02
     Exponent=  6.4857000000D-01 Coefficients=  3.4873400000D-01
     Exponent=  2.5640700000D-01 Coefficients=  5.5794800000D-01
     Exponent=  9.5304000000D-02 Coefficients=  2.6645600000D-01
 P 1 1.00
     Exponent=  7.6660000000D-01 Coefficients=  1.0000000000D+00
 P 1 1.00
     Exponent=  1.1820000000D-01 Coefficients=  1.0000000000D+00
 P 1 1.00
     Exponent=  3.9600000000D-02 Coefficients=  1.0000000000D+00
 D 8 1.00
     Exponent=  3.3899600000D+02 Coefficients=  1.5240000000D-03
     Exponent=  1.0321700000D+02 Coefficients=  1.5673000000D-02
     Exponent=  4.2363800000D+01 Coefficients=  7.2400000000D-02
     Exponent=  1.8435600000D+01 Coefficients=  1.8630300000D-01
     Exponent=  8.3725400000D+00 Coefficients=  3.2388100000D-01
     Exponent=  3.8022200000D+00 Coefficients=  3.7453400000D-01
     Exponent=  1.6867700000D+00 Coefficients=  2.5741800000D-01
     Exponent=  6.7752000000D-01 Coefficients=  6.8051000000D-02
 D 1 1.00
     Exponent=  6.7752000000D-01 Coefficients=  1.0000000000D+00
 D 1 1.00
     Exponent=  2.5530000000D-01 Coefficients=  1.0000000000D+00
 D 1 1.00
     Exponent=  1.0090000000D-01 Coefficients=  1.0000000000D+00
 F 1 1.00
     Exponent=  5.6060000000D-01 Coefficients=  1.0000000000D+00
 F 1 1.00
     Exponent=  2.4540000000D-01 Coefficients=  1.0000000000D+00
 ****
 ======================================================================================================
                                       Pseudopotential Parameters
 ======================================================================================================
  Center     Atomic      Valence      Angular      Power
  Number     Number     Electrons     Momentum     of R      Exponent        Coefficient   SO-Coeffient
 ======================================================================================================
    1          8
                                   No pseudopotential on this center.
    2          1
                                   No pseudopotential on this center.
    3         35           25
                                      G and up 
                                                     2        1.0000000        0.00000000    0.00000000
                                      S - G
                                                     2       70.0242570       49.96283400    0.00000000
                                                     2       31.1784120      370.01420500    0.00000000
                                                     2        7.1565930       10.24143900    0.00000000
                                      P - G
                                                     2       46.7734710       99.11224400    0.00000000
                                                     2       46.1841200      198.25304600    0.00000000
                                                     2       21.7138580       28.26174000    0.00000000
                                                     2       20.9417920       56.62336600    0.00000000
                                      D - G
                                                     2       50.6988390      -18.60585300    0.00000000
                                                     2       50.6447640      -27.92328000    0.00000000
                                                     2       15.4475090       -0.37969300    0.00000000
                                                     2       15.5002590       -0.78058300    0.00000000
                                                     2        2.8003910        0.03596800    0.00000000
                                                     2        1.0774800        0.09439700    0.00000000
                                      F - G
                                                     2       14.4656060       -1.09126900    0.00000000
                                                     2       21.2340650       -2.88769100    0.00000000
    4          1
                                   No pseudopotential on this center.
 ======================================================================================================
 Ernie: Thresh=  0.10000D-02 Tol=  0.10000D-05 Strict=F.
 Ernie:  18 primitive shells out of 132 were deleted.
   191 basis functions,   334 primitive gaussians,   218 cartesian basis functions
    18 alpha electrons       18 beta electrons
       nuclear repulsion energy        50.9697372812 Hartrees.
 IExCor=    0 DFT=F Ex=HF Corr=None ExCW=0 ScaHFX=  1.000000
 ScaDFX=  1.000000  1.000000  1.000000  1.000000 ScalE2=  1.000000  1.000000
 IRadAn=      5 IRanWt=     -1 IRanGd=            0 ICorTp=0 IEmpDi=  4
 NAtoms=    4 NActive=    4 NUniq=    4 SFac= 1.00D+00 NAtFMM=   60 NAOKFM=F Big=F
 Integral buffers will be    131072 words long.
 Raffenetti 1 integral format.
 Two-electron integral symmetry is turned off.
 Leave Link  301 at Fri Oct 15 15:34:21 2021, MaxMem= 16106127360 cpu:               2.2 elap:               0.1
 (Enter /sw/contrib/gaussian/g16/B01/g16/l302.exe)
 NPDir=0 NMtPBC=     1 NCelOv=     1 NCel=       1 NClECP=     1 NCelD=      1
         NCelK=      1 NCelE2=     1 NClLst=     1 CellRange=     0.0.
 One-electron integrals computed using PRISM.
   1 Symmetry operations used in ECPInt.
 ECPInt:  NShTT=    2145 NPrTT=    6720 LenC2=    2146 LenP2D=    6099.
 LDataN:  DoStor=T MaxTD1= 7 Len=  274
 NBasis=   191 RedAO= T EigKep=  4.32D-04  NBF=   191
 NBsUse=   147 1.00D-06 EigRej=  5.16D-15 NBFU=   147
 Leave Link  302 at Fri Oct 15 15:34:21 2021, MaxMem= 16106127360 cpu:               6.6 elap:               0.3
 (Enter /sw/contrib/gaussian/g16/B01/g16/l303.exe)
 DipDrv:  MaxL=1.
 Leave Link  303 at Fri Oct 15 15:34:21 2021, MaxMem= 16106127360 cpu:               2.3 elap:               0.1
 (Enter /sw/contrib/gaussian/g16/B01/g16/l401.exe)
 ExpMin= 2.53D-02 ExpMax= 1.53D+04 ExpMxC= 5.22D+02 IAcc=3 IRadAn=         5 AccDes= 0.00D+00
 Harris functional with IExCor=  205 and IRadAn=       5 diagonalized for initial guess.
 HarFok:  IExCor=  205 AccDes= 0.00D+00 IRadAn=         5 IDoV= 1 UseB2=F ITyADJ=14
 ICtDFT=  3500011 ScaDFX=  1.000000  1.000000  1.000000  1.000000
 FoFCou: FMM=F IPFlag=           0 FMFlag=      100000 FMFlg1=           0
         NFxFlg=           0 DoJE=T BraDBF=F KetDBF=T FulRan=T
         wScrn=  0.000000 ICntrl=       500 IOpCl=  0 I1Cent=   200000004 NGrid=           0
         NMat0=    1 NMatS0=      1 NMatT0=    0 NMatD0=    1 NMtDS0=    0 NMtDT0=    0
 Symmetry not used in FoFCou.
 Harris En= -493.543677319811    
 JPrj=0 DoOrth=F DoCkMO=F.
 Leave Link  401 at Fri Oct 15 15:34:21 2021, MaxMem= 16106127360 cpu:               8.0 elap:               0.3
 (Enter /sw/contrib/gaussian/g16/B01/g16/l502.exe)
 Keep R1 ints in memory in canonical form, NReq=204937541.
 FoFCou: FMM=F IPFlag=           0 FMFlag=           0 FMFlg1=           0
         NFxFlg=           0 DoJE=F BraDBF=F KetDBF=F FulRan=T
         wScrn=  0.000000 ICntrl=       600 IOpCl=  0 I1Cent=           0 NGrid=           0
         NMat0=    1 NMatS0=  18336 NMatT0=    0 NMatD0=    1 NMtDS0=    0 NMtDT0=    0
 Symmetry not used in FoFCou.
 Two-electron integral symmetry not used.
 Closed shell SCF:
 Using DIIS extrapolation, IDIIS=  1040.
 NGot= 16106127360 LenX= 15937911236 LenY= 15937863271
 Requested convergence on RMS density matrix=1.00D-08 within 128 cycles.
 Requested convergence on MAX density matrix=1.00D-06.
 Requested convergence on             energy=1.00D-06.
 No special actions if energy rises.

 Cycle   1  Pass 1  IDiag  1:
 E= -491.480733378312    
 DIIS: error= 4.68D-02 at cycle   1 NSaved=   1.
 NSaved= 1 IEnMin= 1 EnMin= -491.480733378312     IErMin= 1 ErrMin= 4.68D-02
 ErrMax= 4.68D-02  0.00D+00 EMaxC= 1.00D-01 BMatC= 2.55D-01 BMatP= 2.55D-01
 IDIUse=3 WtCom= 5.32D-01 WtEn= 4.68D-01
 Coeff-Com:  0.100D+01
 Coeff-En:   0.100D+01
 Coeff:      0.100D+01
 Gap=     0.434 Goal=   None    Shift=    0.000
 GapD=    0.434 DampG=2.000 DampE=0.500 DampFc=1.0000 IDamp=-1.
 RMSDP=4.18D-03 MaxDP=2.49D-01              OVMax= 1.27D-01

 Cycle   2  Pass 1  IDiag  1:
 E= -491.588778433673     Delta-E=       -0.108045055361 Rises=F Damp=F
 DIIS: error= 3.33D-02 at cycle   2 NSaved=   2.
 NSaved= 2 IEnMin= 2 EnMin= -491.588778433673     IErMin= 2 ErrMin= 3.33D-02
 ErrMax= 3.33D-02  0.00D+00 EMaxC= 1.00D-01 BMatC= 6.49D-02 BMatP= 2.55D-01
 IDIUse=3 WtCom= 6.67D-01 WtEn= 3.33D-01
 Coeff-Com:  0.296D+00 0.704D+00
 Coeff-En:   0.000D+00 0.100D+01
 Coeff:      0.198D+00 0.802D+00
 Gap=     0.314 Goal=   None    Shift=    0.000
 RMSDP=1.12D-03 MaxDP=4.08D-02 DE=-1.08D-01 OVMax= 7.44D-02

 Cycle   3  Pass 1  IDiag  1:
 E= -491.623874273087     Delta-E=       -0.035095839414 Rises=F Damp=F
 DIIS: error= 1.28D-02 at cycle   3 NSaved=   3.
 NSaved= 3 IEnMin= 3 EnMin= -491.623874273087     IErMin= 3 ErrMin= 1.28D-02
 ErrMax= 1.28D-02  0.00D+00 EMaxC= 1.00D-01 BMatC= 9.71D-03 BMatP= 6.49D-02
 IDIUse=3 WtCom= 8.72D-01 WtEn= 1.28D-01
 Coeff-Com: -0.125D-01 0.268D+00 0.745D+00
 Coeff-En:   0.000D+00 0.000D+00 0.100D+01
 Coeff:     -0.109D-01 0.233D+00 0.777D+00
 Gap=     0.313 Goal=   None    Shift=    0.000
 RMSDP=3.42D-04 MaxDP=1.49D-02 DE=-3.51D-02 OVMax= 2.22D-02

 Cycle   4  Pass 1  IDiag  1:
 E= -491.629780059284     Delta-E=       -0.005905786197 Rises=F Damp=F
 DIIS: error= 1.64D-03 at cycle   4 NSaved=   4.
 NSaved= 4 IEnMin= 4 EnMin= -491.629780059284     IErMin= 4 ErrMin= 1.64D-03
 ErrMax= 1.64D-03  0.00D+00 EMaxC= 1.00D-01 BMatC= 1.65D-04 BMatP= 9.71D-03
 IDIUse=3 WtCom= 9.84D-01 WtEn= 1.64D-02
 Coeff-Com: -0.323D-02 0.422D-01 0.194D+00 0.767D+00
 Coeff-En:   0.000D+00 0.000D+00 0.000D+00 0.100D+01
 Coeff:     -0.317D-02 0.416D-01 0.191D+00 0.771D+00
 Gap=     0.308 Goal=   None    Shift=    0.000
 RMSDP=5.92D-05 MaxDP=1.91D-03 DE=-5.91D-03 OVMax= 3.22D-03

 Cycle   5  Pass 1  IDiag  1:
 E= -491.629895391803     Delta-E=       -0.000115332520 Rises=F Damp=F
 DIIS: error= 1.82D-04 at cycle   5 NSaved=   5.
 NSaved= 5 IEnMin= 5 EnMin= -491.629895391803     IErMin= 5 ErrMin= 1.82D-04
 ErrMax= 1.82D-04  0.00D+00 EMaxC= 1.00D-01 BMatC= 6.22D-06 BMatP= 1.65D-04
 IDIUse=3 WtCom= 9.98D-01 WtEn= 1.82D-03
 Coeff-Com: -0.901D-03-0.150D-01-0.302D-01 0.108D+00 0.938D+00
 Coeff-En:   0.000D+00 0.000D+00 0.000D+00 0.000D+00 0.100D+01
 Coeff:     -0.900D-03-0.150D-01-0.301D-01 0.108D+00 0.938D+00
 Gap=     0.308 Goal=   None    Shift=    0.000
 RMSDP=2.41D-05 MaxDP=1.55D-03 DE=-1.15D-04 OVMax= 1.13D-03

 Cycle   6  Pass 1  IDiag  1:
 E= -491.629904310433     Delta-E=       -0.000008918629 Rises=F Damp=F
 DIIS: error= 8.78D-05 at cycle   6 NSaved=   6.
 NSaved= 6 IEnMin= 6 EnMin= -491.629904310433     IErMin= 6 ErrMin= 8.78D-05
 ErrMax= 8.78D-05  0.00D+00 EMaxC= 1.00D-01 BMatC= 4.27D-07 BMatP= 6.22D-06
 IDIUse=1 WtCom= 1.00D+00 WtEn= 0.00D+00
 Coeff-Com:  0.670D-03 0.265D-03-0.478D-02-0.678D-01-0.335D+00 0.141D+01
 Coeff:      0.670D-03 0.265D-03-0.478D-02-0.678D-01-0.335D+00 0.141D+01
 Gap=     0.309 Goal=   None    Shift=    0.000
 RMSDP=1.16D-05 MaxDP=7.70D-04 DE=-8.92D-06 OVMax= 5.66D-04

 Cycle   7  Pass 1  IDiag  1:
 E= -491.629905755834     Delta-E=       -0.000001445402 Rises=F Damp=F
 DIIS: error= 1.97D-05 at cycle   7 NSaved=   7.
 NSaved= 7 IEnMin= 7 EnMin= -491.629905755834     IErMin= 7 ErrMin= 1.97D-05
 ErrMax= 1.97D-05  0.00D+00 EMaxC= 1.00D-01 BMatC= 1.47D-08 BMatP= 4.27D-07
 IDIUse=1 WtCom= 1.00D+00 WtEn= 0.00D+00
 Coeff-Com: -0.238D-03 0.526D-03 0.294D-02 0.208D-01 0.979D-01-0.552D+00
 Coeff-Com:  0.143D+01
 Coeff:     -0.238D-03 0.526D-03 0.294D-02 0.208D-01 0.979D-01-0.552D+00
 Coeff:      0.143D+01
 Gap=     0.309 Goal=   None    Shift=    0.000
 RMSDP=2.09D-06 MaxDP=1.19D-04 DE=-1.45D-06 OVMax= 1.29D-04

 Cycle   8  Pass 1  IDiag  1:
 E= -491.629905806461     Delta-E=       -0.000000050626 Rises=F Damp=F
 DIIS: error= 2.57D-06 at cycle   8 NSaved=   8.
 NSaved= 8 IEnMin= 8 EnMin= -491.629905806461     IErMin= 8 ErrMin= 2.57D-06
 ErrMax= 2.57D-06  0.00D+00 EMaxC= 1.00D-01 BMatC= 4.68D-10 BMatP= 1.47D-08
 IDIUse=1 WtCom= 1.00D+00 WtEn= 0.00D+00
 Coeff-Com: -0.822D-05-0.646D-04-0.934D-04 0.140D-02 0.639D-02-0.151D-01
 Coeff-Com: -0.823D-01 0.109D+01
 Coeff:     -0.822D-05-0.646D-04-0.934D-04 0.140D-02 0.639D-02-0.151D-01
 Coeff:     -0.823D-01 0.109D+01
 Gap=     0.309 Goal=   None    Shift=    0.000
 RMSDP=2.85D-07 MaxDP=9.52D-06 DE=-5.06D-08 OVMax= 1.59D-05

 Cycle   9  Pass 1  IDiag  1:
 E= -491.629905807607     Delta-E=       -0.000000001146 Rises=F Damp=F
 DIIS: error= 9.26D-07 at cycle   9 NSaved=   9.
 NSaved= 9 IEnMin= 9 EnMin= -491.629905807607     IErMin= 9 ErrMin= 9.26D-07
 ErrMax= 9.26D-07  0.00D+00 EMaxC= 1.00D-01 BMatC= 4.80D-11 BMatP= 4.68D-10
 IDIUse=1 WtCom= 1.00D+00 WtEn= 0.00D+00
 Coeff-Com:  0.223D-04-0.509D-04-0.273D-03-0.197D-02-0.935D-02 0.530D-01
 Coeff-Com: -0.137D+00-0.132D-01 0.111D+01
 Coeff:      0.223D-04-0.509D-04-0.273D-03-0.197D-02-0.935D-02 0.530D-01
 Coeff:     -0.137D+00-0.132D-01 0.111D+01
 Gap=     0.309 Goal=   None    Shift=    0.000
 RMSDP=8.40D-08 MaxDP=2.35D-06 DE=-1.15D-09 OVMax= 5.53D-06

 Cycle  10  Pass 1  IDiag  1:
 E= -491.629905807743     Delta-E=       -0.000000000137 Rises=F Damp=F
 DIIS: error= 2.46D-07 at cycle  10 NSaved=  10.
 NSaved=10 IEnMin=10 EnMin= -491.629905807743     IErMin=10 ErrMin= 2.46D-07
 ErrMax= 2.46D-07  0.00D+00 EMaxC= 1.00D-01 BMatC= 3.40D-12 BMatP= 4.80D-11
 IDIUse=1 WtCom= 1.00D+00 WtEn= 0.00D+00
 Coeff-Com: -0.225D-05 0.121D-04 0.433D-04 0.816D-04 0.609D-03-0.506D-02
 Coeff-Com:  0.224D-01-0.765D-01-0.132D+00 0.119D+01
 Coeff:     -0.225D-05 0.121D-04 0.433D-04 0.816D-04 0.609D-03-0.506D-02
 Coeff:      0.224D-01-0.765D-01-0.132D+00 0.119D+01
 Gap=     0.309 Goal=   None    Shift=    0.000
 RMSDP=3.02D-08 MaxDP=1.45D-06 DE=-1.37D-10 OVMax= 1.50D-06

 Cycle  11  Pass 1  IDiag  1:
 E= -491.629905807752     Delta-E=       -0.000000000009 Rises=F Damp=F
 DIIS: error= 4.42D-08 at cycle  11 NSaved=  11.
 NSaved=11 IEnMin=11 EnMin= -491.629905807752     IErMin=11 ErrMin= 4.42D-08
 ErrMax= 4.42D-08  0.00D+00 EMaxC= 1.00D-01 BMatC= 1.90D-13 BMatP= 3.40D-12
 IDIUse=1 WtCom= 1.00D+00 WtEn= 0.00D+00
 Coeff-Com: -0.642D-06-0.100D-06 0.391D-05 0.886D-04 0.351D-03-0.161D-02
 Coeff-Com:  0.247D-02 0.145D-01-0.387D-01-0.223D+00 0.125D+01
 Coeff:     -0.642D-06-0.100D-06 0.391D-05 0.886D-04 0.351D-03-0.161D-02
 Coeff:      0.247D-02 0.145D-01-0.387D-01-0.223D+00 0.125D+01
 Gap=     0.309 Goal=   None    Shift=    0.000
 RMSDP=1.07D-08 MaxDP=5.36D-07 DE=-9.21D-12 OVMax= 5.13D-07

 Cycle  12  Pass 1  IDiag  1:
 E= -491.629905807754     Delta-E=       -0.000000000001 Rises=F Damp=F
 DIIS: error= 1.14D-08 at cycle  12 NSaved=  12.
 NSaved=12 IEnMin=12 EnMin= -491.629905807754     IErMin=12 ErrMin= 1.14D-08
 ErrMax= 1.14D-08  0.00D+00 EMaxC= 1.00D-01 BMatC= 1.05D-14 BMatP= 1.90D-13
 IDIUse=1 WtCom= 1.00D+00 WtEn= 0.00D+00
 Coeff-Com:  0.321D-06-0.101D-05-0.421D-05-0.235D-04-0.120D-03 0.703D-03
 Coeff-Com: -0.217D-02 0.342D-02 0.157D-01-0.414D-01-0.217D+00 0.124D+01
 Coeff:      0.321D-06-0.101D-05-0.421D-05-0.235D-04-0.120D-03 0.703D-03
 Coeff:     -0.217D-02 0.342D-02 0.157D-01-0.414D-01-0.217D+00 0.124D+01
 Gap=     0.309 Goal=   None    Shift=    0.000
 RMSDP=1.92D-09 MaxDP=7.81D-08 DE=-1.14D-12 OVMax= 9.87D-08

 SCF Done:  E(RHF) =  -491.629905808     A.U. after   12 cycles
            NFock= 12  Conv=0.19D-08     -V/T= 2.3231
 KE= 3.715623420823D+02 PE=-1.317442129824D+03 EE= 4.032801446526D+02
 Leave Link  502 at Fri Oct 15 15:34:26 2021, MaxMem= 16106127360 cpu:              39.0 elap:               4.8
 (Enter /sw/contrib/gaussian/g16/B01/g16/l801.exe)
 ExpMin= 2.53D-02 ExpMax= 1.53D+04 ExpMxC= 5.22D+02 IAcc=3 IRadAn=         5 AccDes= 0.00D+00
 HarFok:  IExCor=  205 AccDes= 0.00D+00 IRadAn=         5 IDoV=-2 UseB2=F ITyADJ=14
 ICtDFT= 12500011 ScaDFX=  1.000000  1.000000  1.000000  1.000000
 Largest valence mixing into a core orbital is  1.30D-04
 Largest core mixing into a valence orbital is  2.31D-05
 Range of M.O.s used for correlation:     6   147
 NBasis=   191 NAE=    18 NBE=    18 NFC=     5 NFV=     0
 NROrb=    142 NOA=    13 NOB=    13 NVA=   129 NVB=   129

 **** Warning!!: The largest alpha MO coefficient is  0.12447150D+02

 Leave Link  801 at Fri Oct 15 15:34:26 2021, MaxMem= 16106127360 cpu:               2.3 elap:               0.1
 (Enter /sw/contrib/gaussian/g16/B01/g16/l906.exe)
 Frozen-core derivative calculation, NFC=   5 NFV=   0.
 FulOut=F Deriv=T AODrv=F NAtomX=     4
   MMem=         107  MDisk=          13 MDiskD=          13
  W3Min=      576828 MinDsk=     1313419 NBas6D=         218
 NBas2D=       24339    NTT=       23871    LW2=    16556320
    MDV= 16105797278 MDiskM=      369353 NBas2p=       24313
 Fully in-core method, ICMem=   644650517.
 IMap=   1   2   3   4   5   6   7   8   9  10  11  12  13  14  15  16  17  18
 JobTyp=1 Pass  1 fully in-core, NPsUse= 28.
 Compute canonical integrals.
 FoFCou: FMM=F IPFlag=           0 FMFlag=           0 FMFlg1=           0
         NFxFlg=           0 DoJE=F BraDBF=F KetDBF=F FulRan=T
         wScrn=  0.000000 ICntrl=       600 IOpCl=  1 I1Cent=           0 NGrid=           0
         NMat0=    1 NMatS0=  24339 NMatT0=    0 NMatD0=    1 NMtDS0=    0 NMtDT0=    0
 Symmetry not used in FoFCou.
 Spin components of T(2) and E(2):
     alpha-alpha T2 =       0.2146464901D-01 E2=     -0.7100118225D-01
     alpha-beta  T2 =       0.1135147983D+00 E2=     -0.3850103033D+00
     beta-beta   T2 =       0.2146464901D-01 E2=     -0.7100118225D-01
 The integrals were generated   1 times.
 ANorm=    0.1075380908D+01
 E2 =    -0.5270126678D+00 EUMP2 =    -0.49215691847554D+03
 Leave Link  906 at Fri Oct 15 15:34:31 2021, MaxMem= 16106127360 cpu:             130.7 elap:               4.7
 (Enter /sw/contrib/gaussian/g16/B01/g16/l1002.exe)
 Minotr:  Closed shell wavefunction.
          Computing MP2/KS-MP2 derivatives.
          Using Z-Vector for PSCF gradient.
          Skipping F1 and S1 gradient terms here.
          Frozen-core window.
          Direct CPHF calculation.
          Differentiating once with respect to electric field.
                with respect to dipole field.
          Electric field/nuclear overlap derivatives assumed to be zero.
          Requested convergence is 1.0D-10 RMS, and 1.0D-09 maximum.
          NewPWx=F KeepS1=T KeepF1=T KeepIn=T MapXYZ=F SortEE=F KeepMc=T.
 Keep R1 ints in memory in canonical form, NReq=204939921.
 FoFCou: FMM=F IPFlag=           0 FMFlag=           0 FMFlg1=           0
         NFxFlg=           0 DoJE=F BraDBF=F KetDBF=F FulRan=T
         wScrn=  0.000000 ICntrl=       600 IOpCl=  0 I1Cent=           0 NGrid=           0
         NMat0=    1 NMatS0=  18336 NMatT0=    0 NMatD0=    1 NMtDS0=    0 NMtDT0=    0
 Symmetry not used in FoFCou.
 Two-electron integral symmetry not used.
          MDV=   16106127360 using IRadAn=       5.
          Solving linear equations separately, MaxMat=       0.
          There are     1 degrees of freedom in the 1st order CPHF.  IDoFFX=0 NUNeed=     1.
 LinEq1:  Iter=  0 NonCon=     1 RMS=3.05D-03 Max=5.55D-02 NDo=     1
 AX will form     1 AO Fock derivatives at one time.
 LinEq1:  Iter=  1 NonCon=     1 RMS=5.24D-04 Max=5.80D-03 NDo=     1
 LinEq1:  Iter=  2 NonCon=     1 RMS=2.25D-04 Max=3.09D-03 NDo=     1
 LinEq1:  Iter=  3 NonCon=     1 RMS=6.83D-05 Max=1.33D-03 NDo=     1
 LinEq1:  Iter=  4 NonCon=     1 RMS=1.10D-05 Max=1.16D-04 NDo=     1
 LinEq1:  Iter=  5 NonCon=     1 RMS=4.70D-06 Max=4.89D-05 NDo=     1
 LinEq1:  Iter=  6 NonCon=     1 RMS=1.46D-06 Max=3.18D-05 NDo=     1
 LinEq1:  Iter=  7 NonCon=     1 RMS=3.45D-07 Max=4.81D-06 NDo=     1
 LinEq1:  Iter=  8 NonCon=     1 RMS=9.01D-08 Max=1.04D-06 NDo=     1
 LinEq1:  Iter=  9 NonCon=     1 RMS=1.16D-08 Max=1.99D-07 NDo=     1
 LinEq1:  Iter= 10 NonCon=     1 RMS=1.94D-09 Max=2.34D-08 NDo=     1
 LinEq1:  Iter= 11 NonCon=     1 RMS=5.58D-10 Max=8.69D-09 NDo=     1
 LinEq1:  Iter= 12 NonCon=     1 RMS=9.37D-11 Max=1.00D-09 NDo=     1
 LinEq1:  Iter= 13 NonCon=     0 RMS=1.73D-11 Max=1.81D-10 NDo=     1
 Linear equations converged to 1.000D-10 1.000D-09 after    13 iterations.
 End of Minotr F.D. properties file   721 does not exist.
 End of Minotr F.D. properties file   722 does not exist.
 End of Minotr F.D. properties file   788 does not exist.
 Leave Link 1002 at Fri Oct 15 15:34:37 2021, MaxMem= 16106127360 cpu:              40.3 elap:               5.7
 (Enter /sw/contrib/gaussian/g16/B01/g16/l601.exe)
 Copying SCF densities to generalized density rwf, IOpCl= 0 IROHF=0.

 **********************************************************************

            Population analysis using the MP2 Density.

 **********************************************************************

 Alpha  occ. eigenvalues --  -20.37680  -9.55430  -7.30229  -7.30162  -7.30157
 Alpha  occ. eigenvalues --   -2.85334  -2.85309  -2.85304  -2.85239  -2.85239
 Alpha  occ. eigenvalues --   -1.12378  -0.75070  -0.47771  -0.38452  -0.30958
 Alpha  occ. eigenvalues --   -0.17429  -0.16942  -0.16893
 Alpha virt. eigenvalues --    0.13964   0.17415   0.24776   0.25930   0.26437
 Alpha virt. eigenvalues --    0.28123   0.30401   0.30810   0.33388   0.35167
 Alpha virt. eigenvalues --    0.40328   0.41539   0.41858   0.46194   0.47039
 Alpha virt. eigenvalues --    0.47511   0.49304   0.53368   0.56570   0.60195
 Alpha virt. eigenvalues --    0.61475   0.62492   0.72145   0.75735   0.82132
 Alpha virt. eigenvalues --    0.83674   0.83826   0.86994   0.89443   0.92046
 Alpha virt. eigenvalues --    0.93201   0.95165   0.97854   0.98830   0.98902
 Alpha virt. eigenvalues --    1.00709   1.01008   1.02582   1.05090   1.08391
 Alpha virt. eigenvalues --    1.10254   1.10966   1.14987   1.15100   1.17761
 Alpha virt. eigenvalues --    1.17884   1.19218   1.21576   1.23960   1.24939
 Alpha virt. eigenvalues --    1.31931   1.35146   1.42635   1.45235   1.46401
 Alpha virt. eigenvalues --    1.46504   1.64598   1.66145   1.69350   1.71551
 Alpha virt. eigenvalues --    1.77749   1.79126   2.03856   2.10219   2.17313
 Alpha virt. eigenvalues --    2.34786   2.45425   2.46030   2.46470   2.50883
 Alpha virt. eigenvalues --    2.53220   2.53445   2.54143   2.54225   2.54875
 Alpha virt. eigenvalues --    2.55689   2.57781   2.61343   2.62761   2.63879
 Alpha virt. eigenvalues --    2.64497   2.66574   2.68139   2.70709   2.74098
 Alpha virt. eigenvalues --    2.80008   2.82503   2.92832   2.96032   3.00757
 Alpha virt. eigenvalues --    3.10368   3.16562   3.18114   3.43018   3.87421
 Alpha virt. eigenvalues --    4.09043   4.18533   4.26396   4.29939   4.39176
 Alpha virt. eigenvalues --    4.43287   4.53589   4.56887   4.59888   4.69494
 Alpha virt. eigenvalues --    4.81229   4.96159   4.99230   5.10223   5.32250
 Alpha virt. eigenvalues --    5.44338   5.57328   5.70532   6.35582   6.72945
 Alpha virt. eigenvalues --    6.90136   7.00872   7.12863   7.38536   7.42455
 Alpha virt. eigenvalues --    7.46900   7.54974   7.61961   7.70585   7.97141
 Alpha virt. eigenvalues --    8.14597   8.45659  14.59846  79.88742
          Condensed to atoms (all electrons):
               1          2          3          4
     1  O    8.327136   0.185652  -0.075362   0.150576
     2  H    0.185652   0.613219  -0.001220   0.037555
     3  Br  -0.075362  -0.001220  25.925735   0.011442
     4  H    0.150576   0.037555   0.011442   0.516624
 Mulliken charges:
               1
     1  O   -0.588002
     2  H    0.164794
     3  Br  -0.860596
     4  H    0.283804
 Sum of Mulliken charges =  -1.00000
 Mulliken charges with hydrogens summed into heavy atoms:
               1
     1  O   -0.139404
     3  Br  -0.860596
 Electronic spatial extent (au):  <R**2>=           1049.4798
 Charge=             -1.0000 electrons
 Dipole moment (field-independent basis, Debye):
    X=              3.5870    Y=             11.3496    Z=             -0.0000  Tot=             11.9030
 Quadrupole moment (field-independent basis, Debye-Ang):
   XX=            -30.3162   YY=            -70.1778   ZZ=            -31.3134
   XY=             -7.6290   XZ=             -0.0000   YZ=              0.0000
 Traceless Quadrupole moment (field-independent basis, Debye-Ang):
   XX=             13.6196   YY=            -26.2420   ZZ=             12.6224
   XY=             -7.6290   XZ=             -0.0000   YZ=              0.0000
 Octapole moment (field-independent basis, Debye-Ang**2):
  XXX=             45.8182  YYY=            346.5381  ZZZ=             -0.0000  XYY=             39.7063
  XXY=             78.3256  XXZ=             -0.0000  XZZ=             14.2997  YZZ=             73.1663
  YYZ=             -0.0000  XYZ=             -0.0000
 Hexadecapole moment (field-independent basis, Debye-Ang**3):
 XXXX=           -106.6324 YYYY=          -1830.9931 ZZZZ=            -48.8214 XXXY=           -145.4798
 XXXZ=              0.0000 YYYX=           -220.9634 YYYZ=             -0.0000 ZZZX=             -0.0000
 ZZZY=              0.0000 XXYY=           -273.4798 XXZZ=            -26.1546 YYZZ=           -247.8064
 XXYZ=              0.0000 YYXZ=              0.0000 ZZXY=            -47.4463
 N-N= 5.096973728119D+01 E-N=-1.316134227388D+03  KE= 3.712311135546D+02
 No NMR shielding tensors so no spin-rotation constants.
 Leave Link  601 at Fri Oct 15 15:34:37 2021, MaxMem= 16106127360 cpu:               4.2 elap:               0.2
 (Enter /sw/contrib/gaussian/g16/B01/g16/l607.exe)
 ******************************Gaussian NBO Version 3.1******************************
             N A T U R A L   A T O M I C   O R B I T A L   A N D
          N A T U R A L   B O N D   O R B I T A L   A N A L Y S I S
 ******************************Gaussian NBO Version 3.1******************************
       /RESON  / : Allow strongly delocalized NBO set

 Analyzing the MP2 density

 Job title: title                                                           

 Storage needed:    110417 in NPA,    146568 in NBO (********** available)
 GSVD:  LWork=       14857 too small for GESVD, short by       27473 words or       27473 for optimal perf.


 NATURAL POPULATIONS:  Natural atomic orbital occupancies 
                                                          
   NAO  Atom  No  lang   Type(AO)    Occupancy
 --------------------------------------------
     1    O    1  S      Cor( 1S)     1.99992
     2    O    1  S      Val( 2S)     1.90238
     3    O    1  S      Ryd( 3S)     0.00647
     4    O    1  S      Ryd( 4S)     0.00028
     5    O    1  S      Ryd( 5S)     0.00014
     6    O    1  px     Val( 2p)     1.67287
     7    O    1  px     Ryd( 3p)     0.01296
     8    O    1  px     Ryd( 4p)     0.00048
     9    O    1  px     Ryd( 5p)     0.00011
    10    O    1  py     Val( 2p)     1.77460
    11    O    1  py     Ryd( 3p)     0.01266
    12    O    1  py     Ryd( 4p)     0.00056
    13    O    1  py     Ryd( 5p)     0.00019
    14    O    1  pz     Val( 2p)     1.95371
    15    O    1  pz     Ryd( 3p)     0.02169
    16    O    1  pz     Ryd( 4p)     0.00055
    17    O    1  pz     Ryd( 5p)     0.00000
    18    O    1  dxy    Ryd( 3d)     0.00818
    19    O    1  dxy    Ryd( 4d)     0.00045
    20    O    1  dxy    Ryd( 5d)     0.00009
    21    O    1  dxz    Ryd( 3d)     0.00854
    22    O    1  dxz    Ryd( 4d)     0.00047
    23    O    1  dxz    Ryd( 5d)     0.00007
    24    O    1  dyz    Ryd( 3d)     0.00721
    25    O    1  dyz    Ryd( 4d)     0.00052
    26    O    1  dyz    Ryd( 5d)     0.00008
    27    O    1  dx2y2  Ryd( 3d)     0.01065
    28    O    1  dx2y2  Ryd( 4d)     0.00036
    29    O    1  dx2y2  Ryd( 5d)     0.00013
    30    O    1  dz2    Ryd( 3d)     0.00805
    31    O    1  dz2    Ryd( 4d)     0.00056
    32    O    1  dz2    Ryd( 5d)     0.00013
    33    O    1  f(0)   Ryd( 4f)     0.00067
    34    O    1  f(0)   Ryd( 5f)     0.00012
    35    O    1  f(C1)  Ryd( 4f)     0.00055
    36    O    1  f(C1)  Ryd( 5f)     0.00009
    37    O    1  f(S1)  Ryd( 4f)     0.00062
    38    O    1  f(S1)  Ryd( 5f)     0.00010
    39    O    1  f(C2)  Ryd( 4f)     0.00049
    40    O    1  f(C2)  Ryd( 5f)     0.00010
    41    O    1  f(S2)  Ryd( 4f)     0.00047
    42    O    1  f(S2)  Ryd( 5f)     0.00008
    43    O    1  f(C3)  Ryd( 4f)     0.00044
    44    O    1  f(C3)  Ryd( 5f)     0.00013
    45    O    1  f(S3)  Ryd( 4f)     0.00046
    46    O    1  f(S3)  Ryd( 5f)     0.00010

    47    H    2  S      Val( 1S)     0.33302
    48    H    2  S      Ryd( 2S)     0.00320
    49    H    2  S      Ryd( 3S)     0.00026
    50    H    2  S      Ryd( 4S)     0.00006
    51    H    2  px     Ryd( 2p)     0.00229
    52    H    2  px     Ryd( 3p)     0.00070
    53    H    2  px     Ryd( 4p)     0.00009
    54    H    2  py     Ryd( 2p)     0.00201
    55    H    2  py     Ryd( 3p)     0.00036
    56    H    2  py     Ryd( 4p)     0.00010
    57    H    2  pz     Ryd( 2p)     0.00471
    58    H    2  pz     Ryd( 3p)     0.00024
    59    H    2  pz     Ryd( 4p)     0.00006
    60    H    2  dxy    Ryd( 4d)     0.00005
    61    H    2  dxy    Ryd( 3d)     0.00006
    62    H    2  dxz    Ryd( 3d)     0.00007
    63    H    2  dxz    Ryd( 4d)     0.00007
    64    H    2  dyz    Ryd( 3d)     0.00012
    65    H    2  dyz    Ryd( 4d)     0.00005
    66    H    2  dx2y2  Ryd( 3d)     0.00009
    67    H    2  dx2y2  Ryd( 4d)     0.00005
    68    H    2  dz2    Ryd( 3d)     0.00012
    69    H    2  dz2    Ryd( 4d)     0.00007

    70   Br    3  S      Cor( 3S)     1.99998
    71   Br    3  S      Val( 4S)     1.97792
    72   Br    3  S      Ryd( 5S)     0.00197
    73   Br    3  S      Ryd( 6S)     0.00042
    74   Br    3  S      Ryd( 7S)     0.00009
    75   Br    3  S      Ryd( 8S)     0.00000
    76   Br    3  px     Cor( 3p)     2.00002
    77   Br    3  px     Val( 4p)     1.95175
    78   Br    3  px     Ryd( 5p)     0.01146
    79   Br    3  px     Ryd( 6p)     0.00079
    80   Br    3  px     Ryd( 7p)     0.00007
    81   Br    3  py     Cor( 3p)     1.99998
    82   Br    3  py     Val( 4p)     1.90298
    83   Br    3  py     Ryd( 5p)     0.01026
    84   Br    3  py     Ryd( 6p)     0.00075
    85   Br    3  py     Ryd( 7p)     0.00020
    86   Br    3  pz     Cor( 3p)     2.00002
    87   Br    3  pz     Val( 4p)     1.95429
    88   Br    3  pz     Ryd( 5p)     0.01149
    89   Br    3  pz     Ryd( 6p)     0.00080
    90   Br    3  pz     Ryd( 7p)     0.00006
    91   Br    3  dxy    Cor( 3d)     1.99768
    92   Br    3  dxy    Ryd( 4d)     0.01864
    93   Br    3  dxy    Ryd( 5d)     0.00141
    94   Br    3  dxy    Ryd( 6d)     0.00019
    95   Br    3  dxz    Cor( 3d)     1.99771
    96   Br    3  dxz    Ryd( 4d)     0.01839
    97   Br    3  dxz    Ryd( 5d)     0.00172
    98   Br    3  dxz    Ryd( 6d)     0.00020
    99   Br    3  dyz    Cor( 3d)     1.99769
   100   Br    3  dyz    Ryd( 4d)     0.01853
   101   Br    3  dyz    Ryd( 5d)     0.00140
   102   Br    3  dyz    Ryd( 6d)     0.00019
   103   Br    3  dx2y2  Cor( 3d)     1.99767
   104   Br    3  dx2y2  Ryd( 4d)     0.01894
   105   Br    3  dx2y2  Ryd( 5d)     0.00166
   106   Br    3  dx2y2  Ryd( 6d)     0.00019
   107   Br    3  dz2    Cor( 3d)     1.99770
   108   Br    3  dz2    Ryd( 4d)     0.01862
   109   Br    3  dz2    Ryd( 5d)     0.00172
   110   Br    3  dz2    Ryd( 6d)     0.00019
   111   Br    3  f(0)   Ryd( 4f)     0.00171
   112   Br    3  f(0)   Ryd( 5f)     0.00025
   113   Br    3  f(C1)  Ryd( 4f)     0.00173
   114   Br    3  f(C1)  Ryd( 5f)     0.00024
   115   Br    3  f(S1)  Ryd( 4f)     0.00179
   116   Br    3  f(S1)  Ryd( 5f)     0.00028
   117   Br    3  f(C2)  Ryd( 4f)     0.00170
   118   Br    3  f(C2)  Ryd( 5f)     0.00025
   119   Br    3  f(S2)  Ryd( 4f)     0.00173
   120   Br    3  f(S2)  Ryd( 5f)     0.00025
   121   Br    3  f(C3)  Ryd( 4f)     0.00171
   122   Br    3  f(C3)  Ryd( 5f)     0.00027
   123   Br    3  f(S3)  Ryd( 4f)     0.00177
   124   Br    3  f(S3)  Ryd( 5f)     0.00029

   125    H    4  S      Val( 1S)     0.29147
   126    H    4  S      Ryd( 2S)     0.00491
   127    H    4  S      Ryd( 3S)     0.00056
   128    H    4  S      Ryd( 4S)     0.00022
   129    H    4  px     Ryd( 2p)     0.00363
   130    H    4  px     Ryd( 3p)     0.00045
   131    H    4  px     Ryd( 4p)     0.00008
   132    H    4  py     Ryd( 2p)     0.00478
   133    H    4  py     Ryd( 3p)     0.00096
   134    H    4  py     Ryd( 4p)     0.00023
   135    H    4  pz     Ryd( 2p)     0.00384
   136    H    4  pz     Ryd( 3p)     0.00041
   137    H    4  pz     Ryd( 4p)     0.00007
   138    H    4  dxy    Ryd( 3d)     0.00024
   139    H    4  dxy    Ryd( 4d)     0.00009
   140    H    4  dxz    Ryd( 3d)     0.00018
   141    H    4  dxz    Ryd( 4d)     0.00004
   142    H    4  dyz    Ryd( 3d)     0.00026
   143    H    4  dyz    Ryd( 4d)     0.00010
   144    H    4  dx2y2  Ryd( 3d)     0.00016
   145    H    4  dx2y2  Ryd( 4d)     0.00009
   146    H    4  dz2    Ryd( 3d)     0.00019
   147    H    4  dz2    Ryd( 4d)     0.00005

 [ 10 electrons found in the effective core potential]

 WARNING:  5 low occupancy (<1.9990e) core orbitals found on Br    3


 Summary of Natural Population Analysis:                  
                                                          
                                       Natural Population 
                Natural  -----------------------------------------------
    Atom  No    Charge         Core      Valence    Rydberg      Total
 -----------------------------------------------------------------------
      O    1   -1.40943      1.99992     7.30356    0.10595     9.40943
      H    2    0.65215      0.00000     0.33302    0.01483     0.34785
     Br    3   -0.92970     27.98844     7.78694    0.15432    35.92970
      H    4    0.68698      0.00000     0.29147    0.02155     0.31302
 =======================================================================
   * Total *   -1.00000     29.98836    15.71499    0.29666    46.00000

                                 Natural Population      
 --------------------------------------------------------
   Effective Core            10.00000
   Core                      19.98836 ( 99.9418% of  20)
   Valence                   15.71499 ( 98.2187% of  16)
   Natural Minimal Basis     45.70335 ( 99.3551% of  46)
   Natural Rydberg Basis      0.29666 (  0.6449% of  46)
 --------------------------------------------------------

    Atom  No          Natural Electron Configuration
 ----------------------------------------------------------------------------
      O    1      [core]2S( 1.90)2p( 5.40)3S( 0.01)3p( 0.05)3d( 0.04)
      H    2            1S( 0.33)2p( 0.01)
     Br    3      [core]4S( 1.98)4p( 5.81)4d( 0.09)5p( 0.03)4f( 0.01)5d( 0.01)
      H    4            1S( 0.29)2p( 0.01)


 NATURAL BOND ORBITAL ANALYSIS:
 Warning:  a bond orbital has occupanc of -0.00010

                       Occupancies       Lewis Structure    Low   High
           Occ.    -------------------  -----------------   occ   occ
  Cycle   Thresh.   Lewis   Non-Lewis     CR  BD  3C  LP    (L)   (NL)   Dev
 =============================================================================
   1(1)    1.90    45.62682   0.37318     10   2   0   6     0      0    0.09
 -----------------------------------------------------------------------------

 Structure accepted: No low occupancy Lewis orbitals

 WARNING:  5 low occupancy (<1.9990e) core orbitals found on Br    3

 --------------------------------------------------------
   Effective Core           10.00000
   Core                     19.98835 ( 99.942% of  20)
   Valence Lewis            15.63846 ( 97.740% of  16)
  ==================       ============================
   Total Lewis              45.62682 ( 99.189% of  46)
  -----------------------------------------------------
   Valence non-Lewis         0.09874 (  0.215% of  46)
   Rydberg non-Lewis         0.27444 (  0.597% of  46)
  ==================       ============================
   Total non-Lewis           0.37318 (  0.811% of  46)
 --------------------------------------------------------


       (Occupancy)   Bond orbital/ Coefficients/ Hybrids
 ---------------------------------------------------------------------------------
     1. (1.96259) BD ( 1) O   1 - H   2  
                ( 83.82%)   0.9155* O   1 s( 14.63%)p 5.81( 85.01%)d 0.02(  0.35%)
                                                  f 0.00(  0.01%)
                                            0.0001  0.3825  0.0013 -0.0013 -0.0014
                                            0.9216 -0.0217  0.0057 -0.0051 -0.0144
                                           -0.0079 -0.0009 -0.0011  0.0000  0.0000
                                            0.0000  0.0000 -0.0192  0.0047 -0.0020
                                            0.0000  0.0000  0.0000  0.0000  0.0000
                                            0.0000  0.0470 -0.0036  0.0032 -0.0294
                                            0.0009 -0.0001  0.0000  0.0000 -0.0089
                                            0.0007  0.0000 -0.0002  0.0000  0.0000
                                            0.0000  0.0000  0.0031  0.0036  0.0012
                                           -0.0006
                ( 16.18%)   0.4023* H   2 s( 99.61%)p 0.00(  0.39%)d 0.00(  0.00%)
                                            0.9980 -0.0130  0.0002 -0.0004  0.0421
                                            0.0425 -0.0041 -0.0162 -0.0021 -0.0003
                                            0.0000  0.0000  0.0000  0.0003  0.0034
                                            0.0000  0.0000  0.0000  0.0000  0.0011
                                            0.0023 -0.0039 -0.0031
     2. (1.95626) BD ( 1) O   1 - H   4  
                ( 88.68%)   0.9417* O   1 s( 13.24%)p 6.53( 86.43%)d 0.02(  0.32%)
                                                  f 0.00(  0.01%)
                                           -0.0001 -0.3638  0.0024  0.0018 -0.0000
                                            0.1639 -0.0116  0.0012 -0.0019  0.9150
                                           -0.0054  0.0043 -0.0032  0.0000  0.0000
                                            0.0000  0.0000  0.0138 -0.0030  0.0010
                                            0.0000  0.0000  0.0000  0.0000  0.0000
                                            0.0000  0.0452 -0.0070  0.0023  0.0295
                                           -0.0036 -0.0004  0.0000  0.0000 -0.0015
                                            0.0002 -0.0097  0.0023  0.0000  0.0000
                                            0.0000  0.0000 -0.0030 -0.0006 -0.0008
                                           -0.0007
                ( 11.32%)   0.3364* H   4 s( 99.73%)p 0.00(  0.26%)d 0.00(  0.01%)
                                           -0.9978  0.0409 -0.0105  0.0008 -0.0321
                                           -0.0035 -0.0050  0.0026 -0.0341 -0.0183
                                            0.0000  0.0000  0.0000 -0.0014  0.0032
                                            0.0000  0.0000  0.0000  0.0000  0.0039
                                            0.0002  0.0081 -0.0009
     3. (1.99992) CR ( 1) O   1           s(100.00%)
                                            1.0000 -0.0003  0.0000  0.0000  0.0000
                                           -0.0000  0.0000 -0.0000  0.0000  0.0001
                                           -0.0000  0.0000 -0.0000  0.0000  0.0000
                                            0.0000  0.0000  0.0000 -0.0000  0.0000
                                            0.0000  0.0000  0.0000  0.0000  0.0000
                                            0.0000  0.0000 -0.0000 -0.0000  0.0000
                                           -0.0000 -0.0000  0.0000  0.0000  0.0000
                                            0.0000 -0.0000  0.0000  0.0000  0.0000
                                            0.0000  0.0000 -0.0000 -0.0000 -0.0000
                                           -0.0000
     4. (1.99998) CR ( 1)Br   3           s(100.00%)p 0.00(  0.00%)
                                            1.0000  0.0000 -0.0000 -0.0000  0.0000
                                            0.0000 -0.0000  0.0001 -0.0000 -0.0000
                                            0.0000 -0.0000  0.0003 -0.0000 -0.0000
                                            0.0000  0.0000  0.0000  0.0000  0.0000
                                            0.0000 -0.0000  0.0000 -0.0000  0.0000
                                            0.0000  0.0000  0.0000  0.0000  0.0000
                                            0.0000  0.0000  0.0000  0.0000 -0.0000
                                            0.0000  0.0000  0.0000 -0.0000  0.0000
                                           -0.0000  0.0000  0.0000 -0.0000 -0.0000
                                           -0.0000 -0.0000  0.0000  0.0000  0.0000
                                            0.0000 -0.0000 -0.0000 -0.0000 -0.0000
     5. (2.00002) CR ( 2)Br   3           s(  0.00%)p 1.00(100.00%)
                                           -0.0000  0.0000 -0.0000 -0.0000  0.0000
                                            0.0000  1.0000 -0.0001 -0.0000 -0.0000
                                            0.0000 -0.0000  0.0001 -0.0000 -0.0000
                                            0.0000  0.0000  0.0000  0.0000  0.0000
                                            0.0000 -0.0000 -0.0000 -0.0000  0.0000
                                            0.0000  0.0000  0.0000  0.0000  0.0000
                                            0.0000  0.0000  0.0000  0.0000 -0.0000
                                            0.0000 -0.0000  0.0000 -0.0000  0.0000
                                            0.0000  0.0000  0.0000  0.0000  0.0000
                                           -0.0000 -0.0000  0.0000  0.0000  0.0000
                                            0.0000  0.0000  0.0000 -0.0000 -0.0000
     6. (1.99998) CR ( 3)Br   3           s(  0.00%)p 1.00(100.00%)
                                           -0.0000  0.0001 -0.0000 -0.0000  0.0000
                                            0.0000 -0.0000  0.0001 -0.0000 -0.0000
                                           -0.0000  1.0000  0.0002 -0.0000 -0.0000
                                            0.0000  0.0000  0.0000  0.0000  0.0000
                                            0.0000 -0.0000  0.0000 -0.0000 -0.0000
                                            0.0000  0.0000  0.0000  0.0000  0.0000
                                            0.0000  0.0000  0.0000  0.0000 -0.0000
                                            0.0000  0.0000  0.0000 -0.0000  0.0000
                                           -0.0000  0.0000  0.0000 -0.0000 -0.0000
                                           -0.0000 -0.0000  0.0000  0.0000  0.0000
                                            0.0000 -0.0000 -0.0000 -0.0000 -0.0000
     7. (2.00002) CR ( 4)Br   3           s(  0.00%)p 1.00(100.00%)
                                            0.0000  0.0000  0.0000  0.0000  0.0000
                                            0.0000  0.0000  0.0000  0.0000  0.0000
                                            0.0000  0.0000  0.0000  0.0000  0.0000
                                            0.0000  1.0000 -0.0001 -0.0000 -0.0000
                                            0.0000  0.0000  0.0000  0.0000  0.0000
                                            0.0000 -0.0000  0.0000 -0.0000  0.0000
                                           -0.0000  0.0000  0.0000  0.0000  0.0000
                                            0.0000  0.0000  0.0000  0.0000  0.0000
                                            0.0000  0.0000  0.0000  0.0000  0.0000
                                            0.0000  0.0000  0.0000  0.0000 -0.0000
                                           -0.0000  0.0000  0.0000  0.0000  0.0000
     8. (1.99768) CR ( 5)Br   3           s(  0.00%)p 0.00(  0.00%)d 1.00(100.00%)
                                           -0.0000  0.0000 -0.0000 -0.0000  0.0000
                                            0.0000 -0.0000  0.0000  0.0000 -0.0000
                                           -0.0000 -0.0000  0.0001 -0.0000 -0.0000
                                            0.0000  0.0000  0.0000  0.0000  0.0000
                                            0.0000  1.0000  0.0000 -0.0000 -0.0000
                                            0.0000  0.0000  0.0000  0.0000  0.0000
                                            0.0000  0.0000  0.0000  0.0000 -0.0000
                                            0.0000  0.0000  0.0000 -0.0000  0.0000
                                           -0.0000  0.0000  0.0000 -0.0000 -0.0000
                                           -0.0000 -0.0000  0.0000  0.0000  0.0000
                                            0.0000 -0.0000 -0.0000 -0.0000 -0.0000
     9. (1.99771) CR ( 6)Br   3           s(  0.00%)p 0.00(  0.00%)d 1.00(100.00%)
                                            0.0000  0.0000  0.0000  0.0000  0.0000
                                            0.0000  0.0000  0.0000  0.0000  0.0000
                                            0.0000  0.0000  0.0000  0.0000  0.0000
                                            0.0000  0.0000  0.0000  0.0000  0.0000
                                           -0.0000  0.0000  0.0000  0.0000  0.0000
                                            1.0000  0.0000 -0.0000  0.0000 -0.0000
                                            0.0000 -0.0000 -0.0000  0.0000  0.0000
                                            0.0000  0.0000  0.0000  0.0000  0.0000
                                            0.0000 -0.0000 -0.0000  0.0000  0.0000
                                            0.0000  0.0000 -0.0000 -0.0000  0.0000
                                            0.0000  0.0000  0.0000  0.0000  0.0000
    10. (1.99769) CR ( 7)Br   3           s(  0.00%)p 0.00(  0.00%)d 1.00(100.00%)
                                            0.0000  0.0000  0.0000  0.0000  0.0000
                                            0.0000  0.0000  0.0000  0.0000  0.0000
                                            0.0000  0.0000  0.0000  0.0000  0.0000
                                            0.0000  0.0000  0.0000  0.0000  0.0000
                                           -0.0000  0.0000  0.0000  0.0000  0.0000
                                           -0.0000  0.0000 -0.0000  0.0000  1.0000
                                            0.0000 -0.0000 -0.0000  0.0000  0.0000
                                            0.0000  0.0000  0.0000  0.0000  0.0000
                                            0.0000 -0.0000 -0.0000  0.0000  0.0000
                                            0.0000  0.0000 -0.0000 -0.0000  0.0000
                                            0.0000  0.0000  0.0000  0.0000  0.0000
    11. (1.99767) CR ( 8)Br   3           s(  0.00%)p 0.00(  0.00%)d 1.00(100.00%)
                                            0.0000 -0.0000  0.0000  0.0000 -0.0000
                                           -0.0000  0.0000 -0.0000  0.0000  0.0000
                                           -0.0000  0.0000 -0.0001  0.0000  0.0000
                                           -0.0000  0.0000  0.0000  0.0000  0.0000
                                            0.0000  0.0000 -0.0000  0.0000 -0.0000
                                            0.0000  0.0000  0.0000  0.0000  0.0000
                                            0.0000  0.0000  0.0000  1.0000  0.0000
                                           -0.0000 -0.0000 -0.0000  0.0000 -0.0000
                                            0.0000  0.0000  0.0000  0.0000  0.0000
                                            0.0000  0.0000  0.0000  0.0000  0.0000
                                            0.0000  0.0000  0.0000  0.0000  0.0000
    12. (1.99769) CR ( 9)Br   3           s(  0.00%)p 0.00(  0.00%)d 1.00(100.00%)
                                            0.0000 -0.0000  0.0000  0.0000 -0.0000
                                           -0.0000  0.0000 -0.0000  0.0000  0.0000
                                           -0.0000  0.0000 -0.0001  0.0000  0.0000
                                           -0.0000  0.0000  0.0000  0.0000  0.0000
                                            0.0000  0.0000 -0.0000  0.0000 -0.0000
                                            0.0000  0.0000  0.0000  0.0000  0.0000
                                            0.0000  0.0000  0.0000 -0.0000  0.0000
                                           -0.0000 -0.0000  1.0000  0.0000 -0.0000
                                            0.0000  0.0000  0.0000  0.0000  0.0000
                                            0.0000  0.0000  0.0000  0.0000  0.0000
                                            0.0000  0.0000  0.0000  0.0000  0.0000
    13. (1.97230) LP ( 1) O   1           s( 72.08%)p 0.39( 27.85%)d 0.00(  0.06%)
                                                  f 0.00(  0.00%)
                                            0.0002  0.8490  0.0004  0.0012  0.0005
                                           -0.3455 -0.0085  0.0034  0.0006  0.3988
                                            0.0060 -0.0053  0.0008  0.0000  0.0000
                                            0.0000  0.0000  0.0237 -0.0029 -0.0010
                                            0.0000  0.0000  0.0000  0.0000  0.0000
                                            0.0000 -0.0006 -0.0002 -0.0002  0.0080
                                           -0.0027  0.0024  0.0000  0.0000  0.0017
                                           -0.0011 -0.0015  0.0007  0.0000  0.0000
                                            0.0000  0.0000  0.0022 -0.0009  0.0017
                                            0.0001
    14. (1.95838) LP ( 2) O   1           s(  0.00%)p 1.00( 99.81%)d 0.00(  0.18%)
                                                  f 0.00(  0.01%)
                                            0.0000  0.0000  0.0000  0.0000  0.0000
                                            0.0000  0.0000  0.0000  0.0000  0.0000
                                            0.0000  0.0000  0.0000  0.9988  0.0198
                                           -0.0049  0.0062  0.0000  0.0000  0.0000
                                            0.0355 -0.0030 -0.0010 -0.0232  0.0025
                                            0.0022  0.0000  0.0000  0.0000  0.0000
                                            0.0000  0.0000 -0.0099  0.0033  0.0000
                                            0.0000  0.0000  0.0000  0.0007  0.0013
                                            0.0020 -0.0007  0.0000  0.0000  0.0000
                                            0.0000
    15. (1.98025) LP ( 1)Br   3           s( 97.20%)p 0.03(  2.80%)d 0.00(  0.00%)
                                                  f 0.00(  0.00%)
                                            0.0001  0.9859  0.0001  0.0004 -0.0003
                                           -0.0000 -0.0000 -0.0318  0.0004 -0.0001
                                            0.0001 -0.0000 -0.1642  0.0011 -0.0007
                                            0.0003  0.0000  0.0000  0.0000  0.0000
                                            0.0000 -0.0000  0.0005 -0.0004  0.0000
                                            0.0000  0.0000  0.0000  0.0000  0.0000
                                            0.0000  0.0000  0.0000  0.0000 -0.0011
                                            0.0006 -0.0000  0.0000 -0.0008  0.0005
                                            0.0000  0.0000  0.0000 -0.0001 -0.0001
                                           -0.0006 -0.0003  0.0000  0.0000  0.0000
                                            0.0000 -0.0004 -0.0003 -0.0006 -0.0003
    16. (1.95444) LP ( 2)Br   3           s(  0.00%)p 1.00( 99.99%)d 0.00(  0.01%)
                                                  f 0.00(  0.00%)
                                            0.0000  0.0000  0.0000  0.0000  0.0000
                                            0.0000  0.0000  0.0000  0.0000  0.0000
                                            0.0000  0.0000  0.0000  0.0000  0.0000
                                            0.0000  0.0001  1.0000  0.0018  0.0015
                                           -0.0005  0.0000  0.0000  0.0000  0.0000
                                           -0.0000  0.0025 -0.0010  0.0007 -0.0000
                                            0.0063 -0.0010 -0.0023  0.0000  0.0000
                                            0.0000  0.0000  0.0000  0.0000  0.0000
                                            0.0000 -0.0023 -0.0013  0.0000  0.0000
                                            0.0000  0.0000 -0.0023 -0.0012  0.0013
                                            0.0008  0.0000  0.0000  0.0000  0.0000
    17. (1.95419) LP ( 3)Br   3           s(  0.00%)p 1.00( 99.99%)d 0.00(  0.01%)
                                                  f 0.00(  0.00%)
                                           -0.0000  0.0027  0.0000 -0.0014  0.0017
                                           -0.0001 -0.0001 -0.9786 -0.0030 -0.0018
                                            0.0011  0.0000  0.2055  0.0001  0.0000
                                            0.0005 -0.0000 -0.0000 -0.0000 -0.0000
                                           -0.0000  0.0000 -0.0065  0.0008  0.0021
                                           -0.0000 -0.0000 -0.0000 -0.0000 -0.0000
                                           -0.0000 -0.0000 -0.0000  0.0000 -0.0045
                                            0.0014 -0.0004 -0.0000  0.0005 -0.0003
                                            0.0006 -0.0000 -0.0000  0.0010  0.0006
                                           -0.0002 -0.0001 -0.0000 -0.0000 -0.0000
                                           -0.0000  0.0024  0.0011 -0.0022 -0.0013
    18. (1.90006) LP ( 4)Br   3           s(  2.79%)p34.76( 97.12%)d 0.03(  0.07%)
                                                  f 0.00(  0.01%)
                                           -0.0003  0.1671 -0.0009 -0.0022  0.0017
                                            0.0003 -0.0001  0.2030 -0.0006 -0.0007
                                            0.0001 -0.0002  0.9644 -0.0048 -0.0034
                                            0.0016  0.0000  0.0000  0.0000  0.0000
                                            0.0000 -0.0001  0.0096 -0.0022  0.0001
                                            0.0000  0.0000  0.0000  0.0000  0.0000
                                            0.0000  0.0000  0.0000  0.0002 -0.0198
                                            0.0050  0.0008  0.0001 -0.0133  0.0035
                                           -0.0004  0.0000  0.0000 -0.0012 -0.0008
                                           -0.0057 -0.0037  0.0000  0.0000  0.0000
                                            0.0000 -0.0040 -0.0022 -0.0058 -0.0034
    19. (0.02115) RY*( 1) O   1           s(  0.00%)p 1.00( 98.65%)d 0.01(  1.32%)
                                                  f 0.00(  0.03%)
                                            0.0000  0.0000  0.0000  0.0000  0.0000
                                            0.0000  0.0000  0.0000  0.0000  0.0000
                                            0.0000  0.0000  0.0000 -0.0246  0.9927
                                            0.0197 -0.0073  0.0000  0.0000  0.0000
                                            0.0920 -0.0145  0.0039 -0.0653  0.0150
                                           -0.0041  0.0000  0.0000  0.0000  0.0000
                                            0.0000  0.0000 -0.0132  0.0120  0.0000
                                            0.0000  0.0000  0.0000 -0.0029  0.0024
                                           -0.0004 -0.0012  0.0000  0.0000  0.0000
                                            0.0000
    20. (0.01672) RY*( 2) O   1           s( 13.65%)p 6.14( 83.77%)d 0.18(  2.48%)
                                                  f 0.01(  0.09%)
                                           -0.0000 -0.0101  0.3689  0.0168 -0.0044
                                            0.0001 -0.5682 -0.0043  0.0102 -0.0117
                                            0.7172  0.0025 -0.0137  0.0000  0.0000
                                            0.0000  0.0000  0.1523 -0.0211  0.0049
                                            0.0000  0.0000  0.0000  0.0000  0.0000
                                            0.0000  0.0063 -0.0046  0.0067  0.0257
                                           -0.0178  0.0103  0.0000  0.0000  0.0007
                                           -0.0037 -0.0013  0.0052  0.0000  0.0000
                                            0.0000  0.0000  0.0242 -0.0103  0.0120
                                           -0.0038
    21. (0.00986) RY*( 3) O   1           s(  0.78%)p99.99( 92.82%)d 7.85(  6.16%)
                                                  f 0.29(  0.23%)
                                           -0.0000  0.0062  0.0867  0.0165 -0.0043
                                            0.0338  0.7817  0.0112 -0.0300  0.0194
                                            0.5608  0.0087  0.0023  0.0000  0.0000
                                            0.0000  0.0000  0.0804  0.0075 -0.0052
                                            0.0000  0.0000  0.0000  0.0000  0.0000
                                            0.0000 -0.2309 -0.0352  0.0215 -0.0061
                                           -0.0016 -0.0017  0.0000  0.0000  0.0204
                                           -0.0023  0.0097 -0.0034  0.0000  0.0000
                                            0.0000  0.0000 -0.0280  0.0087  0.0261
                                           -0.0147
    22. (0.00661) RY*( 4) O   1           s( 33.35%)p 0.04(  1.50%)d 1.93( 64.53%)
                                                  f 0.02(  0.62%)
                                            0.0000  0.0123  0.5769 -0.0132  0.0185
                                           -0.0058  0.0619 -0.0149 -0.0013  0.0088
                                           -0.0999  0.0040 -0.0287 -0.0000 -0.0000
                                           -0.0000 -0.0000 -0.7293 -0.0114 -0.0075
                                           -0.0000 -0.0000 -0.0000 -0.0000 -0.0000
                                           -0.0000 -0.0773  0.0020  0.0080  0.3253
                                            0.0355 -0.0048 -0.0000 -0.0000 -0.0034
                                            0.0112  0.0096 -0.0062 -0.0000 -0.0000
                                           -0.0000 -0.0000 -0.0598  0.0257 -0.0399
                                            0.0113
    23. (0.00631) RY*( 5) O   1           s(  0.00%)p 0.00(  0.01%)d 1.00( 98.64%)
                                                  f 0.01(  1.36%)
                                            0.0000  0.0000  0.0000  0.0000  0.0000
                                            0.0000  0.0000  0.0000  0.0000  0.0000
                                            0.0000  0.0000  0.0000 -0.0014  0.0002
                                            0.0072 -0.0019  0.0000  0.0000  0.0000
                                            0.5757  0.0334 -0.0060  0.8074  0.0431
                                           -0.0010  0.0000  0.0000  0.0000  0.0000
                                            0.0000  0.0000  0.0147 -0.0128  0.0000
                                            0.0000  0.0000  0.0000  0.0990 -0.0579
                                           -0.0023  0.0059  0.0000  0.0000  0.0000
                                            0.0000
    24. (0.00594) RY*( 6) O   1           s(  0.00%)p 1.00(  1.48%)d65.82( 97.49%)
                                                  f 0.69(  1.02%)
                                            0.0000  0.0000  0.0000  0.0000  0.0000
                                            0.0000  0.0000  0.0000  0.0000  0.0000
                                            0.0000  0.0000  0.0000 -0.0402 -0.1116
                                           -0.0235  0.0134  0.0000  0.0000  0.0000
                                            0.7992  0.0712 -0.0236 -0.5728 -0.0495
                                            0.0109  0.0000  0.0000  0.0000  0.0000
                                            0.0000  0.0000 -0.0754  0.0412  0.0000
                                            0.0000  0.0000  0.0000  0.0290 -0.0131
                                           -0.0391  0.0176  0.0000  0.0000  0.0000
                                            0.0000
    25. (0.00587) RY*( 7) O   1           s(  5.32%)p 0.82(  4.38%)d16.80( 89.44%)
                                                  f 0.16(  0.85%)
                                           -0.0000  0.0090  0.2302 -0.0127  0.0042
                                            0.0198  0.1144  0.0160 -0.0070 -0.0433
                                           -0.1667 -0.0196 -0.0037  0.0000  0.0000
                                            0.0000  0.0000  0.5225  0.0232 -0.0042
                                            0.0000  0.0000  0.0000  0.0000  0.0000
                                            0.0000  0.2279  0.0172  0.0059  0.7497
                                            0.0783 -0.0204  0.0000  0.0000  0.0491
                                           -0.0224 -0.0555  0.0319  0.0000  0.0000
                                            0.0000  0.0000  0.0316 -0.0177  0.0145
                                           -0.0024
    26. (0.00372) RY*( 8) O   1           s( 28.67%)p 0.47( 13.42%)d 1.96( 56.31%)
                                                  f 0.06(  1.60%)
                                            0.0000 -0.0063  0.5342 -0.0316 -0.0163
                                            0.0238 -0.0184  0.0088 -0.0104  0.0216
                                           -0.3560 -0.0005 -0.0767  0.0000  0.0000
                                            0.0000  0.0000  0.3760  0.0322 -0.0023
                                            0.0000  0.0000  0.0000  0.0000  0.0000
                                            0.0000 -0.5544 -0.0472  0.0237 -0.3278
                                           -0.0530  0.0166  0.0000  0.0000  0.0160
                                           -0.0059  0.0415 -0.0308  0.0000  0.0000
                                            0.0000  0.0000  0.0019 -0.0164  0.0959
                                           -0.0599
    27. (0.00311) RY*( 9) O   1           s( 17.40%)p 0.33(  5.72%)d 4.34( 75.57%)
                                                  f 0.07(  1.30%)
                                            0.0000 -0.0055  0.4171  0.0023 -0.0054
                                           -0.0435  0.2132 -0.0726  0.0014 -0.0159
                                           -0.0573 -0.0307 -0.0123  0.0000  0.0000
                                            0.0000  0.0000  0.0761  0.0025 -0.0019
                                            0.0000  0.0000  0.0000  0.0000  0.0000
                                            0.0000  0.7344  0.0869  0.0222 -0.4398
                                           -0.0951  0.0117  0.0000  0.0000 -0.0375
                                            0.0436 -0.0011  0.0005  0.0000  0.0000
                                            0.0000  0.0000  0.0585 -0.0598 -0.0459
                                            0.0244
    28. (0.00060) RY*(10) O   1           s( 22.09%)p 2.95( 65.21%)d 0.51( 11.32%)
                                                  f 0.06(  1.37%)
                                            0.0000 -0.0068 -0.0020  0.4698 -0.0122
                                           -0.0006 -0.0111  0.2953 -0.0569  0.0022
                                           -0.0025 -0.7493  0.0052 -0.0000 -0.0000
                                           -0.0000 -0.0000 -0.0178  0.2785 -0.1090
                                           -0.0000 -0.0000 -0.0000 -0.0000 -0.0000
                                           -0.0000 -0.0106  0.0663  0.0528  0.0080
                                           -0.0722  0.1043 -0.0000 -0.0000  0.0103
                                           -0.0049  0.1063 -0.0095 -0.0000 -0.0000
                                           -0.0000 -0.0000 -0.0273  0.0265 -0.0112
                                            0.0247
    29. (0.00057) RY*(11) O   1           s(  0.00%)p 1.00( 48.20%)d 0.99( 47.90%)
                                                  f 0.08(  3.91%)
                                            0.0000  0.0000  0.0000  0.0000  0.0000
                                            0.0000  0.0000  0.0000  0.0000  0.0000
                                            0.0000  0.0000  0.0000 -0.0021 -0.0368
                                            0.6929  0.0214  0.0000  0.0000  0.0000
                                            0.0386 -0.3406  0.0372 -0.0383  0.5969
                                           -0.0489  0.0000  0.0000  0.0000  0.0000
                                            0.0000  0.0000 -0.1595  0.0328  0.0000
                                            0.0000  0.0000  0.0000 -0.0753  0.0060
                                           -0.0824 -0.0080  0.0000  0.0000  0.0000
                                            0.0000
    30. (0.00052) RY*(12) O   1           s(  1.79%)p 2.96(  5.30%)d40.98( 73.34%)
                                                  f10.93( 19.57%)
                                           -0.0000  0.0008 -0.0500  0.1141  0.0488
                                            0.0044  0.0095 -0.1577 -0.0181 -0.0070
                                           -0.0128  0.0012 -0.1658 -0.0000 -0.0000
                                           -0.0000 -0.0000 -0.0453 -0.2805 -0.0625
                                           -0.0000 -0.0000 -0.0000 -0.0000 -0.0000
                                           -0.0000  0.0030 -0.1883  0.0796  0.1195
                                           -0.7569  0.1408 -0.0000 -0.0000  0.1525
                                           -0.0141  0.1105  0.0215 -0.0000 -0.0000
                                           -0.0000 -0.0000  0.3178  0.0224  0.2403
                                            0.0162
    31. (0.00047) RY*(13) O   1           s(  0.00%)p 1.00( 19.55%)d 0.54( 10.57%)
                                                  f 3.58( 69.88%)
                                            0.0000  0.0000  0.0000  0.0000  0.0000
                                            0.0000  0.0000  0.0000  0.0000  0.0000
                                            0.0000  0.0000  0.0000  0.0008 -0.0019
                                            0.4329  0.0901  0.0000  0.0000  0.0000
                                            0.0034  0.1612  0.0126 -0.0158 -0.2797
                                           -0.0321  0.0000  0.0000  0.0000  0.0000
                                            0.0000  0.0000  0.0201  0.0135  0.0000
                                            0.0000  0.0000  0.0000  0.1639  0.0015
                                            0.8187  0.0344  0.0000  0.0000  0.0000
                                            0.0000
    32. (0.00045) RY*(14) O   1           s(  0.32%)p 2.72(  0.87%)d 5.66(  1.81%)
                                                  f99.99( 97.01%)
                                           -0.0000 -0.0001  0.0139  0.0522  0.0164
                                            0.0012  0.0014  0.0765  0.0052 -0.0016
                                           -0.0002 -0.0447  0.0283 -0.0000 -0.0000
                                           -0.0000 -0.0000 -0.0548  0.0389 -0.0410
                                           -0.0000 -0.0000 -0.0000 -0.0000 -0.0000
                                           -0.0000 -0.0335  0.0452 -0.0267 -0.0661
                                            0.0557 -0.0225 -0.0000 -0.0000  0.4374
                                            0.0343 -0.8274 -0.0705 -0.0000 -0.0000
                                           -0.0000 -0.0000  0.2898 -0.0001  0.0633
                                            0.0022
    33. (0.00045) RY*(15) O   1           s(  0.00%)p 1.00(  0.02%)d99.99(  6.85%)
                                                  f99.99( 93.13%)
                                            0.0000  0.0000  0.0000  0.0000  0.0000
                                            0.0000  0.0000  0.0000  0.0000  0.0000
                                            0.0000  0.0000  0.0000  0.0041  0.0001
                                           -0.0091  0.0094  0.0000  0.0000  0.0000
                                            0.0096 -0.0998 -0.0121 -0.0914  0.2172
                                           -0.0524  0.0000  0.0000  0.0000  0.0000
                                            0.0000  0.0000  0.8013  0.0490  0.0000
                                            0.0000  0.0000  0.0000  0.5336  0.0325
                                           -0.0335  0.0019  0.0000  0.0000  0.0000
                                            0.0000
    34. (0.00044) RY*(16) O   1           s(  1.20%)p 8.56( 10.25%)d 7.17(  8.59%)
                                                  f66.76( 79.96%)
                                           -0.0000  0.0014  0.0242  0.1053 -0.0174
                                            0.0111  0.0131 -0.2072  0.0909  0.0048
                                           -0.0126 -0.0311  0.2234 -0.0000 -0.0000
                                           -0.0000 -0.0000  0.0508 -0.0456  0.0500
                                           -0.0000 -0.0000 -0.0000 -0.0000 -0.0000
[...]
   126. (0.00346) RY*( 3) H   4           s(  0.21%)p99.99( 98.26%)d 7.34(  1.53%)
                                            0.0291 -0.0265  0.0205 -0.0106 -0.9758
                                            0.0283  0.0156  0.1684  0.0298  0.0118
                                           -0.0000 -0.0000 -0.0000  0.1138 -0.0298
                                           -0.0000 -0.0000 -0.0000 -0.0000  0.0029
                                           -0.0153  0.0317 -0.0139
   127. (0.00246) RY*( 4) H   4           s( 41.37%)p 1.41( 58.35%)d 0.01(  0.28%)
                                            0.0372  0.5901 -0.1908 -0.1665  0.0879
                                           -0.0054  0.0220  0.6701 -0.3552  0.0109
                                            0.0000  0.0000  0.0000 -0.0045  0.0283
                                            0.0000  0.0000  0.0000  0.0000  0.0229
                                           -0.0295  0.0193 -0.0129
   128. (0.00130) RY*( 5) H   4           s( 42.62%)p 1.28( 54.68%)d 0.06(  2.70%)
                                           -0.0165  0.2798  0.5794 -0.1091  0.0658
                                            0.2626 -0.0413  0.2331  0.6386 -0.0981
                                            0.0000  0.0000  0.0000 -0.0430 -0.0377
                                            0.0000  0.0000  0.0000  0.0000  0.0211
                                            0.1259  0.0552  0.0664
   129. (0.00044) RY*( 6) H   4           s(  6.05%)p14.74( 89.20%)d 0.79(  4.75%)
                                            0.0012 -0.0684  0.0412  0.2327  0.0018
                                            0.8892 -0.0242 -0.0236 -0.2862  0.1353
                                            0.0000  0.0000  0.0000 -0.0377  0.1925
                                            0.0000  0.0000  0.0000  0.0000  0.0205
                                           -0.0069 -0.0901 -0.0212
   130. (0.00038) RY*( 7) H   4           s(  0.00%)p 1.00( 88.25%)d 0.13( 11.75%)
                                            0.0000  0.0000  0.0000  0.0000  0.0000
                                            0.0000  0.0000  0.0000  0.0000  0.0000
                                           -0.1117  0.9261  0.1115  0.0000  0.0000
                                           -0.0010  0.0692  0.2667  0.2038  0.0000
                                            0.0000  0.0000  0.0000
   131. (0.00025) RY*( 8) H   4           s(  0.00%)p 1.00( 16.51%)d 5.06( 83.49%)
                                            0.0000  0.0000  0.0000  0.0000  0.0000
                                            0.0000  0.0000  0.0000  0.0000  0.0000
                                            0.1079 -0.2795  0.2745  0.0000  0.0000
                                           -0.0203  0.0328  0.9125 -0.0266  0.0000
                                            0.0000  0.0000  0.0000
   132. (0.00024) RY*( 9) H   4           s(  8.44%)p 3.11( 26.22%)d 7.74( 65.34%)
                                           -0.0108  0.0056  0.2560 -0.1369 -0.0266
                                           -0.1075 -0.0749  0.0079 -0.0467  0.4920
                                           -0.0000 -0.0000 -0.0000 -0.2875  0.1177
                                           -0.0000 -0.0000 -0.0000 -0.0000 -0.6455
                                           -0.2898 -0.0985 -0.2157
   133. (0.00022) RY*(10) H   4           s(  2.18%)p 7.94( 17.35%)d36.83( 80.47%)
                                           -0.0120  0.0087  0.1346 -0.0593  0.1122
                                           -0.0043  0.3031 -0.0110  0.0192  0.2617
                                            0.0000  0.0000  0.0000  0.8615  0.1294
                                            0.0000  0.0000  0.0000  0.0000 -0.0380
                                           -0.1234  0.0690 -0.1562
   134. (0.00018) RY*(11) H   4           s(  0.00%)p 1.00(  0.12%)d99.99( 99.88%)
                                            0.0000  0.0000  0.0000  0.0000  0.0000
                                            0.0000  0.0000  0.0000  0.0000  0.0000
                                            0.0129  0.0070 -0.0313  0.0000  0.0000
                                            0.9935 -0.1015  0.0353 -0.0143  0.0000
                                            0.0000  0.0000  0.0000
   135. (0.00017) RY*(12) H   4           s( 12.04%)p 0.19(  2.33%)d 7.11( 85.63%)
                                            0.0107  0.0117  0.0468  0.3434  0.0252
                                            0.0051 -0.0276  0.0242 -0.1019 -0.1047
                                            0.0000  0.0000  0.0000 -0.0071 -0.0858
                                            0.0000  0.0000  0.0000  0.0000 -0.2928
                                            0.0665  0.8707 -0.0224
   136. (0.00011) RY*(13) H   4           s( 63.60%)p 0.19( 11.78%)d 0.39( 24.62%)
                                            0.0025  0.0866  0.3480  0.7123  0.0021
                                           -0.2769  0.0051  0.1276 -0.0827  0.1340
                                            0.0000  0.0000  0.0000 -0.0810  0.0237
                                            0.0000  0.0000  0.0000  0.0000  0.3641
                                           -0.2611 -0.1552 -0.1196
   137. (0.00010) RY*(14) H   4           s( 39.89%)p 1.33( 53.24%)d 0.17(  6.87%)
                                            0.0176 -0.1105  0.5554 -0.2792 -0.0214
                                           -0.0954 -0.0586 -0.0734 -0.4859 -0.5272
                                            0.0000  0.0000  0.0000  0.0322  0.2422
                                            0.0000  0.0000  0.0000  0.0000  0.0112
                                           -0.0389 -0.0087 -0.0853
   138. (0.00009) RY*(15) H   4           s(  0.00%)p 1.00( 31.29%)d 2.20( 68.71%)
   139. (0.00008) RY*(16) H   4           s(  1.70%)p19.08( 32.35%)d38.89( 65.95%)
   140. (0.00004) RY*(17) H   4           s(  2.09%)p28.87( 60.34%)d17.98( 37.57%)
   141. (0.00004) RY*(18) H   4           s( 17.22%)p 1.12( 19.23%)d 3.69( 63.55%)
   142. (0.00003) RY*(19) H   4           s(  0.00%)p 1.00( 63.42%)d 0.58( 36.58%)
   143. (0.00003) RY*(20) H   4           s(  5.86%)p 4.81( 28.17%)d11.26( 65.97%)
   144. (0.00003) RY*(21) H   4           s(  0.00%)p 1.00(  1.58%)d62.19( 98.42%)
   145. (0.00003) RY*(22) H   4           s(  2.18%)p 1.52(  3.31%)d43.26( 94.50%)
   146. (0.01993) BD*( 1) O   1 - H   2  
                ( 16.18%)   0.4023* O   1 s( 14.63%)p 5.81( 85.01%)d 0.02(  0.35%)
                                                  f 0.00(  0.01%)
                                           -0.0001 -0.3825 -0.0013  0.0013  0.0014
                                           -0.9216  0.0217 -0.0057  0.0051  0.0144
                                            0.0079  0.0009  0.0011 -0.0000 -0.0000
                                           -0.0000 -0.0000  0.0192 -0.0047  0.0020
                                           -0.0000 -0.0000 -0.0000 -0.0000 -0.0000
                                           -0.0000 -0.0470  0.0036 -0.0032  0.0294
                                           -0.0009  0.0001 -0.0000 -0.0000  0.0089
                                           -0.0007 -0.0000  0.0002 -0.0000 -0.0000
                                           -0.0000 -0.0000 -0.0031 -0.0036 -0.0012
                                            0.0006
                ( 83.82%)  -0.9155* H   2 s( 99.61%)p 0.00(  0.39%)d 0.00(  0.00%)
                                           -0.9980  0.0130 -0.0002  0.0004 -0.0421
                                           -0.0425  0.0041  0.0162  0.0021  0.0003
                                           -0.0000 -0.0000 -0.0000 -0.0003 -0.0034
                                           -0.0000 -0.0000 -0.0000 -0.0000 -0.0011
                                           -0.0023  0.0039  0.0031
   147. (0.07881) BD*( 1) O   1 - H   4  
                ( 11.32%)   0.3364* O   1 s( 13.24%)p 6.53( 86.43%)d 0.02(  0.32%)
                                                  f 0.00(  0.01%)
                                            0.0001  0.3638 -0.0024 -0.0018  0.0000
                                           -0.1639  0.0116 -0.0012  0.0019 -0.9150
                                            0.0054 -0.0043  0.0032 -0.0000 -0.0000
                                           -0.0000 -0.0000 -0.0138  0.0030 -0.0010
                                           -0.0000 -0.0000 -0.0000 -0.0000 -0.0000
                                           -0.0000 -0.0452  0.0070 -0.0023 -0.0295
                                            0.0036  0.0004 -0.0000 -0.0000  0.0015
                                           -0.0002  0.0097 -0.0023 -0.0000 -0.0000
                                           -0.0000 -0.0000  0.0030  0.0006  0.0008
                                            0.0007
                ( 88.68%)  -0.9417* H   4 s( 99.73%)p 0.00(  0.26%)d 0.00(  0.01%)
                                            0.9978 -0.0409  0.0105 -0.0008  0.0321
                                            0.0035  0.0050 -0.0026  0.0341  0.0183
                                           -0.0000 -0.0000 -0.0000  0.0014 -0.0032
                                           -0.0000 -0.0000 -0.0000 -0.0000 -0.0039
                                           -0.0002 -0.0081  0.0009


 NHO Directionality and "Bond Bending" (deviations from line of nuclear centers)

         [Thresholds for printing:  angular deviation  >  1.0 degree]
                                    hybrid p-character > 25.0%
                                    orbital occupancy  >  0.10e

                                Line of Centers        Hybrid 1              Hybrid 2
                                ---------------  -------------------   ------------------
                NBO               Theta   Phi    Theta   Phi    Dev    Theta   Phi    Dev
 ========================================================================================
     1. BD (   1) O   1 - H   2    90.0    0.0    90.0  358.5   1.5      --     --    --
     2. BD (   1) O   1 - H   4    90.0  258.3    90.0  260.6   2.2      --     --    --
    13. LP (   1) O   1             --     --     90.0  131.2   --       --     --    --
    14. LP (   2) O   1             --     --      0.0    0.0   --       --     --    --
    16. LP (   2)Br   3             --     --      0.0    0.0   --       --     --    --
    17. LP (   3)Br   3             --     --     90.0  168.1   --       --     --    --
    18. LP (   4)Br   3             --     --     90.0   78.1   --       --     --    --


 Natural Bond Orbitals (Summary):

           NBO                  Occupancy  
 -----------------------------------------------
 Molecular unit  1  (H2O)
     1. BD (   1) O   1 - H   2          1.96259
     2. BD (   1) O   1 - H   4          1.95626
     3. CR (   1) O   1                  1.99992
    13. LP (   1) O   1                  1.97230
    14. LP (   2) O   1                  1.95838
    19. RY*(   1) O   1                  0.02115
    20. RY*(   2) O   1                  0.01672
    21. RY*(   3) O   1                  0.00986
    22. RY*(   4) O   1                  0.00661
    23. RY*(   5) O   1                  0.00631
    24. RY*(   6) O   1                  0.00594
    25. RY*(   7) O   1                  0.00587
    26. RY*(   8) O   1                  0.00372
    27. RY*(   9) O   1                  0.00311
    28. RY*(  10) O   1                  0.00060
    29. RY*(  11) O   1                  0.00057
    30. RY*(  12) O   1                  0.00052
    31. RY*(  13) O   1                  0.00047
    32. RY*(  14) O   1                  0.00045
    33. RY*(  15) O   1                  0.00045
    34. RY*(  16) O   1                  0.00044
    35. RY*(  17) O   1                  0.00043
    36. RY*(  18) O   1                  0.00042
    37. RY*(  19) O   1                  0.00043
    38. RY*(  20) O   1                  0.00041
    39. RY*(  21) O   1                  0.00039
    40. RY*(  22) O   1                  0.00035
    41. RY*(  23) O   1                  0.00032
    42. RY*(  24) O   1                  0.00021
    43. RY*(  25) O   1                  0.00021
    44. RY*(  26) O   1                  0.00015
    45. RY*(  27) O   1                  0.00011
    46. RY*(  28) O   1                  0.00008
    47. RY*(  29) O   1                  0.00008
    48. RY*(  30) O   1                  0.00008
    49. RY*(  31) O   1                  0.00007
    50. RY*(  32) O   1                  0.00006
    51. RY*(  33) O   1                  0.00007
    52. RY*(  34) O   1                  0.00007
    53. RY*(  35) O   1                  0.00005
    54. RY*(  36) O   1                  0.00005
    55. RY*(  37) O   1                  0.00004
    56. RY*(  38) O   1                  0.00004
    57. RY*(  39) O   1                  0.00002
    58. RY*(  40) O   1                  0.00001
    59. RY*(  41) O   1                 -0.00010
    60. RY*(   1) H   2                  0.00480
    61. RY*(   2) H   2                  0.00428
    62. RY*(   3) H   2                  0.00188
    63. RY*(   4) H   2                  0.00096
    64. RY*(   5) H   2                  0.00034
    65. RY*(   6) H   2                  0.00022
    66. RY*(   7) H   2                  0.00018
    67. RY*(   8) H   2                  0.00013
    68. RY*(   9) H   2                  0.00012
    69. RY*(  10) H   2                  0.00012
    70. RY*(  11) H   2                  0.00009
    71. RY*(  12) H   2                  0.00008
    72. RY*(  13) H   2                  0.00008
    73. RY*(  14) H   2                  0.00004
    74. RY*(  15) H   2                  0.00004
    75. RY*(  16) H   2                  0.00004
    76. RY*(  17) H   2                  0.00003
    77. RY*(  18) H   2                  0.00003
    78. RY*(  19) H   2                  0.00003
    79. RY*(  20) H   2                  0.00002
    80. RY*(  21) H   2                  0.00002
    81. RY*(  22) H   2                  0.00001
   124. RY*(   1) H   4                  0.00811
   125. RY*(   2) H   4                  0.00394
   126. RY*(   3) H   4                  0.00346
   127. RY*(   4) H   4                  0.00246
   128. RY*(   5) H   4                  0.00130
   129. RY*(   6) H   4                  0.00044
   130. RY*(   7) H   4                  0.00038
   131. RY*(   8) H   4                  0.00025
   132. RY*(   9) H   4                  0.00024
   133. RY*(  10) H   4                  0.00022
   134. RY*(  11) H   4                  0.00018
   135. RY*(  12) H   4                  0.00017
   136. RY*(  13) H   4                  0.00011
   137. RY*(  14) H   4                  0.00010
   138. RY*(  15) H   4                  0.00009
   139. RY*(  16) H   4                  0.00008
   140. RY*(  17) H   4                  0.00004
   141. RY*(  18) H   4                  0.00004
   142. RY*(  19) H   4                  0.00003
   143. RY*(  20) H   4                  0.00003
   144. RY*(  21) H   4                  0.00003
   145. RY*(  22) H   4                  0.00003
   146. BD*(   1) O   1 - H   2          0.01993
   147. BD*(   1) O   1 - H   4          0.07881
       -------------------------------
              Total Lewis    9.84944  ( 97.8069%)
        Valence non-Lewis    0.09874  (  0.9805%)
        Rydberg non-Lewis    0.12211  (  1.2126%)
       -------------------------------
            Total unit  1   10.07030  (100.0000%)
           Charge unit  1   -0.07030

 Molecular unit  2  (Br)
     4. CR (   1)Br   3                  1.99998
     5. CR (   2)Br   3                  2.00002
     6. CR (   3)Br   3                  1.99998
     7. CR (   4)Br   3                  2.00002
     8. CR (   5)Br   3                  1.99768
     9. CR (   6)Br   3                  1.99771
    10. CR (   7)Br   3                  1.99769
    11. CR (   8)Br   3                  1.99767
    12. CR (   9)Br   3                  1.99769
    15. LP (   1)Br   3                  1.98025
    16. LP (   2)Br   3                  1.95444
    17. LP (   3)Br   3                  1.95419
    18. LP (   4)Br   3                  1.90006
    82. RY*(   1)Br   3                  0.01848
    83. RY*(   2)Br   3                  0.01845
    84. RY*(   3)Br   3                  0.01836
    85. RY*(   4)Br   3                  0.01837
    86. RY*(   5)Br   3                  0.01835
    87. RY*(   6)Br   3                  0.01151
    88. RY*(   7)Br   3                  0.01148
    89. RY*(   8)Br   3                  0.01000
    90. RY*(   9)Br   3                  0.00250
    91. RY*(  10)Br   3                  0.00176
    92. RY*(  11)Br   3                  0.00175
    93. RY*(  12)Br   3                  0.00173
    94. RY*(  13)Br   3                  0.00173
    95. RY*(  14)Br   3                  0.00172
    96. RY*(  15)Br   3                  0.00173
    97. RY*(  16)Br   3                  0.00173
    98. RY*(  17)Br   3                  0.00172
    99. RY*(  18)Br   3                  0.00172
   100. RY*(  19)Br   3                  0.00138
   101. RY*(  20)Br   3                  0.00136
   102. RY*(  21)Br   3                  0.00123
   103. RY*(  22)Br   3                  0.00078
   104. RY*(  23)Br   3                  0.00078
   105. RY*(  24)Br   3                  0.00072
   106. RY*(  25)Br   3                  0.00036
   107. RY*(  26)Br   3                  0.00024
   108. RY*(  27)Br   3                  0.00024
   109. RY*(  28)Br   3                  0.00024
   110. RY*(  29)Br   3                  0.00025
   111. RY*(  30)Br   3                  0.00025
   112. RY*(  31)Br   3                  0.00024
   113. RY*(  32)Br   3                  0.00025
   114. RY*(  33)Br   3                  0.00018
   115. RY*(  34)Br   3                  0.00018
   116. RY*(  35)Br   3                  0.00012
   117. RY*(  36)Br   3                  0.00012
   118. RY*(  37)Br   3                  0.00008
   119. RY*(  38)Br   3                  0.00009
   120. RY*(  39)Br   3                  0.00006
   121. RY*(  40)Br   3                  0.00006
   122. RY*(  41)Br   3                  0.00004
   123. RY*(  42)Br   3                  0.00000
       -------------------------------
              Total Lewis   35.77737  ( 99.5760%)
        Valence non-Lewis    0.00000  (  0.0000%)
        Rydberg non-Lewis    0.15233  (  0.4240%)
       -------------------------------
            Total unit  2   35.92970  (100.0000%)
           Charge unit  2   -0.92970
 Leave Link  607 at Fri Oct 15 15:34:40 2021, MaxMem= 16106127360 cpu:              68.4 elap:               2.5
 (Enter /sw/contrib/gaussian/g16/B01/g16/l9999.exe)
 1\1\GINC-N2098\SP\RMP2-FC\Gen\Br1H2O1(1-)\CGAVINH\15-Oct-2021\0\\#p po
 p=NBO SP NoSymm mp2/gen Pseudo=read density=current\\title\\-1,1\O\X,1
 ,10.\H,1,0.96048156,2,90.\Br,1,3.25083182,2,90.,3,101.65547111,0\H,1,1
 .15,2,90.,3,101.65547111,0\\Version=ES64L-G16RevB.01\HF=-491.6299058\M
 P2=-492.1569185\RMSD=1.918e-09\Dipole=0.564073,0.1069772,0.\Quadrupole
 =10.1258579,-19.5102864,9.3844285,-5.6720002,0.,0.\PG=CS [SG(Br1H2O1)]
 \\@


 PENOTUS DIED A HUNDRED YEARS OLD WANTING BUT TWO...
 AND HE USED TO SAY BEFORE HE DIED, HAVING SPENT HIS
 WHOLE LIFE IN VAINLY SEARCHING AFTER THE PHILOSOPHER'S
 STONE, THAT IF HE HAD A MORTAL ENEMY HE DID NOT DARE
 TO ENCOUNTER OPENLY, HE WOULD ADVISE HIM ABOVE ALL
 THINGS TO GIVE HIMSELF UP TO THE STUDY AND PRACTICE
 OF ALCHEMY.  --  NICOLAS LEMERY, M.D.
 "A COURSE OF CHYMISTRY", WALTER KETTILBY, LONDON, 1686
 Job cpu time:       0 days  0 hours  5 minutes 11.4 seconds.
 Elapsed time:       0 days  0 hours  0 minutes 19.3 seconds.
 File lengths (MBytes):  RWF=     16 Int=      0 D2E=      0 Chk=      8 Scr=      1
 Normal termination of Gaussian 16 at Fri Oct 15 15:34:40 2021.
