 Entering Gaussian System, Link 0=g16
 Input=brhod_pp_rOH_100_sp.gjf
 Output=brhod_pp_rOH_100_sp.log
 Initial command:
 /sw/contrib/gaussian/g16/B01/g16/l1.exe "/scr/Gau-11538.inp" -scrdir="/scr/"
 Entering Link 1 = /sw/contrib/gaussian/g16/B01/g16/l1.exe PID=     11539.
  
 Copyright (c) 1988-2017, Gaussian, Inc.  All Rights Reserved.
  
 This is part of the Gaussian(R) 16 program.  It is based on
 the Gaussian(R) 09 system (copyright 2009, Gaussian, Inc.),
 the Gaussian(R) 03 system (copyright 2003, Gaussian, Inc.),
 the Gaussian(R) 98 system (copyright 1998, Gaussian, Inc.),
 the Gaussian(R) 94 system (copyright 1995, Gaussian, Inc.),
 the Gaussian 92(TM) system (copyright 1992, Gaussian, Inc.),
 the Gaussian 90(TM) system (copyright 1990, Gaussian, Inc.),
 the Gaussian 88(TM) system (copyright 1988, Gaussian, Inc.),
 the Gaussian 86(TM) system (copyright 1986, Carnegie Mellon
 University), and the Gaussian 82(TM) system (copyright 1983,
 Carnegie Mellon University). Gaussian is a federally registered
 trademark of Gaussian, Inc.
  
 This software contains proprietary and confidential information,
 including trade secrets, belonging to Gaussian, Inc.
  
 This software is provided under written license and may be
 used, copied, transmitted, or stored only in accord with that
 written license.
  
 The following legend is applicable only to US Government
 contracts under FAR:
  
                    RESTRICTED RIGHTS LEGEND
  
 Use, reproduction and disclosure by the US Government is
 subject to restrictions as set forth in subparagraphs (a)
 and (c) of the Commercial Computer Software - Restricted
 Rights clause in FAR 52.227-19.
  
 Gaussian, Inc.
 340 Quinnipiac St., Bldg. 40, Wallingford CT 06492
  
  
 ---------------------------------------------------------------
 Warning -- This program may not be used in any manner that
 competes with the business of Gaussian, Inc. or will provide
 assistance to any competitor of Gaussian, Inc.  The licensee
 of this program is prohibited from giving any competitor of
 Gaussian, Inc. access to this program.  By using this program,
 the user acknowledges that Gaussian, Inc. is engaged in the
 business of creating and licensing software in the field of
 computational chemistry and represents and warrants to the
 licensee that it is not a competitor of Gaussian, Inc. and that
 it will not use this program in any manner prohibited above.
 ---------------------------------------------------------------
  

 Cite this work as:
 Gaussian 16, Revision B.01,
 M. J. Frisch, G. W. Trucks, H. B. Schlegel, G. E. Scuseria, 
 M. A. Robb, J. R. Cheeseman, G. Scalmani, V. Barone, 
 G. A. Petersson, H. Nakatsuji, X. Li, M. Caricato, A. V. Marenich, 
 J. Bloino, B. G. Janesko, R. Gomperts, B. Mennucci, H. P. Hratchian, 
 J. V. Ortiz, A. F. Izmaylov, J. L. Sonnenberg, D. Williams-Young, 
 F. Ding, F. Lipparini, F. Egidi, J. Goings, B. Peng, A. Petrone, 
 T. Henderson, D. Ranasinghe, V. G. Zakrzewski, J. Gao, N. Rega, 
 G. Zheng, W. Liang, M. Hada, M. Ehara, K. Toyota, R. Fukuda, 
 J. Hasegawa, M. Ishida, T. Nakajima, Y. Honda, O. Kitao, H. Nakai, 
 T. Vreven, K. Throssell, J. A. Montgomery, Jr., J. E. Peralta, 
 F. Ogliaro, M. J. Bearpark, J. J. Heyd, E. N. Brothers, K. N. Kudin, 
 V. N. Staroverov, T. A. Keith, R. Kobayashi, J. Normand, 
 K. Raghavachari, A. P. Rendell, J. C. Burant, S. S. Iyengar, 
 J. Tomasi, M. Cossi, J. M. Millam, M. Klene, C. Adamo, R. Cammi, 
 J. W. Ochterski, R. L. Martin, K. Morokuma, O. Farkas, 
 J. B. Foresman, and D. J. Fox, Gaussian, Inc., Wallingford CT, 2016.
 
 ******************************************
 Gaussian 16:  ES64L-G16RevB.01 20-Dec-2017
                15-Oct-2021 
 ******************************************
 %nproc=28
 Will use up to   28 processors via shared memory.
 %mem=120GB
 %chk=/gscratch/ilahie/mccoygrp/coire_hocl/rOH_s_oop_0/brhod_pp/brhod_pp_rOH_100_
 sp.chk
 --------------------------------------------------------
 #p pop=NBO SP NoSymm mp2/gen Pseudo=read density=current
 --------------------------------------------------------
 1/30=1,38=1,172=1/1;
 2/12=2,15=1,17=6,18=5,40=1/2;
 3/5=7,11=9,16=1,17=8,25=1,30=1,71=1/1,2,3;
 4//1;
 5/5=2,38=5/2;
 8/6=4,10=1/1;
 9/15=1,16=-3/6;
 10/5=1,13=10,31=1/2;
 6/7=2,8=2,9=2,10=2,22=-1,40=1/1,7;
 99/5=1,9=1/99;
 Leave Link    1 at Fri Oct 15 15:33:23 2021, MaxMem= 16106127360 cpu:               3.4 elap:               0.1
 (Enter /sw/contrib/gaussian/g16/B01/g16/l101.exe)
 -----
 title
 -----
 Symbolic Z-matrix:
 Charge = -1 Multiplicity = 1
 O
 X                    1     10. 
 H(iso=2)             1    r1       2     90. 
 Br                   1    r2       2     90.      3    a1       0
 H                    1    r3       2    oop      3    a1       0
       Variables:
  r1                    0.96048                  
  r2                    3.25083                  
  r3                    1.                       
  a1                  101.65547                  
  OOP                  90.                       
 
 ITRead=  0  0  0  0
 MicOpt= -1 -1 -1 -1
 NAtoms=      4 NQM=        4 NQMF=       0 NMMI=      0 NMMIF=      0
                NMic=       0 NMicF=      0.
                    Isotopes and Nuclear Properties:
 (Nuclear quadrupole moments (NQMom) in fm**2, nuclear magnetic moments (NMagM)
  in nuclear magnetons)

  Atom         1           2           3           4
 IAtWgt=          16           2          79           1
 AtmWgt=  15.9949146   2.0141018  78.9183361   1.0078250
 NucSpn=           0           2           3           1
 AtZEff=  -0.0000000  -0.0000000  -0.0000000  -0.0000000
 NQMom=    0.0000000   0.2860000  31.3000000   0.0000000
 NMagM=    0.0000000   0.8574380   2.1063990   2.7928460
 AtZNuc=   8.0000000   1.0000000  35.0000000   1.0000000
 Leave Link  101 at Fri Oct 15 15:33:23 2021, MaxMem= 16106127360 cpu:               2.8 elap:               0.1
 (Enter /sw/contrib/gaussian/g16/B01/g16/l202.exe)
                          Input orientation:                          
 ---------------------------------------------------------------------
 Center     Atomic      Atomic             Coordinates (Angstroms)
 Number     Number       Type             X           Y           Z
 ---------------------------------------------------------------------
      1          8           0        0.000000    0.000000    0.000000
      2          1           0        0.960482    0.000000    0.000000
      3         35           0       -0.656753   -3.183800    0.000000
      4          1           0       -0.202026   -0.979380    0.000000
 ---------------------------------------------------------------------
                    Distance matrix (angstroms):
                    1          2          3          4
     1  O    0.000000
     2  H    0.960482   0.000000
     3  Br   3.250832   3.570999   0.000000
     4  H    1.000000   1.520069   2.250832   0.000000
 Symmetry turned off by external request.
 Stoichiometry    BrH2O(1-)
 Framework group  CS[SG(BrH2O)]
 Deg. of freedom     5
 Full point group                 CS      NOp   2
 Rotational constants (GHZ):         322.8911938           3.1591672           3.1285574
 Leave Link  202 at Fri Oct 15 15:33:23 2021, MaxMem= 16106127360 cpu:               0.7 elap:               0.0
 (Enter /sw/contrib/gaussian/g16/B01/g16/l301.exe)
 General basis read from cards:  (5D, 7F)
 Centers:       2      4      1      2      4
 aug-cc-pVTZ
 ****
 Centers:       3
 S 10 1.00
     Exponent=  9.6593900000D+03 Coefficients=  3.7100000000D-04
     Exponent=  1.4559600000D+03 Coefficients=  2.5710000000D-03
     Exponent=  3.2591400000D+02 Coefficients=  8.4850000000D-03
     Exponent=  4.6565700000D+01 Coefficients=  7.8222000000D-02
     Exponent=  1.8246900000D+01 Coefficients= -3.9714900000D-01
     Exponent=  3.8020100000D+00 Coefficients=  6.8586400000D-01
     Exponent=  1.7863200000D+00 Coefficients=  4.8681900000D-01
     Exponent=  6.0271400000D-01 Coefficients=  3.4913000000D-02
     Exponent=  2.8401400000D-01 Coefficients= -6.5730000000D-03
     Exponent=  1.2027100000D-01 Coefficients=  1.6420000000D-03
 S 10 1.00
     Exponent=  9.6593900000D+03 Coefficients= -1.5200000000D-04
     Exponent=  1.4559600000D+03 Coefficients= -1.0080000000D-03
     Exponent=  3.2591400000D+02 Coefficients= -3.6090000000D-03
     Exponent=  4.6565700000D+01 Coefficients= -2.7872000000D-02
     Exponent=  1.8246900000D+01 Coefficients=  1.5131700000D-01
     Exponent=  3.8020100000D+00 Coefficients= -3.5149700000D-01
     Exponent=  1.7863200000D+00 Coefficients= -4.1070300000D-01
     Exponent=  6.0271400000D-01 Coefficients=  3.4731600000D-01
     Exponent=  2.8401400000D-01 Coefficients=  6.7549100000D-01
     Exponent=  1.2027100000D-01 Coefficients=  2.4400800000D-01
 S 1 1.00
     Exponent=  6.0271400000D-01 Coefficients=  1.0000000000D+00
 S 1 1.00
     Exponent=  2.8401400000D-01 Coefficients=  1.0000000000D+00
 S 1 1.00
     Exponent=  1.2027100000D-01 Coefficients=  1.0000000000D+00
 S 1 1.00
     Exponent=  4.4500000000D-02 Coefficients=  1.0000000000D+00
 P 9 1.00
     Exponent=  4.9218700000D+02 Coefficients=  4.7200000000D-04
     Exponent=  9.2364200000D+01 Coefficients=  5.4940000000D-03
     Exponent=  2.7071800000D+01 Coefficients= -8.8030000000D-02
     Exponent=  7.2653900000D+00 Coefficients=  3.4348500000D-01
     Exponent=  3.4848100000D+00 Coefficients=  5.1020800000D-01
     Exponent=  1.6404800000D+00 Coefficients=  2.4863100000D-01
     Exponent=  6.4857000000D-01 Coefficients=  2.2201000000D-02
     Exponent=  2.5640700000D-01 Coefficients= -4.1900000000D-04
     Exponent=  9.5304000000D-02 Coefficients=  6.5600000000D-04
 P 9 1.00
     Exponent=  4.9218700000D+02 Coefficients= -1.5800000000D-04
     Exponent=  9.2364200000D+01 Coefficients= -1.3440000000D-03
     Exponent=  2.7071800000D+01 Coefficients=  2.4616000000D-02
     Exponent=  7.2653900000D+00 Coefficients= -1.1253200000D-01
     Exponent=  3.4848100000D+00 Coefficients= -1.7977500000D-01
     Exponent=  1.6404800000D+00 Coefficients= -7.3661000000D-02
     Exponent=  6.4857000000D-01 Coefficients=  3.4873400000D-01
     Exponent=  2.5640700000D-01 Coefficients=  5.5794800000D-01
     Exponent=  9.5304000000D-02 Coefficients=  2.6645600000D-01
 P 1 1.00
     Exponent=  7.6660000000D-01 Coefficients=  1.0000000000D+00
 P 1 1.00
     Exponent=  1.1820000000D-01 Coefficients=  1.0000000000D+00
 P 1 1.00
     Exponent=  3.9600000000D-02 Coefficients=  1.0000000000D+00
 D 8 1.00
     Exponent=  3.3899600000D+02 Coefficients=  1.5240000000D-03
     Exponent=  1.0321700000D+02 Coefficients=  1.5673000000D-02
     Exponent=  4.2363800000D+01 Coefficients=  7.2400000000D-02
     Exponent=  1.8435600000D+01 Coefficients=  1.8630300000D-01
     Exponent=  8.3725400000D+00 Coefficients=  3.2388100000D-01
     Exponent=  3.8022200000D+00 Coefficients=  3.7453400000D-01
     Exponent=  1.6867700000D+00 Coefficients=  2.5741800000D-01
     Exponent=  6.7752000000D-01 Coefficients=  6.8051000000D-02
 D 1 1.00
     Exponent=  6.7752000000D-01 Coefficients=  1.0000000000D+00
 D 1 1.00
     Exponent=  2.5530000000D-01 Coefficients=  1.0000000000D+00
 D 1 1.00
     Exponent=  1.0090000000D-01 Coefficients=  1.0000000000D+00
 F 1 1.00
     Exponent=  5.6060000000D-01 Coefficients=  1.0000000000D+00
 F 1 1.00
     Exponent=  2.4540000000D-01 Coefficients=  1.0000000000D+00
 ****
 ======================================================================================================
                                       Pseudopotential Parameters
 ======================================================================================================
  Center     Atomic      Valence      Angular      Power
  Number     Number     Electrons     Momentum     of R      Exponent        Coefficient   SO-Coeffient
 ======================================================================================================
    1          8
                                   No pseudopotential on this center.
    2          1
                                   No pseudopotential on this center.
    3         35           25
                                      G and up 
                                                     2        1.0000000        0.00000000    0.00000000
                                      S - G
                                                     2       70.0242570       49.96283400    0.00000000
                                                     2       31.1784120      370.01420500    0.00000000
                                                     2        7.1565930       10.24143900    0.00000000
                                      P - G
                                                     2       46.7734710       99.11224400    0.00000000
                                                     2       46.1841200      198.25304600    0.00000000
                                                     2       21.7138580       28.26174000    0.00000000
                                                     2       20.9417920       56.62336600    0.00000000
                                      D - G
                                                     2       50.6988390      -18.60585300    0.00000000
                                                     2       50.6447640      -27.92328000    0.00000000
                                                     2       15.4475090       -0.37969300    0.00000000
                                                     2       15.5002590       -0.78058300    0.00000000
                                                     2        2.8003910        0.03596800    0.00000000
                                                     2        1.0774800        0.09439700    0.00000000
                                      F - G
                                                     2       14.4656060       -1.09126900    0.00000000
                                                     2       21.2340650       -2.88769100    0.00000000
    4          1
                                   No pseudopotential on this center.
 ======================================================================================================
 Ernie: Thresh=  0.10000D-02 Tol=  0.10000D-05 Strict=F.
 Ernie:  18 primitive shells out of 132 were deleted.
   191 basis functions,   334 primitive gaussians,   218 cartesian basis functions
    18 alpha electrons       18 beta electrons
       nuclear repulsion energy        51.1278230642 Hartrees.
 IExCor=    0 DFT=F Ex=HF Corr=None ExCW=0 ScaHFX=  1.000000
 ScaDFX=  1.000000  1.000000  1.000000  1.000000 ScalE2=  1.000000  1.000000
 IRadAn=      5 IRanWt=     -1 IRanGd=            0 ICorTp=0 IEmpDi=  4
 NAtoms=    4 NActive=    4 NUniq=    4 SFac= 1.00D+00 NAtFMM=   60 NAOKFM=F Big=F
 Integral buffers will be    131072 words long.
 Raffenetti 1 integral format.
 Two-electron integral symmetry is turned off.
 Leave Link  301 at Fri Oct 15 15:33:23 2021, MaxMem= 16106127360 cpu:               2.7 elap:               0.1
 (Enter /sw/contrib/gaussian/g16/B01/g16/l302.exe)
 NPDir=0 NMtPBC=     1 NCelOv=     1 NCel=       1 NClECP=     1 NCelD=      1
         NCelK=      1 NCelE2=     1 NClLst=     1 CellRange=     0.0.
 One-electron integrals computed using PRISM.
   1 Symmetry operations used in ECPInt.
 ECPInt:  NShTT=    2145 NPrTT=    6720 LenC2=    2146 LenP2D=    6095.
 LDataN:  DoStor=T MaxTD1= 7 Len=  274
 NBasis=   191 RedAO= T EigKep=  3.89D-04  NBF=   191
 NBsUse=   147 1.00D-06 EigRej=  8.96D-16 NBFU=   147
 Leave Link  302 at Fri Oct 15 15:33:23 2021, MaxMem= 16106127360 cpu:               6.5 elap:               0.3
 (Enter /sw/contrib/gaussian/g16/B01/g16/l303.exe)
 DipDrv:  MaxL=1.
 Leave Link  303 at Fri Oct 15 15:33:23 2021, MaxMem= 16106127360 cpu:               1.4 elap:               0.1
 (Enter /sw/contrib/gaussian/g16/B01/g16/l401.exe)
 ExpMin= 2.53D-02 ExpMax= 1.53D+04 ExpMxC= 5.22D+02 IAcc=3 IRadAn=         5 AccDes= 0.00D+00
 Harris functional with IExCor=  205 and IRadAn=       5 diagonalized for initial guess.
 HarFok:  IExCor=  205 AccDes= 0.00D+00 IRadAn=         5 IDoV= 1 UseB2=F ITyADJ=14
 ICtDFT=  3500011 ScaDFX=  1.000000  1.000000  1.000000  1.000000
 FoFCou: FMM=F IPFlag=           0 FMFlag=      100000 FMFlg1=           0
         NFxFlg=           0 DoJE=T BraDBF=F KetDBF=T FulRan=T
         wScrn=  0.000000 ICntrl=       500 IOpCl=  0 I1Cent=   200000004 NGrid=           0
         NMat0=    1 NMatS0=      1 NMatT0=    0 NMatD0=    1 NMtDS0=    0 NMtDT0=    0
 Symmetry not used in FoFCou.
 Harris En= -493.562700552709    
 JPrj=0 DoOrth=F DoCkMO=F.
 Leave Link  401 at Fri Oct 15 15:33:24 2021, MaxMem= 16106127360 cpu:               6.9 elap:               0.3
 (Enter /sw/contrib/gaussian/g16/B01/g16/l502.exe)
 Keep R1 ints in memory in canonical form, NReq=204937681.
 FoFCou: FMM=F IPFlag=           0 FMFlag=           0 FMFlg1=           0
         NFxFlg=           0 DoJE=F BraDBF=F KetDBF=F FulRan=T
         wScrn=  0.000000 ICntrl=       600 IOpCl=  0 I1Cent=           0 NGrid=           0
         NMat0=    1 NMatS0=  18336 NMatT0=    0 NMatD0=    1 NMtDS0=    0 NMtDT0=    0
 Symmetry not used in FoFCou.
 Two-electron integral symmetry not used.
 Closed shell SCF:
 Using DIIS extrapolation, IDIIS=  1040.
 NGot= 16106127360 LenX= 15937911228 LenY= 15937863263
 Requested convergence on RMS density matrix=1.00D-08 within 128 cycles.
 Requested convergence on MAX density matrix=1.00D-06.
 Requested convergence on             energy=1.00D-06.
 No special actions if energy rises.

 Cycle   1  Pass 1  IDiag  1:
 E= -491.495178346212    
 DIIS: error= 5.22D-02 at cycle   1 NSaved=   1.
 NSaved= 1 IEnMin= 1 EnMin= -491.495178346212     IErMin= 1 ErrMin= 5.22D-02
 ErrMax= 5.22D-02  0.00D+00 EMaxC= 1.00D-01 BMatC= 2.62D-01 BMatP= 2.62D-01
 IDIUse=3 WtCom= 4.78D-01 WtEn= 5.22D-01
 Coeff-Com:  0.100D+01
 Coeff-En:   0.100D+01
 Coeff:      0.100D+01
 Gap=     0.370 Goal=   None    Shift=    0.000
 GapD=    0.370 DampG=1.000 DampE=0.500 DampFc=0.5000 IDamp=-1.
 Damping current iteration by 5.00D-01
 RMSDP=4.40D-03 MaxDP=2.66D-01              OVMax= 1.30D-01

 Cycle   2  Pass 1  IDiag  1:
 E= -491.577229018061     Delta-E=       -0.082050671849 Rises=F Damp=T
 DIIS: error= 1.12D-02 at cycle   2 NSaved=   2.
 NSaved= 2 IEnMin= 2 EnMin= -491.577229018061     IErMin= 2 ErrMin= 1.12D-02
 ErrMax= 1.12D-02  0.00D+00 EMaxC= 1.00D-01 BMatC= 4.39D-02 BMatP= 2.62D-01
 IDIUse=3 WtCom= 8.88D-01 WtEn= 1.12D-01
 Coeff-Com: -0.417D+00 0.142D+01
 Coeff-En:   0.000D+00 0.100D+01
 Coeff:     -0.371D+00 0.137D+01
 Gap=     0.282 Goal=   None    Shift=    0.000
 RMSDP=1.69D-03 MaxDP=9.79D-02 DE=-8.21D-02 OVMax= 5.93D-02

 Cycle   3  Pass 1  IDiag  1:
 E= -491.649639203119     Delta-E=       -0.072410185057 Rises=F Damp=F
 DIIS: error= 5.29D-03 at cycle   3 NSaved=   3.
 NSaved= 3 IEnMin= 3 EnMin= -491.649639203119     IErMin= 3 ErrMin= 5.29D-03
 ErrMax= 5.29D-03  0.00D+00 EMaxC= 1.00D-01 BMatC= 1.55D-03 BMatP= 4.39D-02
 IDIUse=3 WtCom= 9.47D-01 WtEn= 5.29D-02
 Coeff-Com: -0.123D+00 0.230D+00 0.893D+00
 Coeff-En:   0.000D+00 0.000D+00 0.100D+01
 Coeff:     -0.117D+00 0.218D+00 0.899D+00
 Gap=     0.299 Goal=   None    Shift=    0.000
 RMSDP=2.72D-04 MaxDP=1.67D-02 DE=-7.24D-02 OVMax= 9.88D-03

 Cycle   4  Pass 1  IDiag  1:
 E= -491.650662931201     Delta-E=       -0.001023728083 Rises=F Damp=F
 DIIS: error= 7.81D-04 at cycle   4 NSaved=   4.
 NSaved= 4 IEnMin= 4 EnMin= -491.650662931201     IErMin= 4 ErrMin= 7.81D-04
 ErrMax= 7.81D-04  0.00D+00 EMaxC= 1.00D-01 BMatC= 5.89D-05 BMatP= 1.55D-03
 IDIUse=3 WtCom= 9.92D-01 WtEn= 7.81D-03
 Coeff-Com: -0.164D-01 0.292D-01 0.179D+00 0.809D+00
 Coeff-En:   0.000D+00 0.000D+00 0.000D+00 0.100D+01
 Coeff:     -0.163D-01 0.289D-01 0.177D+00 0.810D+00
 Gap=     0.295 Goal=   None    Shift=    0.000
 RMSDP=5.10D-05 MaxDP=1.88D-03 DE=-1.02D-03 OVMax= 2.15D-03

 Cycle   5  Pass 1  IDiag  1:
 E= -491.650710526720     Delta-E=       -0.000047595519 Rises=F Damp=F
 DIIS: error= 1.78D-04 at cycle   5 NSaved=   5.
 NSaved= 5 IEnMin= 5 EnMin= -491.650710526720     IErMin= 5 ErrMin= 1.78D-04
 ErrMax= 1.78D-04  0.00D+00 EMaxC= 1.00D-01 BMatC= 5.12D-06 BMatP= 5.89D-05
 IDIUse=3 WtCom= 9.98D-01 WtEn= 1.78D-03
 Coeff-Com:  0.803D-02-0.177D-01-0.454D-01 0.124D+00 0.931D+00
 Coeff-En:   0.000D+00 0.000D+00 0.000D+00 0.000D+00 0.100D+01
 Coeff:      0.802D-02-0.176D-01-0.453D-01 0.124D+00 0.931D+00
 Gap=     0.296 Goal=   None    Shift=    0.000
 RMSDP=2.22D-05 MaxDP=1.40D-03 DE=-4.76D-05 OVMax= 9.06D-04

 Cycle   6  Pass 1  IDiag  1:
 E= -491.650717666740     Delta-E=       -0.000007140020 Rises=F Damp=F
 DIIS: error= 6.55D-05 at cycle   6 NSaved=   6.
 NSaved= 6 IEnMin= 6 EnMin= -491.650717666740     IErMin= 6 ErrMin= 6.55D-05
 ErrMax= 6.55D-05  0.00D+00 EMaxC= 1.00D-01 BMatC= 3.37D-07 BMatP= 5.12D-06
 IDIUse=1 WtCom= 1.00D+00 WtEn= 0.00D+00
 Coeff-Com: -0.123D-03 0.134D-02-0.377D-02-0.688D-01-0.313D+00 0.138D+01
 Coeff:     -0.123D-03 0.134D-02-0.377D-02-0.688D-01-0.313D+00 0.138D+01
 Gap=     0.296 Goal=   None    Shift=    0.000
 RMSDP=9.71D-06 MaxDP=6.41D-04 DE=-7.14D-06 OVMax= 4.65D-04

 Cycle   7  Pass 1  IDiag  1:
 E= -491.650718737027     Delta-E=       -0.000001070288 Rises=F Damp=F
 DIIS: error= 1.49D-05 at cycle   7 NSaved=   7.
 NSaved= 7 IEnMin= 7 EnMin= -491.650718737027     IErMin= 7 ErrMin= 1.49D-05
 ErrMax= 1.49D-05  0.00D+00 EMaxC= 1.00D-01 BMatC= 1.01D-08 BMatP= 3.37D-07
 IDIUse=1 WtCom= 1.00D+00 WtEn= 0.00D+00
 Coeff-Com: -0.379D-03 0.381D-03 0.335D-02 0.184D-01 0.849D-01-0.508D+00
 Coeff-Com:  0.140D+01
 Coeff:     -0.379D-03 0.381D-03 0.335D-02 0.184D-01 0.849D-01-0.508D+00
 Coeff:      0.140D+01
 Gap=     0.296 Goal=   None    Shift=    0.000
 RMSDP=1.75D-06 MaxDP=9.88D-05 DE=-1.07D-06 OVMax= 9.49D-05

 Cycle   8  Pass 1  IDiag  1:
 E= -491.650718769574     Delta-E=       -0.000000032547 Rises=F Damp=F
 DIIS: error= 2.07D-06 at cycle   8 NSaved=   8.
 NSaved= 8 IEnMin= 8 EnMin= -491.650718769574     IErMin= 8 ErrMin= 2.07D-06
 ErrMax= 2.07D-06  0.00D+00 EMaxC= 1.00D-01 BMatC= 2.53D-10 BMatP= 1.01D-08
 IDIUse=1 WtCom= 1.00D+00 WtEn= 0.00D+00
 Coeff-Com:  0.611D-04-0.979D-04-0.450D-03-0.408D-03-0.276D-02 0.326D-01
 Coeff-Com: -0.200D+00 0.117D+01
 Coeff:      0.611D-04-0.979D-04-0.450D-03-0.408D-03-0.276D-02 0.326D-01
 Coeff:     -0.200D+00 0.117D+01
 Gap=     0.296 Goal=   None    Shift=    0.000
 RMSDP=3.07D-07 MaxDP=1.17D-05 DE=-3.25D-08 OVMax= 1.31D-05

 Cycle   9  Pass 1  IDiag  1:
 E= -491.650718770219     Delta-E=       -0.000000000644 Rises=F Damp=F
 DIIS: error= 5.26D-07 at cycle   9 NSaved=   9.
 NSaved= 9 IEnMin= 9 EnMin= -491.650718770219     IErMin= 9 ErrMin= 5.26D-07
 ErrMax= 5.26D-07  0.00D+00 EMaxC= 1.00D-01 BMatC= 2.03D-11 BMatP= 2.53D-10
 IDIUse=1 WtCom= 1.00D+00 WtEn= 0.00D+00
 Coeff-Com:  0.268D-04-0.250D-04-0.249D-03-0.143D-02-0.674D-02 0.398D-01
 Coeff-Com: -0.108D+00 0.235D-02 0.107D+01
 Coeff:      0.268D-04-0.250D-04-0.249D-03-0.143D-02-0.674D-02 0.398D-01
 Coeff:     -0.108D+00 0.235D-02 0.107D+01
 Gap=     0.296 Goal=   None    Shift=    0.000
 RMSDP=6.13D-08 MaxDP=2.00D-06 DE=-6.44D-10 OVMax= 3.37D-06

 Cycle  10  Pass 1  IDiag  1:
 E= -491.650718770266     Delta-E=       -0.000000000047 Rises=F Damp=F
 DIIS: error= 1.33D-07 at cycle  10 NSaved=  10.
 NSaved=10 IEnMin=10 EnMin= -491.650718770266     IErMin=10 ErrMin= 1.33D-07
 ErrMax= 1.33D-07  0.00D+00 EMaxC= 1.00D-01 BMatC= 1.41D-12 BMatP= 2.03D-11
 IDIUse=1 WtCom= 1.00D+00 WtEn= 0.00D+00
 Coeff-Com: -0.740D-05 0.105D-04 0.568D-04 0.114D-03 0.709D-03-0.538D-02
 Coeff-Com:  0.232D-01-0.815D-01-0.857D-01 0.115D+01
 Coeff:     -0.740D-05 0.105D-04 0.568D-04 0.114D-03 0.709D-03-0.538D-02
 Coeff:      0.232D-01-0.815D-01-0.857D-01 0.115D+01
 Gap=     0.296 Goal=   None    Shift=    0.000
 RMSDP=1.79D-08 MaxDP=7.76D-07 DE=-4.73D-11 OVMax= 9.85D-07

 Cycle  11  Pass 1  IDiag  1:
 E= -491.650718770270     Delta-E=       -0.000000000004 Rises=F Damp=F
 DIIS: error= 2.36D-08 at cycle  11 NSaved=  11.
 NSaved=11 IEnMin=11 EnMin= -491.650718770270     IErMin=11 ErrMin= 2.36D-08
 ErrMax= 2.36D-08  0.00D+00 EMaxC= 1.00D-01 BMatC= 7.45D-14 BMatP= 1.41D-12
 IDIUse=1 WtCom= 1.00D+00 WtEn= 0.00D+00
 Coeff-Com: -0.217D-07-0.726D-06 0.337D-05 0.587D-04 0.244D-03-0.123D-02
 Coeff-Com:  0.200D-02 0.989D-02-0.483D-01-0.153D+00 0.119D+01
 Coeff:     -0.217D-07-0.726D-06 0.337D-05 0.587D-04 0.244D-03-0.123D-02
 Coeff:      0.200D-02 0.989D-02-0.483D-01-0.153D+00 0.119D+01
 Gap=     0.296 Goal=   None    Shift=    0.000
 RMSDP=7.02D-09 MaxDP=3.53D-07 DE=-3.75D-12 OVMax= 2.60D-07

 SCF Done:  E(RHF) =  -491.650718770     A.U. after   11 cycles
            NFock= 11  Conv=0.70D-08     -V/T= 2.3226
 KE= 3.717352024892D+02 PE=-1.317940506027D+03 EE= 4.034267617034D+02
 Leave Link  502 at Fri Oct 15 15:33:28 2021, MaxMem= 16106127360 cpu:              37.9 elap:               4.5
 (Enter /sw/contrib/gaussian/g16/B01/g16/l801.exe)
 ExpMin= 2.53D-02 ExpMax= 1.53D+04 ExpMxC= 5.22D+02 IAcc=3 IRadAn=         5 AccDes= 0.00D+00
 HarFok:  IExCor=  205 AccDes= 0.00D+00 IRadAn=         5 IDoV=-2 UseB2=F ITyADJ=14
 ICtDFT= 12500011 ScaDFX=  1.000000  1.000000  1.000000  1.000000
 Largest valence mixing into a core orbital is  1.27D-04
 Largest core mixing into a valence orbital is  2.15D-05
 Range of M.O.s used for correlation:     6   147
 NBasis=   191 NAE=    18 NBE=    18 NFC=     5 NFV=     0
 NROrb=    142 NOA=    13 NOB=    13 NVA=   129 NVB=   129

 **** Warning!!: The largest alpha MO coefficient is  0.11310951D+02

 Leave Link  801 at Fri Oct 15 15:33:28 2021, MaxMem= 16106127360 cpu:               4.4 elap:               0.2
 (Enter /sw/contrib/gaussian/g16/B01/g16/l906.exe)
 Frozen-core derivative calculation, NFC=   5 NFV=   0.
 FulOut=F Deriv=T AODrv=F NAtomX=     4
   MMem=         107  MDisk=          13 MDiskD=          13
  W3Min=      576828 MinDsk=     1313419 NBas6D=         218
 NBas2D=       24339    NTT=       23871    LW2=    16556320
    MDV= 16105797348 MDiskM=      369353 NBas2p=       24313
 Fully in-core method, ICMem=   644650517.
 IMap=   1   2   3   4   5   6   7   8   9  10  11  12  13  14  15  16  17  18
 JobTyp=1 Pass  1 fully in-core, NPsUse= 28.
 Compute canonical integrals.
 FoFCou: FMM=F IPFlag=           0 FMFlag=           0 FMFlg1=           0
         NFxFlg=           0 DoJE=F BraDBF=F KetDBF=F FulRan=T
         wScrn=  0.000000 ICntrl=       600 IOpCl=  1 I1Cent=           0 NGrid=           0
         NMat0=    1 NMatS0=  24339 NMatT0=    0 NMatD0=    1 NMtDS0=    0 NMtDT0=    0
 Symmetry not used in FoFCou.
 Spin components of T(2) and E(2):
     alpha-alpha T2 =       0.2059288655D-01 E2=     -0.6967484149D-01
     alpha-beta  T2 =       0.1091682893D+00 E2=     -0.3794204366D+00
     beta-beta   T2 =       0.2059288655D-01 E2=     -0.6967484149D-01
 The integrals were generated   1 times.
 ANorm=    0.1072545599D+01
 E2 =    -0.5187701196D+00 EUMP2 =    -0.49216948888985D+03
 Leave Link  906 at Fri Oct 15 15:33:33 2021, MaxMem= 16106127360 cpu:             129.8 elap:               4.7
 (Enter /sw/contrib/gaussian/g16/B01/g16/l1002.exe)
 Minotr:  Closed shell wavefunction.
          Computing MP2/KS-MP2 derivatives.
          Using Z-Vector for PSCF gradient.
          Skipping F1 and S1 gradient terms here.
          Frozen-core window.
          Direct CPHF calculation.
          Differentiating once with respect to electric field.
                with respect to dipole field.
          Electric field/nuclear overlap derivatives assumed to be zero.
          Requested convergence is 1.0D-10 RMS, and 1.0D-09 maximum.
          NewPWx=F KeepS1=T KeepF1=T KeepIn=T MapXYZ=F SortEE=F KeepMc=T.
 Keep R1 ints in memory in canonical form, NReq=204939973.
 FoFCou: FMM=F IPFlag=           0 FMFlag=           0 FMFlg1=           0
         NFxFlg=           0 DoJE=F BraDBF=F KetDBF=F FulRan=T
         wScrn=  0.000000 ICntrl=       600 IOpCl=  0 I1Cent=           0 NGrid=           0
         NMat0=    1 NMatS0=  18336 NMatT0=    0 NMatD0=    1 NMtDS0=    0 NMtDT0=    0
 Symmetry not used in FoFCou.
 Two-electron integral symmetry not used.
          MDV=   16106127360 using IRadAn=       5.
          Solving linear equations separately, MaxMat=       0.
          There are     1 degrees of freedom in the 1st order CPHF.  IDoFFX=0 NUNeed=     1.
 LinEq1:  Iter=  0 NonCon=     1 RMS=2.74D-03 Max=4.29D-02 NDo=     1
 AX will form     1 AO Fock derivatives at one time.
 LinEq1:  Iter=  1 NonCon=     1 RMS=4.65D-04 Max=4.64D-03 NDo=     1
 LinEq1:  Iter=  2 NonCon=     1 RMS=2.17D-04 Max=2.24D-03 NDo=     1
 LinEq1:  Iter=  3 NonCon=     1 RMS=5.87D-05 Max=1.01D-03 NDo=     1
 LinEq1:  Iter=  4 NonCon=     1 RMS=1.23D-05 Max=1.37D-04 NDo=     1
 LinEq1:  Iter=  5 NonCon=     1 RMS=5.14D-06 Max=6.40D-05 NDo=     1
 LinEq1:  Iter=  6 NonCon=     1 RMS=9.67D-07 Max=1.93D-05 NDo=     1
 LinEq1:  Iter=  7 NonCon=     1 RMS=2.26D-07 Max=3.38D-06 NDo=     1
 LinEq1:  Iter=  8 NonCon=     1 RMS=6.20D-08 Max=7.87D-07 NDo=     1
 LinEq1:  Iter=  9 NonCon=     1 RMS=7.94D-09 Max=1.45D-07 NDo=     1
 LinEq1:  Iter= 10 NonCon=     1 RMS=1.05D-09 Max=1.25D-08 NDo=     1
 LinEq1:  Iter= 11 NonCon=     1 RMS=3.01D-10 Max=5.13D-09 NDo=     1
 LinEq1:  Iter= 12 NonCon=     0 RMS=5.85D-11 Max=7.26D-10 NDo=     1
 Linear equations converged to 1.000D-10 1.000D-09 after    12 iterations.
 End of Minotr F.D. properties file   721 does not exist.
 End of Minotr F.D. properties file   722 does not exist.
 End of Minotr F.D. properties file   788 does not exist.
 Leave Link 1002 at Fri Oct 15 15:33:39 2021, MaxMem= 16106127360 cpu:              44.3 elap:               5.6
 (Enter /sw/contrib/gaussian/g16/B01/g16/l601.exe)
 Copying SCF densities to generalized density rwf, IOpCl= 0 IROHF=0.

 **********************************************************************

            Population analysis using the MP2 Density.

 **********************************************************************

 Alpha  occ. eigenvalues --  -20.38779  -9.54394  -7.29168  -7.29140  -7.29135
 Alpha  occ. eigenvalues --   -2.84269  -2.84260  -2.84256  -2.84232  -2.84232
 Alpha  occ. eigenvalues --   -1.16572  -0.73902  -0.52283  -0.41352  -0.33138
 Alpha  occ. eigenvalues --   -0.16530  -0.15995  -0.15952
 Alpha virt. eigenvalues --    0.13625   0.17429   0.24930   0.25961   0.26693
 Alpha virt. eigenvalues --    0.27966   0.30032   0.30216   0.33550   0.34728
 Alpha virt. eigenvalues --    0.39923   0.41047   0.41633   0.46201   0.47465
 Alpha virt. eigenvalues --    0.47837   0.51750   0.53304   0.56791   0.59819
 Alpha virt. eigenvalues --    0.61250   0.62950   0.71358   0.78172   0.82816
 Alpha virt. eigenvalues --    0.83989   0.84648   0.86888   0.88615   0.90354
 Alpha virt. eigenvalues --    0.90857   0.95218   0.98402   0.99583   0.99757
 Alpha virt. eigenvalues --    0.99945   1.01637   1.02758   1.06064   1.08253
 Alpha virt. eigenvalues --    1.09579   1.10213   1.15470   1.15686   1.16537
 Alpha virt. eigenvalues --    1.17268   1.18215   1.21311   1.22340   1.24017
 Alpha virt. eigenvalues --    1.31192   1.34865   1.41320   1.44131   1.46284
 Alpha virt. eigenvalues --    1.47020   1.62969   1.63877   1.68622   1.69999
 Alpha virt. eigenvalues --    1.77900   1.82153   2.07389   2.07734   2.19486
 Alpha virt. eigenvalues --    2.40269   2.44042   2.46845   2.47384   2.49973
 Alpha virt. eigenvalues --    2.54093   2.54480   2.54790   2.55092   2.55299
 Alpha virt. eigenvalues --    2.56121   2.58128   2.62049   2.63638   2.64150
 Alpha virt. eigenvalues --    2.65367   2.66571   2.68435   2.70691   2.74225
 Alpha virt. eigenvalues --    2.80072   2.82130   2.88651   2.92925   2.99932
 Alpha virt. eigenvalues --    3.05382   3.12975   3.14352   3.44362   3.87264
 Alpha virt. eigenvalues --    4.16361   4.22234   4.33186   4.34929   4.44147
 Alpha virt. eigenvalues --    4.44271   4.55424   4.57938   4.62437   4.76748
 Alpha virt. eigenvalues --    4.95607   5.08800   5.27235   5.35307   5.44961
 Alpha virt. eigenvalues --    5.49858   5.66215   5.81693   6.38805   6.70991
 Alpha virt. eigenvalues --    6.89785   7.09534   7.27646   7.42783   7.44267
 Alpha virt. eigenvalues --    7.46843   7.54959   7.61695   7.79877   8.06721
 Alpha virt. eigenvalues --    8.11951   8.92872  16.05013  79.89649
          Condensed to atoms (all electrons):
               1          2          3          4
     1  O    8.267299   0.209168  -0.059324   0.126825
     2  H    0.209168   0.606502   0.003403   0.013798
     3  Br  -0.059324   0.003403  25.965035   0.014751
     4  H    0.126825   0.013798   0.014751   0.543924
 Mulliken charges:
               1
     1  O   -0.543968
     2  H    0.167130
     3  Br  -0.923864
     4  H    0.300702
 Sum of Mulliken charges =  -1.00000
 Mulliken charges with hydrogens summed into heavy atoms:
               1
     1  O   -0.076136
     3  Br  -0.923864
 Electronic spatial extent (au):  <R**2>=           1050.8258
 Charge=             -1.0000 electrons
 Dipole moment (field-independent basis, Debye):
    X=              3.8356    Y=             12.2917    Z=             -0.0000  Tot=             12.8763
 Quadrupole moment (field-independent basis, Debye-Ang):
   XX=            -30.4730   YY=            -73.3510   ZZ=            -31.3428
   XY=             -8.2243   XZ=             -0.0000   YZ=              0.0000
 Traceless Quadrupole moment (field-independent basis, Debye-Ang):
   XX=             14.5826   YY=            -28.2954   ZZ=             13.7128
   XY=             -8.2243   XZ=             -0.0000   YZ=              0.0000
 Octapole moment (field-independent basis, Debye-Ang**2):
  XXX=             46.6415  YYY=            359.7266  ZZZ=              0.0000  XYY=             41.9170
  XXY=             79.7170  XXZ=             -0.0000  XZZ=             14.5325  YZZ=             74.1700
  YYZ=              0.0000  XYZ=              0.0000
 Hexadecapole moment (field-independent basis, Debye-Ang**3):
 XXXX=           -108.4830 YYYY=          -1888.1892 ZZZZ=            -49.7197 XXXY=           -147.6891
 XXXZ=             -0.0000 YYYX=           -229.9006 YYYZ=             -0.0000 ZZZX=             -0.0000
 ZZZY=             -0.0000 XXYY=           -278.7130 XXZZ=            -26.6129 YYZZ=           -251.5223
 XXYZ=              0.0000 YYXZ=             -0.0000 ZZXY=            -48.0980
 N-N= 5.112782306421D+01 E-N=-1.316629317387D+03  KE= 3.713855310571D+02
 No NMR shielding tensors so no spin-rotation constants.
 Leave Link  601 at Fri Oct 15 15:33:39 2021, MaxMem= 16106127360 cpu:               6.9 elap:               0.3
 (Enter /sw/contrib/gaussian/g16/B01/g16/l607.exe)
 ******************************Gaussian NBO Version 3.1******************************
             N A T U R A L   A T O M I C   O R B I T A L   A N D
          N A T U R A L   B O N D   O R B I T A L   A N A L Y S I S
 ******************************Gaussian NBO Version 3.1******************************
       /RESON  / : Allow strongly delocalized NBO set

 Analyzing the MP2 density

 Job title: title                                                           

 Storage needed:    110417 in NPA,    146568 in NBO (********** available)
 GSVD:  LWork=       13161 too small for GESVD, short by       32525 words or       32525 for optimal perf.


 NATURAL POPULATIONS:  Natural atomic orbital occupancies 
                                                          
   NAO  Atom  No  lang   Type(AO)    Occupancy
 --------------------------------------------
     1    O    1  S      Cor( 1S)     1.99992
     2    O    1  S      Val( 2S)     1.88989
     3    O    1  S      Ryd( 3S)     0.00638
     4    O    1  S      Ryd( 4S)     0.00036
     5    O    1  S      Ryd( 5S)     0.00015
     6    O    1  px     Val( 2p)     1.67218
     7    O    1  px     Ryd( 3p)     0.01247
     8    O    1  px     Ryd( 4p)     0.00061
     9    O    1  px     Ryd( 5p)     0.00008
    10    O    1  py     Val( 2p)     1.76638
    11    O    1  py     Ryd( 3p)     0.01325
    12    O    1  py     Ryd( 4p)     0.00065
    13    O    1  py     Ryd( 5p)     0.00027
    14    O    1  pz     Val( 2p)     1.95422
    15    O    1  pz     Ryd( 3p)     0.02102
    16    O    1  pz     Ryd( 4p)     0.00055
    17    O    1  pz     Ryd( 5p)     0.00000
    18    O    1  dxy    Ryd( 3d)     0.00858
    19    O    1  dxy    Ryd( 4d)     0.00047
    20    O    1  dxy    Ryd( 5d)     0.00014
    21    O    1  dxz    Ryd( 3d)     0.00973
    22    O    1  dxz    Ryd( 4d)     0.00097
    23    O    1  dxz    Ryd( 5d)     0.00012
    24    O    1  dyz    Ryd( 3d)     0.00739
    25    O    1  dyz    Ryd( 4d)     0.00046
    26    O    1  dyz    Ryd( 5d)     0.00018
    27    O    1  dx2y2  Ryd( 3d)     0.01035
    28    O    1  dx2y2  Ryd( 4d)     0.00075
    29    O    1  dx2y2  Ryd( 5d)     0.00026
    30    O    1  dz2    Ryd( 3d)     0.00805
    31    O    1  dz2    Ryd( 4d)     0.00071
    32    O    1  dz2    Ryd( 5d)     0.00018
    33    O    1  f(0)   Ryd( 4f)     0.00087
    34    O    1  f(0)   Ryd( 5f)     0.00015
    35    O    1  f(C1)  Ryd( 4f)     0.00056
    36    O    1  f(C1)  Ryd( 5f)     0.00010
    37    O    1  f(S1)  Ryd( 4f)     0.00061
    38    O    1  f(S1)  Ryd( 5f)     0.00010
    39    O    1  f(C2)  Ryd( 4f)     0.00056
    40    O    1  f(C2)  Ryd( 5f)     0.00012
    41    O    1  f(S2)  Ryd( 4f)     0.00046
    42    O    1  f(S2)  Ryd( 5f)     0.00008
    43    O    1  f(C3)  Ryd( 4f)     0.00040
    44    O    1  f(C3)  Ryd( 5f)     0.00013
    45    O    1  f(S3)  Ryd( 4f)     0.00048
    46    O    1  f(S3)  Ryd( 5f)     0.00013

    47    H    2  S      Val( 1S)     0.33176
    48    H    2  S      Ryd( 2S)     0.00058
    49    H    2  S      Ryd( 3S)     0.00021
    50    H    2  S      Ryd( 4S)     0.00005
    51    H    2  px     Ryd( 2p)     0.00092
    52    H    2  px     Ryd( 3p)     0.00070
    53    H    2  px     Ryd( 4p)     0.00006
    54    H    2  py     Ryd( 2p)     0.00048
    55    H    2  py     Ryd( 3p)     0.00023
    56    H    2  py     Ryd( 4p)     0.00009
    57    H    2  pz     Ryd( 2p)     0.00135
    58    H    2  pz     Ryd( 3p)     0.00017
    59    H    2  pz     Ryd( 4p)     0.00006
    60    H    2  dxy    Ryd( 3d)     0.00008
    61    H    2  dxy    Ryd( 4d)     0.00007
    62    H    2  dxz    Ryd( 3d)     0.00036
    63    H    2  dxz    Ryd( 4d)     0.00007
    64    H    2  dyz    Ryd( 3d)     0.00011
    65    H    2  dyz    Ryd( 4d)     0.00006
    66    H    2  dx2y2  Ryd( 3d)     0.00024
    67    H    2  dx2y2  Ryd( 4d)     0.00006
    68    H    2  dz2    Ryd( 3d)     0.00020
    69    H    2  dz2    Ryd( 4d)     0.00007

    70   Br    3  S      Cor( 3S)     2.00002
    71   Br    3  S      Val( 4S)     1.98051
    72   Br    3  S      Ryd( 5S)     0.00258
    73   Br    3  S      Ryd( 6S)     0.00053
    74   Br    3  S      Ryd( 7S)     0.00010
    75   Br    3  S      Ryd( 8S)     0.00000
    76   Br    3  px     Cor( 3p)     2.00002
    77   Br    3  px     Val( 4p)     1.95307
    78   Br    3  px     Ryd( 5p)     0.01183
    79   Br    3  px     Ryd( 6p)     0.00081
    80   Br    3  px     Ryd( 7p)     0.00007
    81   Br    3  py     Cor( 3p)     2.00001
    82   Br    3  py     Val( 4p)     1.93429
    83   Br    3  py     Ryd( 5p)     0.01079
    84   Br    3  py     Ryd( 6p)     0.00076
    85   Br    3  py     Ryd( 7p)     0.00017
    86   Br    3  pz     Cor( 3p)     2.00002
    87   Br    3  pz     Val( 4p)     1.95426
    88   Br    3  pz     Ryd( 5p)     0.01184
    89   Br    3  pz     Ryd( 6p)     0.00081
    90   Br    3  pz     Ryd( 7p)     0.00007
    91   Br    3  dxy    Cor( 3d)     1.99769
    92   Br    3  dxy    Ryd( 4d)     0.01873
    93   Br    3  dxy    Ryd( 5d)     0.00149
    94   Br    3  dxy    Ryd( 6d)     0.00020
    95   Br    3  dxz    Cor( 3d)     1.99771
    96   Br    3  dxz    Ryd( 4d)     0.01848
    97   Br    3  dxz    Ryd( 5d)     0.00175
    98   Br    3  dxz    Ryd( 6d)     0.00020
    99   Br    3  dyz    Cor( 3d)     1.99769
   100   Br    3  dyz    Ryd( 4d)     0.01862
   101   Br    3  dyz    Ryd( 5d)     0.00148
   102   Br    3  dyz    Ryd( 6d)     0.00019
   103   Br    3  dx2y2  Cor( 3d)     1.99768
   104   Br    3  dx2y2  Ryd( 4d)     0.01888
   105   Br    3  dx2y2  Ryd( 5d)     0.00165
   106   Br    3  dx2y2  Ryd( 6d)     0.00021
   107   Br    3  dz2    Cor( 3d)     1.99770
   108   Br    3  dz2    Ryd( 4d)     0.01865
   109   Br    3  dz2    Ryd( 5d)     0.00173
   110   Br    3  dz2    Ryd( 6d)     0.00021
   111   Br    3  f(0)   Ryd( 4f)     0.00172
   112   Br    3  f(0)   Ryd( 5f)     0.00025
   113   Br    3  f(C1)  Ryd( 4f)     0.00174
   114   Br    3  f(C1)  Ryd( 5f)     0.00025
   115   Br    3  f(S1)  Ryd( 4f)     0.00176
   116   Br    3  f(S1)  Ryd( 5f)     0.00028
   117   Br    3  f(C2)  Ryd( 4f)     0.00171
   118   Br    3  f(C2)  Ryd( 5f)     0.00025
   119   Br    3  f(S2)  Ryd( 4f)     0.00175
   120   Br    3  f(S2)  Ryd( 5f)     0.00025
   121   Br    3  f(C3)  Ryd( 4f)     0.00171
   122   Br    3  f(C3)  Ryd( 5f)     0.00027
   123   Br    3  f(S3)  Ryd( 4f)     0.00174
   124   Br    3  f(S3)  Ryd( 5f)     0.00028

   125    H    4  S      Val( 1S)     0.28013
   126    H    4  S      Ryd( 2S)     0.00603
   127    H    4  S      Ryd( 3S)     0.00060
   128    H    4  S      Ryd( 4S)     0.00017
   129    H    4  px     Ryd( 2p)     0.00399
   130    H    4  px     Ryd( 3p)     0.00041
   131    H    4  px     Ryd( 4p)     0.00015
   132    H    4  py     Ryd( 2p)     0.00455
   133    H    4  py     Ryd( 3p)     0.00064
   134    H    4  py     Ryd( 4p)     0.00026
   135    H    4  pz     Ryd( 2p)     0.00420
   136    H    4  pz     Ryd( 3p)     0.00043
   137    H    4  pz     Ryd( 4p)     0.00012
   138    H    4  dxy    Ryd( 3d)     0.00021
   139    H    4  dxy    Ryd( 4d)     0.00010
   140    H    4  dxz    Ryd( 3d)     0.00017
   141    H    4  dxz    Ryd( 4d)     0.00006
   142    H    4  dyz    Ryd( 3d)     0.00022
   143    H    4  dyz    Ryd( 4d)     0.00009
   144    H    4  dx2y2  Ryd( 3d)     0.00019
   145    H    4  dx2y2  Ryd( 4d)     0.00010
   146    H    4  dz2    Ryd( 3d)     0.00025
   147    H    4  dz2    Ryd( 4d)     0.00007

 [ 10 electrons found in the effective core potential]

 WARNING:  5 low occupancy (<1.9990e) core orbitals found on Br    3


 Summary of Natural Population Analysis:                  
                                                          
                                       Natural Population 
                Natural  -----------------------------------------------
    Atom  No    Charge         Core      Valence    Rydberg      Total
 -----------------------------------------------------------------------
      O    1   -1.39144      1.99992     7.28267    0.10886     9.39144
      H    2    0.66202      0.00000     0.33176    0.00622     0.33798
     Br    3   -0.96744     27.98854     7.82213    0.15678    35.96744
      H    4    0.69685      0.00000     0.28013    0.02302     0.30315
 =======================================================================
   * Total *   -1.00001     29.98845    15.71668    0.29488    46.00001

                                 Natural Population      
 --------------------------------------------------------
   Effective Core            10.00000
   Core                      19.98845 ( 99.9423% of  20)
   Valence                   15.71668 ( 98.2292% of  16)
   Natural Minimal Basis     45.70513 ( 99.3590% of  46)
   Natural Rydberg Basis      0.29488 (  0.6410% of  46)
 --------------------------------------------------------

    Atom  No          Natural Electron Configuration
 ----------------------------------------------------------------------------
      O    1      [core]2S( 1.89)2p( 5.39)3S( 0.01)3p( 0.05)3d( 0.04)
      H    2            1S( 0.33)
     Br    3      [core]4S( 1.98)4p( 5.84)4d( 0.09)5p( 0.03)4f( 0.01)5d( 0.01)
      H    4            1S( 0.28)2S( 0.01)2p( 0.01)


 NATURAL BOND ORBITAL ANALYSIS:
 Warning:  a bond orbital has occupanc of -0.00011

                       Occupancies       Lewis Structure    Low   High
           Occ.    -------------------  -----------------   occ   occ
  Cycle   Thresh.   Lewis   Non-Lewis     CR  BD  3C  LP    (L)   (NL)   Dev
 =============================================================================
   1(1)    1.90    45.67364   0.32636     10   2   0   6     0      0    0.03
 -----------------------------------------------------------------------------

 Structure accepted: No low occupancy Lewis orbitals

 WARNING:  5 low occupancy (<1.9990e) core orbitals found on Br    3

 --------------------------------------------------------
   Effective Core           10.00000
   Core                     19.98845 ( 99.942% of  20)
   Valence Lewis            15.68519 ( 98.032% of  16)
  ==================       ============================
   Total Lewis              45.67364 ( 99.291% of  46)
  -----------------------------------------------------
   Valence non-Lewis         0.05716 (  0.124% of  46)
   Rydberg non-Lewis         0.26920 (  0.585% of  46)
  ==================       ============================
   Total non-Lewis           0.32636 (  0.709% of  46)
 --------------------------------------------------------


       (Occupancy)   Bond orbital/ Coefficients/ Hybrids
 ---------------------------------------------------------------------------------
     1. (1.96403) BD ( 1) O   1 - H   2  
                ( 83.90%)   0.9160* O   1 s( 15.11%)p 5.59( 84.52%)d 0.02(  0.36%)
                                                  f 0.00(  0.01%)
                                            0.0001  0.3887  0.0009  0.0018 -0.0034
                                            0.9190 -0.0190  0.0053 -0.0023 -0.0040
                                           -0.0104  0.0003 -0.0031  0.0000  0.0000
                                            0.0000  0.0000 -0.0219  0.0029  0.0015
                                            0.0000  0.0000  0.0000  0.0000  0.0000
                                            0.0000  0.0457 -0.0084  0.0053 -0.0305
                                            0.0030 -0.0018  0.0000  0.0000 -0.0097
                                            0.0011  0.0001 -0.0001  0.0000  0.0000
                                            0.0000  0.0000  0.0027  0.0021  0.0014
                                           -0.0002
                ( 16.10%)   0.4012* H   2 s( 99.76%)p 0.00(  0.20%)d 0.00(  0.04%)
                                            0.9988 -0.0019  0.0003  0.0000  0.0113
                                            0.0432 -0.0027 -0.0012 -0.0006 -0.0012
                                            0.0000  0.0000  0.0000  0.0012 -0.0028
                                            0.0000  0.0000  0.0000  0.0000  0.0164
                                           -0.0032 -0.0124  0.0011
     2. (1.96398) BD ( 1) O   1 - H   4  
                ( 87.40%)   0.9349* O   1 s( 17.47%)p 4.70( 82.18%)d 0.02(  0.34%)
                                                  f 0.00(  0.01%)
                                           -0.0001 -0.4180  0.0059  0.0035  0.0008
                                            0.1790 -0.0108 -0.0008 -0.0005  0.8884
                                           -0.0163  0.0076 -0.0055  0.0000  0.0000
                                            0.0000  0.0000  0.0112 -0.0051  0.0005
                                            0.0000  0.0000  0.0000  0.0000  0.0000
                                            0.0000  0.0477 -0.0067  0.0013  0.0299
                                            0.0002 -0.0021  0.0000  0.0000 -0.0020
                                            0.0006 -0.0098  0.0012  0.0000  0.0000
                                            0.0000  0.0000 -0.0025 -0.0016  0.0013
                                           -0.0034
                ( 12.60%)   0.3550* H   4 s( 99.79%)p 0.00(  0.19%)d 0.00(  0.01%)
                                           -0.9984  0.0341 -0.0051  0.0006 -0.0272
                                           -0.0025 -0.0018  0.0090 -0.0300 -0.0143
                                            0.0000  0.0000  0.0000 -0.0043  0.0053
                                            0.0000  0.0000  0.0000  0.0000 -0.0007
                                           -0.0006  0.0086 -0.0008
     3. (1.99992) CR ( 1) O   1           s(100.00%)
                                            1.0000 -0.0003  0.0000  0.0000  0.0000
                                           -0.0000  0.0000 -0.0000  0.0000  0.0000
                                           -0.0000  0.0000 -0.0000  0.0000  0.0000
                                            0.0000  0.0000 -0.0000 -0.0000  0.0000
                                            0.0000  0.0000  0.0000  0.0000  0.0000
                                            0.0000  0.0000 -0.0000  0.0000  0.0000
                                            0.0000 -0.0000  0.0000  0.0000  0.0000
                                            0.0000 -0.0000 -0.0000  0.0000  0.0000
                                            0.0000  0.0000 -0.0000 -0.0000 -0.0000
                                           -0.0000
     4. (2.00002) CR ( 1)Br   3           s(100.00%)
                                            1.0000 -0.0000 -0.0000 -0.0000  0.0000
                                            0.0000 -0.0000  0.0000  0.0000 -0.0000
                                            0.0000 -0.0000  0.0001 -0.0000 -0.0000
                                            0.0000  0.0000  0.0000  0.0000  0.0000
                                            0.0000 -0.0000  0.0000 -0.0000 -0.0000
                                            0.0000  0.0000  0.0000  0.0000  0.0000
                                            0.0000  0.0000  0.0000  0.0000 -0.0000
                                            0.0000  0.0000  0.0000 -0.0000  0.0000
                                            0.0000  0.0000  0.0000 -0.0000 -0.0000
                                           -0.0000 -0.0000  0.0000  0.0000  0.0000
                                            0.0000 -0.0000 -0.0000 -0.0000 -0.0000
     5. (2.00002) CR ( 2)Br   3           s(  0.00%)p 1.00(100.00%)
                                           -0.0000  0.0000  0.0000 -0.0000  0.0000
                                           -0.0000  1.0000 -0.0000 -0.0000 -0.0000
                                            0.0000 -0.0000  0.0000 -0.0000 -0.0000
                                            0.0000  0.0000  0.0000  0.0000  0.0000
                                            0.0000 -0.0000 -0.0000  0.0000  0.0000
                                            0.0000  0.0000  0.0000  0.0000  0.0000
                                            0.0000  0.0000  0.0000  0.0000 -0.0000
                                            0.0000 -0.0000  0.0000 -0.0000  0.0000
                                            0.0000  0.0000  0.0000  0.0000  0.0000
                                           -0.0000 -0.0000  0.0000  0.0000  0.0000
                                            0.0000  0.0000  0.0000 -0.0000 -0.0000
     6. (2.00001) CR ( 3)Br   3           s(  0.00%)p 1.00(100.00%)
                                           -0.0000  0.0000 -0.0000 -0.0000  0.0000
                                            0.0000 -0.0000  0.0000  0.0000 -0.0000
                                           -0.0000  1.0000  0.0001 -0.0000 -0.0000
                                            0.0000  0.0000  0.0000  0.0000  0.0000
                                            0.0000 -0.0000  0.0000 -0.0000 -0.0000
                                            0.0000  0.0000  0.0000  0.0000  0.0000
                                            0.0000  0.0000  0.0000  0.0000 -0.0000
                                            0.0000  0.0000  0.0000 -0.0000  0.0000
                                            0.0000  0.0000  0.0000 -0.0000 -0.0000
                                           -0.0000 -0.0000  0.0000  0.0000  0.0000
                                            0.0000 -0.0000 -0.0000 -0.0000 -0.0000
     7. (2.00002) CR ( 4)Br   3           s(  0.00%)p 1.00(100.00%)
                                            0.0000  0.0000  0.0000  0.0000  0.0000
                                            0.0000  0.0000  0.0000  0.0000  0.0000
                                            0.0000  0.0000  0.0000  0.0000  0.0000
                                            0.0000  1.0000 -0.0000 -0.0000 -0.0000
                                            0.0000  0.0000  0.0000  0.0000  0.0000
                                            0.0000 -0.0000  0.0000 -0.0000  0.0000
                                           -0.0000  0.0000  0.0000  0.0000  0.0000
                                            0.0000  0.0000  0.0000  0.0000  0.0000
                                            0.0000  0.0000  0.0000  0.0000  0.0000
                                            0.0000  0.0000  0.0000  0.0000 -0.0000
                                           -0.0000  0.0000  0.0000  0.0000  0.0000
     8. (1.99769) CR ( 5)Br   3           s(  0.00%)p 0.00(  0.00%)d 1.00(100.00%)
                                           -0.0000  0.0000 -0.0000 -0.0000  0.0000
                                            0.0000 -0.0000  0.0000  0.0000 -0.0000
                                           -0.0000 -0.0000  0.0000 -0.0000 -0.0000
                                            0.0000  0.0000  0.0000  0.0000  0.0000
                                            0.0000  1.0000  0.0000 -0.0000 -0.0000
                                            0.0000  0.0000  0.0000  0.0000  0.0000
                                            0.0000  0.0000  0.0000  0.0000 -0.0000
                                            0.0000  0.0000  0.0000 -0.0000  0.0000
                                            0.0000  0.0000  0.0000 -0.0000 -0.0000
                                           -0.0000 -0.0000  0.0000  0.0000  0.0000
                                            0.0000 -0.0000 -0.0000 -0.0000 -0.0000
     9. (1.99771) CR ( 6)Br   3           s(  0.00%)p 0.00(  0.00%)d 1.00(100.00%)
                                            0.0000  0.0000  0.0000  0.0000  0.0000
                                            0.0000  0.0000  0.0000  0.0000  0.0000
                                            0.0000  0.0000  0.0000  0.0000  0.0000
                                            0.0000  0.0000  0.0000  0.0000  0.0000
                                           -0.0000  0.0000  0.0000  0.0000  0.0000
                                            1.0000  0.0000 -0.0000  0.0000 -0.0000
                                            0.0000 -0.0000 -0.0000  0.0000  0.0000
                                            0.0000  0.0000  0.0000  0.0000  0.0000
                                            0.0000 -0.0000 -0.0000  0.0000  0.0000
                                            0.0000  0.0000 -0.0000 -0.0000  0.0000
                                            0.0000  0.0000  0.0000  0.0000  0.0000
    10. (1.99769) CR ( 7)Br   3           s(  0.00%)p 0.00(  0.00%)d 1.00(100.00%)
                                            0.0000  0.0000  0.0000  0.0000  0.0000
                                            0.0000  0.0000  0.0000  0.0000  0.0000
                                            0.0000  0.0000  0.0000  0.0000  0.0000
                                            0.0000  0.0000  0.0000  0.0000  0.0000
                                           -0.0000  0.0000  0.0000  0.0000  0.0000
                                           -0.0000  0.0000 -0.0000  0.0000  1.0000
                                            0.0000 -0.0000 -0.0000  0.0000  0.0000
                                            0.0000  0.0000  0.0000  0.0000  0.0000
                                            0.0000 -0.0000 -0.0000  0.0000  0.0000
                                            0.0000  0.0000 -0.0000 -0.0000  0.0000
                                            0.0000  0.0000  0.0000  0.0000  0.0000
    11. (1.99768) CR ( 8)Br   3           s(  0.00%)p 0.00(  0.00%)d 1.00(100.00%)
                                            0.0000 -0.0000  0.0000  0.0000 -0.0000
                                           -0.0000  0.0000 -0.0000 -0.0000  0.0000
                                           -0.0000  0.0000 -0.0001  0.0000  0.0000
                                           -0.0000  0.0000  0.0000  0.0000  0.0000
                                            0.0000  0.0000 -0.0000  0.0000  0.0000
                                            0.0000  0.0000  0.0000  0.0000  0.0000
                                            0.0000  0.0000  0.0000  1.0000  0.0000
                                           -0.0000 -0.0000 -0.0000  0.0000 -0.0000
                                           -0.0000  0.0000  0.0000  0.0000  0.0000
                                            0.0000  0.0000  0.0000  0.0000  0.0000
                                            0.0000  0.0000  0.0000  0.0000  0.0000
    12. (1.99770) CR ( 9)Br   3           s(  0.00%)p 0.00(  0.00%)d 1.00(100.00%)
                                            0.0000 -0.0000  0.0000  0.0000 -0.0000
                                           -0.0000  0.0000 -0.0000 -0.0000  0.0000
                                           -0.0000  0.0000 -0.0000  0.0000  0.0000
                                           -0.0000  0.0000  0.0000  0.0000  0.0000
                                            0.0000  0.0000 -0.0000  0.0000  0.0000
                                            0.0000  0.0000  0.0000  0.0000  0.0000
                                            0.0000  0.0000  0.0000 -0.0000  0.0000
                                           -0.0000 -0.0000  1.0000  0.0000 -0.0000
                                           -0.0000  0.0000  0.0000  0.0000  0.0000
                                            0.0000  0.0000  0.0000  0.0000  0.0000
                                            0.0000  0.0000  0.0000  0.0000  0.0000
    13. (1.97259) LP ( 1) O   1           s( 67.34%)p 0.48( 32.55%)d 0.00(  0.10%)
                                                  f 0.00(  0.00%)
                                            0.0002  0.8206  0.0024  0.0009  0.0017
                                           -0.3441 -0.0106  0.0061 -0.0007  0.4548
                                            0.0093 -0.0050 -0.0000  0.0000  0.0000
                                            0.0000  0.0000  0.0275 -0.0025 -0.0027
                                            0.0000  0.0000  0.0000  0.0000  0.0000
                                            0.0000  0.0006  0.0066 -0.0056  0.0108
                                           -0.0072  0.0042  0.0000  0.0000  0.0022
                                           -0.0020 -0.0029  0.0017  0.0000  0.0000
                                            0.0000  0.0000  0.0014  0.0019  0.0032
                                           -0.0011
    14. (1.96125) LP ( 2) O   1           s(  0.00%)p 1.00( 99.70%)d 0.00(  0.27%)
                                                  f 0.00(  0.03%)
                                            0.0000  0.0000  0.0000  0.0000  0.0000
                                            0.0000  0.0000  0.0000  0.0000  0.0000
                                            0.0000  0.0000  0.0000  0.9982  0.0237
                                           -0.0055  0.0056  0.0000  0.0000  0.0000
                                            0.0421 -0.0137  0.0038 -0.0265 -0.0022
                                            0.0058  0.0000  0.0000  0.0000  0.0000
                                            0.0000  0.0000 -0.0140  0.0052  0.0000
                                            0.0000  0.0000  0.0000  0.0050 -0.0034
                                            0.0021 -0.0002  0.0000  0.0000  0.0000
                                            0.0000
    15. (1.98096) LP ( 1)Br   3           s( 99.17%)p 0.01(  0.83%)d 0.00(  0.00%)
                                                  f 0.00(  0.00%)
                                            0.0000  0.9958  0.0001  0.0002 -0.0002
                                           -0.0000 -0.0000 -0.0164  0.0003 -0.0001
                                            0.0002 -0.0000 -0.0897  0.0007 -0.0008
                                            0.0004  0.0000  0.0000  0.0000  0.0000
                                            0.0000 -0.0000  0.0011 -0.0004 -0.0000
                                            0.0000  0.0000  0.0000  0.0000  0.0000
                                            0.0000  0.0000  0.0000  0.0000 -0.0021
                                            0.0007  0.0001  0.0000 -0.0015  0.0006
                                            0.0001  0.0000  0.0000 -0.0002 -0.0001
                                           -0.0008 -0.0005  0.0000  0.0000  0.0000
                                            0.0000 -0.0006 -0.0004 -0.0007 -0.0005
    16. (1.95437) LP ( 2)Br   3           s(  0.00%)p 1.00( 99.99%)d 0.00(  0.00%)
                                                  f 0.00(  0.00%)
                                            0.0000  0.0000  0.0000  0.0000  0.0000
                                            0.0000  0.0000  0.0000  0.0000  0.0000
                                            0.0000  0.0000  0.0000  0.0000  0.0000
                                            0.0000  0.0000  1.0000  0.0005  0.0012
                                           -0.0004  0.0000  0.0000  0.0000  0.0000
                                           -0.0000  0.0025 -0.0012  0.0009 -0.0000
                                            0.0057 -0.0014 -0.0012  0.0000  0.0000
                                            0.0000  0.0000  0.0000  0.0000  0.0000
                                            0.0000 -0.0018 -0.0012  0.0000  0.0000
                                            0.0000  0.0000 -0.0017 -0.0010  0.0011
                                            0.0008  0.0000  0.0000  0.0000  0.0000
    17. (1.95413) LP ( 3)Br   3           s(  0.00%)p 1.00( 99.99%)d 0.00(  0.01%)
                                                  f 0.00(  0.00%)
                                           -0.0000  0.0029  0.0004 -0.0017  0.0020
                                           -0.0001 -0.0000 -0.9775 -0.0018 -0.0016
                                            0.0010  0.0000  0.2107 -0.0005 -0.0001
                                            0.0007 -0.0000 -0.0000 -0.0000 -0.0000
                                           -0.0000  0.0000 -0.0060  0.0013  0.0010
                                           -0.0000 -0.0000 -0.0000 -0.0000 -0.0000
                                           -0.0000 -0.0000 -0.0000  0.0000 -0.0043
                                            0.0017 -0.0008 -0.0000  0.0007 -0.0004
                                            0.0008 -0.0000 -0.0000  0.0008  0.0005
                                           -0.0002 -0.0001 -0.0000 -0.0000 -0.0000
                                           -0.0000  0.0017  0.0008 -0.0018 -0.0013
    18. (1.93388) LP ( 4)Br   3           s(  0.83%)p99.99( 99.12%)d 0.05(  0.04%)
                                                  f 0.01(  0.00%)
                                           -0.0001  0.0911 -0.0008 -0.0017  0.0017
                                            0.0001 -0.0000  0.2101  0.0003 -0.0006
                                           -0.0000 -0.0001  0.9732 -0.0022 -0.0028
                                            0.0013  0.0000  0.0000  0.0000  0.0000
                                            0.0000 -0.0000  0.0080 -0.0014 -0.0004
                                            0.0000  0.0000  0.0000  0.0000  0.0000
                                            0.0000  0.0000  0.0000  0.0001 -0.0149
                                            0.0028  0.0015  0.0000 -0.0103  0.0022
                                            0.0003  0.0000  0.0000 -0.0008 -0.0005
                                           -0.0037 -0.0025  0.0000  0.0000  0.0000
                                            0.0000 -0.0026 -0.0014 -0.0035 -0.0023
    19. (0.02034) RY*( 1) O   1           s(  0.00%)p 1.00( 97.48%)d 0.02(  2.43%)
                                                  f 0.00(  0.09%)
                                            0.0000  0.0000  0.0000  0.0000  0.0000
                                            0.0000  0.0000  0.0000  0.0000  0.0000
                                            0.0000  0.0000  0.0000 -0.0316  0.9863
                                            0.0323 -0.0093  0.0000  0.0000  0.0000
                                            0.1424 -0.0364  0.0077 -0.0503  0.0022
                                            0.0091  0.0000  0.0000  0.0000  0.0000
                                            0.0000  0.0000 -0.0203  0.0151  0.0000
                                            0.0000  0.0000  0.0000  0.0124 -0.0091
                                           -0.0026  0.0001  0.0000  0.0000  0.0000
                                            0.0000
    20. (0.01625) RY*( 2) O   1           s( 13.09%)p 6.39( 83.67%)d 0.24(  3.13%)
                                                  f 0.01(  0.11%)
                                           -0.0000 -0.0153  0.3614  0.0061 -0.0010
                                            0.0088 -0.5374  0.0008  0.0031 -0.0075
                                            0.7397  0.0195 -0.0171  0.0000  0.0000
                                            0.0000  0.0000  0.1665 -0.0136 -0.0095
                                            0.0000  0.0000  0.0000  0.0000  0.0000
                                            0.0000 -0.0017  0.0265 -0.0166  0.0293
                                           -0.0350  0.0148  0.0000  0.0000  0.0031
                                           -0.0080 -0.0029  0.0074  0.0000  0.0000
                                            0.0000  0.0000  0.0194  0.0023  0.0222
                                           -0.0082
    21. (0.01003) RY*( 3) O   1           s(  0.31%)p99.99( 92.45%)d22.85(  6.99%)
                                                  f 0.82(  0.25%)
                                           -0.0000  0.0032  0.0388  0.0392 -0.0031
                                            0.0322  0.7979 -0.0140 -0.0104  0.0210
                                            0.5338  0.0206 -0.0260  0.0000  0.0000
                                            0.0000  0.0000  0.1390 -0.0095  0.0073
                                            0.0000  0.0000  0.0000  0.0000  0.0000
                                            0.0000 -0.1851 -0.1095  0.0451 -0.0036
                                            0.0374 -0.0270  0.0000  0.0000  0.0164
                                            0.0094  0.0066 -0.0002  0.0000  0.0000
                                            0.0000  0.0000 -0.0119 -0.0116  0.0383
                                           -0.0193
    22. (0.00660) RY*( 4) O   1           s( 36.65%)p 0.04(  1.60%)d 1.67( 61.09%)
                                                  f 0.02(  0.67%)
                                            0.0000  0.0137  0.6050 -0.0137  0.0099
                                           -0.0064  0.1075 -0.0091 -0.0067  0.0089
                                           -0.0632 -0.0008 -0.0141 -0.0000 -0.0000
                                           -0.0000 -0.0000 -0.7129 -0.0316  0.0055
                                           -0.0000 -0.0000 -0.0000 -0.0000 -0.0000
                                           -0.0000 -0.1162 -0.0136  0.0114  0.2931
                                            0.0437  0.0006 -0.0000 -0.0000 -0.0049
                                            0.0117  0.0113 -0.0058 -0.0000 -0.0000
                                           -0.0000 -0.0000 -0.0677  0.0194 -0.0360
                                            0.0090
    23. (0.00630) RY*( 5) O   1           s(  0.00%)p 1.00(  0.49%)d99.99( 98.19%)
                                                  f 2.73(  1.33%)
                                            0.0000  0.0000  0.0000  0.0000  0.0000
                                            0.0000  0.0000  0.0000  0.0000  0.0000
                                            0.0000  0.0000  0.0000 -0.0097 -0.0677
                                           -0.0004 -0.0135  0.0000  0.0000  0.0000
                                            0.7149  0.0747 -0.0161  0.6792  0.0605
                                           -0.0063  0.0000  0.0000  0.0000  0.0000
                                            0.0000  0.0000  0.0065 -0.0060  0.0000
                                            0.0000  0.0000  0.0000  0.1044 -0.0449
                                           -0.0144  0.0079  0.0000  0.0000  0.0000
                                            0.0000
    24. (0.00593) RY*( 6) O   1           s(  0.00%)p 1.00(  1.97%)d49.36( 97.16%)
                                                  f 0.44(  0.87%)
                                            0.0000  0.0000  0.0000  0.0000  0.0000
                                            0.0000  0.0000  0.0000  0.0000  0.0000
                                            0.0000  0.0000  0.0000  0.0439  0.1314
                                            0.0220  0.0010  0.0000  0.0000  0.0000
                                           -0.6645 -0.0976  0.0205  0.7168  0.0798
                                           -0.0029  0.0000  0.0000  0.0000  0.0000
                                            0.0000  0.0000  0.0768 -0.0325  0.0000
                                            0.0000  0.0000  0.0000  0.0015 -0.0042
                                            0.0390 -0.0136  0.0000  0.0000  0.0000
                                            0.0000
    25. (0.00582) RY*( 7) O   1           s(  7.24%)p 0.76(  5.52%)d11.94( 86.43%)
                                                  f 0.11(  0.82%)
                                           -0.0000  0.0101  0.2684 -0.0171 -0.0004
                                            0.0207  0.0857  0.0090 -0.0123 -0.0462
                                           -0.2099 -0.0317 -0.0009  0.0000  0.0000
                                            0.0000  0.0000  0.5227  0.0529 -0.0112
                                            0.0000  0.0000  0.0000  0.0000  0.0000
                                            0.0000  0.2111  0.0070  0.0124  0.7286
                                            0.1109 -0.0122  0.0000  0.0000  0.0477
                                           -0.0161 -0.0576  0.0229  0.0000  0.0000
                                            0.0000  0.0000  0.0366 -0.0203  0.0046
                                            0.0022
    26. (0.00317) RY*( 8) O   1           s( 39.84%)p 0.22(  8.70%)d 1.28( 50.88%)
                                                  f 0.01(  0.58%)
                                            0.0000 -0.0077  0.6308 -0.0015 -0.0204
                                           -0.0218  0.1517 -0.0229 -0.0223 -0.0029
                                           -0.2462 -0.0120 -0.0412  0.0000  0.0000
                                            0.0000  0.0000  0.2853  0.0543 -0.0060
                                            0.0000  0.0000  0.0000  0.0000  0.0000
                                            0.0000  0.2523  0.0423  0.0198 -0.5813
                                           -0.1438 -0.0017  0.0000  0.0000 -0.0173
                                            0.0236  0.0230 -0.0183  0.0000  0.0000
                                            0.0000  0.0000  0.0423 -0.0470 -0.0066
                                           -0.0003
    27. (0.00301) RY*( 9) O   1           s(  2.38%)p 3.47(  8.27%)d36.92( 87.91%)
                                                  f 0.60(  1.44%)
                                           -0.0000 -0.0034  0.1543 -0.0013 -0.0005
                                            0.0432 -0.1331  0.0682 -0.0282  0.0271
                                           -0.2298  0.0401 -0.0502 -0.0000 -0.0000
                                           -0.0000 -0.0000  0.2593  0.0706 -0.0032
                                           -0.0000 -0.0000 -0.0000 -0.0000 -0.0000
                                           -0.0000 -0.8856 -0.1451 -0.0137 -0.0359
                                           -0.0045  0.0008 -0.0000 -0.0000  0.0277
                                           -0.0225  0.0306 -0.0242 -0.0000 -0.0000
                                           -0.0000 -0.0000 -0.0379  0.0164  0.0893
                                           -0.0438
    28. (0.00069) RY*(10) O   1           s( 35.63%)p 1.48( 52.58%)d 0.29( 10.49%)
                                                  f 0.04(  1.30%)
                                            0.0000 -0.0048 -0.0194  0.5954  0.0371
                                           -0.0035 -0.0331  0.0115 -0.0651 -0.0014
                                            0.0014 -0.6932 -0.1993 -0.0000 -0.0000
                                           -0.0000 -0.0000 -0.0307  0.1241 -0.0670
                                           -0.0000 -0.0000 -0.0000 -0.0000 -0.0000
                                           -0.0000  0.0211 -0.2034  0.1162  0.0250
                                           -0.1489  0.0775 -0.0000 -0.0000  0.0159
                                            0.0166  0.0312  0.0477 -0.0000 -0.0000
                                           -0.0000 -0.0000 -0.0084  0.0397  0.0708
                                            0.0510
    29. (0.00057) RY*(11) O   1           s(  0.00%)p 1.00( 21.62%)d 3.12( 67.46%)
                                                  f 0.51( 10.92%)
                                            0.0000  0.0000  0.0000  0.0000  0.0000
                                            0.0000  0.0000  0.0000  0.0000  0.0000
                                            0.0000  0.0000  0.0000  0.0124  0.0588
                                           -0.4608 -0.0152  0.0000  0.0000  0.0000
                                           -0.0515  0.6433  0.1408  0.0549 -0.4740
                                           -0.1026  0.0000  0.0000  0.0000  0.0000
                                            0.0000  0.0000  0.2848 -0.0368  0.0000
                                            0.0000  0.0000  0.0000 -0.1391  0.0225
                                            0.0819  0.0137  0.0000  0.0000  0.0000
                                            0.0000
    30. (0.00058) RY*(12) O   1           s(  0.94%)p66.71( 63.01%)d34.60( 32.68%)
                                                  f 3.55(  3.36%)
                                           -0.0000  0.0082  0.0195  0.0800 -0.0509
                                           -0.0011 -0.0529 -0.7872  0.0455 -0.0039
                                           -0.0488  0.0221  0.0523 -0.0000 -0.0000
                                           -0.0000 -0.0000  0.0328 -0.4530 -0.0601
                                           -0.0000 -0.0000 -0.0000 -0.0000 -0.0000
                                           -0.0000 -0.0130 -0.3229  0.0036 -0.0218
                                            0.0978 -0.0498 -0.0000 -0.0000  0.0806
                                            0.0212 -0.1279 -0.0073 -0.0000 -0.0000
                                           -0.0000 -0.0000  0.0479 -0.0704  0.0522
                                           -0.0150
    31. (0.00055) RY*(13) O   1           s(  0.00%)p 1.00( 42.33%)d 0.97( 40.89%)
                                                  f 0.40( 16.78%)
                                            0.0000  0.0000  0.0000  0.0000  0.0000
                                            0.0000  0.0000  0.0000  0.0000  0.0000
                                            0.0000  0.0000  0.0000  0.0130  0.0053
                                            0.6386  0.1235  0.0000  0.0000  0.0000
                                           -0.0051  0.5229  0.1598 -0.0119  0.3176
                                            0.0945  0.0000  0.0000  0.0000  0.0000
                                            0.0000  0.0000  0.1345 -0.0003  0.0000
                                            0.0000  0.0000  0.0000 -0.3796  0.0260
                                            0.0705 -0.0022  0.0000  0.0000  0.0000
                                            0.0000
    32. (0.00051) RY*(14) O   1           s(  0.28%)p22.83(  6.43%)d99.99( 72.06%)
                                                  f75.42( 21.23%)
                                           -0.0000 -0.0010 -0.0289  0.0112  0.0431
                                            0.0050  0.0376  0.0957 -0.0069 -0.0108
                                           -0.0222  0.2100 -0.0945 -0.0000 -0.0000
                                           -0.0000 -0.0000 -0.0377 -0.2388 -0.1254
                                           -0.0000 -0.0000 -0.0000 -0.0000 -0.0000
                                           -0.0000  0.0117 -0.0111 -0.0155  0.1438
                                           -0.7798 -0.1311 -0.0000 -0.0000 -0.0184
                                           -0.0223 -0.0889  0.0325 -0.0000 -0.0000
                                           -0.0000 -0.0000  0.2339  0.0825  0.3742
                                            0.0299
    33. (0.00047) RY*(15) O   1           s(  0.75%)p11.99(  8.96%)d19.13( 14.31%)
                                                  f99.99( 75.98%)
                                            0.0000  0.0032 -0.0280  0.0741  0.0346
                                            0.0003 -0.0156 -0.1525 -0.0403  0.0037
                                            0.0041  0.2389 -0.0861  0.0000  0.0000
                                            0.0000  0.0000 -0.0088  0.2139  0.0440
                                            0.0000  0.0000  0.0000  0.0000  0.0000
                                            0.0000  0.0261 -0.2213 -0.0024  0.0660
                                           -0.2026 -0.0162  0.0000  0.0000  0.2954
                                            0.0380  0.6578  0.0933  0.0000  0.0000
                                            0.0000  0.0000  0.2262  0.0319 -0.4202
                                            0.0310
    34. (0.00044) RY*(16) O   1           s(  0.06%)p16.56(  1.00%)d52.53(  3.18%)
                                                  f99.99( 95.76%)
                                           -0.0000 -0.0009  0.0043  0.0196  0.0142
                                            0.0053  0.0084  0.0753  0.0387  0.0033
                                            0.0127 -0.0404  0.0308  0.0000  0.0000
                                            0.0000  0.0000 -0.0621  0.1271  0.0025
                                            0.0000  0.0000  0.0000  0.0000  0.0000
                                            0.0000 -0.0535  0.0576 -0.0267 -0.0557
                                            0.0419  0.0026  0.0000  0.0000  0.6275
                                            0.0743 -0.5307 -0.0842  0.0000  0.0000
                                            0.0000  0.0000  0.4769  0.0584 -0.1949
                                           -0.0257
    35. (0.00044) RY*(17) O   1           s(  0.00%)p 1.00(  0.06%)d99.99(  7.24%)
                                                  f99.99( 92.70%)
                                            0.0000  0.0000  0.0000  0.0000  0.0000
                                            0.0000  0.0000  0.0000  0.0000  0.0000
                                            0.0000  0.0000  0.0000  0.0051 -0.0014
[...]
                                           -0.0294  0.0282  0.1980 -0.1124  0.0068
                                            0.0000  0.0000  0.0000 -0.0527  0.0227
                                            0.0000  0.0000  0.0000  0.0000  0.0446
                                           -0.0278 -0.0719  0.0042
   127. (0.00254) RY*( 4) H   4           s( 34.40%)p 1.89( 65.08%)d 0.02(  0.52%)
                                            0.0396  0.5249 -0.2498 -0.0670 -0.2679
                                           -0.0276  0.0524  0.7151 -0.2490  0.0456
                                            0.0000  0.0000  0.0000  0.0529  0.0121
                                            0.0000  0.0000  0.0000  0.0000 -0.0104
                                           -0.0440 -0.0059 -0.0147
   128. (0.00075) RY*( 5) H   4           s( 52.80%)p 0.83( 43.61%)d 0.07(  3.60%)
                                           -0.0060  0.2011  0.6732 -0.1850  0.0289
                                            0.3629 -0.0173  0.2727  0.4405 -0.1866
                                            0.0000  0.0000  0.0000 -0.0387  0.0034
                                            0.0000  0.0000  0.0000  0.0000  0.1490
                                            0.0638  0.0621  0.0658
   129. (0.00042) RY*( 6) H   4           s(  5.25%)p16.08( 84.47%)d 1.96( 10.28%)
                                            0.0037 -0.0629  0.0362  0.2174 -0.0100
                                            0.7907  0.0098 -0.0482 -0.3662  0.2878
                                            0.0000  0.0000  0.0000 -0.0768  0.2513
                                            0.0000  0.0000  0.0000  0.0000 -0.1261
                                           -0.0780 -0.0766 -0.0767
   130. (0.00035) RY*( 7) H   4           s(  0.00%)p 1.00( 90.32%)d 0.11(  9.68%)
                                            0.0000  0.0000  0.0000  0.0000  0.0000
                                            0.0000  0.0000  0.0000  0.0000  0.0000
                                           -0.1574  0.9232  0.1615  0.0000  0.0000
                                            0.1005 -0.0062  0.1957  0.2200  0.0000
                                            0.0000  0.0000  0.0000
   131. (0.00031) RY*( 8) H   4           s( 14.83%)p 2.91( 43.11%)d 2.84( 42.06%)
                                           -0.0126 -0.0225  0.3495  0.1595 -0.0138
                                           -0.2517  0.4583  0.0381  0.0396  0.3932
                                            0.0000  0.0000  0.0000  0.4084  0.1076
                                            0.0000  0.0000  0.0000  0.0000  0.0647
                                           -0.3233 -0.3416 -0.1294
   132. (0.00026) RY*( 9) H   4           s(  6.29%)p 5.19( 32.64%)d 9.71( 61.07%)
                                            0.0081 -0.0332 -0.1049  0.2252 -0.0240
                                            0.1797  0.2054 -0.0626 -0.2298 -0.4412
                                           -0.0000 -0.0000 -0.0000  0.3657 -0.1050
                                           -0.0000 -0.0000 -0.0000 -0.0000  0.6173
                                            0.1854 -0.1232  0.1880
   133. (0.00024) RY*(10) H   4           s(  0.00%)p 1.00( 22.29%)d 3.49( 77.71%)
                                            0.0000  0.0000  0.0000  0.0000  0.0000
                                            0.0000  0.0000  0.0000  0.0000  0.0000
                                            0.0719 -0.2458  0.3966  0.0000  0.0000
                                            0.1100 -0.0689  0.8712 -0.0355  0.0000
                                            0.0000  0.0000  0.0000
   134. (0.00017) RY*(11) H   4           s(  0.00%)p 1.00(  0.52%)d99.99( 99.48%)
                                            0.0000  0.0000  0.0000  0.0000  0.0000
                                            0.0000  0.0000  0.0000  0.0000  0.0000
                                           -0.0188 -0.0692  0.0095  0.0000  0.0000
                                            0.9808  0.1025 -0.1401 -0.0506  0.0000
                                            0.0000  0.0000  0.0000
   135. (0.00017) RY*(12) H   4           s(  2.27%)p 1.55(  3.52%)d41.50( 94.21%)
                                            0.0056  0.0125  0.0779  0.1282  0.0887
                                            0.0028  0.1427 -0.0059 -0.0797 -0.0235
                                            0.0000  0.0000  0.0000  0.4627  0.0621
                                            0.0000  0.0000  0.0000  0.0000 -0.2411
                                           -0.0279  0.8121  0.0761
   136. (0.00016) RY*(13) H   4           s( 47.51%)p 0.42( 20.04%)d 0.68( 32.45%)
                                            0.0168  0.0376  0.3553  0.5892 -0.0528
                                           -0.2823  0.0932  0.0697 -0.2700 -0.1773
                                           -0.0000 -0.0000 -0.0000 -0.5411  0.0494
                                           -0.0000 -0.0000 -0.0000 -0.0000  0.0185
                                           -0.0542  0.1307  0.0949
   137. (0.00011) RY*(14) H   4           s(  5.09%)p 9.29( 47.26%)d 9.36( 47.65%)
                                            0.0012  0.0177  0.1991  0.1044  0.0115
                                           -0.0114 -0.6279  0.0083 -0.2076  0.1869
                                           -0.0000 -0.0000 -0.0000  0.1795 -0.5230
                                           -0.0000 -0.0000 -0.0000 -0.0000  0.2080
                                           -0.3451  0.0530 -0.0741
   138. (0.00012) RY*(15) H   4           s(  0.00%)p 1.00( 55.78%)d 0.79( 44.22%)
                                            0.0000  0.0000  0.0000  0.0000  0.0000
                                            0.0000  0.0000  0.0000  0.0000  0.0000
                                           -0.0101 -0.1834  0.7239  0.0000  0.0000
                                           -0.0444  0.0328 -0.3493  0.5631  0.0000
                                            0.0000  0.0000  0.0000
   139. (0.00007) RY*(16) H   4           s( 33.98%)p 0.73( 24.78%)d 1.21( 41.24%)
   140. (0.00005) RY*(17) H   4           s(  8.60%)p 3.97( 34.19%)d 6.65( 57.21%)
   141. (0.00006) RY*(18) H   4           s(  0.00%)p 1.00(  0.26%)d99.99( 99.74%)
   142. (0.00006) RY*(19) H   4           s(  6.71%)p 0.17(  1.13%)d13.74( 92.16%)
   143. (0.00004) RY*(20) H   4           s(  0.00%)p 1.00( 31.37%)d 2.19( 68.63%)
   144. (0.00004) RY*(21) H   4           s(  3.96%)p 8.60( 34.03%)d15.66( 62.01%)
   145. (0.00002) RY*(22) H   4           s( 11.25%)p 3.11( 35.02%)d 4.78( 53.73%)
   146. (0.01960) BD*( 1) O   1 - H   2  
                ( 16.10%)   0.4012* O   1 s( 15.11%)p 5.59( 84.52%)d 0.02(  0.36%)
                                                  f 0.00(  0.01%)
                                           -0.0001 -0.3887 -0.0009 -0.0018  0.0034
                                           -0.9190  0.0190 -0.0053  0.0023  0.0040
                                            0.0104 -0.0003  0.0031 -0.0000 -0.0000
                                           -0.0000 -0.0000  0.0219 -0.0029 -0.0015
                                           -0.0000 -0.0000 -0.0000 -0.0000 -0.0000
                                           -0.0000 -0.0457  0.0084 -0.0053  0.0305
                                           -0.0030  0.0018 -0.0000 -0.0000  0.0097
                                           -0.0011 -0.0001  0.0001 -0.0000 -0.0000
                                           -0.0000 -0.0000 -0.0027 -0.0021 -0.0014
                                            0.0002
                ( 83.90%)  -0.9160* H   2 s( 99.76%)p 0.00(  0.20%)d 0.00(  0.04%)
                                           -0.9988  0.0019 -0.0003 -0.0000 -0.0113
                                           -0.0432  0.0027  0.0012  0.0006  0.0012
                                           -0.0000 -0.0000 -0.0000 -0.0012  0.0028
                                           -0.0000 -0.0000 -0.0000 -0.0000 -0.0164
                                            0.0032  0.0124 -0.0011
   147. (0.03756) BD*( 1) O   1 - H   4  
                ( 12.60%)   0.3550* O   1 s( 17.47%)p 4.70( 82.18%)d 0.02(  0.34%)
                                                  f 0.00(  0.01%)
                                            0.0001  0.4180 -0.0059 -0.0035 -0.0008
                                           -0.1790  0.0108  0.0008  0.0005 -0.8884
                                            0.0163 -0.0076  0.0055 -0.0000 -0.0000
                                           -0.0000 -0.0000 -0.0112  0.0051 -0.0005
                                           -0.0000 -0.0000 -0.0000 -0.0000 -0.0000
                                           -0.0000 -0.0477  0.0067 -0.0013 -0.0299
                                           -0.0002  0.0021 -0.0000 -0.0000  0.0020
                                           -0.0006  0.0098 -0.0012 -0.0000 -0.0000
                                           -0.0000 -0.0000  0.0025  0.0016 -0.0013
                                            0.0034
                ( 87.40%)  -0.9349* H   4 s( 99.79%)p 0.00(  0.19%)d 0.00(  0.01%)
                                            0.9984 -0.0341  0.0051 -0.0006  0.0272
                                            0.0025  0.0018 -0.0090  0.0300  0.0143
                                           -0.0000 -0.0000 -0.0000  0.0043 -0.0053
                                           -0.0000 -0.0000 -0.0000 -0.0000  0.0007
                                            0.0006 -0.0086  0.0008


 NHO Directionality and "Bond Bending" (deviations from line of nuclear centers)

         [Thresholds for printing:  angular deviation  >  1.0 degree]
                                    hybrid p-character > 25.0%
                                    orbital occupancy  >  0.10e

                                Line of Centers        Hybrid 1              Hybrid 2
                                ---------------  -------------------   ------------------
                NBO               Theta   Phi    Theta   Phi    Dev    Theta   Phi    Dev
 ========================================================================================
     1. BD (   1) O   1 - H   2    90.0    0.0    90.0  358.9   1.1      --     --    --
    13. LP (   1) O   1             --     --     90.0  127.3   --       --     --    --
    14. LP (   2) O   1             --     --      0.0    0.0   --       --     --    --
    16. LP (   2)Br   3             --     --      0.0    0.0   --       --     --    --
    17. LP (   3)Br   3             --     --     90.0  167.9   --       --     --    --
    18. LP (   4)Br   3             --     --     90.0   77.8   --       --     --    --


 Natural Bond Orbitals (Summary):

           NBO                  Occupancy  
 -----------------------------------------------
 Molecular unit  1  (H2O)
     1. BD (   1) O   1 - H   2          1.96403
     2. BD (   1) O   1 - H   4          1.96398
     3. CR (   1) O   1                  1.99992
    13. LP (   1) O   1                  1.97259
    14. LP (   2) O   1                  1.96125
    19. RY*(   1) O   1                  0.02034
    20. RY*(   2) O   1                  0.01625
    21. RY*(   3) O   1                  0.01003
    22. RY*(   4) O   1                  0.00660
    23. RY*(   5) O   1                  0.00630
    24. RY*(   6) O   1                  0.00593
    25. RY*(   7) O   1                  0.00582
    26. RY*(   8) O   1                  0.00317
    27. RY*(   9) O   1                  0.00301
    28. RY*(  10) O   1                  0.00069
    29. RY*(  11) O   1                  0.00057
    30. RY*(  12) O   1                  0.00058
    31. RY*(  13) O   1                  0.00055
    32. RY*(  14) O   1                  0.00051
    33. RY*(  15) O   1                  0.00047
    34. RY*(  16) O   1                  0.00044
    35. RY*(  17) O   1                  0.00044
    36. RY*(  18) O   1                  0.00045
    37. RY*(  19) O   1                  0.00042
    38. RY*(  20) O   1                  0.00042
    39. RY*(  21) O   1                  0.00037
    40. RY*(  22) O   1                  0.00034
    41. RY*(  23) O   1                  0.00031
    42. RY*(  24) O   1                  0.00025
    43. RY*(  25) O   1                  0.00026
    44. RY*(  26) O   1                  0.00015
    45. RY*(  27) O   1                  0.00009
    46. RY*(  28) O   1                  0.00008
    47. RY*(  29) O   1                  0.00008
    48. RY*(  30) O   1                  0.00008
    49. RY*(  31) O   1                  0.00007
    50. RY*(  32) O   1                  0.00007
    51. RY*(  33) O   1                  0.00007
    52. RY*(  34) O   1                  0.00007
    53. RY*(  35) O   1                  0.00006
    54. RY*(  36) O   1                  0.00007
    55. RY*(  37) O   1                  0.00005
    56. RY*(  38) O   1                  0.00005
    57. RY*(  39) O   1                  0.00002
    58. RY*(  40) O   1                  0.00001
    59. RY*(  41) O   1                 -0.00011
    60. RY*(   1) H   2                  0.00172
    61. RY*(   2) H   2                  0.00158
    62. RY*(   3) H   2                  0.00064
    63. RY*(   4) H   2                  0.00030
    64. RY*(   5) H   2                  0.00022
    65. RY*(   6) H   2                  0.00015
    66. RY*(   7) H   2                  0.00014
    67. RY*(   8) H   2                  0.00011
    68. RY*(   9) H   2                  0.00011
    69. RY*(  10) H   2                  0.00008
    70. RY*(  11) H   2                  0.00006
    71. RY*(  12) H   2                  0.00006
    72. RY*(  13) H   2                  0.00003
    73. RY*(  14) H   2                  0.00003
    74. RY*(  15) H   2                  0.00004
    75. RY*(  16) H   2                  0.00003
    76. RY*(  17) H   2                  0.00004
    77. RY*(  18) H   2                  0.00003
    78. RY*(  19) H   2                  0.00001
    79. RY*(  20) H   2                  0.00001
    80. RY*(  21) H   2                  0.00001
    81. RY*(  22) H   2                  0.00001
   124. RY*(   1) H   4                  0.00855
   125. RY*(   2) H   4                  0.00433
   126. RY*(   3) H   4                  0.00399
   127. RY*(   4) H   4                  0.00254
   128. RY*(   5) H   4                  0.00075
   129. RY*(   6) H   4                  0.00042
   130. RY*(   7) H   4                  0.00035
   131. RY*(   8) H   4                  0.00031
   132. RY*(   9) H   4                  0.00026
   133. RY*(  10) H   4                  0.00024
   134. RY*(  11) H   4                  0.00017
   135. RY*(  12) H   4                  0.00017
   136. RY*(  13) H   4                  0.00016
   137. RY*(  14) H   4                  0.00011
   138. RY*(  15) H   4                  0.00012
   139. RY*(  16) H   4                  0.00007
   140. RY*(  17) H   4                  0.00005
   141. RY*(  18) H   4                  0.00006
   142. RY*(  19) H   4                  0.00006
   143. RY*(  20) H   4                  0.00004
   144. RY*(  21) H   4                  0.00004
   145. RY*(  22) H   4                  0.00002
   146. BD*(   1) O   1 - H   2          0.01960
   147. BD*(   1) O   1 - H   4          0.03756
       -------------------------------
              Total Lewis    9.86176  ( 98.2976%)
        Valence non-Lewis    0.05716  (  0.5698%)
        Rydberg non-Lewis    0.11363  (  1.1326%)
       -------------------------------
            Total unit  1   10.03256  (100.0000%)
           Charge unit  1   -0.03256

 Molecular unit  2  (Br)
     4. CR (   1)Br   3                  2.00002
     5. CR (   2)Br   3                  2.00002
     6. CR (   3)Br   3                  2.00001
     7. CR (   4)Br   3                  2.00002
     8. CR (   5)Br   3                  1.99769
     9. CR (   6)Br   3                  1.99771
    10. CR (   7)Br   3                  1.99769
    11. CR (   8)Br   3                  1.99768
    12. CR (   9)Br   3                  1.99770
    15. LP (   1)Br   3                  1.98096
    16. LP (   2)Br   3                  1.95437
    17. LP (   3)Br   3                  1.95413
    18. LP (   4)Br   3                  1.93388
    82. RY*(   1)Br   3                  0.01859
    83. RY*(   2)Br   3                  0.01858
    84. RY*(   3)Br   3                  0.01853
    85. RY*(   4)Br   3                  0.01846
    86. RY*(   5)Br   3                  0.01846
    87. RY*(   6)Br   3                  0.01187
    88. RY*(   7)Br   3                  0.01183
    89. RY*(   8)Br   3                  0.01069
    90. RY*(   9)Br   3                  0.00312
    91. RY*(  10)Br   3                  0.00178
    92. RY*(  11)Br   3                  0.00178
    93. RY*(  12)Br   3                  0.00174
    94. RY*(  13)Br   3                  0.00174
    95. RY*(  14)Br   3                  0.00174
    96. RY*(  15)Br   3                  0.00174
    97. RY*(  16)Br   3                  0.00174
    98. RY*(  17)Br   3                  0.00174
    99. RY*(  18)Br   3                  0.00175
   100. RY*(  19)Br   3                  0.00144
   101. RY*(  20)Br   3                  0.00145
   102. RY*(  21)Br   3                  0.00127
   103. RY*(  22)Br   3                  0.00079
   104. RY*(  23)Br   3                  0.00079
   105. RY*(  24)Br   3                  0.00075
   106. RY*(  25)Br   3                  0.00045
   107. RY*(  26)Br   3                  0.00025
   108. RY*(  27)Br   3                  0.00024
   109. RY*(  28)Br   3                  0.00025
   110. RY*(  29)Br   3                  0.00025
   111. RY*(  30)Br   3                  0.00025
   112. RY*(  31)Br   3                  0.00024
   113. RY*(  32)Br   3                  0.00025
   114. RY*(  33)Br   3                  0.00019
   115. RY*(  34)Br   3                  0.00019
   116. RY*(  35)Br   3                  0.00015
   117. RY*(  36)Br   3                  0.00016
   118. RY*(  37)Br   3                  0.00009
   119. RY*(  38)Br   3                  0.00007
   120. RY*(  39)Br   3                  0.00006
   121. RY*(  40)Br   3                  0.00006
   122. RY*(  41)Br   3                  0.00006
   123. RY*(  42)Br   3                  0.00000
       -------------------------------
              Total Lewis   35.81188  ( 99.5675%)
        Valence non-Lewis    0.00000  (  0.0000%)
        Rydberg non-Lewis    0.15557  (  0.4325%)
       -------------------------------
            Total unit  2   35.96744  (100.0000%)
           Charge unit  2   -0.96744
 Leave Link  607 at Fri Oct 15 15:33:41 2021, MaxMem= 16106127360 cpu:              67.5 elap:               2.4
 (Enter /sw/contrib/gaussian/g16/B01/g16/l9999.exe)
 1\1\GINC-N2098\SP\RMP2-FC\Gen\Br1H2O1(1-)\CGAVINH\15-Oct-2021\0\\#p po
 p=NBO SP NoSymm mp2/gen Pseudo=read density=current\\title\\-1,1\O\X,1
 ,10.\H,1,0.96048156,2,90.\Br,1,3.25083182,2,90.,3,101.65547111,0\H,1,1
 .,2,90.,3,101.65547111,0\\Version=ES64L-G16RevB.01\HF=-491.6507188\MP2
 =-492.1694889\RMSD=7.024e-09\Dipole=0.6634887,0.4855516,0.\Quadrupole=
 10.8418038,-21.0369563,10.1951526,-6.1145296,0.,0.\PG=CS [SG(Br1H2O1)]
 \\@


 ALMOST ALL THE CHEMICAL PROCESSES WHICH OCCUR IN NATURE,
 WHETHER IN ANIMAL OR VEGETABLE ORGANISMS,
 OR IN THE NON-LIVING SURFACE OF THE EARTH ... 
 TAKE PLACE BETWEEN SUBSTANCES IN SOLUTION

                                    -- W. OSTWALD, 1890
 Job cpu time:       0 days  0 hours  5 minutes 16.7 seconds.
 Elapsed time:       0 days  0 hours  0 minutes 18.8 seconds.
 File lengths (MBytes):  RWF=     16 Int=      0 D2E=      0 Chk=      8 Scr=      1
 Normal termination of Gaussian 16 at Fri Oct 15 15:33:42 2021.
