 Entering Gaussian System, Link 0=g16
 Input=brhod_pp_rOH_145_sp.gjf
 Output=brhod_pp_rOH_145_sp.log
 Initial command:
 /sw/contrib/gaussian/g16/B01/g16/l1.exe "/scr/Gau-15640.inp" -scrdir="/scr/"
 Entering Link 1 = /sw/contrib/gaussian/g16/B01/g16/l1.exe PID=     15641.
  
 Copyright (c) 1988-2017, Gaussian, Inc.  All Rights Reserved.
  
 This is part of the Gaussian(R) 16 program.  It is based on
 the Gaussian(R) 09 system (copyright 2009, Gaussian, Inc.),
 the Gaussian(R) 03 system (copyright 2003, Gaussian, Inc.),
 the Gaussian(R) 98 system (copyright 1998, Gaussian, Inc.),
 the Gaussian(R) 94 system (copyright 1995, Gaussian, Inc.),
 the Gaussian 92(TM) system (copyright 1992, Gaussian, Inc.),
 the Gaussian 90(TM) system (copyright 1990, Gaussian, Inc.),
 the Gaussian 88(TM) system (copyright 1988, Gaussian, Inc.),
 the Gaussian 86(TM) system (copyright 1986, Carnegie Mellon
 University), and the Gaussian 82(TM) system (copyright 1983,
 Carnegie Mellon University). Gaussian is a federally registered
 trademark of Gaussian, Inc.
  
 This software contains proprietary and confidential information,
 including trade secrets, belonging to Gaussian, Inc.
  
 This software is provided under written license and may be
 used, copied, transmitted, or stored only in accord with that
 written license.
  
 The following legend is applicable only to US Government
 contracts under FAR:
  
                    RESTRICTED RIGHTS LEGEND
  
 Use, reproduction and disclosure by the US Government is
 subject to restrictions as set forth in subparagraphs (a)
 and (c) of the Commercial Computer Software - Restricted
 Rights clause in FAR 52.227-19.
  
 Gaussian, Inc.
 340 Quinnipiac St., Bldg. 40, Wallingford CT 06492
  
  
 ---------------------------------------------------------------
 Warning -- This program may not be used in any manner that
 competes with the business of Gaussian, Inc. or will provide
 assistance to any competitor of Gaussian, Inc.  The licensee
 of this program is prohibited from giving any competitor of
 Gaussian, Inc. access to this program.  By using this program,
 the user acknowledges that Gaussian, Inc. is engaged in the
 business of creating and licensing software in the field of
 computational chemistry and represents and warrants to the
 licensee that it is not a competitor of Gaussian, Inc. and that
 it will not use this program in any manner prohibited above.
 ---------------------------------------------------------------
  

 Cite this work as:
 Gaussian 16, Revision B.01,
 M. J. Frisch, G. W. Trucks, H. B. Schlegel, G. E. Scuseria, 
 M. A. Robb, J. R. Cheeseman, G. Scalmani, V. Barone, 
 G. A. Petersson, H. Nakatsuji, X. Li, M. Caricato, A. V. Marenich, 
 J. Bloino, B. G. Janesko, R. Gomperts, B. Mennucci, H. P. Hratchian, 
 J. V. Ortiz, A. F. Izmaylov, J. L. Sonnenberg, D. Williams-Young, 
 F. Ding, F. Lipparini, F. Egidi, J. Goings, B. Peng, A. Petrone, 
 T. Henderson, D. Ranasinghe, V. G. Zakrzewski, J. Gao, N. Rega, 
 G. Zheng, W. Liang, M. Hada, M. Ehara, K. Toyota, R. Fukuda, 
 J. Hasegawa, M. Ishida, T. Nakajima, Y. Honda, O. Kitao, H. Nakai, 
 T. Vreven, K. Throssell, J. A. Montgomery, Jr., J. E. Peralta, 
 F. Ogliaro, M. J. Bearpark, J. J. Heyd, E. N. Brothers, K. N. Kudin, 
 V. N. Staroverov, T. A. Keith, R. Kobayashi, J. Normand, 
 K. Raghavachari, A. P. Rendell, J. C. Burant, S. S. Iyengar, 
 J. Tomasi, M. Cossi, J. M. Millam, M. Klene, C. Adamo, R. Cammi, 
 J. W. Ochterski, R. L. Martin, K. Morokuma, O. Farkas, 
 J. B. Foresman, and D. J. Fox, Gaussian, Inc., Wallingford CT, 2016.
 
 ******************************************
 Gaussian 16:  ES64L-G16RevB.01 20-Dec-2017
                15-Oct-2021 
 ******************************************
 %nproc=28
 Will use up to   28 processors via shared memory.
 %mem=120GB
 %chk=/gscratch/ilahie/mccoygrp/coire_hocl/rOH_s_oop_0/brhod_pp/brhod_pp_rOH_145_
 sp.chk
 --------------------------------------------------------
 #p pop=NBO SP NoSymm mp2/gen Pseudo=read density=current
 --------------------------------------------------------
 1/30=1,38=1,172=1/1;
 2/12=2,15=1,17=6,18=5,40=1/2;
 3/5=7,11=9,16=1,17=8,25=1,30=1,71=1/1,2,3;
 4//1;
 5/5=2,38=5/2;
 8/6=4,10=1/1;
 9/15=1,16=-3/6;
 10/5=1,13=10,31=1/2;
 6/7=2,8=2,9=2,10=2,22=-1,40=1/1,7;
 99/5=1,9=1/99;
 Leave Link    1 at Fri Oct 15 15:36:20 2021, MaxMem= 16106127360 cpu:               2.3 elap:               0.1
 (Enter /sw/contrib/gaussian/g16/B01/g16/l101.exe)
 -----
 title
 -----
 Symbolic Z-matrix:
 Charge = -1 Multiplicity = 1
 O
 X                    1     10. 
 H(iso=2)             1    r1       2     90. 
 Br                   1    r2       2     90.      3    a1       0
 H                    1    r3       2    oop      3    a1       0
       Variables:
  r1                    0.96048                  
  r2                    3.25083                  
  r3                    1.45                     
  a1                  101.65547                  
  OOP                  90.                       
 
 ITRead=  0  0  0  0
 MicOpt= -1 -1 -1 -1
 NAtoms=      4 NQM=        4 NQMF=       0 NMMI=      0 NMMIF=      0
                NMic=       0 NMicF=      0.
                    Isotopes and Nuclear Properties:
 (Nuclear quadrupole moments (NQMom) in fm**2, nuclear magnetic moments (NMagM)
  in nuclear magnetons)

  Atom         1           2           3           4
 IAtWgt=          16           2          79           1
 AtmWgt=  15.9949146   2.0141018  78.9183361   1.0078250
 NucSpn=           0           2           3           1
 AtZEff=  -0.0000000  -0.0000000  -0.0000000  -0.0000000
 NQMom=    0.0000000   0.2860000  31.3000000   0.0000000
 NMagM=    0.0000000   0.8574380   2.1063990   2.7928460
 AtZNuc=   8.0000000   1.0000000  35.0000000   1.0000000
 Leave Link  101 at Fri Oct 15 15:36:20 2021, MaxMem= 16106127360 cpu:               2.8 elap:               0.1
 (Enter /sw/contrib/gaussian/g16/B01/g16/l202.exe)
                          Input orientation:                          
 ---------------------------------------------------------------------
 Center     Atomic      Atomic             Coordinates (Angstroms)
 Number     Number       Type             X           Y           Z
 ---------------------------------------------------------------------
      1          8           0        0.000000    0.000000    0.000000
      2          1           0        0.960482    0.000000    0.000000
      3         35           0       -0.656753   -3.183800    0.000000
      4          1           0       -0.292938   -1.420101    0.000000
 ---------------------------------------------------------------------
                    Distance matrix (angstroms):
                    1          2          3          4
     1  O    0.000000
     2  H    0.960482   0.000000
     3  Br   3.250832   3.570999   0.000000
     4  H    1.450000   1.894135   1.800832   0.000000
 Symmetry turned off by external request.
 Stoichiometry    BrH2O(1-)
 Framework group  CS[SG(BrH2O)]
 Deg. of freedom     5
 Full point group                 CS      NOp   2
 Rotational constants (GHZ):         323.3163812           3.1844624           3.1534034
 Leave Link  202 at Fri Oct 15 15:36:20 2021, MaxMem= 16106127360 cpu:               0.2 elap:               0.0
 (Enter /sw/contrib/gaussian/g16/B01/g16/l301.exe)
 General basis read from cards:  (5D, 7F)
 Centers:       2      4      1      2      4
 aug-cc-pVTZ
 ****
 Centers:       3
 S 10 1.00
     Exponent=  9.6593900000D+03 Coefficients=  3.7100000000D-04
     Exponent=  1.4559600000D+03 Coefficients=  2.5710000000D-03
     Exponent=  3.2591400000D+02 Coefficients=  8.4850000000D-03
     Exponent=  4.6565700000D+01 Coefficients=  7.8222000000D-02
     Exponent=  1.8246900000D+01 Coefficients= -3.9714900000D-01
     Exponent=  3.8020100000D+00 Coefficients=  6.8586400000D-01
     Exponent=  1.7863200000D+00 Coefficients=  4.8681900000D-01
     Exponent=  6.0271400000D-01 Coefficients=  3.4913000000D-02
     Exponent=  2.8401400000D-01 Coefficients= -6.5730000000D-03
     Exponent=  1.2027100000D-01 Coefficients=  1.6420000000D-03
 S 10 1.00
     Exponent=  9.6593900000D+03 Coefficients= -1.5200000000D-04
     Exponent=  1.4559600000D+03 Coefficients= -1.0080000000D-03
     Exponent=  3.2591400000D+02 Coefficients= -3.6090000000D-03
     Exponent=  4.6565700000D+01 Coefficients= -2.7872000000D-02
     Exponent=  1.8246900000D+01 Coefficients=  1.5131700000D-01
     Exponent=  3.8020100000D+00 Coefficients= -3.5149700000D-01
     Exponent=  1.7863200000D+00 Coefficients= -4.1070300000D-01
     Exponent=  6.0271400000D-01 Coefficients=  3.4731600000D-01
     Exponent=  2.8401400000D-01 Coefficients=  6.7549100000D-01
     Exponent=  1.2027100000D-01 Coefficients=  2.4400800000D-01
 S 1 1.00
     Exponent=  6.0271400000D-01 Coefficients=  1.0000000000D+00
 S 1 1.00
     Exponent=  2.8401400000D-01 Coefficients=  1.0000000000D+00
 S 1 1.00
     Exponent=  1.2027100000D-01 Coefficients=  1.0000000000D+00
 S 1 1.00
     Exponent=  4.4500000000D-02 Coefficients=  1.0000000000D+00
 P 9 1.00
     Exponent=  4.9218700000D+02 Coefficients=  4.7200000000D-04
     Exponent=  9.2364200000D+01 Coefficients=  5.4940000000D-03
     Exponent=  2.7071800000D+01 Coefficients= -8.8030000000D-02
     Exponent=  7.2653900000D+00 Coefficients=  3.4348500000D-01
     Exponent=  3.4848100000D+00 Coefficients=  5.1020800000D-01
     Exponent=  1.6404800000D+00 Coefficients=  2.4863100000D-01
     Exponent=  6.4857000000D-01 Coefficients=  2.2201000000D-02
     Exponent=  2.5640700000D-01 Coefficients= -4.1900000000D-04
     Exponent=  9.5304000000D-02 Coefficients=  6.5600000000D-04
 P 9 1.00
     Exponent=  4.9218700000D+02 Coefficients= -1.5800000000D-04
     Exponent=  9.2364200000D+01 Coefficients= -1.3440000000D-03
     Exponent=  2.7071800000D+01 Coefficients=  2.4616000000D-02
     Exponent=  7.2653900000D+00 Coefficients= -1.1253200000D-01
     Exponent=  3.4848100000D+00 Coefficients= -1.7977500000D-01
     Exponent=  1.6404800000D+00 Coefficients= -7.3661000000D-02
     Exponent=  6.4857000000D-01 Coefficients=  3.4873400000D-01
     Exponent=  2.5640700000D-01 Coefficients=  5.5794800000D-01
     Exponent=  9.5304000000D-02 Coefficients=  2.6645600000D-01
 P 1 1.00
     Exponent=  7.6660000000D-01 Coefficients=  1.0000000000D+00
 P 1 1.00
     Exponent=  1.1820000000D-01 Coefficients=  1.0000000000D+00
 P 1 1.00
     Exponent=  3.9600000000D-02 Coefficients=  1.0000000000D+00
 D 8 1.00
     Exponent=  3.3899600000D+02 Coefficients=  1.5240000000D-03
     Exponent=  1.0321700000D+02 Coefficients=  1.5673000000D-02
     Exponent=  4.2363800000D+01 Coefficients=  7.2400000000D-02
     Exponent=  1.8435600000D+01 Coefficients=  1.8630300000D-01
     Exponent=  8.3725400000D+00 Coefficients=  3.2388100000D-01
     Exponent=  3.8022200000D+00 Coefficients=  3.7453400000D-01
     Exponent=  1.6867700000D+00 Coefficients=  2.5741800000D-01
     Exponent=  6.7752000000D-01 Coefficients=  6.8051000000D-02
 D 1 1.00
     Exponent=  6.7752000000D-01 Coefficients=  1.0000000000D+00
 D 1 1.00
     Exponent=  2.5530000000D-01 Coefficients=  1.0000000000D+00
 D 1 1.00
     Exponent=  1.0090000000D-01 Coefficients=  1.0000000000D+00
 F 1 1.00
     Exponent=  5.6060000000D-01 Coefficients=  1.0000000000D+00
 F 1 1.00
     Exponent=  2.4540000000D-01 Coefficients=  1.0000000000D+00
 ****
 ======================================================================================================
                                       Pseudopotential Parameters
 ======================================================================================================
  Center     Atomic      Valence      Angular      Power
  Number     Number     Electrons     Momentum     of R      Exponent        Coefficient   SO-Coeffient
 ======================================================================================================
    1          8
                                   No pseudopotential on this center.
    2          1
                                   No pseudopotential on this center.
    3         35           25
                                      G and up 
                                                     2        1.0000000        0.00000000    0.00000000
                                      S - G
                                                     2       70.0242570       49.96283400    0.00000000
                                                     2       31.1784120      370.01420500    0.00000000
                                                     2        7.1565930       10.24143900    0.00000000
                                      P - G
                                                     2       46.7734710       99.11224400    0.00000000
                                                     2       46.1841200      198.25304600    0.00000000
                                                     2       21.7138580       28.26174000    0.00000000
                                                     2       20.9417920       56.62336600    0.00000000
                                      D - G
                                                     2       50.6988390      -18.60585300    0.00000000
                                                     2       50.6447640      -27.92328000    0.00000000
                                                     2       15.4475090       -0.37969300    0.00000000
                                                     2       15.5002590       -0.78058300    0.00000000
                                                     2        2.8003910        0.03596800    0.00000000
                                                     2        1.0774800        0.09439700    0.00000000
                                      F - G
                                                     2       14.4656060       -1.09126900    0.00000000
                                                     2       21.2340650       -2.88769100    0.00000000
    4          1
                                   No pseudopotential on this center.
 ======================================================================================================
 Ernie: Thresh=  0.10000D-02 Tol=  0.10000D-05 Strict=F.
 Ernie:  18 primitive shells out of 132 were deleted.
   191 basis functions,   334 primitive gaussians,   218 cartesian basis functions
    18 alpha electrons       18 beta electrons
       nuclear repulsion energy        51.2139681125 Hartrees.
 IExCor=    0 DFT=F Ex=HF Corr=None ExCW=0 ScaHFX=  1.000000
 ScaDFX=  1.000000  1.000000  1.000000  1.000000 ScalE2=  1.000000  1.000000
 IRadAn=      5 IRanWt=     -1 IRanGd=            0 ICorTp=0 IEmpDi=  4
 NAtoms=    4 NActive=    4 NUniq=    4 SFac= 1.00D+00 NAtFMM=   60 NAOKFM=F Big=F
 Integral buffers will be    131072 words long.
 Raffenetti 1 integral format.
 Two-electron integral symmetry is turned off.
 Leave Link  301 at Fri Oct 15 15:36:20 2021, MaxMem= 16106127360 cpu:               3.0 elap:               0.1
 (Enter /sw/contrib/gaussian/g16/B01/g16/l302.exe)
 NPDir=0 NMtPBC=     1 NCelOv=     1 NCel=       1 NClECP=     1 NCelD=      1
         NCelK=      1 NCelE2=     1 NClLst=     1 CellRange=     0.0.
 One-electron integrals computed using PRISM.
   1 Symmetry operations used in ECPInt.
 ECPInt:  NShTT=    2145 NPrTT=    6720 LenC2=    2146 LenP2D=    6106.
 LDataN:  DoStor=T MaxTD1= 7 Len=  274
 NBasis=   191 RedAO= T EigKep=  3.70D-04  NBF=   191
 NBsUse=   147 1.00D-06 EigRej=  1.39D-15 NBFU=   147
 Leave Link  302 at Fri Oct 15 15:36:21 2021, MaxMem= 16106127360 cpu:               7.1 elap:               0.3
 (Enter /sw/contrib/gaussian/g16/B01/g16/l303.exe)
 DipDrv:  MaxL=1.
 Leave Link  303 at Fri Oct 15 15:36:21 2021, MaxMem= 16106127360 cpu:               0.8 elap:               0.1
 (Enter /sw/contrib/gaussian/g16/B01/g16/l401.exe)
 ExpMin= 2.53D-02 ExpMax= 1.53D+04 ExpMxC= 5.22D+02 IAcc=3 IRadAn=         5 AccDes= 0.00D+00
 Harris functional with IExCor=  205 and IRadAn=       5 diagonalized for initial guess.
 HarFok:  IExCor=  205 AccDes= 0.00D+00 IRadAn=         5 IDoV= 1 UseB2=F ITyADJ=14
 ICtDFT=  3500011 ScaDFX=  1.000000  1.000000  1.000000  1.000000
 FoFCou: FMM=F IPFlag=           0 FMFlag=      100000 FMFlg1=           0
         NFxFlg=           0 DoJE=T BraDBF=F KetDBF=T FulRan=T
         wScrn=  0.000000 ICntrl=       500 IOpCl=  0 I1Cent=   200000004 NGrid=           0
         NMat0=    1 NMatS0=      1 NMatT0=    0 NMatD0=    1 NMtDS0=    0 NMtDT0=    0
 Symmetry not used in FoFCou.
 Harris En= -493.502702535320    
 JPrj=0 DoOrth=F DoCkMO=F.
 Leave Link  401 at Fri Oct 15 15:36:21 2021, MaxMem= 16106127360 cpu:               7.7 elap:               0.3
 (Enter /sw/contrib/gaussian/g16/B01/g16/l502.exe)
 Keep R1 ints in memory in canonical form, NReq=204937497.
 FoFCou: FMM=F IPFlag=           0 FMFlag=           0 FMFlg1=           0
         NFxFlg=           0 DoJE=F BraDBF=F KetDBF=F FulRan=T
         wScrn=  0.000000 ICntrl=       600 IOpCl=  0 I1Cent=           0 NGrid=           0
         NMat0=    1 NMatS0=  18336 NMatT0=    0 NMatD0=    1 NMtDS0=    0 NMtDT0=    0
 Symmetry not used in FoFCou.
 Two-electron integral symmetry not used.
 Closed shell SCF:
 Using DIIS extrapolation, IDIIS=  1040.
 NGot= 16106127360 LenX= 15937911236 LenY= 15937863271
 Requested convergence on RMS density matrix=1.00D-08 within 128 cycles.
 Requested convergence on MAX density matrix=1.00D-06.
 Requested convergence on             energy=1.00D-06.
 No special actions if energy rises.

 Cycle   1  Pass 1  IDiag  1:
 E= -491.420666096735    
 DIIS: error= 3.85D-02 at cycle   1 NSaved=   1.
 NSaved= 1 IEnMin= 1 EnMin= -491.420666096735     IErMin= 1 ErrMin= 3.85D-02
 ErrMax= 3.85D-02  0.00D+00 EMaxC= 1.00D-01 BMatC= 2.80D-01 BMatP= 2.80D-01
 IDIUse=3 WtCom= 6.15D-01 WtEn= 3.85D-01
 Coeff-Com:  0.100D+01
 Coeff-En:   0.100D+01
 Coeff:      0.100D+01
 Gap=     0.486 Goal=   None    Shift=    0.000
 GapD=    0.486 DampG=2.000 DampE=0.500 DampFc=1.0000 IDamp=-1.
 RMSDP=3.63D-03 MaxDP=1.91D-01              OVMax= 1.66D-01

 Cycle   2  Pass 1  IDiag  1:
 E= -491.507853432898     Delta-E=       -0.087187336163 Rises=F Damp=F
 DIIS: error= 3.57D-02 at cycle   2 NSaved=   2.
 NSaved= 2 IEnMin= 2 EnMin= -491.507853432898     IErMin= 2 ErrMin= 3.57D-02
 ErrMax= 3.57D-02  0.00D+00 EMaxC= 1.00D-01 BMatC= 1.06D-01 BMatP= 2.80D-01
 IDIUse=3 WtCom= 6.43D-01 WtEn= 3.57D-01
 Coeff-Com:  0.355D+00 0.645D+00
 Coeff-En:   0.213D+00 0.787D+00
 Coeff:      0.304D+00 0.696D+00
 Gap=     0.367 Goal=   None    Shift=    0.000
 RMSDP=1.17D-03 MaxDP=3.99D-02 DE=-8.72D-02 OVMax= 9.73D-02

 Cycle   3  Pass 1  IDiag  1:
 E= -491.573417424950     Delta-E=       -0.065563992052 Rises=F Damp=F
 DIIS: error= 1.00D-02 at cycle   3 NSaved=   3.
 NSaved= 3 IEnMin= 3 EnMin= -491.573417424950     IErMin= 3 ErrMin= 1.00D-02
 ErrMax= 1.00D-02  0.00D+00 EMaxC= 1.00D-01 BMatC= 9.53D-03 BMatP= 1.06D-01
 IDIUse=3 WtCom= 9.00D-01 WtEn= 1.00D-01
 Coeff-Com: -0.181D-01 0.215D+00 0.803D+00
 Coeff-En:   0.000D+00 0.000D+00 0.100D+01
 Coeff:     -0.163D-01 0.193D+00 0.823D+00
 Gap=     0.357 Goal=   None    Shift=    0.000
 RMSDP=4.07D-04 MaxDP=2.67D-02 DE=-6.56D-02 OVMax= 2.60D-02

 Cycle   4  Pass 1  IDiag  1:
 E= -491.579823369494     Delta-E=       -0.006405944544 Rises=F Damp=F
 DIIS: error= 1.09D-03 at cycle   4 NSaved=   4.
 NSaved= 4 IEnMin= 4 EnMin= -491.579823369494     IErMin= 4 ErrMin= 1.09D-03
 ErrMax= 1.09D-03  0.00D+00 EMaxC= 1.00D-01 BMatC= 1.73D-04 BMatP= 9.53D-03
 IDIUse=3 WtCom= 9.89D-01 WtEn= 1.09D-02
 Coeff-Com: -0.512D-02 0.351D-01 0.205D+00 0.765D+00
 Coeff-En:   0.000D+00 0.000D+00 0.000D+00 0.100D+01
 Coeff:     -0.507D-02 0.347D-01 0.203D+00 0.767D+00
 Gap=     0.340 Goal=   None    Shift=    0.000
 RMSDP=7.32D-05 MaxDP=2.58D-03 DE=-6.41D-03 OVMax= 2.89D-03

 Cycle   5  Pass 1  IDiag  1:
 E= -491.579946474404     Delta-E=       -0.000123104910 Rises=F Damp=F
 DIIS: error= 1.59D-04 at cycle   5 NSaved=   5.
 NSaved= 5 IEnMin= 5 EnMin= -491.579946474404     IErMin= 5 ErrMin= 1.59D-04
 ErrMax= 1.59D-04  0.00D+00 EMaxC= 1.00D-01 BMatC= 6.45D-06 BMatP= 1.73D-04
 IDIUse=3 WtCom= 9.98D-01 WtEn= 1.59D-03
 Coeff-Com: -0.778D-03-0.119D-01-0.360D-01 0.693D-01 0.979D+00
 Coeff-En:   0.000D+00 0.000D+00 0.000D+00 0.000D+00 0.100D+01
 Coeff:     -0.777D-03-0.119D-01-0.359D-01 0.692D-01 0.979D+00
 Gap=     0.340 Goal=   None    Shift=    0.000
 RMSDP=2.83D-05 MaxDP=1.75D-03 DE=-1.23D-04 OVMax= 1.24D-03

 Cycle   6  Pass 1  IDiag  1:
 E= -491.579957241257     Delta-E=       -0.000010766853 Rises=F Damp=F
 DIIS: error= 6.67D-05 at cycle   6 NSaved=   6.
 NSaved= 6 IEnMin= 6 EnMin= -491.579957241257     IErMin= 6 ErrMin= 6.67D-05
 ErrMax= 6.67D-05  0.00D+00 EMaxC= 1.00D-01 BMatC= 4.74D-07 BMatP= 6.45D-06
 IDIUse=1 WtCom= 1.00D+00 WtEn= 0.00D+00
 Coeff-Com:  0.671D-03 0.739D-04-0.410D-02-0.492D-01-0.315D+00 0.137D+01
 Coeff:      0.671D-03 0.739D-04-0.410D-02-0.492D-01-0.315D+00 0.137D+01
 Gap=     0.340 Goal=   None    Shift=    0.000
 RMSDP=1.32D-05 MaxDP=8.42D-04 DE=-1.08D-05 OVMax= 6.28D-04

 Cycle   7  Pass 1  IDiag  1:
 E= -491.579958906546     Delta-E=       -0.000001665289 Rises=F Damp=F
 DIIS: error= 1.71D-05 at cycle   7 NSaved=   7.
 NSaved= 7 IEnMin= 7 EnMin= -491.579958906546     IErMin= 7 ErrMin= 1.71D-05
 ErrMax= 1.71D-05  0.00D+00 EMaxC= 1.00D-01 BMatC= 2.32D-08 BMatP= 4.74D-07
 IDIUse=1 WtCom= 1.00D+00 WtEn= 0.00D+00
 Coeff-Com: -0.252D-03 0.504D-03 0.297D-02 0.162D-01 0.912D-01-0.565D+00
 Coeff-Com:  0.145D+01
 Coeff:     -0.252D-03 0.504D-03 0.297D-02 0.162D-01 0.912D-01-0.565D+00
 Coeff:      0.145D+01
 Gap=     0.340 Goal=   None    Shift=    0.000
 RMSDP=2.52D-06 MaxDP=1.24D-04 DE=-1.67D-06 OVMax= 1.62D-04

 Cycle   8  Pass 1  IDiag  1:
 E= -491.579958989747     Delta-E=       -0.000000083201 Rises=F Damp=F
 DIIS: error= 4.05D-06 at cycle   8 NSaved=   8.
 NSaved= 8 IEnMin= 8 EnMin= -491.579958989747     IErMin= 8 ErrMin= 4.05D-06
 ErrMax= 4.05D-06  0.00D+00 EMaxC= 1.00D-01 BMatC= 1.13D-09 BMatP= 2.32D-08
 IDIUse=1 WtCom= 1.00D+00 WtEn= 0.00D+00
 Coeff-Com: -0.478D-04 0.128D-04 0.312D-03 0.324D-02 0.214D-01-0.100D+00
 Coeff-Com:  0.966D-01 0.979D+00
 Coeff:     -0.478D-04 0.128D-04 0.312D-03 0.324D-02 0.214D-01-0.100D+00
 Coeff:      0.966D-01 0.979D+00
 Gap=     0.340 Goal=   None    Shift=    0.000
 RMSDP=3.28D-07 MaxDP=1.05D-05 DE=-8.32D-08 OVMax= 2.62D-05

 Cycle   9  Pass 1  IDiag  1:
 E= -491.579958992655     Delta-E=       -0.000000002908 Rises=F Damp=F
 DIIS: error= 1.60D-06 at cycle   9 NSaved=   9.
 NSaved= 9 IEnMin= 9 EnMin= -491.579958992655     IErMin= 9 ErrMin= 1.60D-06
 ErrMax= 1.60D-06  0.00D+00 EMaxC= 1.00D-01 BMatC= 1.41D-10 BMatP= 1.13D-09
 IDIUse=1 WtCom= 1.00D+00 WtEn= 0.00D+00
 Coeff-Com:  0.335D-04-0.657D-04-0.360D-03-0.214D-02-0.126D-01 0.766D-01
 Coeff-Com: -0.185D+00-0.107D+00 0.123D+01
 Coeff:      0.335D-04-0.657D-04-0.360D-03-0.214D-02-0.126D-01 0.766D-01
 Coeff:     -0.185D+00-0.107D+00 0.123D+01
 Gap=     0.340 Goal=   None    Shift=    0.000
 RMSDP=1.68D-07 MaxDP=4.18D-06 DE=-2.91D-09 OVMax= 1.26D-05

 Cycle  10  Pass 1  IDiag  1:
 E= -491.579958993146     Delta-E=       -0.000000000491 Rises=F Damp=F
 DIIS: error= 3.82D-07 at cycle  10 NSaved=  10.
 NSaved=10 IEnMin=10 EnMin= -491.579958993146     IErMin=10 ErrMin= 3.82D-07
 ErrMax= 3.82D-07  0.00D+00 EMaxC= 1.00D-01 BMatC= 9.54D-12 BMatP= 1.41D-10
 IDIUse=1 WtCom= 1.00D+00 WtEn= 0.00D+00
 Coeff-Com: -0.493D-05 0.135D-04 0.660D-04 0.200D-03 0.138D-02-0.103D-01
 Coeff-Com:  0.356D-01-0.441D-01-0.262D+00 0.128D+01
 Coeff:     -0.493D-05 0.135D-04 0.660D-04 0.200D-03 0.138D-02-0.103D-01
 Coeff:      0.356D-01-0.441D-01-0.262D+00 0.128D+01
 Gap=     0.340 Goal=   None    Shift=    0.000
 RMSDP=5.38D-08 MaxDP=2.54D-06 DE=-4.91D-10 OVMax= 3.57D-06

 Cycle  11  Pass 1  IDiag  1:
 E= -491.579958993181     Delta-E=       -0.000000000035 Rises=F Damp=F
 DIIS: error= 7.18D-08 at cycle  11 NSaved=  11.
 NSaved=11 IEnMin=11 EnMin= -491.579958993181     IErMin=11 ErrMin= 7.18D-08
 ErrMax= 7.18D-08  0.00D+00 EMaxC= 1.00D-01 BMatC= 7.77D-13 BMatP= 9.54D-12
 IDIUse=1 WtCom= 1.00D+00 WtEn= 0.00D+00
 Coeff-Com: -0.118D-05 0.136D-05 0.846D-05 0.107D-03 0.584D-03-0.288D-02
 Coeff-Com:  0.445D-02 0.178D-01-0.223D-01-0.333D+00 0.133D+01
 Coeff:     -0.118D-05 0.136D-05 0.846D-05 0.107D-03 0.584D-03-0.288D-02
 Coeff:      0.445D-02 0.178D-01-0.223D-01-0.333D+00 0.133D+01
 Gap=     0.340 Goal=   None    Shift=    0.000
 RMSDP=1.68D-08 MaxDP=6.26D-07 DE=-3.49D-11 OVMax= 1.37D-06

 Cycle  12  Pass 1  IDiag  1:
 E= -491.579958993185     Delta-E=       -0.000000000005 Rises=F Damp=F
 DIIS: error= 1.59D-08 at cycle  12 NSaved=  12.
 NSaved=12 IEnMin=12 EnMin= -491.579958993185     IErMin=12 ErrMin= 1.59D-08
 ErrMax= 1.59D-08  0.00D+00 EMaxC= 1.00D-01 BMatC= 6.42D-14 BMatP= 7.77D-13
 IDIUse=1 WtCom= 1.00D+00 WtEn= 0.00D+00
 Coeff-Com:  0.708D-06-0.159D-05-0.701D-05-0.411D-04-0.257D-03 0.154D-02
 Coeff-Com: -0.418D-02 0.597D-03 0.265D-01-0.325D-01-0.354D+00 0.136D+01
 Coeff:      0.708D-06-0.159D-05-0.701D-05-0.411D-04-0.257D-03 0.154D-02
 Coeff:     -0.418D-02 0.597D-03 0.265D-01-0.325D-01-0.354D+00 0.136D+01
 Gap=     0.340 Goal=   None    Shift=    0.000
 RMSDP=5.26D-09 MaxDP=3.15D-07 DE=-4.77D-12 OVMax= 4.09D-07

 SCF Done:  E(RHF) =  -491.579958993     A.U. after   12 cycles
            NFock= 12  Conv=0.53D-08     -V/T= 2.3234
 KE= 3.714636990576D+02 PE=-1.317493270739D+03 EE= 4.032356445758D+02
 Leave Link  502 at Fri Oct 15 15:36:26 2021, MaxMem= 16106127360 cpu:              39.3 elap:               4.7
 (Enter /sw/contrib/gaussian/g16/B01/g16/l801.exe)
 ExpMin= 2.53D-02 ExpMax= 1.53D+04 ExpMxC= 5.22D+02 IAcc=3 IRadAn=         5 AccDes= 0.00D+00
 HarFok:  IExCor=  205 AccDes= 0.00D+00 IRadAn=         5 IDoV=-2 UseB2=F ITyADJ=14
 ICtDFT= 12500011 ScaDFX=  1.000000  1.000000  1.000000  1.000000
 Largest valence mixing into a core orbital is  1.31D-04
 Largest core mixing into a valence orbital is  2.42D-05
 Range of M.O.s used for correlation:     6   147
 NBasis=   191 NAE=    18 NBE=    18 NFC=     5 NFV=     0
 NROrb=    142 NOA=    13 NOB=    13 NVA=   129 NVB=   129

 **** Warning!!: The largest alpha MO coefficient is  0.14293333D+02

 Leave Link  801 at Fri Oct 15 15:36:26 2021, MaxMem= 16106127360 cpu:               2.1 elap:               0.1
 (Enter /sw/contrib/gaussian/g16/B01/g16/l906.exe)
 Frozen-core derivative calculation, NFC=   5 NFV=   0.
 FulOut=F Deriv=T AODrv=F NAtomX=     4
   MMem=         107  MDisk=          13 MDiskD=          13
  W3Min=      576828 MinDsk=     1313419 NBas6D=         218
 NBas2D=       24339    NTT=       23871    LW2=    16556320
    MDV= 16105797390 MDiskM=      369353 NBas2p=       24313
 Fully in-core method, ICMem=   644650517.
 IMap=   1   2   3   4   5   6   7   8   9  10  11  12  13  14  15  16  17  18
 JobTyp=1 Pass  1 fully in-core, NPsUse= 28.
 Compute canonical integrals.
 FoFCou: FMM=F IPFlag=           0 FMFlag=           0 FMFlg1=           0
         NFxFlg=           0 DoJE=F BraDBF=F KetDBF=F FulRan=T
         wScrn=  0.000000 ICntrl=       600 IOpCl=  1 I1Cent=           0 NGrid=           0
         NMat0=    1 NMatS0=  24339 NMatT0=    0 NMatD0=    1 NMtDS0=    0 NMtDT0=    0
 Symmetry not used in FoFCou.
 Spin components of T(2) and E(2):
     alpha-alpha T2 =       0.2296922855D-01 E2=     -0.7328411126D-01
     alpha-beta  T2 =       0.1210473459D+00 E2=     -0.3943122725D+00
     beta-beta   T2 =       0.2296922855D-01 E2=     -0.7328411126D-01
 The integrals were generated   1 times.
 ANorm=    0.1080271171D+01
 E2 =    -0.5408804950D+00 EUMP2 =    -0.49212083948820D+03
 Leave Link  906 at Fri Oct 15 15:36:31 2021, MaxMem= 16106127360 cpu:             128.0 elap:               4.6
 (Enter /sw/contrib/gaussian/g16/B01/g16/l1002.exe)
 Minotr:  Closed shell wavefunction.
          Computing MP2/KS-MP2 derivatives.
          Using Z-Vector for PSCF gradient.
          Skipping F1 and S1 gradient terms here.
          Frozen-core window.
          Direct CPHF calculation.
          Differentiating once with respect to electric field.
                with respect to dipole field.
          Electric field/nuclear overlap derivatives assumed to be zero.
          Requested convergence is 1.0D-10 RMS, and 1.0D-09 maximum.
          NewPWx=F KeepS1=T KeepF1=T KeepIn=T MapXYZ=F SortEE=F KeepMc=T.
 Keep R1 ints in memory in canonical form, NReq=204940053.
 FoFCou: FMM=F IPFlag=           0 FMFlag=           0 FMFlg1=           0
         NFxFlg=           0 DoJE=F BraDBF=F KetDBF=F FulRan=T
         wScrn=  0.000000 ICntrl=       600 IOpCl=  0 I1Cent=           0 NGrid=           0
         NMat0=    1 NMatS0=  18336 NMatT0=    0 NMatD0=    1 NMtDS0=    0 NMtDT0=    0
 Symmetry not used in FoFCou.
 Two-electron integral symmetry not used.
          MDV=   16106127360 using IRadAn=       5.
          Solving linear equations separately, MaxMat=       0.
          There are     1 degrees of freedom in the 1st order CPHF.  IDoFFX=0 NUNeed=     1.
 LinEq1:  Iter=  0 NonCon=     1 RMS=3.88D-03 Max=8.25D-02 NDo=     1
 AX will form     1 AO Fock derivatives at one time.
 LinEq1:  Iter=  1 NonCon=     1 RMS=6.93D-04 Max=1.09D-02 NDo=     1
 LinEq1:  Iter=  2 NonCon=     1 RMS=2.80D-04 Max=4.19D-03 NDo=     1
 LinEq1:  Iter=  3 NonCon=     1 RMS=1.08D-04 Max=1.17D-03 NDo=     1
 LinEq1:  Iter=  4 NonCon=     1 RMS=5.78D-05 Max=9.76D-04 NDo=     1
 LinEq1:  Iter=  5 NonCon=     1 RMS=1.09D-05 Max=1.40D-04 NDo=     1
 LinEq1:  Iter=  6 NonCon=     1 RMS=2.28D-06 Max=3.62D-05 NDo=     1
 LinEq1:  Iter=  7 NonCon=     1 RMS=4.50D-07 Max=4.98D-06 NDo=     1
 LinEq1:  Iter=  8 NonCon=     1 RMS=1.29D-07 Max=1.49D-06 NDo=     1
 LinEq1:  Iter=  9 NonCon=     1 RMS=2.87D-08 Max=3.76D-07 NDo=     1
 LinEq1:  Iter= 10 NonCon=     1 RMS=4.56D-09 Max=5.74D-08 NDo=     1
 LinEq1:  Iter= 11 NonCon=     1 RMS=1.03D-09 Max=1.14D-08 NDo=     1
 LinEq1:  Iter= 12 NonCon=     1 RMS=2.27D-10 Max=2.68D-09 NDo=     1
 LinEq1:  Iter= 13 NonCon=     0 RMS=5.55D-11 Max=5.41D-10 NDo=     1
 Linear equations converged to 1.000D-10 1.000D-09 after    13 iterations.
 End of Minotr F.D. properties file   721 does not exist.
 End of Minotr F.D. properties file   722 does not exist.
 End of Minotr F.D. properties file   788 does not exist.
 Leave Link 1002 at Fri Oct 15 15:36:36 2021, MaxMem= 16106127360 cpu:              41.6 elap:               5.4
 (Enter /sw/contrib/gaussian/g16/B01/g16/l601.exe)
 Copying SCF densities to generalized density rwf, IOpCl= 0 IROHF=0.

 **********************************************************************

            Population analysis using the MP2 Density.

 **********************************************************************

 Alpha  occ. eigenvalues --  -20.32007  -9.59098  -7.33999  -7.33776  -7.33771
 Alpha  occ. eigenvalues --   -2.89125  -2.89030  -2.89025  -2.88790  -2.88790
 Alpha  occ. eigenvalues --   -1.04486  -0.79102  -0.39988  -0.33038  -0.24741
 Alpha  occ. eigenvalues --   -0.20136  -0.20019  -0.18993
 Alpha virt. eigenvalues --    0.15028   0.16982   0.24074   0.25340   0.25516
 Alpha virt. eigenvalues --    0.28802   0.31807   0.32471   0.32857   0.36331
 Alpha virt. eigenvalues --    0.41044   0.41547   0.42482   0.44784   0.45863
 Alpha virt. eigenvalues --    0.46845   0.47590   0.53435   0.55486   0.60213
 Alpha virt. eigenvalues --    0.62346   0.63548   0.69816   0.73896   0.81350
 Alpha virt. eigenvalues --    0.81431   0.83862   0.89840   0.91663   0.94311
 Alpha virt. eigenvalues --    0.95659   0.95899   0.96203   0.97480   0.98845
 Alpha virt. eigenvalues --    1.00055   1.02999   1.03730   1.06952   1.11477
 Alpha virt. eigenvalues --    1.11985   1.12761   1.13095   1.14627   1.18886
 Alpha virt. eigenvalues --    1.21427   1.22299   1.23036   1.24319   1.28483
 Alpha virt. eigenvalues --    1.32497   1.33451   1.44335   1.45815   1.46890
 Alpha virt. eigenvalues --    1.49031   1.65450   1.70166   1.75327   1.76117
 Alpha virt. eigenvalues --    1.77544   1.82045   2.00108   2.03922   2.15773
 Alpha virt. eigenvalues --    2.34171   2.43223   2.43548   2.47458   2.49820
 Alpha virt. eigenvalues --    2.51176   2.51192   2.51672   2.51677   2.53426
 Alpha virt. eigenvalues --    2.54460   2.54858   2.58900   2.59955   2.61924
 Alpha virt. eigenvalues --    2.63575   2.66190   2.68684   2.71617   2.78891
 Alpha virt. eigenvalues --    2.79006   2.81113   2.94445   3.02683   3.03119
 Alpha virt. eigenvalues --    3.12859   3.20903   3.23651   3.67812   3.90953
 Alpha virt. eigenvalues --    4.05086   4.15524   4.16793   4.32433   4.33457
 Alpha virt. eigenvalues --    4.41336   4.48064   4.50721   4.53181   4.58304
 Alpha virt. eigenvalues --    4.62555   4.79443   4.82163   5.03491   5.19224
 Alpha virt. eigenvalues --    5.44377   5.56221   5.60322   6.05108   6.53513
 Alpha virt. eigenvalues --    6.94231   7.03728   7.10831   7.17321   7.46742
 Alpha virt. eigenvalues --    7.49314   7.55633   7.56981   7.58093   7.77655
 Alpha virt. eigenvalues --    7.90395   8.48930  14.53074  79.85304
          Condensed to atoms (all electrons):
               1          2          3          4
     1  O    8.421547   0.201401  -0.106975   0.183092
     2  H    0.201401   0.636762  -0.005215   0.028210
     3  Br  -0.106975  -0.005215  25.705836   0.040269
     4  H    0.183092   0.028210   0.040269   0.554290
 Mulliken charges:
               1
     1  O   -0.699065
     2  H    0.138841
     3  Br  -0.633915
     4  H    0.194139
 Sum of Mulliken charges =  -1.00000
 Mulliken charges with hydrogens summed into heavy atoms:
               1
     1  O   -0.366085
     3  Br  -0.633915
 Electronic spatial extent (au):  <R**2>=           1044.4725
 Charge=             -1.0000 electrons
 Dipole moment (field-independent basis, Debye):
    X=              2.8699    Y=              8.5247    Z=             -0.0000  Tot=              8.9948
 Quadrupole moment (field-independent basis, Debye-Ang):
   XX=            -29.6696   YY=            -60.5802   ZZ=            -31.0761
   XY=             -5.8303   XZ=              0.0000   YZ=              0.0000
 Traceless Quadrupole moment (field-independent basis, Debye-Ang):
   XX=             10.7724   YY=            -20.1383   ZZ=              9.3658
   XY=             -5.8303   XZ=              0.0000   YZ=              0.0000
 Octapole moment (field-independent basis, Debye-Ang**2):
  XXX=             43.2865  YYY=            306.0003  ZZZ=              0.0000  XYY=             32.8448
  XXY=             73.9692  XXZ=             -0.0000  XZZ=             13.5762  YZZ=             70.0343
  YYZ=             -0.0000  XYZ=             -0.0000
 Hexadecapole moment (field-independent basis, Debye-Ang**3):
 XXXX=           -101.4183 YYYY=          -1659.8684 ZZZZ=            -46.6562 XXXY=           -138.8268
 XXXZ=             -0.0000 YYYX=           -193.6196 YYYZ=              0.0000 ZZZX=             -0.0000
 ZZZY=              0.0000 XXYY=           -257.9895 XXZZ=            -24.9336 YYZZ=           -237.0538
 XXYZ=              0.0000 YYXZ=              0.0000 ZZXY=            -45.5000
 N-N= 5.121396811247D+01 E-N=-1.316193119453D+03  KE= 3.711523006882D+02
 No NMR shielding tensors so no spin-rotation constants.
 Leave Link  601 at Fri Oct 15 15:36:36 2021, MaxMem= 16106127360 cpu:               4.3 elap:               0.2
 (Enter /sw/contrib/gaussian/g16/B01/g16/l607.exe)
 ******************************Gaussian NBO Version 3.1******************************
             N A T U R A L   A T O M I C   O R B I T A L   A N D
          N A T U R A L   B O N D   O R B I T A L   A N A L Y S I S
 ******************************Gaussian NBO Version 3.1******************************
       /RESON  / : Allow strongly delocalized NBO set

 Analyzing the MP2 density

 Job title: title                                                           

 Storage needed:    110417 in NPA,    146568 in NBO (********** available)
 GSVD:  LWork=       14857 too small for GESVD, short by       27473 words or       27473 for optimal perf.


 NATURAL POPULATIONS:  Natural atomic orbital occupancies 
                                                          
   NAO  Atom  No  lang   Type(AO)    Occupancy
 --------------------------------------------
     1    O    1  S      Cor( 1S)     1.99992
     2    O    1  S      Val( 2S)     1.91424
     3    O    1  S      Ryd( 3S)     0.00782
     4    O    1  S      Ryd( 4S)     0.00032
     5    O    1  S      Ryd( 5S)     0.00018
     6    O    1  px     Val( 2p)     1.66696
     7    O    1  px     Ryd( 3p)     0.01612
     8    O    1  px     Ryd( 4p)     0.00056
     9    O    1  px     Ryd( 5p)     0.00020
    10    O    1  py     Val( 2p)     1.79563
    11    O    1  py     Ryd( 3p)     0.01657
    12    O    1  py     Ryd( 4p)     0.00055
    13    O    1  py     Ryd( 5p)     0.00006
    14    O    1  pz     Val( 2p)     1.95002
    15    O    1  pz     Ryd( 3p)     0.02558
    16    O    1  pz     Ryd( 4p)     0.00056
    17    O    1  pz     Ryd( 5p)     0.00000
    18    O    1  dxy    Ryd( 3d)     0.00821
    19    O    1  dxy    Ryd( 4d)     0.00048
    20    O    1  dxy    Ryd( 5d)     0.00009
    21    O    1  dxz    Ryd( 3d)     0.00878
    22    O    1  dxz    Ryd( 4d)     0.00051
    23    O    1  dxz    Ryd( 5d)     0.00008
    24    O    1  dyz    Ryd( 3d)     0.00667
    25    O    1  dyz    Ryd( 4d)     0.00057
    26    O    1  dyz    Ryd( 5d)     0.00008
    27    O    1  dx2y2  Ryd( 3d)     0.00972
    28    O    1  dx2y2  Ryd( 4d)     0.00049
    29    O    1  dx2y2  Ryd( 5d)     0.00011
    30    O    1  dz2    Ryd( 3d)     0.00739
    31    O    1  dz2    Ryd( 4d)     0.00064
    32    O    1  dz2    Ryd( 5d)     0.00012
    33    O    1  f(0)   Ryd( 4f)     0.00062
    34    O    1  f(0)   Ryd( 5f)     0.00011
    35    O    1  f(C1)  Ryd( 4f)     0.00053
    36    O    1  f(C1)  Ryd( 5f)     0.00010
    37    O    1  f(S1)  Ryd( 4f)     0.00062
    38    O    1  f(S1)  Ryd( 5f)     0.00013
    39    O    1  f(C2)  Ryd( 4f)     0.00051
    40    O    1  f(C2)  Ryd( 5f)     0.00010
    41    O    1  f(S2)  Ryd( 4f)     0.00048
    42    O    1  f(S2)  Ryd( 5f)     0.00008
    43    O    1  f(C3)  Ryd( 4f)     0.00046
    44    O    1  f(C3)  Ryd( 5f)     0.00013
    45    O    1  f(S3)  Ryd( 4f)     0.00049
    46    O    1  f(S3)  Ryd( 5f)     0.00012

    47    H    2  S      Val( 1S)     0.34133
    48    H    2  S      Ryd( 2S)     0.00379
    49    H    2  S      Ryd( 3S)     0.00028
    50    H    2  S      Ryd( 4S)     0.00009
    51    H    2  px     Ryd( 2p)     0.00281
    52    H    2  px     Ryd( 3p)     0.00086
    53    H    2  px     Ryd( 4p)     0.00009
    54    H    2  py     Ryd( 2p)     0.00304
    55    H    2  py     Ryd( 3p)     0.00033
    56    H    2  py     Ryd( 4p)     0.00012
    57    H    2  pz     Ryd( 2p)     0.00561
    58    H    2  pz     Ryd( 3p)     0.00023
    59    H    2  pz     Ryd( 4p)     0.00006
    60    H    2  dxy    Ryd( 3d)     0.00007
    61    H    2  dxy    Ryd( 4d)     0.00006
    62    H    2  dxz    Ryd( 3d)     0.00008
    63    H    2  dxz    Ryd( 4d)     0.00007
    64    H    2  dyz    Ryd( 3d)     0.00012
    65    H    2  dyz    Ryd( 4d)     0.00006
    66    H    2  dx2y2  Ryd( 3d)     0.00010
    67    H    2  dx2y2  Ryd( 4d)     0.00006
    68    H    2  dz2    Ryd( 3d)     0.00012
    69    H    2  dz2    Ryd( 4d)     0.00009

    70   Br    3  S      Cor( 3S)     1.99982
    71   Br    3  S      Val( 4S)     1.96759
    72   Br    3  S      Ryd( 5S)     0.00146
    73   Br    3  S      Ryd( 6S)     0.00030
    74   Br    3  S      Ryd( 7S)     0.00016
    75   Br    3  S      Ryd( 8S)     0.00000
    76   Br    3  px     Cor( 3p)     2.00000
    77   Br    3  px     Val( 4p)     1.94791
    78   Br    3  px     Ryd( 5p)     0.01044
    79   Br    3  px     Ryd( 6p)     0.00077
    80   Br    3  px     Ryd( 7p)     0.00007
    81   Br    3  py     Cor( 3p)     1.99994
    82   Br    3  py     Val( 4p)     1.79788
    83   Br    3  py     Ryd( 5p)     0.00927
    84   Br    3  py     Ryd( 6p)     0.00077
    85   Br    3  py     Ryd( 7p)     0.00023
    86   Br    3  pz     Cor( 3p)     2.00000
    87   Br    3  pz     Val( 4p)     1.95481
    88   Br    3  pz     Ryd( 5p)     0.01046
    89   Br    3  pz     Ryd( 6p)     0.00076
    90   Br    3  pz     Ryd( 7p)     0.00004
    91   Br    3  dxy    Cor( 3d)     1.99767
    92   Br    3  dxy    Ryd( 4d)     0.01821
    93   Br    3  dxy    Ryd( 5d)     0.00126
    94   Br    3  dxy    Ryd( 6d)     0.00022
    95   Br    3  dxz    Cor( 3d)     1.99771
    96   Br    3  dxz    Ryd( 4d)     0.01798
    97   Br    3  dxz    Ryd( 5d)     0.00162
    98   Br    3  dxz    Ryd( 6d)     0.00017
    99   Br    3  dyz    Cor( 3d)     1.99768
   100   Br    3  dyz    Ryd( 4d)     0.01793
   101   Br    3  dyz    Ryd( 5d)     0.00125
   102   Br    3  dyz    Ryd( 6d)     0.00023
   103   Br    3  dx2y2  Cor( 3d)     1.99765
   104   Br    3  dx2y2  Ryd( 4d)     0.01943
   105   Br    3  dx2y2  Ryd( 5d)     0.00147
   106   Br    3  dx2y2  Ryd( 6d)     0.00016
   107   Br    3  dz2    Cor( 3d)     1.99769
   108   Br    3  dz2    Ryd( 4d)     0.01861
   109   Br    3  dz2    Ryd( 5d)     0.00160
   110   Br    3  dz2    Ryd( 6d)     0.00017
   111   Br    3  f(0)   Ryd( 4f)     0.00169
   112   Br    3  f(0)   Ryd( 5f)     0.00024
   113   Br    3  f(C1)  Ryd( 4f)     0.00171
   114   Br    3  f(C1)  Ryd( 5f)     0.00023
   115   Br    3  f(S1)  Ryd( 4f)     0.00176
   116   Br    3  f(S1)  Ryd( 5f)     0.00025
   117   Br    3  f(C2)  Ryd( 4f)     0.00168
   118   Br    3  f(C2)  Ryd( 5f)     0.00024
   119   Br    3  f(S2)  Ryd( 4f)     0.00169
   120   Br    3  f(S2)  Ryd( 5f)     0.00023
   121   Br    3  f(C3)  Ryd( 4f)     0.00170
   122   Br    3  f(C3)  Ryd( 5f)     0.00025
   123   Br    3  f(S3)  Ryd( 4f)     0.00175
   124   Br    3  f(S3)  Ryd( 5f)     0.00025

   125    H    4  S      Val( 1S)     0.37049
   126    H    4  S      Ryd( 2S)     0.00408
   127    H    4  S      Ryd( 3S)     0.00029
   128    H    4  S      Ryd( 4S)     0.00025
   129    H    4  px     Ryd( 2p)     0.00420
   130    H    4  px     Ryd( 3p)     0.00039
   131    H    4  px     Ryd( 4p)     0.00007
   132    H    4  py     Ryd( 2p)     0.00439
   133    H    4  py     Ryd( 3p)     0.00122
   134    H    4  py     Ryd( 4p)     0.00013
   135    H    4  pz     Ryd( 2p)     0.00440
   136    H    4  pz     Ryd( 3p)     0.00031
   137    H    4  pz     Ryd( 4p)     0.00006
   138    H    4  dxy    Ryd( 3d)     0.00028
   139    H    4  dxy    Ryd( 4d)     0.00007
   140    H    4  dxz    Ryd( 3d)     0.00022
   141    H    4  dxz    Ryd( 4d)     0.00005
   142    H    4  dyz    Ryd( 3d)     0.00030
   143    H    4  dyz    Ryd( 4d)     0.00007
   144    H    4  dx2y2  Ryd( 3d)     0.00021
   145    H    4  dx2y2  Ryd( 4d)     0.00013
   146    H    4  dz2    Ryd( 3d)     0.00022
   147    H    4  dz2    Ryd( 4d)     0.00008

 [ 10 electrons found in the effective core potential]

 WARNING:  5 low occupancy (<1.9990e) core orbitals found on Br    3


 Summary of Natural Population Analysis:                  
                                                          
                                       Natural Population 
                Natural  -----------------------------------------------
    Atom  No    Charge         Core      Valence    Rydberg      Total
 -----------------------------------------------------------------------
      O    1   -1.44371      1.99992     7.32684    0.11695     9.44371
      H    2    0.64053      0.00000     0.34133    0.01815     0.35947
     Br    3   -0.80507     27.98816     7.66819    0.14872    35.80507
      H    4    0.60808      0.00000     0.37049    0.02143     0.39192
 =======================================================================
   * Total *   -1.00018     29.98809    15.70685    0.30524    46.00018

                                 Natural Population      
 --------------------------------------------------------
   Effective Core            10.00000
   Core                      19.98809 ( 99.9404% of  20)
   Valence                   15.70685 ( 98.1678% of  16)
   Natural Minimal Basis     45.69494 ( 99.3368% of  46)
   Natural Rydberg Basis      0.30524 (  0.6636% of  46)
 --------------------------------------------------------

    Atom  No          Natural Electron Configuration
 ----------------------------------------------------------------------------
      O    1      [core]2S( 1.91)2p( 5.41)3S( 0.01)3p( 0.06)3d( 0.04)
      H    2            1S( 0.34)2p( 0.01)
     Br    3      [core]4S( 1.97)4p( 5.70)4d( 0.09)5p( 0.03)4f( 0.01)5d( 0.01)
      H    4            1S( 0.37)2p( 0.01)


 NATURAL BOND ORBITAL ANALYSIS:
 Warning:  a bond orbital has occupanc of -0.00003
 Warning:  a bond orbital has occupanc of -0.00037

                       Occupancies       Lewis Structure    Low   High
           Occ.    -------------------  -----------------   occ   occ
  Cycle   Thresh.   Lewis   Non-Lewis     CR  BD  3C  LP    (L)   (NL)   Dev
 =============================================================================
   1(1)    1.90    45.49126   0.50874     10   2   0   6     1      1    0.27
 Warning:  a bond orbital has occupanc of -0.00003
 Warning:  a bond orbital has occupanc of -0.00037
   2(2)    1.90    45.49110   0.50890     10   2   0   6     1      1    0.26
 Warning:  a bond orbital has occupanc of -0.00003
 Warning:  a bond orbital has occupanc of -0.00037
   3(3)    1.90    45.49126   0.50874     10   2   0   6     1      1    0.27
 Warning:  a bond orbital has occupanc of -0.00003
 Warning:  a bond orbital has occupanc of -0.00037
   4(4)    1.90    45.49110   0.50890     10   2   0   6     1      1    0.26
 Warning:  a bond orbital has occupanc of -0.00003
 Warning:  a bond orbital has occupanc of -0.00037
   5(5)    1.90    45.49126   0.50874     10   2   0   6     1      1    0.27
 Warning:  a bond orbital has occupanc of -0.00003
 Warning:  a bond orbital has occupanc of -0.00037
   6(6)    1.90    45.49110   0.50890     10   2   0   6     1      1    0.26
 Warning:  a bond orbital has occupanc of -0.00003
 Warning:  a bond orbital has occupanc of -0.00037
   7(7)    1.90    45.49126   0.50874     10   2   0   6     1      1    0.27
 Warning:  a bond orbital has occupanc of -0.00003
 Warning:  a bond orbital has occupanc of -0.00037
   8(8)    1.90    45.49110   0.50890     10   2   0   6     1      1    0.26
 Warning:  a bond orbital has occupanc of -0.00003
 Warning:  a bond orbital has occupanc of -0.00037
   9(9)    1.90    45.49126   0.50874     10   2   0   6     1      1    0.27
 Warning:  a bond orbital has occupanc of -0.00003
 Warning:  a bond orbital has occupanc of -0.00037
  10(1)    1.80    45.49126   0.50874     10   2   0   6     1      1    0.27
 Warning:  a bond orbital has occupanc of -0.00003
 Warning:  a bond orbital has occupanc of -0.00037
  11(2)    1.80    45.49110   0.50890     10   2   0   6     1      1    0.26
 Warning:  a bond orbital has occupanc of -0.00003
 Warning:  a bond orbital has occupanc of -0.00037
  12(3)    1.80    45.49126   0.50874     10   2   0   6     1      1    0.27
 Warning:  a bond orbital has occupanc of -0.00003
 Warning:  a bond orbital has occupanc of -0.00037
  13(4)    1.80    45.49110   0.50890     10   2   0   6     1      1    0.26
 Warning:  a bond orbital has occupanc of -0.00003
 Warning:  a bond orbital has occupanc of -0.00037
  14(5)    1.80    45.49126   0.50874     10   2   0   6     1      1    0.27
 Warning:  a bond orbital has occupanc of -0.00003
 Warning:  a bond orbital has occupanc of -0.00037
  15(6)    1.80    45.49110   0.50890     10   2   0   6     1      1    0.26
 Warning:  a bond orbital has occupanc of -0.00003
 Warning:  a bond orbital has occupanc of -0.00037
  16(7)    1.80    45.49126   0.50874     10   2   0   6     1      1    0.27
 Warning:  a bond orbital has occupanc of -0.00003
 Warning:  a bond orbital has occupanc of -0.00037
  17(8)    1.80    45.49110   0.50890     10   2   0   6     1      1    0.26
 Warning:  a bond orbital has occupanc of -0.00003
 Warning:  a bond orbital has occupanc of -0.00037
  18(9)    1.80    45.49126   0.50874     10   2   0   6     1      1    0.27
 Warning:  a bond orbital has occupanc of -0.00003
 Warning:  a bond orbital has occupanc of -0.00037
  19(1)    1.70    45.32400   0.67600     10   1   0   7     0      1    0.27
 Warning:  a bond orbital has occupanc of -0.00003
 Warning:  a bond orbital has occupanc of -0.00037
  20(2)    1.70    45.32400   0.67600     10   1   0   7     0      1    0.27
 Warning:  a bond orbital has occupanc of -0.00003
 Warning:  a bond orbital has occupanc of -0.00037
  21(1)    1.60    45.00448   0.99552     10   0   0   8     0      2    0.54
 Warning:  a bond orbital has occupanc of -0.00003
 Warning:  a bond orbital has occupanc of -0.00037
  22(2)    1.60    45.00448   0.99552     10   0   0   8     0      2    0.54
 Warning:  a bond orbital has occupanc of -0.00003
 Warning:  a bond orbital has occupanc of -0.00037
  23(1)    1.50    45.00448   0.99552     10   0   0   8     0      2    0.54
 Warning:  a bond orbital has occupanc of -0.00003
 Warning:  a bond orbital has occupanc of -0.00037
  24(2)    1.50    45.00448   0.99552     10   0   0   8     0      2    0.54
 Warning:  a bond orbital has occupanc of -0.00003
 Warning:  a bond orbital has occupanc of -0.00037
  25(1)    1.90    45.49126   0.50874     10   2   0   6     1      1    0.27
 -----------------------------------------------------------------------------

 Structure accepted: RESONANCE keyword permits strongly delocalized structure

 WARNING:  5 low occupancy (<1.9990e) core orbitals found on Br    3

 --------------------------------------------------------
   Effective Core           10.00000
   Core                     19.98809 ( 99.940% of  20)
   Valence Lewis            15.50318 ( 96.895% of  16)
  ==================       ============================
   Total Lewis              45.49126 ( 98.894% of  46)
  -----------------------------------------------------
   Valence non-Lewis         0.22567 (  0.491% of  46)
   Rydberg non-Lewis         0.28307 (  0.615% of  46)
  ==================       ============================
   Total non-Lewis           0.50874 (  1.106% of  46)
 --------------------------------------------------------


       (Occupancy)   Bond orbital/ Coefficients/ Hybrids
 ---------------------------------------------------------------------------------
     1. (1.95970) BD ( 1) O   1 - H   2  
                ( 83.40%)   0.9132* O   1 s( 14.21%)p 6.01( 85.44%)d 0.02(  0.34%)
                                                  f 0.00(  0.01%)
                                            0.0001  0.3769 -0.0027 -0.0004 -0.0021
                                            0.9232 -0.0319 -0.0069 -0.0086 -0.0327
                                           -0.0049  0.0008 -0.0007  0.0000  0.0000
                                            0.0000  0.0000 -0.0130  0.0041 -0.0023
                                            0.0000  0.0000  0.0000  0.0000  0.0000
                                            0.0000  0.0482 -0.0033  0.0026 -0.0295
                                            0.0009 -0.0003  0.0000  0.0000 -0.0079
                                            0.0004 -0.0001  0.0001  0.0000  0.0000
                                            0.0000  0.0000  0.0046  0.0031  0.0004
                                           -0.0003
                ( 16.60%)   0.4075* H   2 s( 99.61%)p 0.00(  0.39%)d 0.00(  0.01%)
                                            0.9979 -0.0133  0.0003 -0.0005  0.0377
                                           -0.0464 -0.0030 -0.0169  0.0020 -0.0011
                                            0.0000  0.0000  0.0000  0.0007  0.0026
                                            0.0000  0.0000  0.0000  0.0000  0.0032
                                            0.0011 -0.0045 -0.0034
     2. (1.94497) BD ( 1) O   1 - H   4  
                ( 90.52%)   0.9514* O   1 s(  7.64%)p12.06( 92.15%)d 0.03(  0.20%)
                                                  f 0.00(  0.01%)
                                           -0.0001 -0.2764 -0.0057  0.0002 -0.0021
                                            0.1454 -0.0081 -0.0010 -0.0024  0.9488
                                            0.0056 -0.0011 -0.0024  0.0000  0.0000
                                            0.0000  0.0000  0.0234 -0.0034  0.0010
                                            0.0000  0.0000  0.0000  0.0000  0.0000
                                            0.0000  0.0321 -0.0071  0.0021  0.0186
                                           -0.0038 -0.0002  0.0000  0.0000 -0.0009
                                            0.0002 -0.0080  0.0032  0.0000  0.0000
                                            0.0000  0.0000 -0.0024  0.0005  0.0012
                                            0.0007
                (  9.48%)   0.3078* H   4 s( 99.64%)p 0.00(  0.33%)d 0.00(  0.03%)
                                           -0.9981 -0.0009  0.0020 -0.0136 -0.0414
                                           -0.0027 -0.0048 -0.0009 -0.0358 -0.0151
                                            0.0000  0.0000  0.0000 -0.0023 -0.0031
                                            0.0000  0.0000  0.0000  0.0000  0.0112
                                            0.0074  0.0102  0.0034
     3. (1.99993) CR ( 1) O   1           s(100.00%)
                                            1.0000 -0.0002 -0.0000  0.0000  0.0000
                                           -0.0000  0.0000  0.0000  0.0000  0.0001
                                            0.0000 -0.0000 -0.0000  0.0000  0.0000
                                            0.0000  0.0000  0.0000 -0.0000  0.0000
                                            0.0000  0.0000  0.0000  0.0000  0.0000
                                            0.0000 -0.0000 -0.0000  0.0000  0.0000
                                           -0.0000 -0.0000  0.0000  0.0000  0.0000
                                            0.0000 -0.0000  0.0000  0.0000  0.0000
                                            0.0000  0.0000 -0.0000 -0.0000 -0.0000
                                            0.0000
     4. (1.99982) CR ( 1)Br   3           s(100.00%)
                                            1.0000 -0.0002 -0.0000 -0.0000  0.0000
                                            0.0000  0.0000  0.0000 -0.0000  0.0000
                                            0.0000  0.0000  0.0001 -0.0000  0.0000
                                            0.0000  0.0000  0.0000  0.0000  0.0000
                                            0.0000  0.0000  0.0000 -0.0000  0.0000
                                            0.0000  0.0000  0.0000  0.0000  0.0000
                                            0.0000  0.0000  0.0000 -0.0000 -0.0000
                                            0.0000 -0.0000 -0.0000 -0.0000  0.0000
                                           -0.0000  0.0000  0.0000 -0.0000 -0.0000
                                            0.0000 -0.0000  0.0000  0.0000  0.0000
                                            0.0000 -0.0000 -0.0000  0.0000 -0.0000
     5. (2.00000) CR ( 2)Br   3           s(  0.00%)p 1.00(100.00%)
                                            0.0000  0.0000 -0.0000 -0.0000  0.0000
                                            0.0000  1.0000 -0.0002 -0.0000 -0.0000
                                            0.0000  0.0000  0.0000  0.0000  0.0000
                                            0.0000  0.0000  0.0000  0.0000  0.0000
                                            0.0000  0.0000 -0.0000 -0.0000  0.0000
                                            0.0000  0.0000  0.0000  0.0000  0.0000
                                            0.0000  0.0000  0.0000  0.0000 -0.0000
                                            0.0000  0.0000  0.0000  0.0000 -0.0000
                                            0.0000  0.0000  0.0000  0.0000  0.0000
                                           -0.0000  0.0000  0.0000  0.0000  0.0000
                                            0.0000  0.0000  0.0000 -0.0000 -0.0000
     6. (1.99994) CR ( 3)Br   3           s(  0.00%)p 1.00(100.00%)
                                            0.0000  0.0001  0.0000  0.0000 -0.0000
                                           -0.0000  0.0000  0.0000  0.0000  0.0000
                                           -0.0000  1.0000 -0.0000  0.0000 -0.0000
                                           -0.0000  0.0000  0.0000  0.0000  0.0000
                                            0.0000 -0.0000  0.0000  0.0000 -0.0000
                                            0.0000  0.0000  0.0000  0.0000  0.0000
                                            0.0000  0.0000  0.0000  0.0000  0.0000
                                           -0.0000  0.0000  0.0000  0.0000 -0.0000
                                            0.0000  0.0000  0.0000 -0.0000 -0.0000
                                            0.0000  0.0000  0.0000  0.0000  0.0000
                                            0.0000 -0.0000 -0.0000  0.0000  0.0000
     7. (2.00000) CR ( 4)Br   3           s(  0.00%)p 1.00(100.00%)
                                            0.0000  0.0000  0.0000  0.0000  0.0000
                                            0.0000  0.0000  0.0000  0.0000  0.0000
                                            0.0000  0.0000  0.0000  0.0000  0.0000
                                            0.0000  1.0000 -0.0002 -0.0000 -0.0000
                                            0.0000  0.0000  0.0000  0.0000  0.0000
                                            0.0000 -0.0000  0.0000  0.0000  0.0000
                                           -0.0000 -0.0000  0.0000  0.0000  0.0000
                                            0.0000  0.0000  0.0000  0.0000  0.0000
                                            0.0000  0.0000  0.0000  0.0000  0.0000
                                            0.0000  0.0000  0.0000  0.0000 -0.0000
                                           -0.0000  0.0000  0.0000  0.0000  0.0000
     8. (1.99767) CR ( 5)Br   3           s(  0.00%)p 0.00(  0.00%)d 1.00(100.00%)
                                            0.0000  0.0000  0.0000  0.0000 -0.0000
                                           -0.0000  0.0000  0.0000  0.0000  0.0000
                                           -0.0000 -0.0000 -0.0000  0.0000 -0.0000
                                           -0.0000  0.0000  0.0000  0.0000  0.0000
                                            0.0000  1.0000  0.0000  0.0000 -0.0000
                                            0.0000  0.0000  0.0000  0.0000  0.0000
                                            0.0000  0.0000  0.0000  0.0000  0.0000
                                           -0.0000 -0.0000  0.0000  0.0000  0.0000
                                           -0.0000  0.0000  0.0000 -0.0000 -0.0000
                                            0.0000  0.0000  0.0000  0.0000  0.0000
                                            0.0000 -0.0000 -0.0000  0.0000  0.0000
     9. (1.99771) CR ( 6)Br   3           s(  0.00%)p 0.00(  0.00%)d 1.00(100.00%)
                                            0.0000  0.0000  0.0000  0.0000  0.0000
                                            0.0000  0.0000  0.0000  0.0000  0.0000
                                            0.0000  0.0000  0.0000  0.0000  0.0000
                                            0.0000  0.0000  0.0000  0.0000  0.0000
                                           -0.0000  0.0000  0.0000  0.0000  0.0000
                                            1.0000  0.0000 -0.0000 -0.0000 -0.0000
                                            0.0000  0.0000 -0.0000  0.0000  0.0000
                                            0.0000  0.0000  0.0000  0.0000  0.0000
                                            0.0000 -0.0000 -0.0000  0.0000  0.0000
                                            0.0000  0.0000 -0.0000 -0.0000  0.0000
                                            0.0000  0.0000  0.0000  0.0000  0.0000
    10. (1.99768) CR ( 7)Br   3           s(  0.00%)p 0.00(  0.00%)d 1.00(100.00%)
                                            0.0000  0.0000  0.0000  0.0000  0.0000
                                            0.0000  0.0000  0.0000  0.0000  0.0000
                                            0.0000  0.0000  0.0000  0.0000  0.0000
                                            0.0000  0.0000  0.0000  0.0000  0.0000
                                           -0.0000  0.0000  0.0000  0.0000  0.0000
                                           -0.0000  0.0000 -0.0000 -0.0000  1.0000
                                            0.0000  0.0000 -0.0000  0.0000  0.0000
                                            0.0000  0.0000  0.0000  0.0000  0.0000
                                            0.0000 -0.0000 -0.0000  0.0000  0.0000
                                            0.0000  0.0000 -0.0000 -0.0000  0.0000
                                            0.0000  0.0000  0.0000  0.0000  0.0000
    11. (1.99765) CR ( 8)Br   3           s(  0.00%)p 0.00(  0.00%)d 1.00(100.00%)
                                           -0.0000 -0.0000 -0.0000 -0.0000  0.0000
                                            0.0000  0.0000  0.0000  0.0000  0.0000
                                           -0.0000  0.0000  0.0000 -0.0000  0.0000
                                            0.0000  0.0000  0.0000  0.0000  0.0000
                                            0.0000  0.0000  0.0000  0.0000 -0.0000
                                            0.0000  0.0000  0.0000  0.0000  0.0000
                                            0.0000  0.0000  0.0000  1.0000 -0.0000
                                            0.0000 -0.0000 -0.0000 -0.0000  0.0000
                                           -0.0000  0.0000  0.0000 -0.0000 -0.0000
                                            0.0000 -0.0000  0.0000  0.0000  0.0000
                                            0.0000 -0.0000 -0.0000  0.0000  0.0000
    12. (1.99769) CR ( 9)Br   3           s(  0.00%)p 0.00(  0.00%)d 1.00(100.00%)
                                           -0.0000 -0.0000 -0.0000 -0.0000  0.0000
                                            0.0000  0.0000  0.0000 -0.0000 -0.0000
                                            0.0000  0.0000  0.0000 -0.0000  0.0000
                                            0.0000  0.0000  0.0000  0.0000  0.0000
                                            0.0000  0.0000  0.0000 -0.0000  0.0000
                                            0.0000  0.0000  0.0000  0.0000  0.0000
                                            0.0000  0.0000  0.0000 -0.0000 -0.0000
                                            0.0000 -0.0000  1.0000 -0.0000  0.0000
                                           -0.0000  0.0000  0.0000  0.0000  0.0000
                                            0.0000 -0.0000  0.0000  0.0000  0.0000
                                            0.0000  0.0000  0.0000 -0.0000 -0.0000
    13. (1.97164) LP ( 1) O   1           s( 78.11%)p 0.28( 21.85%)d 0.00(  0.04%)
                                                  f 0.00(  0.00%)
                                            0.0002  0.8838 -0.0009  0.0002  0.0000
                                           -0.3493 -0.0071 -0.0035  0.0023  0.3105
                                            0.0033  0.0036  0.0021  0.0000  0.0000
                                            0.0000  0.0000  0.0175 -0.0024 -0.0004
                                            0.0000  0.0000  0.0000  0.0000  0.0000
                                            0.0000 -0.0050  0.0014 -0.0010  0.0064
                                           -0.0027  0.0026  0.0000  0.0000  0.0015
                                           -0.0012 -0.0007  0.0001  0.0000  0.0000
                                            0.0000  0.0000  0.0013 -0.0006  0.0017
                                           -0.0002
    14. (1.95412) LP ( 2) O   1           s(  0.00%)p 1.00( 99.84%)d 0.00(  0.16%)
                                                  f 0.00(  0.01%)
                                            0.0000  0.0000  0.0000  0.0000  0.0000
                                            0.0000  0.0000  0.0000  0.0000  0.0000
                                            0.0000  0.0000  0.0000  0.9989  0.0192
                                            0.0039  0.0087  0.0000  0.0000  0.0000
                                            0.0366 -0.0033 -0.0014 -0.0143  0.0021
                                            0.0010  0.0000  0.0000  0.0000  0.0000
                                            0.0000  0.0000 -0.0083  0.0028  0.0000
                                            0.0000  0.0000  0.0000  0.0030  0.0003
                                            0.0012 -0.0004  0.0000  0.0000  0.0000
                                            0.0000
    15. (1.97907) LP ( 1)Br   3           s( 94.20%)p 0.06(  5.80%)d 0.00(  0.00%)
                                                  f 0.00(  0.00%)
                                            0.0002  0.9706  0.0007  0.0005 -0.0006
                                           -0.0001 -0.0000 -0.0467  0.0007  0.0000
                                           -0.0001 -0.0001 -0.2362  0.0025 -0.0003
                                           -0.0004  0.0000  0.0000  0.0000  0.0000
                                            0.0000 -0.0000 -0.0007  0.0000 -0.0002
                                            0.0000  0.0000  0.0000  0.0000  0.0000
                                            0.0000  0.0000  0.0000  0.0000  0.0016
                                           -0.0004  0.0005  0.0000  0.0009 -0.0002
                                            0.0004  0.0000  0.0000 -0.0000  0.0000
                                           -0.0001  0.0001  0.0000  0.0000  0.0000
                                            0.0000 -0.0000  0.0000 -0.0000  0.0001
    16. (1.95513) LP ( 2)Br   3           s(  0.00%)p 1.00( 99.99%)d 0.00(  0.01%)
                                                  f 0.00(  0.00%)
                                            0.0000  0.0000  0.0000  0.0000  0.0000
                                            0.0000  0.0000  0.0000  0.0000  0.0000
                                            0.0000  0.0000  0.0000  0.0000  0.0000
                                            0.0000  0.0002  0.9999  0.0053  0.0027
                                           -0.0008  0.0000  0.0000  0.0000  0.0000
                                           -0.0000  0.0024 -0.0005 -0.0001 -0.0000
                                            0.0071  0.0002 -0.0051  0.0000  0.0000
                                            0.0000  0.0000  0.0000  0.0000  0.0000
                                            0.0000 -0.0037 -0.0018  0.0000  0.0000
                                            0.0000  0.0000 -0.0041 -0.0017  0.0019
                                            0.0010  0.0000  0.0000  0.0000  0.0000
    17. (1.95488) LP ( 3)Br   3           s(  0.00%)p 1.00( 99.99%)d 0.00(  0.01%)
                                                  f 0.00(  0.00%)
                                            0.0000  0.0018 -0.0002 -0.0008  0.0011
                                            0.0000 -0.0002 -0.9795 -0.0062 -0.0029
                                            0.0012  0.0001  0.2012  0.0010  0.0004
                                            0.0002 -0.0000 -0.0000 -0.0000 -0.0000
                                           -0.0000  0.0000 -0.0072 -0.0002  0.0049
                                           -0.0000 -0.0000 -0.0000 -0.0000 -0.0000
                                           -0.0000 -0.0000 -0.0000  0.0000 -0.0045
                                            0.0006  0.0010 -0.0000  0.0004 -0.0003
                                            0.0005 -0.0000 -0.0000  0.0016  0.0008
                                           -0.0002  0.0000 -0.0000 -0.0000 -0.0000
                                           -0.0000  0.0045  0.0019 -0.0032 -0.0014
    18. (1.78366) LP ( 4)Br   3           s(  5.79%)p16.23( 94.01%)d 0.03(  0.18%)
                                                  f 0.00(  0.02%)
                                            0.0000  0.2407 -0.0030 -0.0023  0.0025
                                            0.0004 -0.0000  0.1955 -0.0027 -0.0015
                                            0.0009  0.0000  0.9496 -0.0121 -0.0062
                                            0.0019  0.0000  0.0000  0.0000  0.0000
                                            0.0000  0.0000  0.0144 -0.0016 -0.0007
                                            0.0000  0.0000  0.0000  0.0000  0.0000
                                            0.0000  0.0000  0.0000 -0.0000 -0.0329
                                            0.0041  0.0012  0.0000 -0.0212  0.0028
                                            0.0005  0.0000  0.0000 -0.0017 -0.0003
                                           -0.0083 -0.0014  0.0000  0.0000  0.0000
                                            0.0000 -0.0060 -0.0007 -0.0087 -0.0010
    19. (0.02507) RY*( 1) O   1           s(  0.00%)p 1.00( 99.08%)d 0.01(  0.89%)
                                                  f 0.00(  0.03%)
                                            0.0000  0.0000  0.0000  0.0000  0.0000
                                            0.0000  0.0000  0.0000  0.0000  0.0000
                                            0.0000  0.0000  0.0000 -0.0226  0.9947
                                           -0.0229 -0.0171  0.0000  0.0000  0.0000
                                            0.0776 -0.0188  0.0072 -0.0463  0.0171
                                           -0.0084  0.0000  0.0000  0.0000  0.0000
                                            0.0000  0.0000 -0.0113  0.0112  0.0000
                                            0.0000  0.0000  0.0000  0.0003 -0.0001
                                            0.0000 -0.0014  0.0000  0.0000  0.0000
                                            0.0000
    20. (0.01955) RY*( 2) O   1           s( 10.05%)p 8.77( 88.14%)d 0.18(  1.77%)
                                                  f 0.00(  0.04%)
                                           -0.0000 -0.0083  0.3165  0.0080 -0.0140
                                           -0.0072 -0.5210  0.0030  0.0161 -0.0120
                                            0.7807 -0.0029 -0.0034  0.0000  0.0000
                                            0.0000  0.0000  0.1274 -0.0241  0.0096
                                            0.0000  0.0000  0.0000  0.0000  0.0000
                                            0.0000 -0.0062 -0.0070  0.0026  0.0176
                                           -0.0179  0.0096  0.0000  0.0000 -0.0021
                                           -0.0023 -0.0047  0.0063  0.0000  0.0000
                                            0.0000  0.0000  0.0156 -0.0059  0.0069
                                           -0.0014
    21. (0.01285) RY*( 3) O   1           s(  1.29%)p75.06( 96.79%)d 1.38(  1.78%)
                                                  f 0.11(  0.14%)
                                            0.0000 -0.0134  0.1119 -0.0060  0.0122
                                           -0.0306 -0.8009  0.0043  0.0360 -0.0032
                                           -0.5688 -0.0030 -0.0250 -0.0000 -0.0000
                                           -0.0000 -0.0000 -0.0720 -0.0071  0.0034
                                           -0.0000 -0.0000 -0.0000 -0.0000 -0.0000
                                           -0.0000  0.0995  0.0461 -0.0223  0.0064
                                            0.0036  0.0049 -0.0000 -0.0000 -0.0105
                                           -0.0028  0.0097 -0.0109 -0.0000 -0.0000
                                           -0.0000 -0.0000  0.0292 -0.0135 -0.0035
                                           -0.0010
    22. (0.00722) RY*( 4) O   1           s( 61.14%)p 0.09(  5.51%)d 0.54( 32.99%)
                                                  f 0.01(  0.35%)
                                            0.0000  0.0091  0.7818 -0.0059  0.0084
                                            0.0204  0.1986  0.0077 -0.0138  0.0233
                                           -0.1136 -0.0199 -0.0338 -0.0000 -0.0000
                                           -0.0000 -0.0000 -0.4566 -0.0027 -0.0077
                                           -0.0000 -0.0000 -0.0000 -0.0000 -0.0000
                                           -0.0000 -0.2716  0.0140  0.0052  0.2132
                                            0.0417 -0.0155 -0.0000 -0.0000  0.0161
                                            0.0027  0.0330 -0.0266 -0.0000 -0.0000
                                           -0.0000 -0.0000 -0.0349  0.0040 -0.0023
                                           -0.0150
    23. (0.00638) RY*( 5) O   1           s(  0.00%)p 1.00(  0.02%)d99.99( 98.93%)
                                                  f48.17(  1.05%)
                                            0.0000  0.0000  0.0000  0.0000  0.0000
                                            0.0000  0.0000  0.0000  0.0000  0.0000
                                            0.0000  0.0000  0.0000 -0.0070 -0.0017
                                           -0.0124 -0.0032  0.0000  0.0000  0.0000
                                            0.5201  0.0259 -0.0056  0.8464  0.0417
                                           -0.0003  0.0000  0.0000  0.0000  0.0000
                                            0.0000  0.0000  0.0068 -0.0119  0.0000
                                            0.0000  0.0000  0.0000  0.0851 -0.0537
                                            0.0113  0.0011  0.0000  0.0000  0.0000
                                            0.0000
    24. (0.00609) RY*( 6) O   1           s(  0.00%)p 1.00(  0.99%)d98.85( 97.97%)
                                                  f 1.05(  1.04%)
                                            0.0000  0.0000  0.0000  0.0000  0.0000
                                            0.0000  0.0000  0.0000  0.0000  0.0000
                                            0.0000  0.0000  0.0000 -0.0372 -0.0887
                                            0.0218  0.0134  0.0000  0.0000  0.0000
                                            0.8385  0.0662 -0.0254 -0.5195 -0.0417
                                            0.0089  0.0000  0.0000  0.0000  0.0000
                                            0.0000  0.0000 -0.0709  0.0394  0.0000
                                            0.0000  0.0000  0.0000  0.0440 -0.0191
                                           -0.0351  0.0157  0.0000  0.0000  0.0000
                                            0.0000
    25. (0.00607) RY*( 7) O   1           s(  5.03%)p 0.64(  3.22%)d18.07( 90.91%)
                                                  f 0.17(  0.84%)
                                           -0.0000  0.0050  0.2240 -0.0115 -0.0010
                                            0.0190  0.1045 -0.0161 -0.0070 -0.0347
                                           -0.1383  0.0115 -0.0110  0.0000  0.0000
                                            0.0000  0.0000  0.6436  0.0182 -0.0009
                                            0.0000  0.0000  0.0000  0.0000  0.0000
                                            0.0000  0.2204  0.0158  0.0059  0.6638
                                            0.0673 -0.0229  0.0000  0.0000  0.0471
                                           -0.0219 -0.0430  0.0248  0.0000  0.0000
                                            0.0000  0.0000  0.0343 -0.0241  0.0369
                                           -0.0121
    26. (0.00565) RY*( 8) O   1           s(  7.80%)p 0.42(  3.28%)d11.16( 86.99%)
                                                  f 0.25(  1.93%)
                                            0.0000 -0.0054  0.2792 -0.0009  0.0018
                                            0.0201  0.0448 -0.0116 -0.0102  0.0114
                                           -0.1711 -0.0099 -0.0259 -0.0000 -0.0000
                                           -0.0000 -0.0000  0.5818  0.0114 -0.0008
                                           -0.0000 -0.0000 -0.0000 -0.0000 -0.0000
                                           -0.0000 -0.4857  0.0015  0.0113 -0.5421
                                           -0.0361  0.0099 -0.0000 -0.0000  0.0093
                                           -0.0078  0.0463 -0.0396 -0.0000 -0.0000
                                           -0.0000 -0.0000  0.0217 -0.0313  0.1006
                                           -0.0621
    27. (0.00319) RY*( 9) O   1           s( 13.73%)p 0.30(  4.13%)d 5.89( 80.87%)
                                                  f 0.09(  1.27%)
                                            0.0000 -0.0058  0.3703  0.0064 -0.0124
                                           -0.0442  0.1728  0.0896  0.0036 -0.0089
                                           -0.0292  0.0169 -0.0144  0.0000  0.0000
                                            0.0000  0.0000  0.0380 -0.0049  0.0012
                                            0.0000  0.0000  0.0000  0.0000  0.0000
                                            0.0000  0.7717  0.0984  0.0043 -0.4393
                                           -0.0938  0.0165  0.0000  0.0000 -0.0409
                                            0.0452 -0.0026  0.0040  0.0000  0.0000
                                            0.0000  0.0000  0.0581 -0.0588 -0.0386
                                            0.0247
    28. (0.00061) RY*(10) O   1           s(  9.59%)p 6.58( 63.07%)d 2.65( 25.41%)
                                                  f 0.20(  1.94%)
                                            0.0000 -0.0051  0.0068  0.3069 -0.0400
                                           -0.0022 -0.0057 -0.2688 -0.0051  0.0053
                                            0.0170  0.7462  0.0348  0.0000  0.0000
                                            0.0000  0.0000 -0.0071  0.2964 -0.0420
                                            0.0000  0.0000  0.0000  0.0000  0.0000
                                            0.0000 -0.0008  0.2619 -0.0029 -0.0349
                                            0.3075  0.0058  0.0000  0.0000 -0.0049
                                            0.0006  0.1161 -0.0152  0.0000  0.0000
                                            0.0000  0.0000 -0.0563  0.0055 -0.0446
                                            0.0220
    29. (0.00059) RY*(11) O   1           s(  0.00%)p 1.00( 51.55%)d 0.89( 45.91%)
                                                  f 0.05(  2.54%)
                                            0.0000  0.0000  0.0000  0.0000  0.0000
                                            0.0000  0.0000  0.0000  0.0000  0.0000
                                            0.0000  0.0000  0.0000  0.0021  0.0373
                                            0.7086 -0.1095  0.0000  0.0000  0.0000
                                           -0.0364  0.3475 -0.0200  0.0396 -0.5784
                                            0.0223  0.0000  0.0000  0.0000  0.0000
                                            0.0000  0.0000  0.0967 -0.0198  0.0000
                                            0.0000  0.0000  0.0000  0.0825  0.0013
                                            0.0939  0.0002  0.0000  0.0000  0.0000
[...]
                                            0.0000  0.0000  0.0000
   126. (0.00438) RY*( 3) H   4           s( 41.71%)p 1.37( 57.10%)d 0.03(  1.19%)
                                            0.0382  0.6395 -0.0092 -0.0816 -0.6695
                                           -0.0709  0.0137  0.1964 -0.2766 -0.0492
                                            0.0000  0.0000  0.0000  0.0831  0.0157
                                            0.0000  0.0000  0.0000  0.0000 -0.0002
                                           -0.0521  0.0041 -0.0448
   127. (0.00366) RY*( 4) H   4           s( 39.14%)p 1.53( 60.06%)d 0.02(  0.80%)
                                           -0.0154  0.6149  0.1125  0.0221  0.4316
                                           -0.0438 -0.0332 -0.6357 -0.0758 -0.0378
                                            0.0000  0.0000  0.0000 -0.0553  0.0201
                                            0.0000  0.0000  0.0000  0.0000 -0.0347
                                           -0.0432 -0.0340 -0.0168
   128. (0.00180) RY*( 5) H   4           s( 13.66%)p 6.20( 84.71%)d 0.12(  1.63%)
                                           -0.0284  0.2163  0.0174  0.2979 -0.2311
                                            0.0979  0.0698 -0.0644  0.8709  0.1289
                                            0.0000  0.0000  0.0000  0.0616 -0.0512
                                            0.0000  0.0000  0.0000  0.0000 -0.0332
                                            0.0681 -0.0398  0.0504
   129. (0.00041) RY*( 6) H   4           s(  7.14%)p12.34( 88.08%)d 0.67(  4.78%)
                                            0.0013  0.0447  0.2283  0.1314 -0.0283
                                            0.8926 -0.2039  0.0524 -0.1476  0.1307
                                            0.0000  0.0000  0.0000 -0.2081  0.0131
                                            0.0000  0.0000  0.0000  0.0000 -0.0107
                                           -0.0622 -0.0156 -0.0116
   130. (0.00034) RY*( 7) H   4           s(  0.00%)p 1.00( 66.83%)d 0.50( 33.17%)
                                            0.0000  0.0000  0.0000  0.0000  0.0000
                                            0.0000  0.0000  0.0000  0.0000  0.0000
                                           -0.0954  0.7714 -0.2534  0.0000  0.0000
                                           -0.0224 -0.0564 -0.5645 -0.0968  0.0000
                                            0.0000  0.0000  0.0000
   131. (0.00026) RY*( 8) H   4           s( 26.62%)p 0.15(  3.97%)d 2.61( 69.41%)
                                            0.0024  0.0075  0.5108 -0.0719  0.0929
                                            0.0556  0.1449  0.0519  0.0046  0.0656
                                            0.0000  0.0000  0.0000  0.6071  0.0983
                                            0.0000  0.0000  0.0000  0.0000  0.5228
                                            0.0364  0.1997 -0.0362
   132. (0.00025) RY*( 9) H   4           s(  0.00%)p 1.00( 36.89%)d 1.71( 63.11%)
                                            0.0000  0.0000  0.0000  0.0000  0.0000
                                            0.0000  0.0000  0.0000  0.0000  0.0000
                                            0.0328  0.6032  0.0625  0.0000  0.0000
                                            0.1897  0.0240  0.7666  0.0827  0.0000
                                            0.0000  0.0000  0.0000
   133. (0.00024) RY*(10) H   4           s(  0.00%)p 1.00(  1.24%)d79.73( 98.76%)
                                            0.0000  0.0000  0.0000  0.0000  0.0000
                                            0.0000  0.0000  0.0000  0.0000  0.0000
                                            0.0066 -0.1049 -0.0367  0.0000  0.0000
                                            0.9218 -0.3444 -0.1354  0.0308  0.0000
                                            0.0000  0.0000  0.0000
   134. (0.00024) RY*(11) H   4           s( 14.46%)p 0.31(  4.41%)d 5.61( 81.12%)
                                            0.0028  0.0009  0.3705 -0.0858 -0.0178
                                           -0.1400  0.0362  0.0481  0.0581  0.1312
                                            0.0000  0.0000  0.0000 -0.2764 -0.0696
                                            0.0000  0.0000  0.0000  0.0000 -0.3554
                                            0.0726  0.7322 -0.2495
   135. (0.00021) RY*(12) H   4           s( 25.91%)p 0.25(  6.37%)d 2.61( 67.72%)
                                            0.0070  0.0124  0.3983 -0.3166 -0.0671
                                           -0.1865 -0.0029  0.0618  0.1419  0.0219
                                           -0.0000 -0.0000 -0.0000 -0.6236 -0.0065
                                           -0.0000 -0.0000 -0.0000 -0.0000  0.4273
                                           -0.0372 -0.2505  0.2039
   136. (0.00014) RY*(13) H   4           s( 10.53%)p 3.18( 33.48%)d 5.32( 55.99%)
                                            0.0186  0.0569 -0.2009  0.2477  0.0017
                                            0.0723 -0.1219 -0.0012 -0.0214 -0.5606
                                            0.0000  0.0000  0.0000 -0.1488 -0.2080
                                            0.0000  0.0000  0.0000  0.0000  0.3749
                                            0.3830  0.3968  0.2233
   137. (0.00011) RY*(14) H   4           s( 76.74%)p 0.16( 12.48%)d 0.14( 10.78%)
                                           -0.0036 -0.0687  0.3249  0.8106 -0.0261
                                           -0.2653  0.0379  0.0823 -0.2033 -0.0643
                                            0.0000  0.0000  0.0000 -0.1322  0.2255
                                            0.0000  0.0000  0.0000  0.0000 -0.0106
                                           -0.1049 -0.1498 -0.0770
   138. (0.00007) RY*(15) H   4           s(  0.00%)p 1.00(  9.09%)d10.00( 90.91%)
   139. (0.00006) RY*(16) H   4           s(  8.46%)p 7.21( 61.00%)d 3.61( 30.54%)
   140. (0.00005) RY*(17) H   4           s(  2.81%)p 2.52(  7.09%)d32.05( 90.10%)
   141. (0.00003) RY*(18) H   4           s(  0.00%)p 1.00( 84.42%)d 0.18( 15.58%)
   142. (0.00003) RY*(19) H   4           s(  0.01%)p99.99( 95.05%)d99.99(  4.94%)
   143. (0.00002) RY*(20) H   4           s( 12.48%)p 0.21(  2.64%)d 6.80( 84.88%)
   144. (0.00002) RY*(21) H   4           s(  0.00%)p 1.00(  2.44%)d39.99( 97.56%)
   145. (0.00002) RY*(22) H   4           s(  3.67%)p 0.14(  0.52%)d26.07( 95.81%)
   146. (0.02072) BD*( 1) O   1 - H   2  
                ( 16.60%)   0.4075* O   1 s( 14.21%)p 6.01( 85.44%)d 0.02(  0.34%)
                                                  f 0.00(  0.01%)
                                           -0.0001 -0.3769  0.0027  0.0004  0.0021
                                           -0.9232  0.0319  0.0069  0.0086  0.0327
                                            0.0049 -0.0008  0.0007 -0.0000 -0.0000
                                           -0.0000 -0.0000  0.0130 -0.0041  0.0023
                                           -0.0000 -0.0000 -0.0000 -0.0000 -0.0000
                                           -0.0000 -0.0482  0.0033 -0.0026  0.0295
                                           -0.0009  0.0003 -0.0000 -0.0000  0.0079
                                           -0.0004  0.0001 -0.0001 -0.0000 -0.0000
                                           -0.0000 -0.0000 -0.0046 -0.0031 -0.0004
                                            0.0003
                ( 83.40%)  -0.9132* H   2 s( 99.61%)p 0.00(  0.39%)d 0.00(  0.01%)
                                           -0.9979  0.0133 -0.0003  0.0005 -0.0377
                                            0.0464  0.0030  0.0169 -0.0020  0.0011
                                           -0.0000 -0.0000 -0.0000 -0.0007 -0.0026
                                           -0.0000 -0.0000 -0.0000 -0.0000 -0.0032
                                           -0.0011  0.0045  0.0034
   147. (0.20495) BD*( 1) O   1 - H   4  
                (  9.48%)   0.3078* O   1 s(  7.64%)p12.06( 92.15%)d 0.03(  0.20%)
                                                  f 0.00(  0.01%)
                                            0.0001  0.2764  0.0057 -0.0002  0.0021
                                           -0.1454  0.0081  0.0010  0.0024 -0.9488
                                           -0.0056  0.0011  0.0024 -0.0000 -0.0000
                                           -0.0000 -0.0000 -0.0234  0.0034 -0.0010
                                           -0.0000 -0.0000 -0.0000 -0.0000 -0.0000
                                           -0.0000 -0.0321  0.0071 -0.0021 -0.0186
                                            0.0038  0.0002 -0.0000 -0.0000  0.0009
                                           -0.0002  0.0080 -0.0032 -0.0000 -0.0000
                                           -0.0000 -0.0000  0.0024 -0.0005 -0.0012
                                           -0.0007
                ( 90.52%)  -0.9514* H   4 s( 99.64%)p 0.00(  0.33%)d 0.00(  0.03%)
                                            0.9981  0.0009 -0.0020  0.0136  0.0414
                                            0.0027  0.0048  0.0009  0.0358  0.0151
                                           -0.0000 -0.0000 -0.0000  0.0023  0.0031
                                           -0.0000 -0.0000 -0.0000 -0.0000 -0.0112
                                           -0.0074 -0.0102 -0.0034


 NHO Directionality and "Bond Bending" (deviations from line of nuclear centers)

         [Thresholds for printing:  angular deviation  >  1.0 degree]
                                    hybrid p-character > 25.0%
                                    orbital occupancy  >  0.10e

                                Line of Centers        Hybrid 1              Hybrid 2
                                ---------------  -------------------   ------------------
                NBO               Theta   Phi    Theta   Phi    Dev    Theta   Phi    Dev
 ========================================================================================
     1. BD (   1) O   1 - H   2    90.0    0.0    90.0  357.6   2.4      --     --    --
     2. BD (   1) O   1 - H   4    90.0  258.3    90.0  262.0   3.6      --     --    --
    14. LP (   2) O   1             --     --      0.0    0.0   --       --     --    --
    16. LP (   2)Br   3             --     --      0.0    0.0   --       --     --    --
    17. LP (   3)Br   3             --     --     90.0  168.4   --       --     --    --
    18. LP (   4)Br   3             --     --     90.0   78.4   --       --     --    --
   147. BD*(   1) O   1 - H   4    90.0  258.3    90.0  262.0   3.6      --     --    --


 Natural Bond Orbitals (Summary):

           NBO                  Occupancy  
 -----------------------------------------------
 Molecular unit  1  (H2O)
     1. BD (   1) O   1 - H   2          1.95970
     2. BD (   1) O   1 - H   4          1.94497
     3. CR (   1) O   1                  1.99993
    13. LP (   1) O   1                  1.97164
    14. LP (   2) O   1                  1.95412
    19. RY*(   1) O   1                  0.02507
    20. RY*(   2) O   1                  0.01955
    21. RY*(   3) O   1                  0.01285
    22. RY*(   4) O   1                  0.00722
    23. RY*(   5) O   1                  0.00638
    24. RY*(   6) O   1                  0.00609
    25. RY*(   7) O   1                  0.00607
    26. RY*(   8) O   1                  0.00565
    27. RY*(   9) O   1                  0.00319
    28. RY*(  10) O   1                  0.00061
    29. RY*(  11) O   1                  0.00059
    30. RY*(  12) O   1                  0.00059
    31. RY*(  13) O   1                  0.00052
    32. RY*(  14) O   1                  0.00048
    33. RY*(  15) O   1                  0.00048
    34. RY*(  16) O   1                  0.00048
    35. RY*(  17) O   1                  0.00047
    36. RY*(  18) O   1                  0.00044
    37. RY*(  19) O   1                  0.00045
    38. RY*(  20) O   1                  0.00042
    39. RY*(  21) O   1                  0.00043
    40. RY*(  22) O   1                  0.00041
    41. RY*(  23) O   1                  0.00038
    42. RY*(  24) O   1                  0.00030
    43. RY*(  25) O   1                  0.00022
    44. RY*(  26) O   1                  0.00015
    45. RY*(  27) O   1                  0.00010
    46. RY*(  28) O   1                  0.00008
    47. RY*(  29) O   1                  0.00008
    48. RY*(  30) O   1                  0.00008
    49. RY*(  31) O   1                  0.00008
    50. RY*(  32) O   1                  0.00008
    51. RY*(  33) O   1                  0.00008
    52. RY*(  34) O   1                  0.00007
    53. RY*(  35) O   1                  0.00008
    54. RY*(  36) O   1                  0.00005
    55. RY*(  37) O   1                  0.00006
    56. RY*(  38) O   1                  0.00004
    57. RY*(  39) O   1                  0.00002
    58. RY*(  40) O   1                 -0.00003
    59. RY*(  41) O   1                 -0.00037
    60. RY*(   1) H   2                  0.00568
    61. RY*(   2) H   2                  0.00518
    62. RY*(   3) H   2                  0.00300
    63. RY*(   4) H   2                  0.00118
    64. RY*(   5) H   2                  0.00036
    65. RY*(   6) H   2                  0.00023
    66. RY*(   7) H   2                  0.00018
    67. RY*(   8) H   2                  0.00016
    68. RY*(   9) H   2                  0.00013
    69. RY*(  10) H   2                  0.00013
    70. RY*(  11) H   2                  0.00011
    71. RY*(  12) H   2                  0.00009
    72. RY*(  13) H   2                  0.00009
    73. RY*(  14) H   2                  0.00006
    74. RY*(  15) H   2                  0.00005
    75. RY*(  16) H   2                  0.00003
    76. RY*(  17) H   2                  0.00004
    77. RY*(  18) H   2                  0.00004
    78. RY*(  19) H   2                  0.00003
    79. RY*(  20) H   2                  0.00002
    80. RY*(  21) H   2                  0.00002
    81. RY*(  22) H   2                  0.00001
   124. RY*(   1) H   4                  0.00528
   125. RY*(   2) H   4                  0.00446
   126. RY*(   3) H   4                  0.00438
   127. RY*(   4) H   4                  0.00366
   128. RY*(   5) H   4                  0.00180
   129. RY*(   6) H   4                  0.00041
   130. RY*(   7) H   4                  0.00034
   131. RY*(   8) H   4                  0.00026
   132. RY*(   9) H   4                  0.00025
   133. RY*(  10) H   4                  0.00024
   134. RY*(  11) H   4                  0.00024
   135. RY*(  12) H   4                  0.00021
   136. RY*(  13) H   4                  0.00014
   137. RY*(  14) H   4                  0.00011
   138. RY*(  15) H   4                  0.00007
   139. RY*(  16) H   4                  0.00006
   140. RY*(  17) H   4                  0.00005
   141. RY*(  18) H   4                  0.00003
   142. RY*(  19) H   4                  0.00003
   143. RY*(  20) H   4                  0.00002
   144. RY*(  21) H   4                  0.00002
   145. RY*(  22) H   4                  0.00002
   146. BD*(   1) O   1 - H   2          0.02072
   147. BD*(   1) O   1 - H   4          0.20495
       -------------------------------
              Total Lewis    9.83036  ( 96.4240%)
        Valence non-Lewis    0.22567  (  2.2135%)
        Rydberg non-Lewis    0.13890  (  1.3625%)
       -------------------------------
            Total unit  1   10.19493  (100.0000%)
           Charge unit  1   -0.19493

 Molecular unit  2  (Br)
     4. CR (   1)Br   3                  1.99982
     5. CR (   2)Br   3                  2.00000
     6. CR (   3)Br   3                  1.99994
     7. CR (   4)Br   3                  2.00000
     8. CR (   5)Br   3                  1.99767
     9. CR (   6)Br   3                  1.99771
    10. CR (   7)Br   3                  1.99768
    11. CR (   8)Br   3                  1.99765
    12. CR (   9)Br   3                  1.99769
    15. LP (   1)Br   3                  1.97907
    16. LP (   2)Br   3                  1.95513
    17. LP (   3)Br   3                  1.95488
    18. LP (   4)Br   3                  1.78366
    82. RY*(   1)Br   3                  0.01808
    83. RY*(   2)Br   3                  0.01798
    84. RY*(   3)Br   3                  0.01798
    85. RY*(   4)Br   3                  0.01785
    86. RY*(   5)Br   3                  0.01769
    87. RY*(   6)Br   3                  0.01045
    88. RY*(   7)Br   3                  0.01041
    89. RY*(   8)Br   3                  0.00843
    90. RY*(   9)Br   3                  0.00177
    91. RY*(  10)Br   3                  0.00172
    92. RY*(  11)Br   3                  0.00172
    93. RY*(  12)Br   3                  0.00169
    94. RY*(  13)Br   3                  0.00169
    95. RY*(  14)Br   3                  0.00167
    96. RY*(  15)Br   3                  0.00167
    97. RY*(  16)Br   3                  0.00165
    98. RY*(  17)Br   3                  0.00165
    99. RY*(  18)Br   3                  0.00156
   100. RY*(  19)Br   3                  0.00123
   101. RY*(  20)Br   3                  0.00122
   102. RY*(  21)Br   3                  0.00117
   103. RY*(  22)Br   3                  0.00073
   104. RY*(  23)Br   3                  0.00073
   105. RY*(  24)Br   3                  0.00067
   106. RY*(  25)Br   3                  0.00030
   107. RY*(  26)Br   3                  0.00023
   108. RY*(  27)Br   3                  0.00023
   109. RY*(  28)Br   3                  0.00023
   110. RY*(  29)Br   3                  0.00022
   111. RY*(  30)Br   3                  0.00023
   112. RY*(  31)Br   3                  0.00023
   113. RY*(  32)Br   3                  0.00023
   114. RY*(  33)Br   3                  0.00015
   115. RY*(  34)Br   3                  0.00015
   116. RY*(  35)Br   3                  0.00015
   117. RY*(  36)Br   3                  0.00010
   118. RY*(  37)Br   3                  0.00010
   119. RY*(  38)Br   3                  0.00009
   120. RY*(  39)Br   3                  0.00005
   121. RY*(  40)Br   3                  0.00004
   122. RY*(  41)Br   3                  0.00003
   123. RY*(  42)Br   3                  0.00000
       -------------------------------
              Total Lewis   35.66090  ( 99.5974%)
        Valence non-Lewis    0.00000  (  0.0000%)
        Rydberg non-Lewis    0.14416  (  0.4026%)
       -------------------------------
            Total unit  2   35.80507  (100.0000%)
           Charge unit  2   -0.80507
 Leave Link  607 at Fri Oct 15 15:36:39 2021, MaxMem= 16106127360 cpu:              84.7 elap:               3.1
 (Enter /sw/contrib/gaussian/g16/B01/g16/l9999.exe)
 1\1\GINC-N2098\SP\RMP2-FC\Gen\Br1H2O1(1-)\CGAVINH\15-Oct-2021\0\\#p po
 p=NBO SP NoSymm mp2/gen Pseudo=read density=current\\title\\-1,1\O\X,1
 ,10.\H,1,0.96048156,2,90.\Br,1,3.25083182,2,90.,3,101.65547111,0\H,1,1
 .45,2,90.,3,101.65547111,0\\Version=ES64L-G16RevB.01\HF=-491.579959\MP
 2=-492.1208395\RMSD=5.263e-09\Dipole=0.2786509,-1.0203181,0.\Quadrupol
 e=8.0090157,-14.9722954,6.9632797,-4.3346549,0.,0.\PG=CS [SG(Br1H2O1)]
 \\@


 IT IS A PROFOUNDLY ERRONEOUS TRUISM ... THAT WE SHOULD CULTIVATE
 THE HABIT OF THINKING OF WHAT WE ARE DOING.
 THE PRECISE OPPOSITE IS THE CASE.
 CIVILIZATION ADVANCES BY EXTENDING THE NUMBER OF IMPORTANT OPERATIONS
 WHICH WE CAN PERFORM WITHOUT THINKING ABOUT THEM.

                                    -- ALFRED NORTH WHITEHEAD
 Job cpu time:       0 days  0 hours  5 minutes 25.2 seconds.
 Elapsed time:       0 days  0 hours  0 minutes 19.3 seconds.
 File lengths (MBytes):  RWF=     16 Int=      0 D2E=      0 Chk=      8 Scr=      1
 Normal termination of Gaussian 16 at Fri Oct 15 15:36:40 2021.
