 Entering Gaussian System, Link 0=g16
 Input=brhod_pp_rOH_080_sp.gjf
 Output=brhod_pp_rOH_080_sp.log
 Initial command:
 /sw/contrib/gaussian/g16/B01/g16/l1.exe "/scr/Gau-9646.inp" -scrdir="/scr/"
 Entering Link 1 = /sw/contrib/gaussian/g16/B01/g16/l1.exe PID=      9647.
  
 Copyright (c) 1988-2017, Gaussian, Inc.  All Rights Reserved.
  
 This is part of the Gaussian(R) 16 program.  It is based on
 the Gaussian(R) 09 system (copyright 2009, Gaussian, Inc.),
 the Gaussian(R) 03 system (copyright 2003, Gaussian, Inc.),
 the Gaussian(R) 98 system (copyright 1998, Gaussian, Inc.),
 the Gaussian(R) 94 system (copyright 1995, Gaussian, Inc.),
 the Gaussian 92(TM) system (copyright 1992, Gaussian, Inc.),
 the Gaussian 90(TM) system (copyright 1990, Gaussian, Inc.),
 the Gaussian 88(TM) system (copyright 1988, Gaussian, Inc.),
 the Gaussian 86(TM) system (copyright 1986, Carnegie Mellon
 University), and the Gaussian 82(TM) system (copyright 1983,
 Carnegie Mellon University). Gaussian is a federally registered
 trademark of Gaussian, Inc.
  
 This software contains proprietary and confidential information,
 including trade secrets, belonging to Gaussian, Inc.
  
 This software is provided under written license and may be
 used, copied, transmitted, or stored only in accord with that
 written license.
  
 The following legend is applicable only to US Government
 contracts under FAR:
  
                    RESTRICTED RIGHTS LEGEND
  
 Use, reproduction and disclosure by the US Government is
 subject to restrictions as set forth in subparagraphs (a)
 and (c) of the Commercial Computer Software - Restricted
 Rights clause in FAR 52.227-19.
  
 Gaussian, Inc.
 340 Quinnipiac St., Bldg. 40, Wallingford CT 06492
  
  
 ---------------------------------------------------------------
 Warning -- This program may not be used in any manner that
 competes with the business of Gaussian, Inc. or will provide
 assistance to any competitor of Gaussian, Inc.  The licensee
 of this program is prohibited from giving any competitor of
 Gaussian, Inc. access to this program.  By using this program,
 the user acknowledges that Gaussian, Inc. is engaged in the
 business of creating and licensing software in the field of
 computational chemistry and represents and warrants to the
 licensee that it is not a competitor of Gaussian, Inc. and that
 it will not use this program in any manner prohibited above.
 ---------------------------------------------------------------
  

 Cite this work as:
 Gaussian 16, Revision B.01,
 M. J. Frisch, G. W. Trucks, H. B. Schlegel, G. E. Scuseria, 
 M. A. Robb, J. R. Cheeseman, G. Scalmani, V. Barone, 
 G. A. Petersson, H. Nakatsuji, X. Li, M. Caricato, A. V. Marenich, 
 J. Bloino, B. G. Janesko, R. Gomperts, B. Mennucci, H. P. Hratchian, 
 J. V. Ortiz, A. F. Izmaylov, J. L. Sonnenberg, D. Williams-Young, 
 F. Ding, F. Lipparini, F. Egidi, J. Goings, B. Peng, A. Petrone, 
 T. Henderson, D. Ranasinghe, V. G. Zakrzewski, J. Gao, N. Rega, 
 G. Zheng, W. Liang, M. Hada, M. Ehara, K. Toyota, R. Fukuda, 
 J. Hasegawa, M. Ishida, T. Nakajima, Y. Honda, O. Kitao, H. Nakai, 
 T. Vreven, K. Throssell, J. A. Montgomery, Jr., J. E. Peralta, 
 F. Ogliaro, M. J. Bearpark, J. J. Heyd, E. N. Brothers, K. N. Kudin, 
 V. N. Staroverov, T. A. Keith, R. Kobayashi, J. Normand, 
 K. Raghavachari, A. P. Rendell, J. C. Burant, S. S. Iyengar, 
 J. Tomasi, M. Cossi, J. M. Millam, M. Klene, C. Adamo, R. Cammi, 
 J. W. Ochterski, R. L. Martin, K. Morokuma, O. Farkas, 
 J. B. Foresman, and D. J. Fox, Gaussian, Inc., Wallingford CT, 2016.
 
 ******************************************
 Gaussian 16:  ES64L-G16RevB.01 20-Dec-2017
                15-Oct-2021 
 ******************************************
 %nproc=28
 Will use up to   28 processors via shared memory.
 %mem=120GB
 %chk=/gscratch/ilahie/mccoygrp/coire_hocl/rOH_s_oop_0/brhod_pp/brhod_pp_rOH_080_
 sp.chk
 --------------------------------------------------------
 #p pop=NBO SP NoSymm mp2/gen Pseudo=read density=current
 --------------------------------------------------------
 1/30=1,38=1,172=1/1;
 2/12=2,15=1,17=6,18=5,40=1/2;
 3/5=7,11=9,16=1,17=8,25=1,30=1,71=1/1,2,3;
 4//1;
 5/5=2,38=5/2;
 8/6=4,10=1/1;
 9/15=1,16=-3/6;
 10/5=1,13=10,31=1/2;
 6/7=2,8=2,9=2,10=2,22=-1,40=1/1,7;
 99/5=1,9=1/99;
 Leave Link    1 at Fri Oct 15 15:32:04 2021, MaxMem= 16106127360 cpu:               3.3 elap:               0.1
 (Enter /sw/contrib/gaussian/g16/B01/g16/l101.exe)
 -----
 title
 -----
 Symbolic Z-matrix:
 Charge = -1 Multiplicity = 1
 O
 X                    1     10. 
 H(iso=2)             1    r1       2     90. 
 Br                   1    r2       2     90.      3    a1       0
 H                    1    r3       2    oop      3    a1       0
       Variables:
  r1                    0.96048                  
  r2                    3.25083                  
  r3                    0.8                      
  a1                  101.65547                  
  OOP                  90.                       
 
 ITRead=  0  0  0  0
 MicOpt= -1 -1 -1 -1
 NAtoms=      4 NQM=        4 NQMF=       0 NMMI=      0 NMMIF=      0
                NMic=       0 NMicF=      0.
                    Isotopes and Nuclear Properties:
 (Nuclear quadrupole moments (NQMom) in fm**2, nuclear magnetic moments (NMagM)
  in nuclear magnetons)

  Atom         1           2           3           4
 IAtWgt=          16           2          79           1
 AtmWgt=  15.9949146   2.0141018  78.9183361   1.0078250
 NucSpn=           0           2           3           1
 AtZEff=  -0.0000000  -0.0000000  -0.0000000  -0.0000000
 NQMom=    0.0000000   0.2860000  31.3000000   0.0000000
 NMagM=    0.0000000   0.8574380   2.1063990   2.7928460
 AtZNuc=   8.0000000   1.0000000  35.0000000   1.0000000
 Leave Link  101 at Fri Oct 15 15:32:04 2021, MaxMem= 16106127360 cpu:               3.1 elap:               0.1
 (Enter /sw/contrib/gaussian/g16/B01/g16/l202.exe)
                          Input orientation:                          
 ---------------------------------------------------------------------
 Center     Atomic      Atomic             Coordinates (Angstroms)
 Number     Number       Type             X           Y           Z
 ---------------------------------------------------------------------
      1          8           0        0.000000    0.000000    0.000000
      2          1           0        0.960482    0.000000    0.000000
      3         35           0       -0.656753   -3.183800    0.000000
      4          1           0       -0.161621   -0.783504    0.000000
 ---------------------------------------------------------------------
                    Distance matrix (angstroms):
                    1          2          3          4
     1  O    0.000000
     2  H    0.960482   0.000000
     3  Br   3.250832   3.570999   0.000000
     4  H    0.800000   1.368573   2.450832   0.000000
 Symmetry turned off by external request.
 Stoichiometry    BrH2O(1-)
 Framework group  CS[SG(BrH2O)]
 Deg. of freedom     5
 Full point group                 CS      NOp   2
 Rotational constants (GHZ):         322.6746785           3.1455154           3.1151481
 Leave Link  202 at Fri Oct 15 15:32:04 2021, MaxMem= 16106127360 cpu:               0.2 elap:               0.0
 (Enter /sw/contrib/gaussian/g16/B01/g16/l301.exe)
 General basis read from cards:  (5D, 7F)
 Centers:       2      4      1      2      4
 aug-cc-pVTZ
 ****
 Centers:       3
 S 10 1.00
     Exponent=  9.6593900000D+03 Coefficients=  3.7100000000D-04
     Exponent=  1.4559600000D+03 Coefficients=  2.5710000000D-03
     Exponent=  3.2591400000D+02 Coefficients=  8.4850000000D-03
     Exponent=  4.6565700000D+01 Coefficients=  7.8222000000D-02
     Exponent=  1.8246900000D+01 Coefficients= -3.9714900000D-01
     Exponent=  3.8020100000D+00 Coefficients=  6.8586400000D-01
     Exponent=  1.7863200000D+00 Coefficients=  4.8681900000D-01
     Exponent=  6.0271400000D-01 Coefficients=  3.4913000000D-02
     Exponent=  2.8401400000D-01 Coefficients= -6.5730000000D-03
     Exponent=  1.2027100000D-01 Coefficients=  1.6420000000D-03
 S 10 1.00
     Exponent=  9.6593900000D+03 Coefficients= -1.5200000000D-04
     Exponent=  1.4559600000D+03 Coefficients= -1.0080000000D-03
     Exponent=  3.2591400000D+02 Coefficients= -3.6090000000D-03
     Exponent=  4.6565700000D+01 Coefficients= -2.7872000000D-02
     Exponent=  1.8246900000D+01 Coefficients=  1.5131700000D-01
     Exponent=  3.8020100000D+00 Coefficients= -3.5149700000D-01
     Exponent=  1.7863200000D+00 Coefficients= -4.1070300000D-01
     Exponent=  6.0271400000D-01 Coefficients=  3.4731600000D-01
     Exponent=  2.8401400000D-01 Coefficients=  6.7549100000D-01
     Exponent=  1.2027100000D-01 Coefficients=  2.4400800000D-01
 S 1 1.00
     Exponent=  6.0271400000D-01 Coefficients=  1.0000000000D+00
 S 1 1.00
     Exponent=  2.8401400000D-01 Coefficients=  1.0000000000D+00
 S 1 1.00
     Exponent=  1.2027100000D-01 Coefficients=  1.0000000000D+00
 S 1 1.00
     Exponent=  4.4500000000D-02 Coefficients=  1.0000000000D+00
 P 9 1.00
     Exponent=  4.9218700000D+02 Coefficients=  4.7200000000D-04
     Exponent=  9.2364200000D+01 Coefficients=  5.4940000000D-03
     Exponent=  2.7071800000D+01 Coefficients= -8.8030000000D-02
     Exponent=  7.2653900000D+00 Coefficients=  3.4348500000D-01
     Exponent=  3.4848100000D+00 Coefficients=  5.1020800000D-01
     Exponent=  1.6404800000D+00 Coefficients=  2.4863100000D-01
     Exponent=  6.4857000000D-01 Coefficients=  2.2201000000D-02
     Exponent=  2.5640700000D-01 Coefficients= -4.1900000000D-04
     Exponent=  9.5304000000D-02 Coefficients=  6.5600000000D-04
 P 9 1.00
     Exponent=  4.9218700000D+02 Coefficients= -1.5800000000D-04
     Exponent=  9.2364200000D+01 Coefficients= -1.3440000000D-03
     Exponent=  2.7071800000D+01 Coefficients=  2.4616000000D-02
     Exponent=  7.2653900000D+00 Coefficients= -1.1253200000D-01
     Exponent=  3.4848100000D+00 Coefficients= -1.7977500000D-01
     Exponent=  1.6404800000D+00 Coefficients= -7.3661000000D-02
     Exponent=  6.4857000000D-01 Coefficients=  3.4873400000D-01
     Exponent=  2.5640700000D-01 Coefficients=  5.5794800000D-01
     Exponent=  9.5304000000D-02 Coefficients=  2.6645600000D-01
 P 1 1.00
     Exponent=  7.6660000000D-01 Coefficients=  1.0000000000D+00
 P 1 1.00
     Exponent=  1.1820000000D-01 Coefficients=  1.0000000000D+00
 P 1 1.00
     Exponent=  3.9600000000D-02 Coefficients=  1.0000000000D+00
 D 8 1.00
     Exponent=  3.3899600000D+02 Coefficients=  1.5240000000D-03
     Exponent=  1.0321700000D+02 Coefficients=  1.5673000000D-02
     Exponent=  4.2363800000D+01 Coefficients=  7.2400000000D-02
     Exponent=  1.8435600000D+01 Coefficients=  1.8630300000D-01
     Exponent=  8.3725400000D+00 Coefficients=  3.2388100000D-01
     Exponent=  3.8022200000D+00 Coefficients=  3.7453400000D-01
     Exponent=  1.6867700000D+00 Coefficients=  2.5741800000D-01
     Exponent=  6.7752000000D-01 Coefficients=  6.8051000000D-02
 D 1 1.00
     Exponent=  6.7752000000D-01 Coefficients=  1.0000000000D+00
 D 1 1.00
     Exponent=  2.5530000000D-01 Coefficients=  1.0000000000D+00
 D 1 1.00
     Exponent=  1.0090000000D-01 Coefficients=  1.0000000000D+00
 F 1 1.00
     Exponent=  5.6060000000D-01 Coefficients=  1.0000000000D+00
 F 1 1.00
     Exponent=  2.4540000000D-01 Coefficients=  1.0000000000D+00
 ****
 ======================================================================================================
                                       Pseudopotential Parameters
 ======================================================================================================
  Center     Atomic      Valence      Angular      Power
  Number     Number     Electrons     Momentum     of R      Exponent        Coefficient   SO-Coeffient
 ======================================================================================================
    1          8
                                   No pseudopotential on this center.
    2          1
                                   No pseudopotential on this center.
    3         35           25
                                      G and up 
                                                     2        1.0000000        0.00000000    0.00000000
                                      S - G
                                                     2       70.0242570       49.96283400    0.00000000
                                                     2       31.1784120      370.01420500    0.00000000
                                                     2        7.1565930       10.24143900    0.00000000
                                      P - G
                                                     2       46.7734710       99.11224400    0.00000000
                                                     2       46.1841200      198.25304600    0.00000000
                                                     2       21.7138580       28.26174000    0.00000000
                                                     2       20.9417920       56.62336600    0.00000000
                                      D - G
                                                     2       50.6988390      -18.60585300    0.00000000
                                                     2       50.6447640      -27.92328000    0.00000000
                                                     2       15.4475090       -0.37969300    0.00000000
                                                     2       15.5002590       -0.78058300    0.00000000
                                                     2        2.8003910        0.03596800    0.00000000
                                                     2        1.0774800        0.09439700    0.00000000
                                      F - G
                                                     2       14.4656060       -1.09126900    0.00000000
                                                     2       21.2340650       -2.88769100    0.00000000
    4          1
                                   No pseudopotential on this center.
 ======================================================================================================
 Ernie: Thresh=  0.10000D-02 Tol=  0.10000D-05 Strict=F.
 Ernie:  18 primitive shells out of 132 were deleted.
   191 basis functions,   334 primitive gaussians,   218 cartesian basis functions
    18 alpha electrons       18 beta electrons
       nuclear repulsion energy        51.7450747004 Hartrees.
 IExCor=    0 DFT=F Ex=HF Corr=None ExCW=0 ScaHFX=  1.000000
 ScaDFX=  1.000000  1.000000  1.000000  1.000000 ScalE2=  1.000000  1.000000
 IRadAn=      5 IRanWt=     -1 IRanGd=            0 ICorTp=0 IEmpDi=  4
 NAtoms=    4 NActive=    4 NUniq=    4 SFac= 1.00D+00 NAtFMM=   60 NAOKFM=F Big=F
 Integral buffers will be    131072 words long.
 Raffenetti 1 integral format.
 Two-electron integral symmetry is turned off.
 Leave Link  301 at Fri Oct 15 15:32:05 2021, MaxMem= 16106127360 cpu:               2.3 elap:               0.1
 (Enter /sw/contrib/gaussian/g16/B01/g16/l302.exe)
 NPDir=0 NMtPBC=     1 NCelOv=     1 NCel=       1 NClECP=     1 NCelD=      1
         NCelK=      1 NCelE2=     1 NClLst=     1 CellRange=     0.0.
 One-electron integrals computed using PRISM.
   1 Symmetry operations used in ECPInt.
 ECPInt:  NShTT=    2145 NPrTT=    6720 LenC2=    2146 LenP2D=    6094.
 LDataN:  DoStor=T MaxTD1= 7 Len=  274
 NBasis=   191 RedAO= T EigKep=  2.93D-04  NBF=   191
 NBsUse=   147 1.00D-06 EigRej=  5.30D-15 NBFU=   147
 Leave Link  302 at Fri Oct 15 15:32:05 2021, MaxMem= 16106127360 cpu:               7.4 elap:               0.3
 (Enter /sw/contrib/gaussian/g16/B01/g16/l303.exe)
 DipDrv:  MaxL=1.
 Leave Link  303 at Fri Oct 15 15:32:05 2021, MaxMem= 16106127360 cpu:               3.5 elap:               0.2
 (Enter /sw/contrib/gaussian/g16/B01/g16/l401.exe)
 ExpMin= 2.53D-02 ExpMax= 1.53D+04 ExpMxC= 5.22D+02 IAcc=3 IRadAn=         5 AccDes= 0.00D+00
 Harris functional with IExCor=  205 and IRadAn=       5 diagonalized for initial guess.
 HarFok:  IExCor=  205 AccDes= 0.00D+00 IRadAn=         5 IDoV= 1 UseB2=F ITyADJ=14
 ICtDFT=  3500011 ScaDFX=  1.000000  1.000000  1.000000  1.000000
 FoFCou: FMM=F IPFlag=           0 FMFlag=      100000 FMFlg1=           0
         NFxFlg=           0 DoJE=T BraDBF=F KetDBF=T FulRan=T
         wScrn=  0.000000 ICntrl=       500 IOpCl=  0 I1Cent=   200000004 NGrid=           0
         NMat0=    1 NMatS0=      1 NMatT0=    0 NMatD0=    1 NMtDS0=    0 NMtDT0=    0
 Symmetry not used in FoFCou.
 Harris En= -493.541085888477    
 JPrj=0 DoOrth=F DoCkMO=F.
 Leave Link  401 at Fri Oct 15 15:32:05 2021, MaxMem= 16106127360 cpu:               6.9 elap:               0.3
 (Enter /sw/contrib/gaussian/g16/B01/g16/l502.exe)
 Keep R1 ints in memory in canonical form, NReq=204937549.
 FoFCou: FMM=F IPFlag=           0 FMFlag=           0 FMFlg1=           0
         NFxFlg=           0 DoJE=F BraDBF=F KetDBF=F FulRan=T
         wScrn=  0.000000 ICntrl=       600 IOpCl=  0 I1Cent=           0 NGrid=           0
         NMat0=    1 NMatS0=  18336 NMatT0=    0 NMatD0=    1 NMtDS0=    0 NMtDT0=    0
 Symmetry not used in FoFCou.
 Two-electron integral symmetry not used.
 Closed shell SCF:
 Using DIIS extrapolation, IDIIS=  1040.
 NGot= 16106127360 LenX= 15937911228 LenY= 15937863263
 Requested convergence on RMS density matrix=1.00D-08 within 128 cycles.
 Requested convergence on MAX density matrix=1.00D-06.
 Requested convergence on             energy=1.00D-06.
 No special actions if energy rises.

 Cycle   1  Pass 1  IDiag  1:
 E= -491.433938007034    
 DIIS: error= 5.18D-02 at cycle   1 NSaved=   1.
 NSaved= 1 IEnMin= 1 EnMin= -491.433938007034     IErMin= 1 ErrMin= 5.18D-02
 ErrMax= 5.18D-02  0.00D+00 EMaxC= 1.00D-01 BMatC= 3.05D-01 BMatP= 3.05D-01
 IDIUse=3 WtCom= 4.82D-01 WtEn= 5.18D-01
 Coeff-Com:  0.100D+01
 Coeff-En:   0.100D+01
 Coeff:      0.100D+01
 Gap=     0.336 Goal=   None    Shift=    0.000
 GapD=    0.336 DampG=1.000 DampE=0.500 DampFc=0.5000 IDamp=-1.
 Damping current iteration by 5.00D-01
 RMSDP=4.65D-03 MaxDP=2.79D-01              OVMax= 1.39D-01

 Cycle   2  Pass 1  IDiag  1:
 E= -491.531472055707     Delta-E=       -0.097534048674 Rises=F Damp=T
 DIIS: error= 1.08D-02 at cycle   2 NSaved=   2.
 NSaved= 2 IEnMin= 2 EnMin= -491.531472055707     IErMin= 2 ErrMin= 1.08D-02
 ErrMax= 1.08D-02  0.00D+00 EMaxC= 1.00D-01 BMatC= 4.72D-02 BMatP= 3.05D-01
 IDIUse=3 WtCom= 8.92D-01 WtEn= 1.08D-01
 Coeff-Com: -0.405D+00 0.141D+01
 Coeff-En:   0.000D+00 0.100D+01
 Coeff:     -0.361D+00 0.136D+01
 Gap=     0.269 Goal=   None    Shift=    0.000
 RMSDP=1.72D-03 MaxDP=1.00D-01 DE=-9.75D-02 OVMax= 6.13D-02

 Cycle   3  Pass 1  IDiag  1:
 E= -491.616562801510     Delta-E=       -0.085090745803 Rises=F Damp=F
 DIIS: error= 3.66D-03 at cycle   3 NSaved=   3.
 NSaved= 3 IEnMin= 3 EnMin= -491.616562801510     IErMin= 3 ErrMin= 3.66D-03
 ErrMax= 3.66D-03  0.00D+00 EMaxC= 1.00D-01 BMatC= 1.03D-03 BMatP= 4.72D-02
 IDIUse=3 WtCom= 9.63D-01 WtEn= 3.66D-02
 Coeff-Com: -0.911D-01 0.167D+00 0.924D+00
 Coeff-En:   0.000D+00 0.000D+00 0.100D+01
 Coeff:     -0.877D-01 0.161D+00 0.927D+00
 Gap=     0.288 Goal=   None    Shift=    0.000
 RMSDP=2.49D-04 MaxDP=1.45D-02 DE=-8.51D-02 OVMax= 7.61D-03

 Cycle   4  Pass 1  IDiag  1:
 E= -491.617253884150     Delta-E=       -0.000691082640 Rises=F Damp=F
 DIIS: error= 4.76D-04 at cycle   4 NSaved=   4.
 NSaved= 4 IEnMin= 4 EnMin= -491.617253884150     IErMin= 4 ErrMin= 4.76D-04
 ErrMax= 4.76D-04  0.00D+00 EMaxC= 1.00D-01 BMatC= 3.61D-05 BMatP= 1.03D-03
 IDIUse=3 WtCom= 9.95D-01 WtEn= 4.76D-03
 Coeff-Com: -0.448D-02 0.661D-02 0.971D-01 0.901D+00
 Coeff-En:   0.000D+00 0.000D+00 0.000D+00 0.100D+01
 Coeff:     -0.446D-02 0.658D-02 0.967D-01 0.901D+00
 Gap=     0.284 Goal=   None    Shift=    0.000
 RMSDP=4.78D-05 MaxDP=1.89D-03 DE=-6.91D-04 OVMax= 2.00D-03

 Cycle   5  Pass 1  IDiag  1:
 E= -491.617289967273     Delta-E=       -0.000036083124 Rises=F Damp=F
 DIIS: error= 1.94D-04 at cycle   5 NSaved=   5.
 NSaved= 5 IEnMin= 5 EnMin= -491.617289967273     IErMin= 5 ErrMin= 1.94D-04
 ErrMax= 1.94D-04  0.00D+00 EMaxC= 1.00D-01 BMatC= 5.67D-06 BMatP= 3.61D-05
 IDIUse=3 WtCom= 9.98D-01 WtEn= 1.94D-03
 Coeff-Com:  0.699D-02-0.154D-01-0.524D-01 0.191D+00 0.869D+00
 Coeff-En:   0.000D+00 0.000D+00 0.000D+00 0.000D+00 0.100D+01
 Coeff:      0.698D-02-0.154D-01-0.523D-01 0.191D+00 0.870D+00
 Gap=     0.285 Goal=   None    Shift=    0.000
 RMSDP=2.06D-05 MaxDP=1.24D-03 DE=-3.61D-05 OVMax= 9.26D-04

 Cycle   6  Pass 1  IDiag  1:
 E= -491.617296634816     Delta-E=       -0.000006667543 Rises=F Damp=F
 DIIS: error= 6.73D-05 at cycle   6 NSaved=   6.
 NSaved= 6 IEnMin= 6 EnMin= -491.617296634816     IErMin= 6 ErrMin= 6.73D-05
 ErrMax= 6.73D-05  0.00D+00 EMaxC= 1.00D-01 BMatC= 3.53D-07 BMatP= 5.67D-06
 IDIUse=1 WtCom= 1.00D+00 WtEn= 0.00D+00
 Coeff-Com: -0.180D-03 0.139D-02-0.335D-02-0.101D+00-0.257D+00 0.136D+01
 Coeff:     -0.180D-03 0.139D-02-0.335D-02-0.101D+00-0.257D+00 0.136D+01
 Gap=     0.285 Goal=   None    Shift=    0.000
 RMSDP=9.14D-06 MaxDP=5.20D-04 DE=-6.67D-06 OVMax= 6.08D-04

 Cycle   7  Pass 1  IDiag  1:
 E= -491.617297689930     Delta-E=       -0.000001055114 Rises=F Damp=F
 DIIS: error= 1.10D-05 at cycle   7 NSaved=   7.
 NSaved= 7 IEnMin= 7 EnMin= -491.617297689930     IErMin= 7 ErrMin= 1.10D-05
 ErrMax= 1.10D-05  0.00D+00 EMaxC= 1.00D-01 BMatC= 9.16D-09 BMatP= 3.53D-07
 IDIUse=1 WtCom= 1.00D+00 WtEn= 0.00D+00
 Coeff-Com: -0.274D-03 0.207D-03 0.327D-02 0.246D-01 0.641D-01-0.462D+00
 Coeff-Com:  0.137D+01
 Coeff:     -0.274D-03 0.207D-03 0.327D-02 0.246D-01 0.641D-01-0.462D+00
 Coeff:      0.137D+01
 Gap=     0.285 Goal=   None    Shift=    0.000
 RMSDP=1.70D-06 MaxDP=9.18D-05 DE=-1.06D-06 OVMax= 1.09D-04

 Cycle   8  Pass 1  IDiag  1:
 E= -491.617297718534     Delta-E=       -0.000000028604 Rises=F Damp=F
 DIIS: error= 1.99D-06 at cycle   8 NSaved=   8.
 NSaved= 8 IEnMin= 8 EnMin= -491.617297718534     IErMin= 8 ErrMin= 1.99D-06
 ErrMax= 1.99D-06  0.00D+00 EMaxC= 1.00D-01 BMatC= 2.55D-10 BMatP= 9.16D-09
 IDIUse=1 WtCom= 1.00D+00 WtEn= 0.00D+00
 Coeff-Com:  0.565D-04-0.826D-04-0.574D-03-0.842D-03-0.282D-02 0.371D-01
 Coeff-Com: -0.239D+00 0.121D+01
 Coeff:      0.565D-04-0.826D-04-0.574D-03-0.842D-03-0.282D-02 0.371D-01
 Coeff:     -0.239D+00 0.121D+01
 Gap=     0.285 Goal=   None    Shift=    0.000
 RMSDP=3.54D-07 MaxDP=1.63D-05 DE=-2.86D-08 OVMax= 1.35D-05

 Cycle   9  Pass 1  IDiag  1:
 E= -491.617297719186     Delta-E=       -0.000000000652 Rises=F Damp=F
 DIIS: error= 3.33D-07 at cycle   9 NSaved=   9.
 NSaved= 9 IEnMin= 9 EnMin= -491.617297719186     IErMin= 9 ErrMin= 3.33D-07
 ErrMax= 3.33D-07  0.00D+00 EMaxC= 1.00D-01 BMatC= 1.66D-11 BMatP= 2.55D-10
 IDIUse=1 WtCom= 1.00D+00 WtEn= 0.00D+00
 Coeff-Com:  0.152D-04-0.827D-05-0.196D-03-0.170D-02-0.459D-02 0.315D-01
 Coeff-Com: -0.837D-01-0.388D-01 0.110D+01
 Coeff:      0.152D-04-0.827D-05-0.196D-03-0.170D-02-0.459D-02 0.315D-01
 Coeff:     -0.837D-01-0.388D-01 0.110D+01
 Gap=     0.285 Goal=   None    Shift=    0.000
 RMSDP=7.06D-08 MaxDP=3.36D-06 DE=-6.52D-10 OVMax= 3.03D-06

 Cycle  10  Pass 1  IDiag  1:
 E= -491.617297719225     Delta-E=       -0.000000000039 Rises=F Damp=F
 DIIS: error= 7.93D-08 at cycle  10 NSaved=  10.
 NSaved=10 IEnMin=10 EnMin= -491.617297719225     IErMin=10 ErrMin= 7.93D-08
 ErrMax= 7.93D-08  0.00D+00 EMaxC= 1.00D-01 BMatC= 9.79D-13 BMatP= 1.66D-11
 IDIUse=1 WtCom= 1.00D+00 WtEn= 0.00D+00
 Coeff-Com: -0.450D-05 0.607D-05 0.473D-04 0.943D-04 0.366D-03-0.346D-02
 Coeff-Com:  0.181D-01-0.707D-01-0.553D-01 0.111D+01
 Coeff:     -0.450D-05 0.607D-05 0.473D-04 0.943D-04 0.366D-03-0.346D-02
 Coeff:      0.181D-01-0.707D-01-0.553D-01 0.111D+01
 Gap=     0.285 Goal=   None    Shift=    0.000
 RMSDP=1.42D-08 MaxDP=6.17D-07 DE=-3.90D-11 OVMax= 7.54D-07

 Cycle  11  Pass 1  IDiag  1:
 E= -491.617297719229     Delta-E=       -0.000000000004 Rises=F Damp=F
 DIIS: error= 1.54D-08 at cycle  11 NSaved=  11.
 NSaved=11 IEnMin=11 EnMin= -491.617297719229     IErMin=11 ErrMin= 1.54D-08
 ErrMax= 1.54D-08  0.00D+00 EMaxC= 1.00D-01 BMatC= 4.38D-14 BMatP= 9.79D-13
 IDIUse=1 WtCom= 1.00D+00 WtEn= 0.00D+00
 Coeff-Com: -0.166D-06-0.417D-06 0.474D-05 0.741D-04 0.191D-03-0.121D-02
 Coeff-Com:  0.239D-02 0.645D-02-0.535D-01-0.651D-01 0.111D+01
 Coeff:     -0.166D-06-0.417D-06 0.474D-05 0.741D-04 0.191D-03-0.121D-02
 Coeff:      0.239D-02 0.645D-02-0.535D-01-0.651D-01 0.111D+01
 Gap=     0.285 Goal=   None    Shift=    0.000
 RMSDP=5.78D-09 MaxDP=3.07D-07 DE=-3.52D-12 OVMax= 1.61D-07

 SCF Done:  E(RHF) =  -491.617297719     A.U. after   11 cycles
            NFock= 11  Conv=0.58D-08     -V/T= 2.3208
 KE= 3.722134305737D+02 PE=-1.319420159308D+03 EE= 4.038443563147D+02
 Leave Link  502 at Fri Oct 15 15:32:10 2021, MaxMem= 16106127360 cpu:              49.7 elap:               5.1
 (Enter /sw/contrib/gaussian/g16/B01/g16/l801.exe)
 ExpMin= 2.53D-02 ExpMax= 1.53D+04 ExpMxC= 5.22D+02 IAcc=3 IRadAn=         5 AccDes= 0.00D+00
 HarFok:  IExCor=  205 AccDes= 0.00D+00 IRadAn=         5 IDoV=-2 UseB2=F ITyADJ=14
 ICtDFT= 12500011 ScaDFX=  1.000000  1.000000  1.000000  1.000000
 Largest valence mixing into a core orbital is  1.21D-04
 Largest core mixing into a valence orbital is  1.81D-05
 Range of M.O.s used for correlation:     6   147
 NBasis=   191 NAE=    18 NBE=    18 NFC=     5 NFV=     0
 NROrb=    142 NOA=    13 NOB=    13 NVA=   129 NVB=   129

 **** Warning!!: The largest alpha MO coefficient is  0.15184943D+02

 Leave Link  801 at Fri Oct 15 15:32:11 2021, MaxMem= 16106127360 cpu:               1.9 elap:               0.1
 (Enter /sw/contrib/gaussian/g16/B01/g16/l906.exe)
 Frozen-core derivative calculation, NFC=   5 NFV=   0.
 FulOut=F Deriv=T AODrv=F NAtomX=     4
   MMem=         107  MDisk=          13 MDiskD=          13
  W3Min=      576828 MinDsk=     1313419 NBas6D=         218
 NBas2D=       24339    NTT=       23871    LW2=    16556320
    MDV= 16105797488 MDiskM=      369353 NBas2p=       24313
 Fully in-core method, ICMem=   644650517.
 IMap=   1   2   3   4   5   6   7   8   9  10  11  12  13  14  15  16  17  18
 JobTyp=1 Pass  1 fully in-core, NPsUse= 28.
 Compute canonical integrals.
 FoFCou: FMM=F IPFlag=           0 FMFlag=           0 FMFlg1=           0
         NFxFlg=           0 DoJE=F BraDBF=F KetDBF=F FulRan=T
         wScrn=  0.000000 ICntrl=       600 IOpCl=  1 I1Cent=           0 NGrid=           0
         NMat0=    1 NMatS0=  24339 NMatT0=    0 NMatD0=    1 NMtDS0=    0 NMtDT0=    0
 Symmetry not used in FoFCou.
 Spin components of T(2) and E(2):
     alpha-alpha T2 =       0.1958295972D-01 E2=     -0.6813226313D-01
     alpha-beta  T2 =       0.1042226105D+00 E2=     -0.3725884035D+00
     beta-beta   T2 =       0.1958295972D-01 E2=     -0.6813226313D-01
 The integrals were generated   1 times.
 ANorm=    0.1069293472D+01
 E2 =    -0.5088529298D+00 EUMP2 =    -0.49212615064901D+03
 Leave Link  906 at Fri Oct 15 15:32:16 2021, MaxMem= 16106127360 cpu:             138.9 elap:               5.0
 (Enter /sw/contrib/gaussian/g16/B01/g16/l1002.exe)
 Minotr:  Closed shell wavefunction.
          Computing MP2/KS-MP2 derivatives.
          Using Z-Vector for PSCF gradient.
          Skipping F1 and S1 gradient terms here.
          Frozen-core window.
          Direct CPHF calculation.
          Differentiating once with respect to electric field.
                with respect to dipole field.
          Electric field/nuclear overlap derivatives assumed to be zero.
          Requested convergence is 1.0D-10 RMS, and 1.0D-09 maximum.
          NewPWx=F KeepS1=T KeepF1=T KeepIn=T MapXYZ=F SortEE=F KeepMc=T.
 Keep R1 ints in memory in canonical form, NReq=204939929.
 FoFCou: FMM=F IPFlag=           0 FMFlag=           0 FMFlg1=           0
         NFxFlg=           0 DoJE=F BraDBF=F KetDBF=F FulRan=T
         wScrn=  0.000000 ICntrl=       600 IOpCl=  0 I1Cent=           0 NGrid=           0
         NMat0=    1 NMatS0=  18336 NMatT0=    0 NMatD0=    1 NMtDS0=    0 NMtDT0=    0
 Symmetry not used in FoFCou.
 Two-electron integral symmetry not used.
          MDV=   16106127360 using IRadAn=       5.
          Solving linear equations separately, MaxMat=       0.
          There are     1 degrees of freedom in the 1st order CPHF.  IDoFFX=0 NUNeed=     1.
 LinEq1:  Iter=  0 NonCon=     1 RMS=2.44D-03 Max=3.46D-02 NDo=     1
 AX will form     1 AO Fock derivatives at one time.
 LinEq1:  Iter=  1 NonCon=     1 RMS=4.16D-04 Max=3.81D-03 NDo=     1
 LinEq1:  Iter=  2 NonCon=     1 RMS=2.03D-04 Max=2.45D-03 NDo=     1
 LinEq1:  Iter=  3 NonCon=     1 RMS=4.81D-05 Max=6.83D-04 NDo=     1
 LinEq1:  Iter=  4 NonCon=     1 RMS=8.31D-06 Max=8.27D-05 NDo=     1
 LinEq1:  Iter=  5 NonCon=     1 RMS=3.69D-06 Max=4.25D-05 NDo=     1
 LinEq1:  Iter=  6 NonCon=     1 RMS=7.16D-07 Max=8.13D-06 NDo=     1
 LinEq1:  Iter=  7 NonCon=     1 RMS=1.39D-07 Max=1.64D-06 NDo=     1
 LinEq1:  Iter=  8 NonCon=     1 RMS=4.00D-08 Max=4.03D-07 NDo=     1
 LinEq1:  Iter=  9 NonCon=     1 RMS=5.67D-09 Max=9.29D-08 NDo=     1
 LinEq1:  Iter= 10 NonCon=     1 RMS=6.72D-10 Max=7.17D-09 NDo=     1
 LinEq1:  Iter= 11 NonCon=     1 RMS=1.64D-10 Max=2.40D-09 NDo=     1
 LinEq1:  Iter= 12 NonCon=     0 RMS=3.63D-11 Max=4.46D-10 NDo=     1
 Linear equations converged to 1.000D-10 1.000D-09 after    12 iterations.
 End of Minotr F.D. properties file   721 does not exist.
 End of Minotr F.D. properties file   722 does not exist.
 End of Minotr F.D. properties file   788 does not exist.
 Leave Link 1002 at Fri Oct 15 15:32:21 2021, MaxMem= 16106127360 cpu:              42.5 elap:               5.2
 (Enter /sw/contrib/gaussian/g16/B01/g16/l601.exe)
 Copying SCF densities to generalized density rwf, IOpCl= 0 IROHF=0.

 **********************************************************************

            Population analysis using the MP2 Density.

 **********************************************************************

 Alpha  occ. eigenvalues --  -20.38460  -9.53600  -7.28360  -7.28350  -7.28349
 Alpha  occ. eigenvalues --   -2.83463  -2.83460  -2.83458  -2.83449  -2.83449
 Alpha  occ. eigenvalues --   -1.23865  -0.72948  -0.59082  -0.44155  -0.35375
 Alpha  occ. eigenvalues --   -0.15679  -0.15218  -0.15181
 Alpha virt. eigenvalues --    0.13341   0.17305   0.25081   0.25808   0.26767
 Alpha virt. eigenvalues --    0.27906   0.29437   0.29611   0.33819   0.34245
 Alpha virt. eigenvalues --    0.39558   0.40552   0.41338   0.46318   0.47739
 Alpha virt. eigenvalues --    0.48154   0.53252   0.53915   0.56423   0.59210
 Alpha virt. eigenvalues --    0.61056   0.63308   0.70192   0.79358   0.81886
 Alpha virt. eigenvalues --    0.85447   0.85480   0.87573   0.87865   0.89008
 Alpha virt. eigenvalues --    0.89187   0.95534   0.98008   0.99472   1.00396
 Alpha virt. eigenvalues --    1.00546   1.03208   1.03401   1.06930   1.09043
 Alpha virt. eigenvalues --    1.09286   1.12383   1.15403   1.15780   1.16205
 Alpha virt. eigenvalues --    1.16668   1.18274   1.20506   1.21717   1.23065
 Alpha virt. eigenvalues --    1.32744   1.34354   1.38474   1.42604   1.45929
 Alpha virt. eigenvalues --    1.50412   1.59830   1.63219   1.67655   1.68515
 Alpha virt. eigenvalues --    1.77706   1.89501   2.04793   2.12468   2.17881
 Alpha virt. eigenvalues --    2.41209   2.43041   2.47499   2.47878   2.49282
 Alpha virt. eigenvalues --    2.53510   2.54433   2.55214   2.55666   2.55918
 Alpha virt. eigenvalues --    2.56915   2.58534   2.59453   2.63914   2.65185
 Alpha virt. eigenvalues --    2.66718   2.70515   2.72793   2.75945   2.79994
 Alpha virt. eigenvalues --    2.80028   2.82843   2.90387   2.90518   2.98443
 Alpha virt. eigenvalues --    3.05236   3.10389   3.15927   3.54607   3.89031
 Alpha virt. eigenvalues --    4.15705   4.27286   4.35899   4.43169   4.49908
 Alpha virt. eigenvalues --    4.57845   4.63401   4.63753   4.72720   4.79755
 Alpha virt. eigenvalues --    5.03620   5.20711   5.39454   5.45104   5.59473
 Alpha virt. eigenvalues --    5.98652   6.02879   6.31034   6.60379   6.72564
 Alpha virt. eigenvalues --    6.94632   7.29207   7.36293   7.42891   7.46057
 Alpha virt. eigenvalues --    7.50232   7.82297   8.06861   8.06975   8.28735
 Alpha virt. eigenvalues --    9.02642   9.36585  20.55542  79.90227
          Condensed to atoms (all electrons):
               1          2          3          4
     1  O    7.984939   0.244856  -0.041862   0.179864
     2  H    0.244856   0.597905   0.007546  -0.030065
     3  Br  -0.041862   0.007546  25.989567   0.014475
     4  H    0.179864  -0.030065   0.014475   0.677961
 Mulliken charges:
               1
     1  O   -0.367797
     2  H    0.179758
     3  Br  -0.969726
     4  H    0.157765
 Sum of Mulliken charges =  -1.00000
 Mulliken charges with hydrogens summed into heavy atoms:
               1
     1  O   -0.030274
     3  Br  -0.969726
 Electronic spatial extent (au):  <R**2>=           1051.3355
 Charge=             -1.0000 electrons
 Dipole moment (field-independent basis, Debye):
    X=              4.0637    Y=             13.0839    Z=             -0.0000  Tot=             13.7004
 Quadrupole moment (field-independent basis, Debye-Ang):
   XX=            -30.4858   YY=            -75.8410   ZZ=            -31.2549
   XY=             -8.7003   XZ=              0.0000   YZ=              0.0000
 Traceless Quadrupole moment (field-independent basis, Debye-Ang):
   XX=             15.3747   YY=            -29.9804   ZZ=             14.6057
   XY=             -8.7003   XZ=              0.0000   YZ=              0.0000
 Octapole moment (field-independent basis, Debye-Ang**2):
  XXX=             47.2970  YYY=            369.9423  ZZZ=             -0.0000  XYY=             43.5968
  XXY=             80.7556  XXZ=             -0.0000  XZZ=             14.7144  YZZ=             74.9224
  YYZ=             -0.0000  XYZ=             -0.0000
 Hexadecapole moment (field-independent basis, Debye-Ang**3):
 XXXX=           -109.8995 YYYY=          -1933.5767 ZZZZ=            -50.3954 XXXY=           -149.4310
 XXXZ=              0.0000 YYYX=           -236.7228 YYYZ=              0.0000 ZZZX=              0.0000
 ZZZY=              0.0000 XXYY=           -282.8825 XXZZ=            -26.9657 YYZZ=           -254.5656
 XXYZ=              0.0000 YYXZ=              0.0000 ZZXY=            -48.6183
 N-N= 5.174507470040D+01 E-N=-1.318093188848D+03  KE= 3.718362600759D+02
 No NMR shielding tensors so no spin-rotation constants.
 Leave Link  601 at Fri Oct 15 15:32:21 2021, MaxMem= 16106127360 cpu:               4.2 elap:               0.2
 (Enter /sw/contrib/gaussian/g16/B01/g16/l607.exe)
 ******************************Gaussian NBO Version 3.1******************************
             N A T U R A L   A T O M I C   O R B I T A L   A N D
          N A T U R A L   B O N D   O R B I T A L   A N A L Y S I S
 ******************************Gaussian NBO Version 3.1******************************
       /RESON  / : Allow strongly delocalized NBO set

 Analyzing the MP2 density

 Job title: title                                                           

 Storage needed:    110417 in NPA,    146568 in NBO (********** available)
 GSVD:  LWork=       13161 too small for GESVD, short by       32525 words or       32525 for optimal perf.


 NATURAL POPULATIONS:  Natural atomic orbital occupancies 
                                                          
   NAO  Atom  No  lang   Type(AO)    Occupancy
 --------------------------------------------
     1    O    1  S      Cor( 1S)     1.99988
     2    O    1  S      Val( 2S)     1.85635
     3    O    1  S      Ryd( 3S)     0.00639
     4    O    1  S      Ryd( 4S)     0.00050
     5    O    1  S      Ryd( 5S)     0.00016
     6    O    1  px     Val( 2p)     1.66712
     7    O    1  px     Ryd( 3p)     0.01037
     8    O    1  px     Ryd( 4p)     0.00056
     9    O    1  px     Ryd( 5p)     0.00006
    10    O    1  py     Val( 2p)     1.73902
    11    O    1  py     Ryd( 3p)     0.01426
    12    O    1  py     Ryd( 4p)     0.00056
    13    O    1  py     Ryd( 5p)     0.00020
    14    O    1  pz     Val( 2p)     1.95531
    15    O    1  pz     Ryd( 3p)     0.01895
    16    O    1  pz     Ryd( 4p)     0.00049
    17    O    1  pz     Ryd( 5p)     0.00002
    18    O    1  dxy    Ryd( 3d)     0.00835
    19    O    1  dxy    Ryd( 4d)     0.00041
    20    O    1  dxy    Ryd( 5d)     0.00014
    21    O    1  dxz    Ryd( 3d)     0.00933
    22    O    1  dxz    Ryd( 4d)     0.00097
    23    O    1  dxz    Ryd( 5d)     0.00012
    24    O    1  dyz    Ryd( 3d)     0.00760
    25    O    1  dyz    Ryd( 4d)     0.00044
    26    O    1  dyz    Ryd( 5d)     0.00021
    27    O    1  dx2y2  Ryd( 3d)     0.00920
    28    O    1  dx2y2  Ryd( 4d)     0.00068
    29    O    1  dx2y2  Ryd( 5d)     0.00030
    30    O    1  dz2    Ryd( 3d)     0.00782
    31    O    1  dz2    Ryd( 4d)     0.00062
    32    O    1  dz2    Ryd( 5d)     0.00014
    33    O    1  f(0)   Ryd( 4f)     0.00083
    34    O    1  f(0)   Ryd( 5f)     0.00012
    35    O    1  f(C1)  Ryd( 4f)     0.00055
    36    O    1  f(C1)  Ryd( 5f)     0.00009
    37    O    1  f(S1)  Ryd( 4f)     0.00052
    38    O    1  f(S1)  Ryd( 5f)     0.00010
    39    O    1  f(C2)  Ryd( 4f)     0.00053
    40    O    1  f(C2)  Ryd( 5f)     0.00015
    41    O    1  f(S2)  Ryd( 4f)     0.00044
    42    O    1  f(S2)  Ryd( 5f)     0.00007
    43    O    1  f(C3)  Ryd( 4f)     0.00037
    44    O    1  f(C3)  Ryd( 5f)     0.00013
    45    O    1  f(S3)  Ryd( 4f)     0.00043
    46    O    1  f(S3)  Ryd( 5f)     0.00016

    47    H    2  S      Val( 1S)     0.33584
    48    H    2  S      Ryd( 2S)     0.00062
    49    H    2  S      Ryd( 3S)     0.00019
    50    H    2  S      Ryd( 4S)     0.00005
    51    H    2  px     Ryd( 2p)     0.00081
    52    H    2  px     Ryd( 3p)     0.00063
    53    H    2  px     Ryd( 4p)     0.00006
    54    H    2  py     Ryd( 2p)     0.00045
    55    H    2  py     Ryd( 3p)     0.00022
    56    H    2  py     Ryd( 4p)     0.00007
    57    H    2  pz     Ryd( 2p)     0.00137
    58    H    2  pz     Ryd( 3p)     0.00017
    59    H    2  pz     Ryd( 4p)     0.00005
    60    H    2  dxy    Ryd( 4d)     0.00005
    61    H    2  dxy    Ryd( 3d)     0.00006
    62    H    2  dxz    Ryd( 3d)     0.00031
    63    H    2  dxz    Ryd( 4d)     0.00007
    64    H    2  dyz    Ryd( 3d)     0.00012
    65    H    2  dyz    Ryd( 4d)     0.00006
    66    H    2  dx2y2  Ryd( 3d)     0.00018
    67    H    2  dx2y2  Ryd( 4d)     0.00007
    68    H    2  dz2    Ryd( 3d)     0.00015
    69    H    2  dz2    Ryd( 4d)     0.00007

    70   Br    3  S      Cor( 3S)     2.00002
    71   Br    3  S      Val( 4S)     1.98138
    72   Br    3  S      Ryd( 5S)     0.00344
    73   Br    3  S      Ryd( 6S)     0.00060
    74   Br    3  S      Ryd( 7S)     0.00011
    75   Br    3  S      Ryd( 8S)     0.00000
    76   Br    3  px     Cor( 3p)     2.00002
    77   Br    3  px     Val( 4p)     1.95384
    78   Br    3  px     Ryd( 5p)     0.01220
    79   Br    3  px     Ryd( 6p)     0.00082
    80   Br    3  px     Ryd( 7p)     0.00007
    81   Br    3  py     Cor( 3p)     2.00002
    82   Br    3  py     Val( 4p)     1.95090
    83   Br    3  py     Ryd( 5p)     0.01135
    84   Br    3  py     Ryd( 6p)     0.00079
    85   Br    3  py     Ryd( 7p)     0.00013
    86   Br    3  pz     Cor( 3p)     2.00002
    87   Br    3  pz     Val( 4p)     1.95429
    88   Br    3  pz     Ryd( 5p)     0.01218
    89   Br    3  pz     Ryd( 6p)     0.00082
    90   Br    3  pz     Ryd( 7p)     0.00007
    91   Br    3  dxy    Cor( 3d)     1.99769
    92   Br    3  dxy    Ryd( 4d)     0.01874
    93   Br    3  dxy    Ryd( 5d)     0.00157
    94   Br    3  dxy    Ryd( 6d)     0.00021
    95   Br    3  dxz    Cor( 3d)     1.99771
    96   Br    3  dxz    Ryd( 4d)     0.01854
    97   Br    3  dxz    Ryd( 5d)     0.00177
    98   Br    3  dxz    Ryd( 6d)     0.00020
    99   Br    3  dyz    Cor( 3d)     1.99770
   100   Br    3  dyz    Ryd( 4d)     0.01864
   101   Br    3  dyz    Ryd( 5d)     0.00156
   102   Br    3  dyz    Ryd( 6d)     0.00020
   103   Br    3  dx2y2  Cor( 3d)     1.99768
   104   Br    3  dx2y2  Ryd( 4d)     0.01880
   105   Br    3  dx2y2  Ryd( 5d)     0.00167
   106   Br    3  dx2y2  Ryd( 6d)     0.00023
   107   Br    3  dz2    Cor( 3d)     1.99770
   108   Br    3  dz2    Ryd( 4d)     0.01865
   109   Br    3  dz2    Ryd( 5d)     0.00174
   110   Br    3  dz2    Ryd( 6d)     0.00021
   111   Br    3  f(0)   Ryd( 4f)     0.00173
   112   Br    3  f(0)   Ryd( 5f)     0.00025
   113   Br    3  f(C1)  Ryd( 4f)     0.00174
   114   Br    3  f(C1)  Ryd( 5f)     0.00025
   115   Br    3  f(S1)  Ryd( 4f)     0.00174
   116   Br    3  f(S1)  Ryd( 5f)     0.00027
   117   Br    3  f(C2)  Ryd( 4f)     0.00172
   118   Br    3  f(C2)  Ryd( 5f)     0.00025
   119   Br    3  f(S2)  Ryd( 4f)     0.00175
   120   Br    3  f(S2)  Ryd( 5f)     0.00025
   121   Br    3  f(C3)  Ryd( 4f)     0.00171
   122   Br    3  f(C3)  Ryd( 5f)     0.00026
   123   Br    3  f(S3)  Ryd( 4f)     0.00172
   124   Br    3  f(S3)  Ryd( 5f)     0.00027

   125    H    4  S      Val( 1S)     0.32595
   126    H    4  S      Ryd( 2S)     0.00548
   127    H    4  S      Ryd( 3S)     0.00068
   128    H    4  S      Ryd( 4S)     0.00008
   129    H    4  px     Ryd( 2p)     0.00410
   130    H    4  px     Ryd( 3p)     0.00040
   131    H    4  px     Ryd( 4p)     0.00016
   132    H    4  py     Ryd( 2p)     0.00464
   133    H    4  py     Ryd( 3p)     0.00060
   134    H    4  py     Ryd( 4p)     0.00017
   135    H    4  pz     Ryd( 2p)     0.00481
   136    H    4  pz     Ryd( 3p)     0.00043
   137    H    4  pz     Ryd( 4p)     0.00013
   138    H    4  dxy    Ryd( 3d)     0.00017
   139    H    4  dxy    Ryd( 4d)     0.00007
   140    H    4  dxz    Ryd( 3d)     0.00017
   141    H    4  dxz    Ryd( 4d)     0.00011
   142    H    4  dyz    Ryd( 3d)     0.00019
   143    H    4  dyz    Ryd( 4d)     0.00006
   144    H    4  dx2y2  Ryd( 3d)     0.00022
   145    H    4  dx2y2  Ryd( 4d)     0.00010
   146    H    4  dz2    Ryd( 3d)     0.00022
   147    H    4  dz2    Ryd( 4d)     0.00011

 [ 10 electrons found in the effective core potential]

 WARNING:  5 low occupancy (<1.9990e) core orbitals found on Br    3


 Summary of Natural Population Analysis:                  
                                                          
                                       Natural Population 
                Natural  -----------------------------------------------
    Atom  No    Charge         Core      Valence    Rydberg      Total
 -----------------------------------------------------------------------
      O    1   -1.32104      1.99988     7.21779    0.10337     9.32104
      H    2    0.65835      0.00000     0.33584    0.00581     0.34165
     Br    3   -0.98823     27.98858     7.84041    0.15925    35.98823
      H    4    0.65093      0.00000     0.32595    0.02312     0.34907
 =======================================================================
   * Total *   -1.00000     29.98846    15.71999    0.29155    46.00000

                                 Natural Population      
 --------------------------------------------------------
   Effective Core            10.00000
   Core                      19.98846 ( 99.9423% of  20)
   Valence                   15.71999 ( 98.2499% of  16)
   Natural Minimal Basis     45.70845 ( 99.3662% of  46)
   Natural Rydberg Basis      0.29155 (  0.6338% of  46)
 --------------------------------------------------------

    Atom  No          Natural Electron Configuration
 ----------------------------------------------------------------------------
      O    1      [core]2S( 1.86)2p( 5.36)3S( 0.01)3p( 0.04)3d( 0.04)
      H    2            1S( 0.34)
     Br    3      [core]4S( 1.98)4p( 5.86)4d( 0.09)5p( 0.04)4f( 0.01)5d( 0.01)
      H    4            1S( 0.33)2S( 0.01)2p( 0.01)


 NATURAL BOND ORBITAL ANALYSIS:
 Warning:  a bond orbital has occupanc of -0.00005

                       Occupancies       Lewis Structure    Low   High
           Occ.    -------------------  -----------------   occ   occ
  Cycle   Thresh.   Lewis   Non-Lewis     CR  BD  3C  LP    (L)   (NL)   Dev
 =============================================================================
   1(1)    1.90    45.70371   0.29629     10   2   0   6     0      0    0.01
 -----------------------------------------------------------------------------

 Structure accepted: No low occupancy Lewis orbitals

 WARNING:  5 low occupancy (<1.9990e) core orbitals found on Br    3

 --------------------------------------------------------
   Effective Core           10.00000
   Core                     19.98846 ( 99.942% of  20)
   Valence Lewis            15.71525 ( 98.220% of  16)
  ==================       ============================
   Total Lewis              45.70371 ( 99.356% of  46)
  -----------------------------------------------------
   Valence non-Lewis         0.03115 (  0.068% of  46)
   Rydberg non-Lewis         0.26514 (  0.576% of  46)
  ==================       ============================
   Total non-Lewis           0.29629 (  0.644% of  46)
 --------------------------------------------------------


       (Occupancy)   Bond orbital/ Coefficients/ Hybrids
 ---------------------------------------------------------------------------------
     1. (1.96570) BD ( 1) O   1 - H   2  
                ( 83.69%)   0.9148* O   1 s( 15.90%)p 5.27( 83.75%)d 0.02(  0.34%)
                                                  f 0.00(  0.01%)
                                            0.0002  0.3986  0.0031  0.0036 -0.0042
                                            0.9147 -0.0145 -0.0063 -0.0011  0.0224
                                           -0.0108 -0.0009 -0.0043  0.0000  0.0000
                                            0.0000  0.0000 -0.0247  0.0012  0.0024
                                            0.0000  0.0000  0.0000  0.0000  0.0000
                                            0.0000  0.0421 -0.0102  0.0053 -0.0296
                                            0.0037 -0.0013  0.0000  0.0000 -0.0094
                                            0.0008  0.0002 -0.0000  0.0000  0.0000
                                            0.0000  0.0000  0.0020  0.0011  0.0019
                                            0.0005
                ( 16.31%)   0.4038* H   2 s( 99.80%)p 0.00(  0.17%)d 0.00(  0.03%)
                                            0.9990 -0.0026 -0.0004  0.0001  0.0106
                                            0.0400 -0.0024  0.0002 -0.0009 -0.0024
                                            0.0000  0.0000  0.0000  0.0003 -0.0021
                                            0.0000  0.0000  0.0000  0.0000  0.0133
                                           -0.0051 -0.0098  0.0016
     2. (1.97294) BD ( 1) O   1 - H   4  
                ( 83.98%)   0.9164* O   1 s( 24.77%)p 3.02( 74.91%)d 0.01(  0.31%)
                                                  f 0.00(  0.01%)
                                           -0.0002 -0.4975  0.0128  0.0065  0.0017
                                            0.1944 -0.0123  0.0021 -0.0009  0.8427
                                           -0.0304 -0.0054 -0.0052  0.0000  0.0000
                                            0.0000  0.0000  0.0066 -0.0059 -0.0011
                                            0.0000  0.0000  0.0000  0.0000  0.0000
                                            0.0000  0.0461 -0.0044  0.0052  0.0294
                                            0.0023  0.0001  0.0000  0.0000 -0.0015
                                            0.0004 -0.0078 -0.0006  0.0000  0.0000
                                            0.0000  0.0000 -0.0019 -0.0029  0.0019
                                           -0.0051
                ( 16.02%)   0.4003* H   4 s( 99.86%)p 0.00(  0.13%)d 0.00(  0.00%)
                                           -0.9992  0.0140 -0.0022 -0.0003 -0.0184
                                           -0.0022  0.0013  0.0003 -0.0301 -0.0081
                                            0.0000  0.0000  0.0000 -0.0020  0.0014
                                            0.0000  0.0000  0.0000  0.0000 -0.0014
                                            0.0014  0.0036  0.0039
     3. (1.99988) CR ( 1) O   1           s(100.00%)
                                            1.0000 -0.0003  0.0000  0.0000  0.0000
                                           -0.0000  0.0000  0.0000  0.0000  0.0000
                                           -0.0000 -0.0000  0.0000  0.0000  0.0000
                                            0.0000  0.0000 -0.0000 -0.0000  0.0000
                                            0.0000  0.0000  0.0000  0.0000  0.0000
                                            0.0000 -0.0000 -0.0000  0.0000  0.0000
                                            0.0000 -0.0000  0.0000  0.0000  0.0000
                                            0.0000 -0.0000 -0.0000  0.0000  0.0000
                                            0.0000  0.0000 -0.0000 -0.0000 -0.0000
                                           -0.0000
     4. (2.00002) CR ( 1)Br   3           s(100.00%)
                                            1.0000 -0.0000 -0.0000  0.0000 -0.0000
                                           -0.0000  0.0000 -0.0000 -0.0000  0.0000
                                            0.0000  0.0000 -0.0000  0.0000  0.0000
                                           -0.0000  0.0000  0.0000  0.0000  0.0000
                                            0.0000  0.0000 -0.0000  0.0000  0.0000
                                            0.0000  0.0000  0.0000  0.0000  0.0000
                                            0.0000  0.0000  0.0000 -0.0000  0.0000
                                           -0.0000 -0.0000 -0.0000  0.0000 -0.0000
                                            0.0000  0.0000  0.0000  0.0000  0.0000
                                            0.0000  0.0000  0.0000  0.0000  0.0000
                                            0.0000  0.0000  0.0000  0.0000  0.0000
     5. (2.00002) CR ( 2)Br   3           s(  0.00%)p 1.00(100.00%)
                                            0.0000 -0.0000 -0.0000 -0.0000  0.0000
                                           -0.0000  1.0000 -0.0000 -0.0000 -0.0000
                                            0.0000 -0.0000  0.0000 -0.0000 -0.0000
                                            0.0000  0.0000  0.0000  0.0000  0.0000
                                            0.0000  0.0000 -0.0000  0.0000  0.0000
                                            0.0000  0.0000  0.0000  0.0000  0.0000
                                            0.0000  0.0000  0.0000  0.0000 -0.0000
                                            0.0000 -0.0000  0.0000 -0.0000 -0.0000
                                            0.0000  0.0000  0.0000  0.0000  0.0000
                                           -0.0000 -0.0000  0.0000  0.0000  0.0000
                                            0.0000  0.0000  0.0000 -0.0000 -0.0000
     6. (2.00002) CR ( 3)Br   3           s(  0.00%)p 1.00(100.00%)
                                            0.0000 -0.0000  0.0000  0.0000  0.0000
                                            0.0000 -0.0000  0.0000  0.0000 -0.0000
                                           -0.0000  1.0000  0.0000 -0.0000 -0.0000
                                            0.0000  0.0000  0.0000  0.0000  0.0000
                                            0.0000 -0.0000  0.0000 -0.0000 -0.0000
                                            0.0000  0.0000  0.0000  0.0000  0.0000
                                            0.0000  0.0000  0.0000  0.0000 -0.0000
                                            0.0000  0.0000  0.0000 -0.0000  0.0000
                                           -0.0000  0.0000  0.0000 -0.0000 -0.0000
                                           -0.0000 -0.0000  0.0000  0.0000  0.0000
                                            0.0000 -0.0000 -0.0000 -0.0000 -0.0000
     7. (2.00002) CR ( 4)Br   3           s(  0.00%)p 1.00(100.00%)
                                            0.0000  0.0000  0.0000  0.0000  0.0000
                                            0.0000  0.0000  0.0000  0.0000  0.0000
                                            0.0000  0.0000  0.0000  0.0000  0.0000
                                            0.0000  1.0000 -0.0000  0.0000 -0.0000
                                            0.0000  0.0000  0.0000  0.0000  0.0000
                                            0.0000 -0.0000  0.0000 -0.0000  0.0000
                                           -0.0000  0.0000  0.0000  0.0000  0.0000
                                            0.0000  0.0000  0.0000  0.0000  0.0000
                                            0.0000  0.0000  0.0000  0.0000  0.0000
                                            0.0000  0.0000  0.0000  0.0000 -0.0000
                                           -0.0000  0.0000  0.0000  0.0000  0.0000
     8. (1.99769) CR ( 5)Br   3           s(  0.00%)p 0.00(  0.00%)d 1.00(100.00%)
                                            0.0000  0.0000  0.0000  0.0000 -0.0000
                                            0.0000  0.0000  0.0000  0.0000  0.0000
                                           -0.0000 -0.0000  0.0000  0.0000 -0.0000
                                            0.0000  0.0000  0.0000  0.0000  0.0000
                                            0.0000  1.0000  0.0000 -0.0000 -0.0000
                                            0.0000  0.0000  0.0000  0.0000  0.0000
                                            0.0000  0.0000  0.0000  0.0000 -0.0000
                                            0.0000  0.0000  0.0000 -0.0000  0.0000
                                           -0.0000  0.0000  0.0000 -0.0000 -0.0000
                                           -0.0000 -0.0000  0.0000  0.0000  0.0000
                                            0.0000 -0.0000 -0.0000 -0.0000 -0.0000
     9. (1.99771) CR ( 6)Br   3           s(  0.00%)p 0.00(  0.00%)d 1.00(100.00%)
                                            0.0000  0.0000  0.0000  0.0000  0.0000
                                            0.0000  0.0000  0.0000  0.0000  0.0000
                                            0.0000  0.0000  0.0000  0.0000  0.0000
                                            0.0000  0.0000  0.0000 -0.0000  0.0000
                                           -0.0000  0.0000  0.0000  0.0000  0.0000
                                            1.0000  0.0000 -0.0000  0.0000 -0.0000
                                            0.0000 -0.0000 -0.0000  0.0000  0.0000
                                            0.0000  0.0000  0.0000  0.0000  0.0000
                                            0.0000 -0.0000 -0.0000  0.0000  0.0000
                                            0.0000  0.0000 -0.0000 -0.0000  0.0000
                                            0.0000  0.0000  0.0000  0.0000  0.0000
    10. (1.99770) CR ( 7)Br   3           s(  0.00%)p 0.00(  0.00%)d 1.00(100.00%)
                                            0.0000  0.0000  0.0000  0.0000  0.0000
                                            0.0000  0.0000  0.0000  0.0000  0.0000
                                            0.0000  0.0000  0.0000  0.0000  0.0000
                                            0.0000  0.0000  0.0000 -0.0000  0.0000
                                           -0.0000  0.0000  0.0000  0.0000  0.0000
                                           -0.0000  0.0000 -0.0000  0.0000  1.0000
                                            0.0000 -0.0000 -0.0000  0.0000  0.0000
                                            0.0000  0.0000  0.0000  0.0000  0.0000
                                            0.0000 -0.0000 -0.0000  0.0000  0.0000
                                            0.0000  0.0000 -0.0000 -0.0000  0.0000
                                            0.0000  0.0000  0.0000  0.0000  0.0000
    11. (1.99768) CR ( 8)Br   3           s(  0.00%)p 0.00(  0.00%)d 1.00(100.00%)
                                           -0.0000 -0.0000 -0.0000  0.0000 -0.0000
                                            0.0000  0.0000  0.0000 -0.0000  0.0000
                                           -0.0000  0.0000 -0.0000  0.0000  0.0000
                                           -0.0000  0.0000  0.0000  0.0000  0.0000
                                            0.0000  0.0000 -0.0000  0.0000 -0.0000
                                            0.0000  0.0000  0.0000  0.0000  0.0000
                                            0.0000  0.0000  0.0000  1.0000  0.0000
                                           -0.0000 -0.0000 -0.0000  0.0000 -0.0000
                                           -0.0000  0.0000  0.0000  0.0000  0.0000
                                            0.0000  0.0000  0.0000  0.0000  0.0000
                                            0.0000  0.0000  0.0000  0.0000  0.0000
    12. (1.99770) CR ( 9)Br   3           s(  0.00%)p 0.00(  0.00%)d 1.00(100.00%)
                                           -0.0000 -0.0000 -0.0000  0.0000 -0.0000
                                           -0.0000  0.0000 -0.0000 -0.0000  0.0000
                                            0.0000  0.0000 -0.0000 -0.0000  0.0000
                                           -0.0000  0.0000  0.0000  0.0000  0.0000
                                            0.0000  0.0000 -0.0000  0.0000  0.0000
                                            0.0000  0.0000  0.0000  0.0000  0.0000
                                            0.0000  0.0000  0.0000 -0.0000  0.0000
                                           -0.0000 -0.0000  1.0000  0.0000 -0.0000
                                            0.0000  0.0000  0.0000  0.0000  0.0000
                                            0.0000  0.0000  0.0000  0.0000  0.0000
                                            0.0000  0.0000  0.0000  0.0000  0.0000
    13. (1.97272) LP ( 1) O   1           s( 59.27%)p 0.69( 40.60%)d 0.00(  0.13%)
                                                  f 0.00(  0.00%)
                                            0.0002  0.7698  0.0060  0.0020  0.0027
                                           -0.3476 -0.0102 -0.0050 -0.0012  0.5337
                                            0.0132  0.0040 -0.0010  0.0000  0.0000
                                            0.0000  0.0000  0.0289 -0.0018 -0.0028
                                            0.0000  0.0000  0.0000  0.0000  0.0000
                                            0.0000  0.0078  0.0062 -0.0062  0.0148
                                           -0.0067  0.0031  0.0000  0.0000  0.0015
                                           -0.0014 -0.0040  0.0019  0.0000  0.0000
                                            0.0000  0.0000  0.0010  0.0024  0.0030
                                           -0.0021
    14. (1.96282) LP ( 2) O   1           s(  0.00%)p 1.00( 99.69%)d 0.00(  0.28%)
                                                  f 0.00(  0.03%)
                                            0.0000  0.0000  0.0000  0.0000  0.0000
                                            0.0000  0.0000  0.0000  0.0000  0.0000
                                            0.0000  0.0000  0.0000  0.9981  0.0265
                                            0.0046  0.0047  0.0000  0.0000  0.0000
                                            0.0398 -0.0152  0.0035 -0.0308 -0.0050
                                            0.0065  0.0000  0.0000  0.0000  0.0000
                                            0.0000  0.0000 -0.0135  0.0041  0.0000
                                            0.0000  0.0000  0.0000  0.0048 -0.0052
                                            0.0018  0.0005  0.0000  0.0000  0.0000
                                            0.0000
    15. (1.98141) LP ( 1)Br   3           s( 99.98%)p 0.00(  0.02%)d 0.00(  0.00%)
                                                  f 0.00(  0.00%)
                                            0.0000  0.9999 -0.0000  0.0000 -0.0000
                                           -0.0000  0.0000 -0.0010  0.0005 -0.0001
                                            0.0002  0.0000 -0.0141  0.0007 -0.0007
                                            0.0003  0.0000  0.0000  0.0000  0.0000
                                            0.0000 -0.0000  0.0014 -0.0004 -0.0000
                                            0.0000  0.0000  0.0000  0.0000  0.0000
                                            0.0000  0.0000  0.0000  0.0000 -0.0023
                                            0.0006  0.0002  0.0000 -0.0017  0.0005
                                            0.0000  0.0000  0.0000 -0.0002 -0.0001
                                           -0.0007 -0.0005  0.0000  0.0000  0.0000
                                            0.0000 -0.0005 -0.0003 -0.0006 -0.0003
    16. (1.95437) LP ( 2)Br   3           s(  0.00%)p 1.00(100.00%)d 0.00(  0.00%)
                                                  f 0.00(  0.00%)
                                            0.0000  0.0000  0.0000  0.0000  0.0000
                                            0.0000  0.0000  0.0000  0.0000  0.0000
                                            0.0000  0.0000  0.0000  0.0000  0.0000
                                            0.0000  0.0000  1.0000 -0.0006  0.0008
                                           -0.0002  0.0000  0.0000  0.0000  0.0000
                                           -0.0000  0.0024 -0.0013  0.0012 -0.0000
                                            0.0045 -0.0016 -0.0003  0.0000  0.0000
                                            0.0000  0.0000  0.0000  0.0000  0.0000
                                            0.0000 -0.0013 -0.0010  0.0000  0.0000
                                            0.0000  0.0000 -0.0011 -0.0007  0.0009
                                            0.0008  0.0000  0.0000  0.0000  0.0000
    17. (1.95416) LP ( 3)Br   3           s(  0.00%)p 1.00( 99.99%)d 0.00(  0.00%)
                                                  f 0.00(  0.00%)
                                           -0.0000  0.0024 -0.0008 -0.0021  0.0022
                                           -0.0001 -0.0000 -0.9697 -0.0009 -0.0012
                                            0.0009  0.0000  0.2440 -0.0011 -0.0003
                                            0.0008 -0.0000 -0.0000 -0.0000 -0.0000
                                           -0.0000  0.0000 -0.0047  0.0014  0.0001
                                           -0.0000 -0.0000 -0.0000 -0.0000 -0.0000
                                           -0.0000 -0.0000 -0.0000  0.0000 -0.0040
                                            0.0019 -0.0012 -0.0000  0.0007 -0.0005
                                            0.0009 -0.0000 -0.0000  0.0006  0.0005
                                           -0.0001 -0.0001 -0.0000 -0.0000 -0.0000
                                           -0.0000  0.0010  0.0005 -0.0015 -0.0012
    18. (1.95113) LP ( 4)Br   3           s(  0.02%)p99.99( 99.96%)d 1.03(  0.02%)
                                                  f 0.07(  0.00%)
                                            0.0000  0.0138  0.0015 -0.0002  0.0009
                                            0.0000 -0.0000  0.2440  0.0011 -0.0003
                                           -0.0003 -0.0000  0.9696 -0.0003 -0.0019
                                            0.0009  0.0000  0.0000  0.0000  0.0000
                                            0.0000 -0.0000  0.0066 -0.0013 -0.0000
                                            0.0000  0.0000  0.0000  0.0000  0.0000
                                            0.0000  0.0000  0.0000  0.0000 -0.0097
                                            0.0015  0.0014  0.0000 -0.0074  0.0016
                                           -0.0000  0.0000  0.0000 -0.0005 -0.0003
                                           -0.0021 -0.0014  0.0000  0.0000  0.0000
                                            0.0000 -0.0015 -0.0006 -0.0017 -0.0010
    19. (0.01800) RY*( 1) O   1           s(  0.00%)p 1.00( 96.85%)d 0.03(  3.04%)
                                                  f 0.00(  0.11%)
                                            0.0000  0.0000  0.0000  0.0000  0.0000
                                            0.0000  0.0000  0.0000  0.0000  0.0000
                                            0.0000  0.0000  0.0000 -0.0344  0.9833
                                           -0.0214 -0.0062  0.0000  0.0000  0.0000
                                            0.1675 -0.0423  0.0069 -0.0179 -0.0050
                                            0.0124  0.0000  0.0000  0.0000  0.0000
                                            0.0000  0.0000 -0.0165  0.0131  0.0000
                                            0.0000  0.0000  0.0000  0.0206 -0.0147
                                           -0.0056  0.0014  0.0000  0.0000  0.0000
                                            0.0000
    20. (0.01474) RY*( 2) O   1           s( 12.58%)p 6.75( 84.90%)d 0.19(  2.41%)
                                                  f 0.01(  0.11%)
                                            0.0000 -0.0212  0.3540 -0.0002  0.0066
                                            0.0159 -0.4409 -0.0032 -0.0014 -0.0012
                                            0.8081 -0.0300 -0.0208  0.0000  0.0000
                                            0.0000  0.0000  0.1459 -0.0092 -0.0093
                                            0.0000  0.0000  0.0000  0.0000  0.0000
                                            0.0000 -0.0008  0.0192 -0.0186  0.0300
                                           -0.0307  0.0086  0.0000  0.0000  0.0012
                                           -0.0049 -0.0024  0.0085  0.0000  0.0000
                                            0.0000  0.0000  0.0135  0.0054  0.0259
                                           -0.0094
    21. (0.00901) RY*( 3) O   1           s(  1.59%)p57.24( 90.98%)d 4.54(  7.22%)
                                                  f 0.13(  0.21%)
                                            0.0000  0.0038  0.1149 -0.0517 -0.0004
                                           -0.0314 -0.8263 -0.0074  0.0114 -0.0261
                                           -0.4699  0.0480  0.0460 -0.0000 -0.0000
                                           -0.0000 -0.0000 -0.1685  0.0098 -0.0061
                                           -0.0000 -0.0000 -0.0000 -0.0000 -0.0000
                                           -0.0000  0.1669  0.1056 -0.0455 -0.0283
                                           -0.0339  0.0249 -0.0000 -0.0000 -0.0257
                                           -0.0045 -0.0078 -0.0039 -0.0000 -0.0000
                                           -0.0000 -0.0000  0.0046  0.0076 -0.0333
                                            0.0126
    22. (0.00611) RY*( 4) O   1           s( 37.94%)p 0.11(  4.05%)d 1.51( 57.35%)
                                                  f 0.02(  0.66%)
                                           -0.0000  0.0139  0.6153 -0.0238 -0.0058
                                           -0.0052  0.1935  0.0159 -0.0023  0.0070
                                           -0.0490  0.0168 -0.0054 -0.0000 -0.0000
                                           -0.0000 -0.0000 -0.6654 -0.0345  0.0139
                                           -0.0000 -0.0000 -0.0000 -0.0000 -0.0000
                                           -0.0000 -0.2039 -0.0298  0.0173  0.2911
                                            0.0432 -0.0060 -0.0000 -0.0000  0.0005
                                            0.0086  0.0097 -0.0069 -0.0000 -0.0000
                                           -0.0000 -0.0000 -0.0747  0.0137 -0.0245
                                            0.0077
    23. (0.00603) RY*( 5) O   1           s(  0.00%)p 1.00(  2.17%)d44.60( 96.68%)
                                                  f 0.53(  1.16%)
                                            0.0000  0.0000  0.0000  0.0000  0.0000
                                            0.0000  0.0000  0.0000  0.0000  0.0000
                                            0.0000  0.0000  0.0000 -0.0190 -0.1450
                                            0.0121 -0.0127  0.0000  0.0000  0.0000
                                            0.8947  0.0783 -0.0234  0.3979  0.0347
                                           -0.0076  0.0000  0.0000  0.0000  0.0000
                                            0.0000  0.0000 -0.0183  0.0095  0.0000
                                            0.0000  0.0000  0.0000  0.0939 -0.0381
                                           -0.0280  0.0093  0.0000  0.0000  0.0000
                                            0.0000
    24. (0.00581) RY*( 6) O   1           s(  0.00%)p 1.00(  0.91%)d99.99( 98.17%)
                                                  f 1.02(  0.93%)
                                            0.0000  0.0000  0.0000  0.0000  0.0000
                                            0.0000  0.0000  0.0000  0.0000  0.0000
                                            0.0000  0.0000  0.0000  0.0420  0.0831
                                           -0.0190 -0.0069  0.0000  0.0000  0.0000
                                           -0.3889 -0.0474  0.0119  0.9058  0.0859
                                           -0.0093  0.0000  0.0000  0.0000  0.0000
                                            0.0000  0.0000  0.0757 -0.0297  0.0000
                                            0.0000  0.0000  0.0000  0.0384 -0.0126
                                            0.0299 -0.0117  0.0000  0.0000  0.0000
                                            0.0000
    25. (0.00570) RY*( 7) O   1           s(  9.66%)p 0.63(  6.09%)d 8.64( 83.45%)
                                                  f 0.08(  0.79%)
                                           -0.0000  0.0106  0.3091 -0.0275 -0.0144
                                            0.0253  0.0610 -0.0084 -0.0124 -0.0476
                                           -0.2275  0.0474  0.0080  0.0000  0.0000
                                            0.0000  0.0000  0.5763  0.0480 -0.0132
                                            0.0000  0.0000  0.0000  0.0000  0.0000
                                            0.0000  0.1402  0.0073  0.0072  0.6877
                                            0.0843 -0.0131  0.0000  0.0000  0.0466
                                           -0.0173 -0.0575  0.0177  0.0000  0.0000
                                            0.0000  0.0000  0.0374 -0.0180  0.0077
                                           -0.0077
    26. (0.00318) RY*( 8) O   1           s( 35.46%)p 0.23(  7.99%)d 1.58( 56.01%)
                                                  f 0.02(  0.54%)
                                            0.0000 -0.0063  0.5951  0.0037 -0.0199
                                           -0.0254  0.2254  0.0360 -0.0155 -0.0081
                                           -0.1612  0.0284 -0.0079  0.0000  0.0000
                                            0.0000  0.0000  0.2462  0.0295 -0.0002
                                            0.0000  0.0000  0.0000  0.0000  0.0000
                                            0.0000  0.3407  0.0348  0.0120 -0.6070
                                           -0.1122 -0.0117  0.0000  0.0000 -0.0188
                                            0.0264  0.0073 -0.0124  0.0000  0.0000
                                            0.0000  0.0000  0.0369 -0.0427 -0.0311
                                            0.0006
    27. (0.00261) RY*( 9) O   1           s(  2.92%)p 2.17(  6.32%)d30.78( 89.77%)
                                                  f 0.34(  0.99%)
                                           -0.0000 -0.0030  0.1676  0.0327  0.0016
                                            0.0352 -0.1223 -0.0711 -0.0163  0.0294
                                           -0.1925 -0.0607 -0.0088 -0.0000 -0.0000
                                           -0.0000 -0.0000  0.3069  0.0621  0.0030
                                           -0.0000 -0.0000 -0.0000 -0.0000 -0.0000
                                           -0.0000 -0.8586 -0.1397 -0.0257 -0.2003
                                           -0.0462 -0.0111 -0.0000 -0.0000  0.0113
                                           -0.0153  0.0108 -0.0208 -0.0000 -0.0000
                                           -0.0000 -0.0000 -0.0460  0.0145  0.0712
                                           -0.0403
    28. (0.00076) RY*(10) O   1           s( 44.92%)p 0.98( 44.22%)d 0.18(  8.28%)
                                                  f 0.06(  2.58%)
                                            0.0000 -0.0038 -0.0116  0.6700  0.0085
                                           -0.0044 -0.0350 -0.0035 -0.0788 -0.0049
                                            0.0064  0.6077 -0.2557  0.0000  0.0000
                                            0.0000  0.0000 -0.0254  0.1397 -0.0317
                                            0.0000  0.0000  0.0000  0.0000  0.0000
                                            0.0000  0.0168 -0.1948  0.0221  0.0252
                                           -0.1479  0.0195  0.0000  0.0000  0.0095
                                            0.0167 -0.0211  0.0897  0.0000  0.0000
                                            0.0000  0.0000 -0.0271  0.0806 -0.0063
                                            0.0984
    29. (0.00055) RY*(11) O   1           s(  0.00%)p 1.00( 54.82%)d 0.75( 41.15%)
                                                  f 0.07(  4.03%)
                                            0.0000  0.0000  0.0000  0.0000  0.0000
                                            0.0000  0.0000  0.0000  0.0000  0.0000
                                            0.0000  0.0000  0.0000  0.0022  0.0325
                                            0.7393 -0.0238  0.0000  0.0000  0.0000
                                           -0.0260  0.2364  0.0452  0.0463 -0.5743
                                           -0.1449  0.0000  0.0000  0.0000  0.0000
                                            0.0000  0.0000  0.1876 -0.0317  0.0000
                                            0.0000  0.0000  0.0000  0.0610  0.0021
                                            0.0125  0.0125  0.0000  0.0000  0.0000
                                            0.0000
    30. (0.00055) RY*(12) O   1           s(  1.10%)p51.97( 57.21%)d32.80( 36.10%)
                                                  f 5.08(  5.59%)
                                           -0.0000  0.0083  0.0003  0.0885 -0.0557
                                           -0.0003 -0.0546  0.7467  0.0557 -0.0065
                                           -0.0384 -0.0822 -0.0099  0.0000  0.0000
                                            0.0000  0.0000  0.0278 -0.5014 -0.0999
                                            0.0000  0.0000  0.0000  0.0000  0.0000
                                            0.0000 -0.0083 -0.3042  0.0114 -0.0001
                                           -0.0321 -0.0710  0.0000  0.0000  0.1479
                                            0.0137 -0.1470  0.0081  0.0000  0.0000
                                            0.0000  0.0000  0.0463 -0.0479  0.0874
                                           -0.0102
    31. (0.00052) RY*(13) O   1           s(  0.00%)p 1.00(  9.41%)d 6.31( 59.39%)
                                                  f 3.32( 31.20%)
                                            0.0000  0.0000  0.0000  0.0000  0.0000
                                            0.0000  0.0000  0.0000  0.0000  0.0000
                                            0.0000  0.0000  0.0000  0.0174  0.0402
                                           -0.2979  0.0587  0.0000  0.0000  0.0000
                                            0.0044  0.7359  0.2279  0.0148  0.0011
                                            0.0097  0.0000  0.0000  0.0000  0.0000
                                            0.0000  0.0000  0.3308 -0.0277  0.0000
                                            0.0000  0.0000  0.0000 -0.4379  0.0453
                                            0.0896  0.0035  0.0000  0.0000  0.0000
                                            0.0000
    32. (0.00048) RY*(14) O   1           s(  0.88%)p12.68( 11.14%)d80.09( 70.36%)
                                                  f20.05( 17.62%)
                                           -0.0000 -0.0016 -0.0082  0.0360  0.0861
                                            0.0010  0.0248 -0.1457 -0.0287 -0.0082
                                           -0.0353 -0.2912 -0.0514 -0.0000 -0.0000
                                           -0.0000 -0.0000 -0.0444 -0.0403 -0.0420
                                           -0.0000 -0.0000 -0.0000 -0.0000 -0.0000
                                           -0.0000  0.0631 -0.0851 -0.0889  0.1362
                                           -0.7895 -0.1928 -0.0000 -0.0000 -0.0267
                                           -0.0092  0.1772  0.0694 -0.0000 -0.0000
                                           -0.0000 -0.0000  0.1831  0.0858  0.3073
                                            0.0620
    33. (0.00046) RY*(15) O   1           s(  0.40%)p17.71(  7.12%)d28.14( 11.31%)
                                                  f99.99( 81.18%)
                                            0.0000  0.0029 -0.0039  0.0627  0.0079
                                            0.0031 -0.0248  0.2004  0.0060  0.0081
                                            0.0036 -0.1737 -0.0090 -0.0000 -0.0000
                                           -0.0000 -0.0000 -0.0091  0.2915  0.1055
                                           -0.0000 -0.0000 -0.0000 -0.0000 -0.0000
                                           -0.0000 -0.0217 -0.1199 -0.0211  0.0250
                                           -0.0180 -0.0252 -0.0000 -0.0000  0.3764
                                            0.0385  0.4775  0.0486 -0.0000 -0.0000
                                           -0.0000 -0.0000  0.3080  0.0396 -0.5845
                                            0.0152
    34. (0.00043) RY*(16) O   1           s(  0.00%)p 1.00(  0.47%)d10.76(  5.06%)
                                                  f99.99( 94.47%)
                                            0.0000  0.0000  0.0000  0.0000  0.0000
                                            0.0000  0.0000  0.0000  0.0000  0.0000
                                            0.0000  0.0000  0.0000 -0.0053 -0.0110
                                           -0.0675  0.0011  0.0000  0.0000  0.0000
                                            0.0532 -0.1683 -0.0633 -0.0094 -0.1131
                                           -0.0505  0.0000  0.0000  0.0000  0.0000
                                            0.0000  0.0000  0.0603  0.0080  0.0000
                                            0.0000  0.0000  0.0000 -0.0305 -0.0148
                                            0.9646  0.0966  0.0000  0.0000  0.0000
                                            0.0000
    35. (0.00043) RY*(17) O   1           s(  0.00%)p 1.00(  0.56%)d25.13( 13.99%)
                                                  f99.99( 85.46%)
                                            0.0000  0.0000  0.0000  0.0000  0.0000
                                            0.0000  0.0000  0.0000  0.0000  0.0000
                                            0.0000  0.0000  0.0000  0.0048 -0.0008
[...]
                                            0.0173  0.0613  0.0609  0.0064 -0.9810
                                            0.0243 -0.0291 -0.0689  0.0694 -0.0218
                                           -0.0000 -0.0000 -0.0000  0.0142 -0.0216
                                           -0.0000 -0.0000 -0.0000 -0.0000 -0.1043
                                            0.0290  0.0732  0.0257
   127. (0.00259) RY*( 4) H   4           s( 47.59%)p 1.09( 52.10%)d 0.01(  0.32%)
                                            0.0160  0.6285 -0.2783 -0.0557 -0.0432
                                           -0.0353  0.0286  0.6881 -0.2021  0.0519
                                            0.0000  0.0000  0.0000  0.0220  0.0129
                                            0.0000  0.0000  0.0000  0.0000 -0.0253
                                           -0.0386 -0.0110 -0.0164
   128. (0.00067) RY*( 5) H   4           s( 62.63%)p 0.57( 35.62%)d 0.03(  1.75%)
                                           -0.0101  0.1652  0.7643 -0.1212  0.0580
                                            0.4497 -0.0033  0.2586  0.2894 -0.0014
                                            0.0000  0.0000  0.0000 -0.0094  0.0853
                                            0.0000  0.0000  0.0000  0.0000  0.0793
                                           -0.0614  0.0006 -0.0075
   129. (0.00037) RY*( 6) H   4           s(  7.21%)p12.62( 91.01%)d 0.25(  1.78%)
                                           -0.0121  0.0565  0.2486 -0.0833  0.0225
                                           -0.8179  0.1450  0.1201  0.4531 -0.0029
                                           -0.0000 -0.0000 -0.0000  0.0410 -0.0411
                                           -0.0000 -0.0000 -0.0000 -0.0000 -0.0770
                                           -0.0787 -0.0137 -0.0458
   130. (0.00036) RY*( 7) H   4           s(  0.00%)p 1.00( 95.69%)d 0.05(  4.31%)
                                            0.0000  0.0000  0.0000  0.0000  0.0000
                                            0.0000  0.0000  0.0000  0.0000  0.0000
                                           -0.1409  0.9665  0.0535  0.0000  0.0000
                                            0.1109 -0.0241  0.0879  0.1500  0.0000
                                            0.0000  0.0000  0.0000
   131. (0.00026) RY*( 8) H   4           s(  2.10%)p24.13( 50.73%)d22.43( 47.17%)
                                            0.0100  0.0644  0.1189  0.0514  0.0611
                                           -0.1323 -0.3868  0.0670 -0.0943 -0.5683
                                           -0.0000 -0.0000 -0.0000 -0.3507 -0.2078
                                           -0.0000 -0.0000 -0.0000 -0.0000  0.0387
                                            0.2971  0.3868  0.2572
   132. (0.00025) RY*( 9) H   4           s(  2.22%)p11.81( 26.19%)d32.27( 71.59%)
                                            0.0083  0.0068  0.0929  0.1159 -0.0806
                                           -0.0826  0.3108  0.0096 -0.1828 -0.3442
                                            0.0000  0.0000  0.0000  0.4419 -0.0677
                                            0.0000  0.0000  0.0000  0.0000  0.6753
                                            0.1281 -0.1772  0.1107
   133. (0.00021) RY*(10) H   4           s(  0.00%)p 1.00( 16.89%)d 4.92( 83.11%)
                                            0.0000  0.0000  0.0000  0.0000  0.0000
                                            0.0000  0.0000  0.0000  0.0000  0.0000
                                           -0.0138 -0.1345  0.3881  0.0000  0.0000
                                            0.2122 -0.1777  0.8684  0.0211  0.0000
                                            0.0000  0.0000  0.0000
   134. (0.00015) RY*(11) H   4           s(  0.00%)p 1.00(  0.62%)d99.99( 99.38%)
                                            0.0000  0.0000  0.0000  0.0000  0.0000
                                            0.0000  0.0000  0.0000  0.0000  0.0000
                                           -0.0363 -0.0637 -0.0281  0.0000  0.0000
                                            0.8878  0.4158 -0.1266 -0.1293  0.0000
                                            0.0000  0.0000  0.0000
   135. (0.00016) RY*(12) H   4           s(  0.20%)p41.54(  8.21%)d99.99( 91.59%)
                                            0.0042 -0.0009  0.0269  0.0351  0.0755
                                            0.0271  0.2606 -0.0318 -0.0784  0.0255
                                            0.0000  0.0000  0.0000  0.4507  0.1691
                                            0.0000  0.0000  0.0000  0.0000 -0.2418
                                           -0.1646  0.7007  0.3280
   136. (0.00013) RY*(13) H   4           s(  1.34%)p38.57( 51.51%)d35.32( 47.16%)
                                            0.0059 -0.0059 -0.0007  0.1153 -0.0104
                                            0.0391  0.6745  0.0077 -0.0374 -0.2388
                                            0.0000  0.0000  0.0000 -0.4672  0.3974
                                            0.0000  0.0000  0.0000  0.0000 -0.1871
                                            0.2229 -0.0861  0.0565
   137. (0.00013) RY*(14) H   4           s(  0.00%)p 1.00( 66.11%)d 0.51( 33.89%)
                                            0.0000  0.0000  0.0000  0.0000  0.0000
                                            0.0000  0.0000  0.0000  0.0000  0.0000
                                            0.0537 -0.0692  0.8083  0.0000  0.0000
                                           -0.0172  0.1167 -0.3539  0.4470  0.0000
                                            0.0000  0.0000  0.0000
   138. (0.00011) RY*(15) H   4           s( 15.93%)p 2.27( 36.22%)d 3.01( 47.86%)
                                            0.0129  0.0151  0.2832  0.2804 -0.0620
                                           -0.2258 -0.0439 -0.0489 -0.4541  0.3111
                                            0.0000  0.0000  0.0000 -0.3774  0.1197
                                            0.0000  0.0000  0.0000  0.0000  0.2898
                                           -0.4661  0.0975  0.1053
   139. (0.00010) RY*(16) H   4           s(  0.00%)p 1.00(  0.76%)d99.99( 99.24%)
   140. (0.00009) RY*(17) H   4           s(  3.84%)p 0.84(  3.22%)d24.24( 92.95%)
   141. (0.00008) RY*(18) H   4           s( 40.82%)p 0.31( 12.58%)d 1.14( 46.60%)
   142. (0.00003) RY*(19) H   4           s(  0.15%)p99.99( 23.05%)d99.99( 76.80%)
   143. (0.00003) RY*(20) H   4           s( 49.10%)p 0.71( 34.78%)d 0.33( 16.11%)
   144. (0.00002) RY*(21) H   4           s(  9.98%)p 3.45( 34.47%)d 5.57( 55.55%)
   145. (0.00003) RY*(22) H   4           s(  0.00%)p 1.00( 20.59%)d 3.86( 79.41%)
   146. (0.01906) BD*( 1) O   1 - H   2  
                ( 16.31%)   0.4038* O   1 s( 15.90%)p 5.27( 83.75%)d 0.02(  0.34%)
                                                  f 0.00(  0.01%)
                                           -0.0002 -0.3986 -0.0031 -0.0036  0.0042
                                           -0.9147  0.0145  0.0063  0.0011 -0.0224
                                            0.0108  0.0009  0.0043 -0.0000 -0.0000
                                           -0.0000 -0.0000  0.0247 -0.0012 -0.0024
                                           -0.0000 -0.0000 -0.0000 -0.0000 -0.0000
                                           -0.0000 -0.0421  0.0102 -0.0053  0.0296
                                           -0.0037  0.0013 -0.0000 -0.0000  0.0094
                                           -0.0008 -0.0002  0.0000 -0.0000 -0.0000
                                           -0.0000 -0.0000 -0.0020 -0.0011 -0.0019
                                           -0.0005
                ( 83.69%)  -0.9148* H   2 s( 99.80%)p 0.00(  0.17%)d 0.00(  0.03%)
                                           -0.9990  0.0026  0.0004 -0.0001 -0.0106
                                           -0.0400  0.0024 -0.0002  0.0009  0.0024
                                           -0.0000 -0.0000 -0.0000 -0.0003  0.0021
                                           -0.0000 -0.0000 -0.0000 -0.0000 -0.0133
                                            0.0051  0.0098 -0.0016
   147. (0.01209) BD*( 1) O   1 - H   4  
                ( 16.02%)   0.4003* O   1 s( 24.77%)p 3.02( 74.91%)d 0.01(  0.31%)
                                                  f 0.00(  0.01%)
                                            0.0002  0.4975 -0.0128 -0.0065 -0.0017
                                           -0.1944  0.0123 -0.0021  0.0009 -0.8427
                                            0.0304  0.0054  0.0052 -0.0000 -0.0000
                                           -0.0000 -0.0000 -0.0066  0.0059  0.0011
                                           -0.0000 -0.0000 -0.0000 -0.0000 -0.0000
                                           -0.0000 -0.0461  0.0044 -0.0052 -0.0294
                                           -0.0023 -0.0001 -0.0000 -0.0000  0.0015
                                           -0.0004  0.0078  0.0006 -0.0000 -0.0000
                                           -0.0000 -0.0000  0.0019  0.0029 -0.0019
                                            0.0051
                ( 83.98%)  -0.9164* H   4 s( 99.86%)p 0.00(  0.13%)d 0.00(  0.00%)
                                            0.9992 -0.0140  0.0022  0.0003  0.0184
                                            0.0022 -0.0013 -0.0003  0.0301  0.0081
                                           -0.0000 -0.0000 -0.0000  0.0020 -0.0014
                                           -0.0000 -0.0000 -0.0000 -0.0000  0.0014
                                           -0.0014 -0.0036 -0.0039


 NHO Directionality and "Bond Bending" (deviations from line of nuclear centers)

         [Thresholds for printing:  angular deviation  >  1.0 degree]
                                    hybrid p-character > 25.0%
                                    orbital occupancy  >  0.10e

                                Line of Centers        Hybrid 1              Hybrid 2
                                ---------------  -------------------   ------------------
                NBO               Theta   Phi    Theta   Phi    Dev    Theta   Phi    Dev
 ========================================================================================
     2. BD (   1) O   1 - H   4    90.0  258.3    90.0  257.1   1.2      --     --    --
    13. LP (   1) O   1             --     --     90.0  123.5   --       --     --    --
    14. LP (   2) O   1             --     --      0.0    0.0   --       --     --    --
    16. LP (   2)Br   3             --     --      0.0    0.0   --       --     --    --
    17. LP (   3)Br   3             --     --     90.0  165.9   --       --     --    --
    18. LP (   4)Br   3             --     --     90.0   75.8   --       --     --    --


 Natural Bond Orbitals (Summary):

           NBO                  Occupancy  
 -----------------------------------------------
 Molecular unit  1  (H2O)
     1. BD (   1) O   1 - H   2          1.96570
     2. BD (   1) O   1 - H   4          1.97294
     3. CR (   1) O   1                  1.99988
    13. LP (   1) O   1                  1.97272
    14. LP (   2) O   1                  1.96282
    19. RY*(   1) O   1                  0.01800
    20. RY*(   2) O   1                  0.01474
    21. RY*(   3) O   1                  0.00901
    22. RY*(   4) O   1                  0.00611
    23. RY*(   5) O   1                  0.00603
    24. RY*(   6) O   1                  0.00581
    25. RY*(   7) O   1                  0.00570
    26. RY*(   8) O   1                  0.00318
    27. RY*(   9) O   1                  0.00261
    28. RY*(  10) O   1                  0.00076
    29. RY*(  11) O   1                  0.00055
    30. RY*(  12) O   1                  0.00055
    31. RY*(  13) O   1                  0.00052
    32. RY*(  14) O   1                  0.00048
    33. RY*(  15) O   1                  0.00046
    34. RY*(  16) O   1                  0.00043
    35. RY*(  17) O   1                  0.00043
    36. RY*(  18) O   1                  0.00042
    37. RY*(  19) O   1                  0.00042
    38. RY*(  20) O   1                  0.00041
    39. RY*(  21) O   1                  0.00029
    40. RY*(  22) O   1                  0.00029
    41. RY*(  23) O   1                  0.00025
    42. RY*(  24) O   1                  0.00020
    43. RY*(  25) O   1                  0.00017
    44. RY*(  26) O   1                  0.00011
    45. RY*(  27) O   1                  0.00007
    46. RY*(  28) O   1                  0.00008
    47. RY*(  29) O   1                  0.00007
    48. RY*(  30) O   1                  0.00007
    49. RY*(  31) O   1                  0.00007
    50. RY*(  32) O   1                  0.00008
    51. RY*(  33) O   1                  0.00006
    52. RY*(  34) O   1                  0.00007
    53. RY*(  35) O   1                  0.00006
    54. RY*(  36) O   1                  0.00004
    55. RY*(  37) O   1                  0.00005
    56. RY*(  38) O   1                  0.00004
    57. RY*(  39) O   1                  0.00001
    58. RY*(  40) O   1                  0.00001
    59. RY*(  41) O   1                 -0.00005
    60. RY*(   1) H   2                  0.00169
    61. RY*(   2) H   2                  0.00149
    62. RY*(   3) H   2                  0.00061
    63. RY*(   4) H   2                  0.00027
    64. RY*(   5) H   2                  0.00022
    65. RY*(   6) H   2                  0.00015
    66. RY*(   7) H   2                  0.00012
    67. RY*(   8) H   2                  0.00011
    68. RY*(   9) H   2                  0.00010
    69. RY*(  10) H   2                  0.00006
    70. RY*(  11) H   2                  0.00005
    71. RY*(  12) H   2                  0.00006
    72. RY*(  13) H   2                  0.00004
    73. RY*(  14) H   2                  0.00003
    74. RY*(  15) H   2                  0.00002
    75. RY*(  16) H   2                  0.00002
    76. RY*(  17) H   2                  0.00002
    77. RY*(  18) H   2                  0.00003
    78. RY*(  19) H   2                  0.00002
    79. RY*(  20) H   2                  0.00002
    80. RY*(  21) H   2                  0.00001
    81. RY*(  22) H   2                  0.00001
   124. RY*(   1) H   4                  0.00801
   125. RY*(   2) H   4                  0.00493
   126. RY*(   3) H   4                  0.00407
   127. RY*(   4) H   4                  0.00259
   128. RY*(   5) H   4                  0.00067
   129. RY*(   6) H   4                  0.00037
   130. RY*(   7) H   4                  0.00036
   131. RY*(   8) H   4                  0.00026
   132. RY*(   9) H   4                  0.00025
   133. RY*(  10) H   4                  0.00021
   134. RY*(  11) H   4                  0.00015
   135. RY*(  12) H   4                  0.00016
   136. RY*(  13) H   4                  0.00013
   137. RY*(  14) H   4                  0.00013
   138. RY*(  15) H   4                  0.00011
   139. RY*(  16) H   4                  0.00010
   140. RY*(  17) H   4                  0.00009
   141. RY*(  18) H   4                  0.00008
   142. RY*(  19) H   4                  0.00003
   143. RY*(  20) H   4                  0.00003
   144. RY*(  21) H   4                  0.00002
   145. RY*(  22) H   4                  0.00003
   146. BD*(   1) O   1 - H   2          0.01906
   147. BD*(   1) O   1 - H   4          0.01209
       -------------------------------
              Total Lewis    9.87406  ( 98.6246%)
        Valence non-Lewis    0.03115  (  0.3111%)
        Rydberg non-Lewis    0.10656  (  1.0643%)
       -------------------------------
            Total unit  1   10.01177  (100.0000%)
           Charge unit  1   -0.01177

 Molecular unit  2  (Br)
     4. CR (   1)Br   3                  2.00002
     5. CR (   2)Br   3                  2.00002
     6. CR (   3)Br   3                  2.00002
     7. CR (   4)Br   3                  2.00002
     8. CR (   5)Br   3                  1.99769
     9. CR (   6)Br   3                  1.99771
    10. CR (   7)Br   3                  1.99770
    11. CR (   8)Br   3                  1.99768
    12. CR (   9)Br   3                  1.99770
    15. LP (   1)Br   3                  1.98141
    16. LP (   2)Br   3                  1.95437
    17. LP (   3)Br   3                  1.95416
    18. LP (   4)Br   3                  1.95113
    82. RY*(   1)Br   3                  0.01867
    83. RY*(   2)Br   3                  0.01862
    84. RY*(   3)Br   3                  0.01862
    85. RY*(   4)Br   3                  0.01852
    86. RY*(   5)Br   3                  0.01852
    87. RY*(   6)Br   3                  0.01222
    88. RY*(   7)Br   3                  0.01217
    89. RY*(   8)Br   3                  0.01132
    90. RY*(   9)Br   3                  0.00385
    91. RY*(  10)Br   3                  0.00179
    92. RY*(  11)Br   3                  0.00179
    93. RY*(  12)Br   3                  0.00175
    94. RY*(  13)Br   3                  0.00176
    95. RY*(  14)Br   3                  0.00175
    96. RY*(  15)Br   3                  0.00175
    97. RY*(  16)Br   3                  0.00175
    98. RY*(  17)Br   3                  0.00175
    99. RY*(  18)Br   3                  0.00174
   100. RY*(  19)Br   3                  0.00153
   101. RY*(  20)Br   3                  0.00153
   102. RY*(  21)Br   3                  0.00137
   103. RY*(  22)Br   3                  0.00081
   104. RY*(  23)Br   3                  0.00081
   105. RY*(  24)Br   3                  0.00077
   106. RY*(  25)Br   3                  0.00053
   107. RY*(  26)Br   3                  0.00025
   108. RY*(  27)Br   3                  0.00025
   109. RY*(  28)Br   3                  0.00025
   110. RY*(  29)Br   3                  0.00025
   111. RY*(  30)Br   3                  0.00025
   112. RY*(  31)Br   3                  0.00025
   113. RY*(  32)Br   3                  0.00025
   114. RY*(  33)Br   3                  0.00020
   115. RY*(  34)Br   3                  0.00020
   116. RY*(  35)Br   3                  0.00018
   117. RY*(  36)Br   3                  0.00018
   118. RY*(  37)Br   3                  0.00012
   119. RY*(  38)Br   3                  0.00009
   120. RY*(  39)Br   3                  0.00006
   121. RY*(  40)Br   3                  0.00006
   122. RY*(  41)Br   3                  0.00006
   123. RY*(  42)Br   3                  0.00000
       -------------------------------
              Total Lewis   35.82965  ( 99.5593%)
        Valence non-Lewis    0.00000  (  0.0000%)
        Rydberg non-Lewis    0.15859  (  0.4407%)
       -------------------------------
            Total unit  2   35.98823  (100.0000%)
           Charge unit  2   -0.98823
 Leave Link  607 at Fri Oct 15 15:32:24 2021, MaxMem= 16106127360 cpu:              69.3 elap:               2.5
 (Enter /sw/contrib/gaussian/g16/B01/g16/l9999.exe)
 1\1\GINC-N2098\SP\RMP2-FC\Gen\Br1H2O1(1-)\CGAVINH\15-Oct-2021\0\\#p po
 p=NBO SP NoSymm mp2/gen Pseudo=read density=current\\title\\-1,1\O\X,1
 ,10.\H,1,0.96048156,2,90.\Br,1,3.25083182,2,90.,3,101.65547111,0\H,1,0
 .8,2,90.,3,101.65547111,0\\Version=ES64L-G16RevB.01\HF=-491.6172977\MP
 2=-492.1261506\RMSD=5.783e-09\Dipole=0.7554343,0.8077856,0.\Quadrupole
 =11.4307393,-22.2897065,10.8589672,-6.4684566,0.,0.\PG=CS [SG(Br1H2O1)
 ]\\@


 LAW OF COMPENSATION:
      NO CALCULATION IS EVER A COMPLETE FAILURE; IT 
      CAN ALWAYS SERVE AS A BAD EXAMPLE.

                                           -- ANON
 Job cpu time:       0 days  0 hours  5 minutes 36.0 seconds.
 Elapsed time:       0 days  0 hours  0 minutes 19.5 seconds.
 File lengths (MBytes):  RWF=     16 Int=      0 D2E=      0 Chk=      8 Scr=      1
 Normal termination of Gaussian 16 at Fri Oct 15 15:32:24 2021.
