 Entering Gaussian System, Link 0=g16
 Input=ihocl_rOI_opt.gjf
 Output=ihocl_rOI_opt.log
 Initial command:
 /sw/contrib/gaussian/g16/B01/g16/l1.exe "/scr/Gau-28348.inp" -scrdir="/scr/"
 Entering Link 1 = /sw/contrib/gaussian/g16/B01/g16/l1.exe PID=     28349.
  
 Copyright (c) 1988-2017, Gaussian, Inc.  All Rights Reserved.
  
 This is part of the Gaussian(R) 16 program.  It is based on
 the Gaussian(R) 09 system (copyright 2009, Gaussian, Inc.),
 the Gaussian(R) 03 system (copyright 2003, Gaussian, Inc.),
 the Gaussian(R) 98 system (copyright 1998, Gaussian, Inc.),
 the Gaussian(R) 94 system (copyright 1995, Gaussian, Inc.),
 the Gaussian 92(TM) system (copyright 1992, Gaussian, Inc.),
 the Gaussian 90(TM) system (copyright 1990, Gaussian, Inc.),
 the Gaussian 88(TM) system (copyright 1988, Gaussian, Inc.),
 the Gaussian 86(TM) system (copyright 1986, Carnegie Mellon
 University), and the Gaussian 82(TM) system (copyright 1983,
 Carnegie Mellon University). Gaussian is a federally registered
 trademark of Gaussian, Inc.
  
 This software contains proprietary and confidential information,
 including trade secrets, belonging to Gaussian, Inc.
  
 This software is provided under written license and may be
 used, copied, transmitted, or stored only in accord with that
 written license.
  
 The following legend is applicable only to US Government
 contracts under FAR:
  
                    RESTRICTED RIGHTS LEGEND
  
 Use, reproduction and disclosure by the US Government is
 subject to restrictions as set forth in subparagraphs (a)
 and (c) of the Commercial Computer Software - Restricted
 Rights clause in FAR 52.227-19.
  
 Gaussian, Inc.
 340 Quinnipiac St., Bldg. 40, Wallingford CT 06492
  
  
 ---------------------------------------------------------------
 Warning -- This program may not be used in any manner that
 competes with the business of Gaussian, Inc. or will provide
 assistance to any competitor of Gaussian, Inc.  The licensee
 of this program is prohibited from giving any competitor of
 Gaussian, Inc. access to this program.  By using this program,
 the user acknowledges that Gaussian, Inc. is engaged in the
 business of creating and licensing software in the field of
 computational chemistry and represents and warrants to the
 licensee that it is not a competitor of Gaussian, Inc. and that
 it will not use this program in any manner prohibited above.
 ---------------------------------------------------------------
  

 Cite this work as:
 Gaussian 16, Revision B.01,
 M. J. Frisch, G. W. Trucks, H. B. Schlegel, G. E. Scuseria, 
 M. A. Robb, J. R. Cheeseman, G. Scalmani, V. Barone, 
 G. A. Petersson, H. Nakatsuji, X. Li, M. Caricato, A. V. Marenich, 
 J. Bloino, B. G. Janesko, R. Gomperts, B. Mennucci, H. P. Hratchian, 
 J. V. Ortiz, A. F. Izmaylov, J. L. Sonnenberg, D. Williams-Young, 
 F. Ding, F. Lipparini, F. Egidi, J. Goings, B. Peng, A. Petrone, 
 T. Henderson, D. Ranasinghe, V. G. Zakrzewski, J. Gao, N. Rega, 
 G. Zheng, W. Liang, M. Hada, M. Ehara, K. Toyota, R. Fukuda, 
 J. Hasegawa, M. Ishida, T. Nakajima, Y. Honda, O. Kitao, H. Nakai, 
 T. Vreven, K. Throssell, J. A. Montgomery, Jr., J. E. Peralta, 
 F. Ogliaro, M. J. Bearpark, J. J. Heyd, E. N. Brothers, K. N. Kudin, 
 V. N. Staroverov, T. A. Keith, R. Kobayashi, J. Normand, 
 K. Raghavachari, A. P. Rendell, J. C. Burant, S. S. Iyengar, 
 J. Tomasi, M. Cossi, J. M. Millam, M. Klene, C. Adamo, R. Cammi, 
 J. W. Ochterski, R. L. Martin, K. Morokuma, O. Farkas, 
 J. B. Foresman, and D. J. Fox, Gaussian, Inc., Wallingford CT, 2016.
 
 ******************************************
 Gaussian 16:  ES64L-G16RevB.01 20-Dec-2017
                 5-Nov-2021 
 ******************************************
 %nproc=28
 Will use up to   28 processors via shared memory.
 %mem=120GB
 %chk=/gscratch/ilahie/mccoygrp/coire_hocl/oop_s_rOH_f/ihocl/ihocl_rOI_opt.chk
 -----------------------------------------------------
 #p opt=(z-matrix) mp2/gen Pseudo=read density=current
 -----------------------------------------------------
 1/10=7,18=40,38=1/1,3;
 2/12=2,17=6,18=5,29=3,40=1/2;
 3/5=7,11=9,16=1,17=8,25=1,30=1,71=1/1,2,3;
 4//1;
 5/5=2,38=5/2;
 8/6=4,10=1/1;
 9/15=2,16=-3/6;
 10/5=1/2;
 6/7=2,8=2,9=2,10=2,22=-1/1;
 7/12=2,29=1/1,2,3,16;
 1/10=7,18=40/3(2);
 2/29=3/2;
 99//99;
 2/29=3/2;
 3/5=7,6=1,11=9,16=1,17=8,25=1,30=1,71=1,82=7/1,2,3;
 4/5=5,16=3,69=1/1;
 5/5=2,38=5/2;
 8/6=4,10=1/1;
 9/15=2,16=-3/6;
 10/5=1/2;
 7/12=2/1,2,3,16;
 1/18=40/3(-8);
 2/29=3/2;
 6/7=2,8=2,9=2,10=2,22=-1/1;
 99/9=10/99;
 Leave Link    1 at Fri Nov  5 16:18:54 2021, MaxMem= 16106127360 cpu:               1.3 elap:               0.1
 (Enter /sw/contrib/gaussian/g16/B01/g16/l101.exe)
 -----
 title
 -----
 Symbolic Z-matrix:
 Charge = -1 Multiplicity = 1
 O
 X                    1     10. 
 Cl                   1    r1       2     90. 
 I                    1    r2       2     90.      3    a1       0
 H                    1    r3       2    oop      3    a1       0
       Variables:
  r1                    1.697   -1        0.     
  r2                    2.90468                  
  r3                    0.96862 -1        0.     
  a1                  102.4843  -1        0.     
  OOP                  90.      -1        0.     
 
 ITRead=  0  0  0  0
 MicOpt= -1 -1 -1 -1
 NAtoms=      4 NQM=        4 NQMF=       0 NMMI=      0 NMMIF=      0
                NMic=       0 NMicF=      0.
                    Isotopes and Nuclear Properties:
 (Nuclear quadrupole moments (NQMom) in fm**2, nuclear magnetic moments (NMagM)
  in nuclear magnetons)

  Atom         1           2           3           4
 IAtWgt=          16          35         127           1
 AtmWgt=  15.9949146  34.9688527 126.9004000   1.0078250
 NucSpn=           0           3           5           1
 AtZEff=  -0.0000000  -0.0000000  -0.0000000  -0.0000000
 NQMom=    0.0000000  -8.1650000 -71.0000000   0.0000000
 NMagM=    0.0000000   0.8218740   2.8132800   2.7928460
 AtZNuc=   8.0000000  17.0000000  53.0000000   1.0000000
 Leave Link  101 at Fri Nov  5 16:18:54 2021, MaxMem= 16106127360 cpu:               3.7 elap:               0.2
 (Enter /sw/contrib/gaussian/g16/B01/g16/l103.exe)

 GradGradGradGradGradGradGradGradGradGradGradGradGradGradGradGradGradGrad
 Berny optimization.
 Initialization pass.
                       ----------------------------
                       !    Initial Parameters    !
                       ! (Angstroms and Degrees)  !
 ----------------------                            ----------------------
 !      Name          Value   Derivative information (Atomic Units)     !
 ------------------------------------------------------------------------
 !       r1          1.697    Frozen                                    !
 !       r2          2.9047   estimate D2E/DX2                          !
 !       r3          0.9686   Frozen                                    !
 !       a1        102.4843   Frozen                                    !
 !       OOP        90.0      Frozen                                    !
 ------------------------------------------------------------------------
 Trust Radius=3.00D-01 FncErr=1.00D-07 GrdErr=1.00D-07 EigMax=2.50D+02 EigMin=1.00D-04
 Number of steps in this run=     20 maximum allowed number of steps=    100.
 GradGradGradGradGradGradGradGradGradGradGradGradGradGradGradGradGradGrad

 Leave Link  103 at Fri Nov  5 16:18:54 2021, MaxMem= 16106127360 cpu:               0.9 elap:               0.1
 (Enter /sw/contrib/gaussian/g16/B01/g16/l202.exe)
 ---------------------------------------------------------------------------------------------------
                            Z-MATRIX (ANGSTROMS AND DEGREES)
   CD    Cent   Atom    N1       Length/X        N2       Alpha/Y        N3        Beta/Z          J
 ---------------------------------------------------------------------------------------------------
      1      1  O 
      2         X        1  10.000000(     1)
      3      2  Cl       1   1.697002(     2)      2   90.000(     5)
      4      3  I        1   2.904676(     3)      2   90.000(     6)      3  102.484(     8)      0
      5      4  H        1   0.968623(     4)      2   90.000(     7)      3  102.484(     9)      0
 ---------------------------------------------------------------------------------------------------
                         Z-Matrix orientation:                         
 ---------------------------------------------------------------------
 Center     Atomic      Atomic             Coordinates (Angstroms)
 Number     Number       Type             X           Y           Z
 ---------------------------------------------------------------------
      1          8           0        0.000000    0.000000    0.000000
      2         -1           0        0.000000    0.000000   10.000000
      3         17           0        1.697002    0.000000    0.000000
      4         53           0       -0.627910   -2.835996    0.000000
      5          1           0       -0.209389   -0.945721    0.000000
 ---------------------------------------------------------------------
                    Distance matrix (angstroms):
                    1          2          3          4          5
     1  O    0.000000
     2  X   10.000000   0.000000
     3  Cl   1.697002  10.142969   0.000000
     4  I    2.904676  10.413316   3.667163   0.000000
     5  H    0.968623  10.046802   2.128077   1.936053   0.000000
 Stoichiometry    ClHIO(1-)
 Framework group  CS[SG(ClHIO)]
 Deg. of freedom     5
 Full point group                 CS      NOp   2
 Largest Abelian subgroup         CS      NOp   2
 Largest concise Abelian subgroup C1      NOp   1
                         Standard orientation:                         
 ---------------------------------------------------------------------
 Center     Atomic      Atomic             Coordinates (Angstroms)
 Number     Number       Type             X           Y           Z
 ---------------------------------------------------------------------
      1          8           0        0.352215    1.882841    0.000000
      2         17           0        2.029065    1.622092    0.000000
      3         53           0       -0.703997   -0.822997    0.000000
      4          1           0        0.000000    0.980525    0.000000
 ---------------------------------------------------------------------
 Rotational constants (GHZ):          22.4189166           1.2047509           1.1433115
 Leave Link  202 at Fri Nov  5 16:18:55 2021, MaxMem= 16106127360 cpu:               0.6 elap:               0.0
 (Enter /sw/contrib/gaussian/g16/B01/g16/l301.exe)
 General basis read from cards:  (5D, 7F)
 Centers:       4      1      2
 aug-cc-pVTZ
 ****
 Centers:       3
 S 11 1.00
     Exponent=  5.5465000000D+03 Coefficients=  1.5600000000D-04
     Exponent=  8.3821400000D+02 Coefficients=  9.8600000000D-04
     Exponent=  1.8218700000D+02 Coefficients=  2.7920000000D-03
     Exponent=  3.1212300000D+01 Coefficients= -4.3251000000D-02
     Exponent=  1.9531400000D+01 Coefficients=  2.3413400000D-01
     Exponent=  8.2409900000D+00 Coefficients= -7.5094300000D-01
     Exponent=  2.1945500000D+00 Coefficients=  8.8296800000D-01
     Exponent=  1.1091100000D+00 Coefficients=  4.6206100000D-01
     Exponent=  3.7464100000D-01 Coefficients=  2.2286000000D-02
     Exponent=  1.7708000000D-01 Coefficients= -4.3530000000D-03
     Exponent=  8.1061000000D-02 Coefficients=  1.1020000000D-03
 S 11 1.00
     Exponent=  5.5465000000D+03 Coefficients= -7.3000000000D-05
     Exponent=  8.3821400000D+02 Coefficients= -5.0800000000D-04
     Exponent=  1.8218700000D+02 Coefficients= -1.1580000000D-03
     Exponent=  3.1212300000D+01 Coefficients=  1.2193000000D-02
     Exponent=  1.9531400000D+01 Coefficients= -8.7854000000D-02
     Exponent=  8.2409900000D+00 Coefficients=  3.3820000000D-01
     Exponent=  2.1945500000D+00 Coefficients= -5.7655000000D-01
     Exponent=  1.1091100000D+00 Coefficients= -4.0929800000D-01
     Exponent=  3.7464100000D-01 Coefficients=  5.6745900000D-01
     Exponent=  1.7708000000D-01 Coefficients=  6.1248900000D-01
     Exponent=  8.1061000000D-02 Coefficients=  1.4323100000D-01
 S 1 1.00
     Exponent=  3.7464100000D-01 Coefficients=  1.0000000000D+00
 S 1 1.00
     Exponent=  1.7708000000D-01 Coefficients=  1.0000000000D+00
 S 1 1.00
     Exponent=  1.0010000000D-01 Coefficients=  1.0000000000D+00
 S 1 1.00
     Exponent=  4.1200000000D-02 Coefficients=  1.0000000000D+00
 P 9 1.00
     Exponent=  1.8898800000D+02 Coefficients=  5.8500000000D-04
     Exponent=  2.1286800000D+01 Coefficients=  3.6923000000D-02
     Exponent=  1.0039600000D+01 Coefficients= -2.3532400000D-01
     Exponent=  3.4518000000D+00 Coefficients=  3.4148300000D-01
     Exponent=  1.9745600000D+00 Coefficients=  5.3478800000D-01
     Exponent=  1.0242000000D+00 Coefficients=  2.6514100000D-01
     Exponent=  4.4943700000D-01 Coefficients=  2.5787000000D-02
     Exponent=  1.8664800000D-01 Coefficients=  5.2200000000D-04
     Exponent=  7.3481000000D-02 Coefficients=  6.0600000000D-04
 P 9 1.00
     Exponent=  1.8898800000D+02 Coefficients= -2.5600000000D-04
     Exponent=  2.1286800000D+01 Coefficients= -1.1682000000D-02
     Exponent=  1.0039600000D+01 Coefficients=  8.3192000000D-02
     Exponent=  3.4518000000D+00 Coefficients= -1.5697000000D-01
     Exponent=  1.9745600000D+00 Coefficients= -2.2451800000D-01
     Exponent=  1.0242000000D+00 Coefficients= -1.1445100000D-01
     Exponent=  4.4943700000D-01 Coefficients=  3.7535600000D-01
     Exponent=  1.8664800000D-01 Coefficients=  5.7513600000D-01
     Exponent=  7.3481000000D-02 Coefficients=  2.4591700000D-01
 P 1 1.00
     Exponent=  5.9810000000D-01 Coefficients=  1.0000000000D+00
 P 1 1.00
     Exponent=  9.6180000000D-02 Coefficients=  1.0000000000D+00
 P 1 1.00
     Exponent=  3.5900000000D-02 Coefficients=  1.0000000000D+00
 D 9 1.00
     Exponent=  1.3266200000D+02 Coefficients=  5.7200000000D-04
     Exponent=  3.7605400000D+01 Coefficients=  4.4020000000D-03
     Exponent=  1.0389100000D+01 Coefficients= -4.0922000000D-02
     Exponent=  6.4901700000D+00 Coefficients=  9.9661000000D-02
     Exponent=  3.4545100000D+00 Coefficients=  3.2266300000D-01
     Exponent=  1.8441300000D+00 Coefficients=  4.0034300000D-01
     Exponent=  9.6247800000D-01 Coefficients=  2.6830600000D-01
     Exponent=  4.7285300000D-01 Coefficients=  8.4847000000D-02
     Exponent=  1.9320000000D-01 Coefficients=  7.6320000000D-03
 D 1 1.00
     Exponent=  4.7285300000D-01 Coefficients=  1.0000000000D+00
 D 1 1.00
     Exponent=  1.9320000000D-01 Coefficients=  1.0000000000D+00
 D 1 1.00
     Exponent=  7.8200000000D-02 Coefficients=  1.0000000000D+00
 F 1 1.00
     Exponent=  4.0640000000D-01 Coefficients=  1.0000000000D+00
 F 1 1.00
     Exponent=  1.8480000000D-01 Coefficients=  1.0000000000D+00
 ****
 ======================================================================================================
                                       Pseudopotential Parameters
 ======================================================================================================
  Center     Atomic      Valence      Angular      Power
  Number     Number     Electrons     Momentum     of R      Exponent        Coefficient   SO-Coeffient
 ======================================================================================================
    1          8
                                   No pseudopotential on this center.
    2         17
                                   No pseudopotential on this center.
    3         53           25
                                      G and up 
                                                     2        1.0000000        0.00000000    0.00000000
                                      S - G
                                                     2       40.0333760       49.98964900    0.00000000
                                                     2       17.3005760      281.00655600    0.00000000
                                                     2        8.8517200       61.41673900    0.00000000
                                      P - G
                                                     2       15.7201410       67.41623900    0.00000000
                                                     2       15.2082220      134.80769600    0.00000000
                                                     2        8.2941860       14.56654800    0.00000000
                                                     2        7.7539490       28.96842200    0.00000000
                                      D - G
                                                     2       13.8177510       35.53875600    0.00000000
                                                     2       13.5878050       53.33975900    0.00000000
                                                     2        6.9476300        9.71646600    0.00000000
                                                     2        6.9600990       14.97750000    0.00000000
                                      F - G
                                                     2       18.5229500      -20.17661800    0.00000000
                                                     2       18.2510350      -26.08807700    0.00000000
                                                     2        7.5579010       -0.22043400    0.00000000
                                                     2        7.5974040       -0.22164600    0.00000000
    4          1
                                   No pseudopotential on this center.
 ======================================================================================================
 Ernie: Thresh=  0.10000D-02 Tol=  0.10000D-05 Strict=F.
 Ernie:  23 primitive shells out of 166 were deleted.
 There are   139 symmetry adapted cartesian basis functions of A'  symmetry.
 There are    65 symmetry adapted cartesian basis functions of A"  symmetry.
 There are   115 symmetry adapted basis functions of A'  symmetry.
 There are    59 symmetry adapted basis functions of A"  symmetry.
   174 basis functions,   383 primitive gaussians,   204 cartesian basis functions
    26 alpha electrons       26 beta electrons
       nuclear repulsion energy       155.6043957115 Hartrees.
 IExCor=    0 DFT=F Ex=HF Corr=None ExCW=0 ScaHFX=  1.000000
 ScaDFX=  1.000000  1.000000  1.000000  1.000000 ScalE2=  1.000000  1.000000
 IRadAn=      5 IRanWt=     -1 IRanGd=            0 ICorTp=0 IEmpDi=  4
 NAtoms=    4 NActive=    4 NUniq=    4 SFac= 1.00D+00 NAtFMM=   60 NAOKFM=F Big=F
 Integral buffers will be    131072 words long.
 Raffenetti 1 integral format.
 Two-electron integral symmetry is turned on.
 Leave Link  301 at Fri Nov  5 16:18:55 2021, MaxMem= 16106127360 cpu:               2.9 elap:               0.1
 (Enter /sw/contrib/gaussian/g16/B01/g16/l302.exe)
 NPDir=0 NMtPBC=     1 NCelOv=     1 NCel=       1 NClECP=     1 NCelD=      1
         NCelK=      1 NCelE2=     1 NClLst=     1 CellRange=     0.0.
 One-electron integrals computed using PRISM.
 One-electron integral symmetry used in STVInt
   2 Symmetry operations used in ECPInt.
 ECPInt:  NShTT=    1596 NPrTT=   10643 LenC2=    1597 LenP2D=    8615.
 LDataN:  DoStor=T MaxTD1= 7 Len=  274
 NBasis=   174 RedAO= T EigKep=  1.21D-04  NBF=   115    59
 NBsUse=   174 1.00D-06 EigRej= -1.00D+00 NBFU=   115    59
 Leave Link  302 at Fri Nov  5 16:18:55 2021, MaxMem= 16106127360 cpu:              11.4 elap:               0.5
 (Enter /sw/contrib/gaussian/g16/B01/g16/l303.exe)
 DipDrv:  MaxL=1.
 Leave Link  303 at Fri Nov  5 16:18:55 2021, MaxMem= 16106127360 cpu:               1.1 elap:               0.1
 (Enter /sw/contrib/gaussian/g16/B01/g16/l401.exe)
 ExpMin= 2.53D-02 ExpMax= 4.56D+05 ExpMxC= 1.44D+03 IAcc=3 IRadAn=         5 AccDes= 0.00D+00
 Harris functional with IExCor=  205 and IRadAn=       5 diagonalized for initial guess.
 HarFok:  IExCor=  205 AccDes= 0.00D+00 IRadAn=         5 IDoV= 1 UseB2=F ITyADJ=14
 ICtDFT=  3500011 ScaDFX=  1.000000  1.000000  1.000000  1.000000
 Defaulting to unpruned grid for atomic number  53.
 FoFCou: FMM=F IPFlag=           0 FMFlag=      100000 FMFlg1=           0
         NFxFlg=           0 DoJE=T BraDBF=F KetDBF=T FulRan=T
         wScrn=  0.000000 ICntrl=       500 IOpCl=  0 I1Cent=   200000004 NGrid=           0
         NMat0=    1 NMatS0=      1 NMatT0=    0 NMatD0=    1 NMtDS0=    0 NMtDT0=    0
 Petite list used in FoFCou.
 Harris En= -831.050020423361    
 JPrj=0 DoOrth=F DoCkMO=F.
 Initial guess orbital symmetries:
       Occupied  (A') (A') (A') (A') (A') (A") (A') (A') (A") (A')
                 (A') (A') (A") (A') (A") (A') (A') (A') (A') (A')
                 (A") (A') (A') (A") (A") (A')
       Virtual   (A') (A') (A') (A') (A") (A') (A') (A") (A') (A")
                 (A') (A") (A') (A') (A') (A") (A') (A') (A') (A")
                 (A') (A') (A') (A") (A") (A') (A') (A') (A") (A')
                 (A') (A") (A') (A") (A') (A") (A') (A') (A") (A')
                 (A") (A') (A') (A") (A') (A') (A') (A") (A") (A')
                 (A') (A") (A') (A") (A') (A') (A') (A") (A') (A')
                 (A") (A') (A") (A') (A') (A') (A") (A') (A') (A")
                 (A") (A') (A') (A') (A") (A") (A") (A') (A') (A')
                 (A") (A') (A') (A') (A") (A') (A") (A') (A') (A")
                 (A') (A') (A') (A") (A") (A') (A") (A') (A') (A")
                 (A') (A") (A') (A') (A') (A") (A') (A") (A') (A')
                 (A") (A') (A') (A") (A") (A') (A') (A") (A') (A')
                 (A') (A") (A") (A') (A") (A') (A') (A') (A') (A")
                 (A') (A') (A') (A') (A") (A') (A") (A') (A") (A")
                 (A') (A') (A") (A') (A') (A') (A') (A')
 The electronic state of the initial guess is 1-A'.
 Leave Link  401 at Fri Nov  5 16:18:56 2021, MaxMem= 16106127360 cpu:               7.2 elap:               0.3
 (Enter /sw/contrib/gaussian/g16/B01/g16/l502.exe)
 Keep R1 ints in memory in symmetry-blocked form, NReq=174584607.
 FoFCou: FMM=F IPFlag=           0 FMFlag=           0 FMFlg1=           0
         NFxFlg=           0 DoJE=F BraDBF=F KetDBF=F FulRan=T
         wScrn=  0.000000 ICntrl=       600 IOpCl=  0 I1Cent=           0 NGrid=           0
         NMat0=    1 NMatS0=  15225 NMatT0=    0 NMatD0=    1 NMtDS0=    0 NMtDT0=    0
 Petite list used in FoFCou.
 Closed shell SCF:
 Using DIIS extrapolation, IDIIS=  1040.
 NGot= 16106127360 LenX= 16047361013 LenY= 16047318956
 Requested convergence on RMS density matrix=1.00D-08 within 128 cycles.
 Requested convergence on MAX density matrix=1.00D-06.
 Requested convergence on             energy=1.00D-06.
 No special actions if energy rises.

 Cycle   1  Pass 1  IDiag  1:
 E= -829.497805127841    
 DIIS: error= 3.05D-02 at cycle   1 NSaved=   1.
 NSaved= 1 IEnMin= 1 EnMin= -829.497805127841     IErMin= 1 ErrMin= 3.05D-02
 ErrMax= 3.05D-02  0.00D+00 EMaxC= 1.00D-01 BMatC= 4.72D-01 BMatP= 4.72D-01
 IDIUse=3 WtCom= 6.95D-01 WtEn= 3.05D-01
 Coeff-Com:  0.100D+01
 Coeff-En:   0.100D+01
 Coeff:      0.100D+01
 Gap=     0.431 Goal=   None    Shift=    0.000
 GapD=    0.431 DampG=2.000 DampE=0.500 DampFc=1.0000 IDamp=-1.
 RMSDP=4.83D-03 MaxDP=1.61D-01              OVMax= 1.33D-01

 Cycle   2  Pass 1  IDiag  1:
 E= -829.617407856083     Delta-E=       -0.119602728242 Rises=F Damp=F
 DIIS: error= 2.21D-02 at cycle   2 NSaved=   2.
 NSaved= 2 IEnMin= 2 EnMin= -829.617407856083     IErMin= 2 ErrMin= 2.21D-02
 ErrMax= 2.21D-02  0.00D+00 EMaxC= 1.00D-01 BMatC= 6.96D-02 BMatP= 4.72D-01
 IDIUse=3 WtCom= 7.79D-01 WtEn= 2.21D-01
 Coeff-Com:  0.219D+00 0.781D+00
 Coeff-En:   0.000D+00 0.100D+01
 Coeff:      0.171D+00 0.829D+00
 Gap=     0.307 Goal=   None    Shift=    0.000
 RMSDP=2.00D-03 MaxDP=7.73D-02 DE=-1.20D-01 OVMax= 9.04D-02

 Cycle   3  Pass 1  IDiag  1:
 E= -829.652598262789     Delta-E=       -0.035190406705 Rises=F Damp=F
 DIIS: error= 9.84D-03 at cycle   3 NSaved=   3.
 NSaved= 3 IEnMin= 3 EnMin= -829.652598262789     IErMin= 3 ErrMin= 9.84D-03
 ErrMax= 9.84D-03  0.00D+00 EMaxC= 1.00D-01 BMatC= 1.71D-02 BMatP= 6.96D-02
 IDIUse=3 WtCom= 9.02D-01 WtEn= 9.84D-02
 Coeff-Com: -0.110D-02 0.323D+00 0.678D+00
 Coeff-En:   0.000D+00 0.108D+00 0.892D+00
 Coeff:     -0.989D-03 0.302D+00 0.699D+00
 Gap=     0.309 Goal=   None    Shift=    0.000
 RMSDP=4.69D-04 MaxDP=1.90D-02 DE=-3.52D-02 OVMax= 4.05D-02

 Cycle   4  Pass 1  IDiag  1:
 E= -829.664528384608     Delta-E=       -0.011930121819 Rises=F Damp=F
 DIIS: error= 1.82D-03 at cycle   4 NSaved=   4.
 NSaved= 4 IEnMin= 4 EnMin= -829.664528384608     IErMin= 4 ErrMin= 1.82D-03
 ErrMax= 1.82D-03  0.00D+00 EMaxC= 1.00D-01 BMatC= 2.87D-04 BMatP= 1.71D-02
 IDIUse=3 WtCom= 9.82D-01 WtEn= 1.82D-02
 Coeff-Com: -0.967D-02-0.433D-02 0.104D+00 0.910D+00
 Coeff-En:   0.000D+00 0.000D+00 0.000D+00 0.100D+01
 Coeff:     -0.950D-02-0.426D-02 0.102D+00 0.912D+00
 Gap=     0.312 Goal=   None    Shift=    0.000
 RMSDP=1.06D-04 MaxDP=5.59D-03 DE=-1.19D-02 OVMax= 4.15D-03

 Cycle   5  Pass 1  IDiag  1:
 E= -829.664812414389     Delta-E=       -0.000284029781 Rises=F Damp=F
 DIIS: error= 2.83D-04 at cycle   5 NSaved=   5.
 NSaved= 5 IEnMin= 5 EnMin= -829.664812414389     IErMin= 5 ErrMin= 2.83D-04
 ErrMax= 2.83D-04  0.00D+00 EMaxC= 1.00D-01 BMatC= 1.83D-05 BMatP= 2.87D-04
 IDIUse=3 WtCom= 9.97D-01 WtEn= 2.83D-03
 Coeff-Com:  0.209D-02-0.287D-01-0.624D-01-0.615D-01 0.115D+01
 Coeff-En:   0.000D+00 0.000D+00 0.000D+00 0.000D+00 0.100D+01
 Coeff:      0.208D-02-0.286D-01-0.622D-01-0.614D-01 0.115D+01
 Gap=     0.310 Goal=   None    Shift=    0.000
 RMSDP=5.54D-05 MaxDP=2.26D-03 DE=-2.84D-04 OVMax= 3.38D-03

 Cycle   6  Pass 1  IDiag  1:
 E= -829.664858895070     Delta-E=       -0.000046480682 Rises=F Damp=F
 DIIS: error= 1.33D-04 at cycle   6 NSaved=   6.
 NSaved= 6 IEnMin= 6 EnMin= -829.664858895070     IErMin= 6 ErrMin= 1.33D-04
 ErrMax= 1.33D-04  0.00D+00 EMaxC= 1.00D-01 BMatC= 2.48D-06 BMatP= 1.83D-05
 IDIUse=3 WtCom= 9.99D-01 WtEn= 1.33D-03
 Coeff-Com:  0.825D-04 0.906D-02 0.121D-01-0.964D-01-0.308D+00 0.138D+01
 Coeff-En:   0.000D+00 0.000D+00 0.000D+00 0.000D+00 0.000D+00 0.100D+01
 Coeff:      0.824D-04 0.905D-02 0.121D-01-0.962D-01-0.308D+00 0.138D+01
 Gap=     0.311 Goal=   None    Shift=    0.000
 RMSDP=2.16D-05 MaxDP=5.72D-04 DE=-4.65D-05 OVMax= 1.73D-03

 Cycle   7  Pass 1  IDiag  1:
 E= -829.664867640483     Delta-E=       -0.000008745413 Rises=F Damp=F
 DIIS: error= 4.21D-05 at cycle   7 NSaved=   7.
 NSaved= 7 IEnMin= 7 EnMin= -829.664867640483     IErMin= 7 ErrMin= 4.21D-05
 ErrMax= 4.21D-05  0.00D+00 EMaxC= 1.00D-01 BMatC= 2.02D-07 BMatP= 2.48D-06
 IDIUse=1 WtCom= 1.00D+00 WtEn= 0.00D+00
 Coeff-Com: -0.191D-03 0.117D-02 0.475D-02 0.219D-01-0.765D-01-0.177D+00
 Coeff-Com:  0.123D+01
 Coeff:     -0.191D-03 0.117D-02 0.475D-02 0.219D-01-0.765D-01-0.177D+00
 Coeff:      0.123D+01
 Gap=     0.311 Goal=   None    Shift=    0.000
 RMSDP=6.29D-06 MaxDP=1.58D-04 DE=-8.75D-06 OVMax= 5.56D-04

 Cycle   8  Pass 1  IDiag  1:
 E= -829.664868478008     Delta-E=       -0.000000837525 Rises=F Damp=F
 DIIS: error= 1.16D-05 at cycle   8 NSaved=   8.
 NSaved= 8 IEnMin= 8 EnMin= -829.664868478008     IErMin= 8 ErrMin= 1.16D-05
 ErrMax= 1.16D-05  0.00D+00 EMaxC= 1.00D-01 BMatC= 3.10D-08 BMatP= 2.02D-07
 IDIUse=1 WtCom= 1.00D+00 WtEn= 0.00D+00
 Coeff-Com: -0.117D-04-0.140D-02-0.144D-02 0.148D-01 0.389D-01-0.201D+00
 Coeff-Com:  0.439D-01 0.111D+01
 Coeff:     -0.117D-04-0.140D-02-0.144D-02 0.148D-01 0.389D-01-0.201D+00
 Coeff:      0.439D-01 0.111D+01
 Gap=     0.311 Goal=   None    Shift=    0.000
 RMSDP=2.36D-06 MaxDP=5.61D-05 DE=-8.38D-07 OVMax= 2.18D-04

 Cycle   9  Pass 1  IDiag  1:
 E= -829.664868583248     Delta-E=       -0.000000105239 Rises=F Damp=F
 DIIS: error= 4.24D-06 at cycle   9 NSaved=   9.
 NSaved= 9 IEnMin= 9 EnMin= -829.664868583248     IErMin= 9 ErrMin= 4.24D-06
 ErrMax= 4.24D-06  0.00D+00 EMaxC= 1.00D-01 BMatC= 3.22D-09 BMatP= 3.10D-08
 IDIUse=1 WtCom= 1.00D+00 WtEn= 0.00D+00
 Coeff-Com:  0.168D-04 0.167D-03-0.139D-03-0.600D-02-0.155D-03 0.625D-01
 Coeff-Com: -0.111D+00-0.357D+00 0.141D+01
 Coeff:      0.168D-04 0.167D-03-0.139D-03-0.600D-02-0.155D-03 0.625D-01
 Coeff:     -0.111D+00-0.357D+00 0.141D+01
 Gap=     0.311 Goal=   None    Shift=    0.000
 RMSDP=9.91D-07 MaxDP=2.85D-05 DE=-1.05D-07 OVMax= 1.03D-04

 Cycle  10  Pass 1  IDiag  1:
 E= -829.664868598681     Delta-E=       -0.000000015434 Rises=F Damp=F
 DIIS: error= 1.63D-06 at cycle  10 NSaved=  10.
 NSaved=10 IEnMin=10 EnMin= -829.664868598681     IErMin=10 ErrMin= 1.63D-06
 ErrMax= 1.63D-06  0.00D+00 EMaxC= 1.00D-01 BMatC= 4.22D-10 BMatP= 3.22D-09
 IDIUse=1 WtCom= 1.00D+00 WtEn= 0.00D+00
 Coeff-Com: -0.201D-05 0.138D-03 0.171D-03-0.504D-03-0.461D-02 0.132D-01
 Coeff-Com:  0.186D-01-0.867D-01-0.223D+00 0.128D+01
 Coeff:     -0.201D-05 0.138D-03 0.171D-03-0.504D-03-0.461D-02 0.132D-01
 Coeff:      0.186D-01-0.867D-01-0.223D+00 0.128D+01
 Gap=     0.311 Goal=   None    Shift=    0.000
 RMSDP=3.40D-07 MaxDP=8.02D-06 DE=-1.54D-08 OVMax= 3.71D-05

 Cycle  11  Pass 1  IDiag  1:
 E= -829.664868600732     Delta-E=       -0.000000002050 Rises=F Damp=F
 DIIS: error= 7.28D-07 at cycle  11 NSaved=  11.
 NSaved=11 IEnMin=11 EnMin= -829.664868600732     IErMin=11 ErrMin= 7.28D-07
 ErrMax= 7.28D-07  0.00D+00 EMaxC= 1.00D-01 BMatC= 5.32D-11 BMatP= 4.22D-10
 IDIUse=1 WtCom= 1.00D+00 WtEn= 0.00D+00
 Coeff-Com: -0.233D-05-0.313D-04 0.630D-05 0.101D-02 0.168D-03-0.102D-01
 Coeff-Com:  0.153D-01 0.560D-01-0.185D+00-0.122D+00 0.124D+01
 Coeff:     -0.233D-05-0.313D-04 0.630D-05 0.101D-02 0.168D-03-0.102D-01
 Coeff:      0.153D-01 0.560D-01-0.185D+00-0.122D+00 0.124D+01
 Gap=     0.311 Goal=   None    Shift=    0.000
 RMSDP=1.51D-07 MaxDP=3.59D-06 DE=-2.05D-09 OVMax= 1.39D-05

 Cycle  12  Pass 1  IDiag  1:
 E= -829.664868600995     Delta-E=       -0.000000000263 Rises=F Damp=F
 DIIS: error= 1.94D-07 at cycle  12 NSaved=  12.
 NSaved=12 IEnMin=12 EnMin= -829.664868600995     IErMin=12 ErrMin= 1.94D-07
 ErrMax= 1.94D-07  0.00D+00 EMaxC= 1.00D-01 BMatC= 3.94D-12 BMatP= 5.32D-11
 IDIUse=1 WtCom= 1.00D+00 WtEn= 0.00D+00
 Coeff-Com: -0.265D-06-0.138D-04-0.116D-04 0.112D-03 0.391D-03-0.193D-02
 Coeff-Com: -0.157D-03 0.108D-01 0.667D-02-0.126D+00 0.456D-01 0.106D+01
 Coeff:     -0.265D-06-0.138D-04-0.116D-04 0.112D-03 0.391D-03-0.193D-02
 Coeff:     -0.157D-03 0.108D-01 0.667D-02-0.126D+00 0.456D-01 0.106D+01
 Gap=     0.311 Goal=   None    Shift=    0.000
 RMSDP=4.25D-08 MaxDP=1.22D-06 DE=-2.63D-10 OVMax= 3.06D-06

 Cycle  13  Pass 1  IDiag  1:
 E= -829.664868601013     Delta-E=       -0.000000000018 Rises=F Damp=F
 DIIS: error= 5.50D-08 at cycle  13 NSaved=  13.
 NSaved=13 IEnMin=13 EnMin= -829.664868601013     IErMin=13 ErrMin= 5.50D-08
 ErrMax= 5.50D-08  0.00D+00 EMaxC= 1.00D-01 BMatC= 2.68D-13 BMatP= 3.94D-12
 IDIUse=1 WtCom= 1.00D+00 WtEn= 0.00D+00
 Coeff-Com:  0.259D-06 0.239D-05-0.200D-05-0.811D-04-0.661D-06 0.817D-03
 Coeff-Com: -0.120D-02-0.472D-02 0.138D-01 0.212D-01-0.103D+00-0.913D-01
 Coeff-Com:  0.116D+01
 Coeff:      0.259D-06 0.239D-05-0.200D-05-0.811D-04-0.661D-06 0.817D-03
 Coeff:     -0.120D-02-0.472D-02 0.138D-01 0.212D-01-0.103D+00-0.913D-01
 Coeff:      0.116D+01
 Gap=     0.311 Goal=   None    Shift=    0.000
 RMSDP=1.17D-08 MaxDP=4.63D-07 DE=-1.83D-11 OVMax= 9.13D-07

 Cycle  14  Pass 1  IDiag  1:
 E= -829.664868601014     Delta-E=       -0.000000000001 Rises=F Damp=F
 DIIS: error= 1.32D-08 at cycle  14 NSaved=  14.
 NSaved=14 IEnMin=14 EnMin= -829.664868601014     IErMin=14 ErrMin= 1.32D-08
 ErrMax= 1.32D-08  0.00D+00 EMaxC= 1.00D-01 BMatC= 2.25D-14 BMatP= 2.68D-13
 IDIUse=1 WtCom= 1.00D+00 WtEn= 0.00D+00
 Coeff-Com:  0.108D-07 0.829D-06 0.762D-06-0.268D-05-0.280D-04 0.813D-04
 Coeff-Com:  0.111D-03-0.459D-03-0.157D-02 0.781D-02 0.223D-02-0.782D-01
 Coeff-Com: -0.701D-01 0.114D+01
 Coeff:      0.108D-07 0.829D-06 0.762D-06-0.268D-05-0.280D-04 0.813D-04
 Coeff:      0.111D-03-0.459D-03-0.157D-02 0.781D-02 0.223D-02-0.782D-01
 Coeff:     -0.701D-01 0.114D+01
 Gap=     0.311 Goal=   None    Shift=    0.000
 RMSDP=3.35D-09 MaxDP=1.22D-07 DE=-9.09D-13 OVMax= 2.35D-07

 SCF Done:  E(RHF) =  -829.664868601     A.U. after   14 cycles
            NFock= 14  Conv=0.34D-08     -V/T= 2.2846
 KE= 6.458476775589D+02 PE=-2.220027435573D+03 EE= 5.889104937019D+02
 Leave Link  502 at Fri Nov  5 16:18:58 2021, MaxMem= 16106127360 cpu:              50.1 elap:               2.5
 (Enter /sw/contrib/gaussian/g16/B01/g16/l801.exe)
 ExpMin= 2.53D-02 ExpMax= 4.56D+05 ExpMxC= 1.44D+03 IAcc=3 IRadAn=         5 AccDes= 0.00D+00
 HarFok:  IExCor=  205 AccDes= 0.00D+00 IRadAn=         5 IDoV=-2 UseB2=F ITyADJ=14
 ICtDFT= 12500011 ScaDFX=  1.000000  1.000000  1.000000  1.000000
 Defaulting to unpruned grid for atomic number  53.
 Largest valence mixing into a core orbital is  4.48D-04
 Largest core mixing into a valence orbital is  1.60D-04
 Range of M.O.s used for correlation:    11   174
 NBasis=   174 NAE=    26 NBE=    26 NFC=    10 NFV=     0
 NROrb=    164 NOA=    16 NOB=    16 NVA=   148 NVB=   148

 **** Warning!!: The largest alpha MO coefficient is  0.21721961D+02

 Leave Link  801 at Fri Nov  5 16:18:58 2021, MaxMem= 16106127360 cpu:               3.7 elap:               0.2
 (Enter /sw/contrib/gaussian/g16/B01/g16/l906.exe)
 Frozen-core derivative calculation, NFC=  10 NFV=   0.
 FulOut=F Deriv=T AODrv=T NAtomX=     4
   MMem=         130  MDisk=          16 MDiskD=          16
  W3Min=      922896 MinDsk=     1491158 NBas6D=         204
 NBas2D=       21411    NTT=       20910    LW2=    26219120
    MDV= 16105673677 MDiskM=      394697 NBas2p=       21411
 Fully direct method using O(ONN) memory.
 IMap=   1   2   3   4   5   6   7   8   9  10  11  12  13  14  15  16  17  18  19  20
 IMap=  21  22  23  24  25  26
 JobTyp=1 Pass  1:  I=  11 to  26 NPSUse= 28 ParTrn=T ParDer=T DoDerP=T.
 Spin components of T(2) and E(2):
     alpha-alpha T2 =       0.3200156223D-01 E2=     -0.9353115229D-01
     alpha-beta  T2 =       0.1663730422D+00 E2=     -0.5034685717D+00
     beta-beta   T2 =       0.3200156223D-01 E2=     -0.9353115229D-01
 The integrals were generated   1 times.
 ANorm=    0.1109223227D+01
 E2 =    -0.6905308763D+00 EUMP2 =    -0.83035539947731D+03
 Leave Link  906 at Fri Nov  5 16:19:13 2021, MaxMem= 16106127360 cpu:             414.2 elap:              14.9
 (Enter /sw/contrib/gaussian/g16/B01/g16/l1002.exe)
 Minotr:  Closed shell wavefunction.
          Computing MP2/KS-MP2 derivatives.
          Using Z-Vector for PSCF gradient.
          Skipping F1 and S1 gradient terms here.
          IDoAtm=1111
          Frozen-core window.
          Direct CPHF calculation.
          Differentiating once with respect to electric field.
                with respect to dipole field.
          Differentiating once with respect to nuclear coordinates.
          Using symmetry in CPHF.
          Requested convergence is 1.0D-10 RMS, and 1.0D-09 maximum.
          NewPWx=F KeepS1=T KeepF1=T KeepIn=T MapXYZ=F SortEE=F KeepMc=T.
 Keep R1 ints in memory in symmetry-blocked form, NReq=174585663.
 FoFCou: FMM=F IPFlag=           0 FMFlag=           0 FMFlg1=           0
         NFxFlg=           0 DoJE=F BraDBF=F KetDBF=F FulRan=T
         wScrn=  0.000000 ICntrl=       600 IOpCl=  0 I1Cent=           0 NGrid=           0
         NMat0=    1 NMatS0=  15225 NMatT0=    0 NMatD0=    1 NMtDS0=    0 NMtDT0=    0
 Petite list used in FoFCou.
          MDV=   16106127360 using IRadAn=       5.
          Solving linear equations separately, MaxMat=       0.
          There are     1 degrees of freedom in the 1st order CPHF.  IDoFFX=0 NUNeed=     1.
 LinEq1:  Iter=  0 NonCon=     1 RMS=3.00D-03 Max=4.68D-02 NDo=     1
 AX will form     1 AO Fock derivatives at one time.
 LinEq1:  Iter=  1 NonCon=     1 RMS=4.90D-04 Max=5.16D-03 NDo=     1
 LinEq1:  Iter=  2 NonCon=     1 RMS=2.27D-04 Max=4.87D-03 NDo=     1
 LinEq1:  Iter=  3 NonCon=     1 RMS=7.21D-05 Max=1.16D-03 NDo=     1
 LinEq1:  Iter=  4 NonCon=     1 RMS=3.44D-05 Max=9.76D-04 NDo=     1
 LinEq1:  Iter=  5 NonCon=     1 RMS=8.68D-06 Max=1.22D-04 NDo=     1
 LinEq1:  Iter=  6 NonCon=     1 RMS=2.07D-06 Max=3.00D-05 NDo=     1
 LinEq1:  Iter=  7 NonCon=     1 RMS=5.49D-07 Max=1.17D-05 NDo=     1
 LinEq1:  Iter=  8 NonCon=     1 RMS=1.46D-07 Max=2.56D-06 NDo=     1
 LinEq1:  Iter=  9 NonCon=     1 RMS=4.55D-08 Max=7.28D-07 NDo=     1
 LinEq1:  Iter= 10 NonCon=     1 RMS=1.11D-08 Max=1.47D-07 NDo=     1
 LinEq1:  Iter= 11 NonCon=     1 RMS=2.66D-09 Max=6.14D-08 NDo=     1
 LinEq1:  Iter= 12 NonCon=     1 RMS=7.88D-10 Max=1.30D-08 NDo=     1
 LinEq1:  Iter= 13 NonCon=     1 RMS=2.00D-10 Max=3.88D-09 NDo=     1
 LinEq1:  Iter= 14 NonCon=     0 RMS=3.73D-11 Max=5.00D-10 NDo=     1
 Linear equations converged to 1.000D-10 1.000D-09 after    14 iterations.
 End of Minotr F.D. properties file   721 does not exist.
 End of Minotr F.D. properties file   722 does not exist.
 End of Minotr F.D. properties file   788 does not exist.
 Leave Link 1002 at Fri Nov  5 16:19:16 2021, MaxMem= 16106127360 cpu:              53.9 elap:               2.9
 (Enter /sw/contrib/gaussian/g16/B01/g16/l601.exe)
 Copying SCF densities to generalized density rwf, IOpCl= 0 IROHF=0.

 **********************************************************************

            Population analysis using the MP2 Density.

 **********************************************************************

 Orbital symmetries:
       Occupied  (A') (A') (A') (A') (A') (A") (A') (A') (A") (A')
                 (A') (A") (A') (A") (A') (A') (A') (A') (A') (A")
                 (A') (A') (A") (A') (A") (A')
       Virtual   (A') (A') (A') (A") (A') (A') (A") (A') (A') (A")
                 (A') (A') (A') (A") (A') (A") (A') (A') (A') (A")
                 (A') (A') (A") (A") (A') (A') (A') (A') (A') (A')
                 (A") (A") (A') (A") (A') (A') (A") (A') (A') (A")
                 (A') (A') (A") (A") (A') (A') (A") (A') (A") (A')
                 (A') (A") (A') (A') (A") (A') (A') (A") (A') (A")
                 (A') (A") (A') (A') (A') (A') (A') (A") (A") (A')
                 (A") (A') (A') (A") (A') (A") (A") (A') (A') (A')
                 (A') (A") (A') (A') (A') (A") (A") (A') (A') (A")
                 (A') (A') (A') (A") (A") (A') (A") (A') (A') (A")
                 (A') (A') (A") (A') (A') (A") (A') (A") (A') (A")
                 (A') (A') (A') (A") (A") (A') (A') (A") (A') (A')
                 (A') (A") (A") (A') (A") (A') (A') (A') (A') (A")
                 (A') (A') (A') (A') (A") (A') (A") (A') (A") (A")
                 (A') (A') (A") (A') (A') (A') (A') (A')
 The electronic state is 1-A'.
 Alpha  occ. eigenvalues -- -104.72740 -20.45137 -10.44686  -7.91397  -7.91141
 Alpha  occ. eigenvalues --   -7.91131  -7.47934  -5.30548  -5.30449  -5.30444
 Alpha  occ. eigenvalues --   -2.03360  -2.03263  -2.03259  -2.03172  -2.03172
 Alpha  occ. eigenvalues --   -1.23165  -0.89732  -0.66222  -0.53884  -0.43711
 Alpha  occ. eigenvalues --   -0.42893  -0.30811  -0.27901  -0.16520  -0.15647
 Alpha  occ. eigenvalues --   -0.15620
 Alpha virt. eigenvalues --    0.15463   0.18058   0.21413   0.23105   0.23968
 Alpha virt. eigenvalues --    0.25091   0.25373   0.28388   0.30045   0.31042
 Alpha virt. eigenvalues --    0.31145   0.32159   0.35778   0.37710   0.38186
 Alpha virt. eigenvalues --    0.39952   0.42700   0.43851   0.45891   0.52306
 Alpha virt. eigenvalues --    0.53824   0.55804   0.56957   0.58034   0.58951
 Alpha virt. eigenvalues --    0.59740   0.65386   0.66301   0.74501   0.74805
 Alpha virt. eigenvalues --    0.75080   0.77221   0.77246   0.79054   0.79699
 Alpha virt. eigenvalues --    0.82450   0.82880   0.84417   0.85522   0.86575
 Alpha virt. eigenvalues --    0.87157   0.89450   0.89954   0.91150   0.91208
 Alpha virt. eigenvalues --    0.96796   0.98260   0.98874   1.02609   1.03371
 Alpha virt. eigenvalues --    1.07662   1.10285   1.10608   1.12948   1.14207
 Alpha virt. eigenvalues --    1.18289   1.22251   1.24566   1.28082   1.29354
 Alpha virt. eigenvalues --    1.32092   1.36880   1.37747   1.45026   1.48043
 Alpha virt. eigenvalues --    1.55425   1.58178   1.59727   1.63677   1.64301
 Alpha virt. eigenvalues --    1.68245   1.71694   1.73836   1.74099   1.74652
 Alpha virt. eigenvalues --    1.77349   1.78665   1.80790   1.83916   1.88207
 Alpha virt. eigenvalues --    1.90470   1.93232   1.96707   2.01194   2.05348
 Alpha virt. eigenvalues --    2.05390   2.09320   2.13805   2.16899   2.39387
 Alpha virt. eigenvalues --    2.47670   2.52575   2.55782   2.56428   2.61063
 Alpha virt. eigenvalues --    2.62485   2.69349   2.69566   2.71943   2.72619
 Alpha virt. eigenvalues --    2.75308   2.76840   2.77685   2.82461   2.95128
 Alpha virt. eigenvalues --    2.99721   3.05353   3.09276   3.19304   3.22127
 Alpha virt. eigenvalues --    3.23038   3.26081   3.31722   3.31837   3.46461
 Alpha virt. eigenvalues --    3.52997   3.54983   3.56609   3.62296   3.95589
 Alpha virt. eigenvalues --    4.04897   4.34511   4.52746   4.57942   4.62645
 Alpha virt. eigenvalues --    4.80468   5.02679   5.11137   5.38729   5.51265
 Alpha virt. eigenvalues --    5.57552   5.74456   6.45453   6.60949   6.87710
 Alpha virt. eigenvalues --    6.91760   6.92106   7.02273   7.34397   7.39005
 Alpha virt. eigenvalues --    7.44160   7.48124   7.59500   7.83766   7.86947
 Alpha virt. eigenvalues --    8.45983  15.69324  59.20999
          Condensed to atoms (all electrons):
               1          2          3          4
     1  O    8.759535  -0.112622  -0.220715   0.041411
     2  Cl  -0.112622  17.098701   0.014098  -0.018338
     3  I   -0.220715   0.014098  26.051924  -0.095993
     4  H    0.041411  -0.018338  -0.095993   0.874158
 Mulliken charges:
               1
     1  O   -0.467608
     2  Cl   0.018161
     3  I   -0.749315
     4  H    0.198762
 Sum of Mulliken charges =  -1.00000
 Mulliken charges with hydrogens summed into heavy atoms:
               1
     1  O   -0.268846
     2  Cl   0.018161
     3  I   -0.749315
 Electronic spatial extent (au):  <R**2>=            750.2331
 Charge=             -1.0000 electrons
 Dipole moment (field-independent basis, Debye):
    X=              1.2858    Y=              0.3666    Z=              0.0000  Tot=              1.3371
 Quadrupole moment (field-independent basis, Debye-Ang):
   XX=            -56.3282   YY=            -62.3330   ZZ=            -52.9467
   XY=             -5.5899   XZ=              0.0000   YZ=              0.0000
 Traceless Quadrupole moment (field-independent basis, Debye-Ang):
   XX=              0.8744   YY=             -5.1303   ZZ=              4.2559
   XY=             -5.5899   XZ=              0.0000   YZ=              0.0000
 Octapole moment (field-independent basis, Debye-Ang**2):
  XXX=            -15.7988  YYY=            -33.3631  ZZZ=              0.0000  XYY=            -11.2361
  XXY=             -8.8454  XXZ=              0.0000  XZZ=             -6.5816  YZZ=             -6.8061
  YYZ=              0.0000  XYZ=              0.0000
 Hexadecapole moment (field-independent basis, Debye-Ang**3):
 XXXX=           -500.9129 YYYY=           -592.0111 ZZZZ=            -85.6660 XXXY=           -206.5941
 XXXZ=              0.0000 YYYX=           -215.4751 YYYZ=              0.0000 ZZZX=              0.0000
 ZZZY=              0.0000 XXYY=           -190.4520 XXZZ=           -102.9435 YYZZ=           -109.0375
 XXYZ=              0.0000 YYXZ=              0.0000 ZZXY=            -68.4114
 N-N= 1.556043957115D+02 E-N=-2.219525323738D+03  KE= 6.462088163596D+02
 Symmetry A'   KE= 5.570163985215D+02
 Symmetry A"   KE= 8.919241783804D+01
 No NMR shielding tensors so no spin-rotation constants.
 Leave Link  601 at Fri Nov  5 16:19:17 2021, MaxMem= 16106127360 cpu:               6.5 elap:               0.3
 (Enter /sw/contrib/gaussian/g16/B01/g16/l701.exe)
 ... and contract with generalized density number  2.
 Compute integral first derivatives.
   2 Symmetry operations used in ECPInt.
 ECPInt:  NShTT=    1596 NPrTT=   10643 LenC2=    1597 LenP2D=    8615.
 LDataN:  DoStor=T MaxTD1= 8 Len=  415
 Leave Link  701 at Fri Nov  5 16:19:18 2021, MaxMem= 16106127360 cpu:              22.9 elap:               0.9
 (Enter /sw/contrib/gaussian/g16/B01/g16/l702.exe)
 L702 exits ... SP integral derivatives will be done elsewhere.
 Leave Link  702 at Fri Nov  5 16:19:18 2021, MaxMem= 16106127360 cpu:               0.5 elap:               0.0
 (Enter /sw/contrib/gaussian/g16/B01/g16/l703.exe)
 Integral derivatives from FoFJK, PRISM(SPDF).
 Compute integral first derivatives, UseDBF=F ICtDFT=           0.
 Calling FoFJK, ICntrl=  10002127 FMM=F ISym2X=1 I1Cent= 0 IOpClX= 0 NMat=1 NMatS=1 NMatT=0.
 FoFJK:  IHMeth= 1 ICntrl=10002127 DoSepK=F KAlg= 0 I1Cent=           0 FoldK=F
 IRaf=         0 NMat=       1 IRICut=       1 DoRegI=T DoRafI=F ISym2E= 1 IDoP0=0 IntGTp=1.
 FoFCou: FMM=F IPFlag=           0 FMFlag=      100000 FMFlg1=         800
         NFxFlg=           0 DoJE=F BraDBF=F KetDBF=F FulRan=T
         wScrn=  0.000000 ICntrl=  10002127 IOpCl=  0 I1Cent=           0 NGrid=           0
         NMat0=    1 NMatS0=      1 NMatT0=    0 NMatD0=    1 NMtDS0=    0 NMtDT0=    0
 Petite list used in FoFCou.
 Leave Link  703 at Fri Nov  5 16:19:20 2021, MaxMem= 16106127360 cpu:              58.8 elap:               2.1
 (Enter /sw/contrib/gaussian/g16/B01/g16/l716.exe)
 Dipole        = 5.05885172D-01 1.44228722D-01 0.00000000D+00
 ***** Axes restored to original set *****
 -------------------------------------------------------------------
 Center     Atomic                   Forces (Hartrees/Bohr)
 Number     Number              X              Y              Z
 -------------------------------------------------------------------
      1        8           0.020000864    0.062065845   -0.000000000
      2       17          -0.005876033    0.001725031   -0.000000000
      3       53          -0.010019475   -0.038261458   -0.000000000
      4        1          -0.004105356   -0.025529418   -0.000000000
 -------------------------------------------------------------------
 Cartesian Forces:  Max     0.062065845 RMS     0.023314233
 -----------------------------------------------------------------------------------------------
                       Internal Coordinate Forces (Hartree/Bohr or radian)
  Cent   Atom   N1       Length/X         N2         Alpha/Y        N3         Beta/Z          J
 -----------------------------------------------------------------------------------------------
      1  O 
         X        1   0.000000(     1)
      2  Cl       1  -0.005876(     2)      2  -0.000000(     5)
      3  I        1   0.039523(     3)      2   0.000000(     6)      3   0.008297(     8)     0
      4  H        1   0.025813(     4)      2   0.000000(     7)      3  -0.002765(     9)     0
 -----------------------------------------------------------------------------------------------
 Internal  Forces:  Max     0.039522707 RMS     0.016122364
 Force constants in Cartesian coordinates: 
                1             2             3             4             5 
      1  0.538897D+00
      2  0.460897D-01  0.605982D+00
      3  0.000000D+00  0.000000D+00  0.116553D+00
      4 -0.362536D+00  0.000000D+00  0.000000D+00  0.362536D+00
      5  0.404796D-01 -0.488302D-01  0.000000D+00  0.000000D+00  0.398677D-01
      6  0.000000D+00  0.000000D+00  0.000000D+00  0.000000D+00  0.000000D+00
      7  0.388901D-01 -0.155534D-02  0.000000D+00  0.000000D+00 -0.138666D-01
      8 -0.154219D-01 -0.304198D-01  0.000000D+00  0.000000D+00  0.307017D-02
      9  0.000000D+00  0.000000D+00  0.583124D-01  0.000000D+00  0.000000D+00
     10 -0.215251D+00 -0.445343D-01  0.000000D+00  0.000000D+00 -0.266129D-01
     11 -0.711473D-01 -0.526732D+00  0.000000D+00  0.000000D+00  0.589230D-02
     12  0.000000D+00  0.000000D+00 -0.174865D+00  0.000000D+00  0.000000D+00
                6             7             8             9            10 
      6  0.100000D+01
      7  0.000000D+00  0.370747D-01
      8  0.000000D+00  0.156297D-01  0.104207D+00
      9  0.000000D+00  0.000000D+00  0.000000D+00  0.291742D-01
     10  0.000000D+00 -0.759648D-01 -0.207727D-03  0.000000D+00  0.291216D+00
     11  0.000000D+00 -0.207727D-03 -0.768570D-01  0.000000D+00  0.713550D-01
     12  0.000000D+00  0.000000D+00  0.000000D+00 -0.874865D-01  0.000000D+00
               11            12 
     11  0.597697D+00
     12  0.000000D+00  0.262352D+00
 Force constants in internal coordinates: 
                1             2             3             4             5 
      1  0.000000D+00
      2  0.000000D+00  0.362536D+00
      3  0.000000D+00  0.000000D+00  0.107667D+00
      4  0.000000D+00  0.000000D+00 -0.769030D-01  0.613495D+00
      5  0.000000D+00  0.000000D+00  0.000000D+00  0.000000D+00  0.102840D+02
      6  0.000000D+00  0.000000D+00  0.000000D+00  0.000000D+00  0.000000D+00
      7  0.000000D+00  0.000000D+00  0.000000D+00  0.000000D+00  0.000000D+00
      8  0.000000D+00  0.000000D+00  0.000000D+00  0.000000D+00  0.000000D+00
      9  0.000000D+00  0.000000D+00  0.000000D+00  0.000000D+00  0.000000D+00
                6             7             8             9 
      6  0.879005D+00
      7 -0.879005D+00  0.879005D+00
      8  0.000000D+00  0.000000D+00  0.101278D+01
      9  0.000000D+00  0.000000D+00 -0.762781D+00  0.922781D+00
 Leave Link  716 at Fri Nov  5 16:19:20 2021, MaxMem= 16106127360 cpu:               1.2 elap:               0.1
 (Enter /sw/contrib/gaussian/g16/B01/g16/l103.exe)

 GradGradGradGradGradGradGradGradGradGradGradGradGradGradGradGradGradGrad
 Berny optimization.
 Search for a local minimum.
 Step number   1 out of a maximum of   20
 All quantities printed in internal units (Hartrees-Bohrs-Radians)
 Second derivative matrix not updated -- first step.
 The second derivative matrix:
                          r1        r2        r3        a1        OOP
           r1           0.36254
           r2           0.00000   0.10767
           r3           0.00000  -0.07690   0.61350
           a1          -0.00000   0.00000   0.00000   0.41000
           OOP          0.00000   0.00000   0.00000   0.00000   0.87901
 ITU=  0
     Eigenvalues ---    0.107671000.000001000.000001000.000001000.00000
 RFO step:  Lambda=-1.29503981D-02 EMin= 1.07667107D-01
 Linear search not attempted -- first point.
 Maximum step size (   0.300) exceeded in Quadratic search.
    -- Step size scaled by   0.916
 Variable       Old X    -DE/DX   Delta X   Delta X   Delta X     New X
                                 (Linear)    (Quad)   (Total)
    r1        3.20687  -0.00588   0.00000   0.00000   0.00000   3.20687
    r2        5.48904   0.03952   0.00000   0.30000   0.30000   5.78904
    r3        1.83043   0.02581   0.00000   0.00000   0.00000   1.83043
    a1        1.78869   0.00553   0.00000   0.00000   0.00000   1.78869
   OOP        1.57080   0.00000   0.00000   0.00000   0.00000   1.57080
         Item               Value     Threshold  Converged?
 Maximum Force            0.039523     0.000450     NO 
 RMS     Force            0.039523     0.000300     NO 
 Maximum Displacement     0.300000     0.001800     NO 
 RMS     Displacement     0.134164     0.001200     NO 
 Predicted change in Energy=-7.011792D-03
 Lowest energy point so far.  Saving SCF results.
 GradGradGradGradGradGradGradGradGradGradGradGradGradGradGradGradGradGrad

 Leave Link  103 at Fri Nov  5 16:19:20 2021, MaxMem= 16106127360 cpu:               1.2 elap:               0.1
 (Enter /sw/contrib/gaussian/g16/B01/g16/l202.exe)
 ---------------------------------------------------------------------------------------------------
                            Z-MATRIX (ANGSTROMS AND DEGREES)
   CD    Cent   Atom    N1       Length/X        N2       Alpha/Y        N3        Beta/Z          J
 ---------------------------------------------------------------------------------------------------
      1      1  O 
      2         X        1  10.000000(     1)
      3      2  Cl       1   1.697002(     2)      2   90.000(     5)
      4      3  I        1   3.063429(     3)      2   90.000(     6)      3  102.484(     8)      0
      5      4  H        1   0.968623(     4)      2   90.000(     7)      3  102.484(     9)      0
 ---------------------------------------------------------------------------------------------------
                         Z-Matrix orientation:                         
 ---------------------------------------------------------------------
 Center     Atomic      Atomic             Coordinates (Angstroms)
 Number     Number       Type             X           Y           Z
 ---------------------------------------------------------------------
      1          8           0        0.000000    0.000000    0.000000
      2         -1           0        0.000000    0.000000   10.000000
      3         17           0        1.697002    0.000000    0.000000
      4         53           0       -0.662228   -2.990995    0.000000
      5          1           0       -0.209389   -0.945721    0.000000
 ---------------------------------------------------------------------
                    Distance matrix (angstroms):
                    1          2          3          4          5
     1  O    0.000000
     2  X   10.000000   0.000000
     3  Cl   1.697002  10.142969   0.000000
     4  I    3.063429  10.458709   3.809464   0.000000
     5  H    0.968623  10.046802   2.128077   2.094806   0.000000
 Stoichiometry    ClHIO(1-)
 Framework group  CS[SG(ClHIO)]
 Deg. of freedom     5
 Full point group                 CS      NOp   2
 RotChk:  IX=0 Diff= 5.07D-02
 Largest Abelian subgroup         CS      NOp   2
 Largest concise Abelian subgroup C1      NOp   1
                         Standard orientation:                         
 ---------------------------------------------------------------------
 Center     Atomic      Atomic             Coordinates (Angstroms)
 Number     Number       Type             X           Y           Z
 ---------------------------------------------------------------------
      1          8           0        0.319646    1.994795    0.000000
      2         17           0        2.004764    1.794320    0.000000
      3         53           0       -0.691286   -0.897023    0.000000
      4          1           0        0.000000    1.080433    0.000000
 ---------------------------------------------------------------------
 Rotational constants (GHZ):          21.9076148           1.1069140           1.0536755
 Leave Link  202 at Fri Nov  5 16:19:20 2021, MaxMem= 16106127360 cpu:               0.4 elap:               0.0
 (Enter /sw/contrib/gaussian/g16/B01/g16/l301.exe)
 Basis read from rwf:  (5D, 7F)
 Pseudo-potential data read from rwf file.
 There are   139 symmetry adapted cartesian basis functions of A'  symmetry.
 There are    65 symmetry adapted cartesian basis functions of A"  symmetry.
 There are   115 symmetry adapted basis functions of A'  symmetry.
 There are    59 symmetry adapted basis functions of A"  symmetry.
   174 basis functions,   383 primitive gaussians,   204 cartesian basis functions
    26 alpha electrons       26 beta electrons
       nuclear repulsion energy       150.9074605057 Hartrees.
 IExCor=    0 DFT=F Ex=HF Corr=None ExCW=0 ScaHFX=  1.000000
 ScaDFX=  1.000000  1.000000  1.000000  1.000000 ScalE2=  1.000000  1.000000
 IRadAn=      5 IRanWt=     -1 IRanGd=            0 ICorTp=0 IEmpDi=  4
 NAtoms=    4 NActive=    4 NUniq=    4 SFac= 1.00D+00 NAtFMM=   60 NAOKFM=F Big=F
 Integral buffers will be    131072 words long.
 Raffenetti 1 integral format.
 Two-electron integral symmetry is turned on.
 No density basis found on file   724.
 Leave Link  301 at Fri Nov  5 16:19:20 2021, MaxMem= 16106127360 cpu:               2.4 elap:               0.1
 (Enter /sw/contrib/gaussian/g16/B01/g16/l302.exe)
 NPDir=0 NMtPBC=     1 NCelOv=     1 NCel=       1 NClECP=     1 NCelD=      1
         NCelK=      1 NCelE2=     1 NClLst=     1 CellRange=     0.0.
 One-electron integrals computed using PRISM.
 One-electron integral symmetry used in STVInt
   2 Symmetry operations used in ECPInt.
 ECPInt:  NShTT=    1596 NPrTT=   10643 LenC2=    1597 LenP2D=    8533.
 LDataN:  DoStor=T MaxTD1= 7 Len=  274
 NBasis=   174 RedAO= T EigKep=  1.70D-04  NBF=   115    59
 NBsUse=   174 1.00D-06 EigRej= -1.00D+00 NBFU=   115    59
 Leave Link  302 at Fri Nov  5 16:19:20 2021, MaxMem= 16106127360 cpu:               8.8 elap:               0.4
 (Enter /sw/contrib/gaussian/g16/B01/g16/l303.exe)
 DipDrv:  MaxL=1.
 Leave Link  303 at Fri Nov  5 16:19:21 2021, MaxMem= 16106127360 cpu:               1.2 elap:               0.1
 (Enter /sw/contrib/gaussian/g16/B01/g16/l401.exe)
 Initial guess from the checkpoint file:  "/gscratch/ilahie/mccoygrp/coire_hocl/oop_s_rOH_f/ihocl/ihocl_rOI_opt.chk"
 B after Tr=    -0.000000    0.000000    0.000000
         Rot=    0.999691   -0.000000   -0.000000   -0.024874 Ang=  -2.85 deg.
 Guess basis will be translated and rotated to current coordinates.
 JPrj=2 DoOrth=T DoCkMO=T.
 Initial guess orbital symmetries:
       Occupied  (A') (A') (A') (A') (A') (A") (A') (A') (A") (A')
                 (A') (A") (A') (A") (A') (A') (A') (A') (A') (A")
                 (A') (A') (A") (A') (A") (A')
       Virtual   (A') (A') (A') (A") (A') (A') (A") (A') (A') (A")
                 (A') (A') (A') (A") (A') (A") (A') (A') (A') (A")
                 (A') (A') (A") (A") (A') (A') (A') (A') (A') (A')
                 (A") (A") (A') (A") (A') (A') (A") (A') (A') (A")
                 (A') (A') (A") (A") (A') (A') (A") (A') (A") (A')
                 (A') (A") (A') (A') (A") (A') (A') (A") (A') (A")
                 (A') (A") (A') (A') (A') (A') (A') (A") (A") (A')
                 (A") (A') (A') (A") (A') (A") (A") (A') (A') (A')
                 (A') (A") (A') (A') (A') (A") (A") (A') (A') (A")
                 (A') (A') (A') (A") (A") (A') (A") (A') (A') (A")
                 (A') (A') (A") (A') (A') (A") (A') (A") (A') (A")
                 (A') (A') (A') (A") (A") (A') (A') (A") (A') (A')
                 (A') (A") (A") (A') (A") (A') (A') (A') (A') (A")
                 (A') (A') (A') (A') (A") (A') (A") (A') (A") (A")
                 (A') (A') (A") (A') (A') (A') (A') (A')
 The electronic state of the initial guess is 1-A'.
 Generating alternative initial guess.
 ExpMin= 2.53D-02 ExpMax= 4.56D+05 ExpMxC= 1.44D+03 IAcc=3 IRadAn=         5 AccDes= 0.00D+00
 Harris functional with IExCor=  205 and IRadAn=       5 diagonalized for initial guess.
 HarFok:  IExCor=  205 AccDes= 0.00D+00 IRadAn=         5 IDoV= 1 UseB2=F ITyADJ=14
 ICtDFT=  3500011 ScaDFX=  1.000000  1.000000  1.000000  1.000000
 Defaulting to unpruned grid for atomic number  53.
 FoFCou: FMM=F IPFlag=           0 FMFlag=      100000 FMFlg1=           0
         NFxFlg=           0 DoJE=T BraDBF=F KetDBF=T FulRan=T
         wScrn=  0.000000 ICntrl=       500 IOpCl=  0 I1Cent=   200000004 NGrid=           0
         NMat0=    1 NMatS0=      1 NMatT0=    0 NMatD0=    1 NMtDS0=    0 NMtDT0=    0
 Petite list used in FoFCou.
 Harris En= -831.056191018124    
 Leave Link  401 at Fri Nov  5 16:19:21 2021, MaxMem= 16106127360 cpu:               8.1 elap:               0.3
 (Enter /sw/contrib/gaussian/g16/B01/g16/l502.exe)
 Keep R1 ints in memory in symmetry-blocked form, NReq=174584607.
 FoFCou: FMM=F IPFlag=           0 FMFlag=           0 FMFlg1=           0
         NFxFlg=           0 DoJE=F BraDBF=F KetDBF=F FulRan=T
         wScrn=  0.000000 ICntrl=       600 IOpCl=  0 I1Cent=           0 NGrid=           0
         NMat0=    1 NMatS0=  15225 NMatT0=    0 NMatD0=    1 NMtDS0=    0 NMtDT0=    0
 Petite list used in FoFCou.
 Closed shell SCF:
 Using DIIS extrapolation, IDIIS=  1040.
 NGot= 16106127360 LenX= 16047361013 LenY= 16047318956
 Requested convergence on RMS density matrix=1.00D-08 within 128 cycles.
 Requested convergence on MAX density matrix=1.00D-06.
 Requested convergence on             energy=1.00D-06.
 No special actions if energy rises.

 Cycle   1  Pass 1  IDiag  1:
 E= -829.676192778669    
 DIIS: error= 9.52D-03 at cycle   1 NSaved=   1.
 NSaved= 1 IEnMin= 1 EnMin= -829.676192778669     IErMin= 1 ErrMin= 9.52D-03
 ErrMax= 9.52D-03  0.00D+00 EMaxC= 1.00D-01 BMatC= 3.05D-03 BMatP= 3.05D-03
 IDIUse=3 WtCom= 9.05D-01 WtEn= 9.52D-02
 Coeff-Com:  0.100D+01
 Coeff-En:   0.100D+01
 Coeff:      0.100D+01
 Gap=     0.311 Goal=   None    Shift=    0.000
 GapD=    0.311 DampG=1.000 DampE=1.000 DampFc=1.0000 IDamp=-1.
 RMSDP=3.66D-04 MaxDP=1.19D-02              OVMax= 1.32D-02

 Cycle   2  Pass 1  IDiag  1:
 E= -829.677458610029     Delta-E=       -0.001265831360 Rises=F Damp=F
 DIIS: error= 7.53D-04 at cycle   2 NSaved=   2.
 NSaved= 2 IEnMin= 2 EnMin= -829.677458610029     IErMin= 2 ErrMin= 7.53D-04
 ErrMax= 7.53D-04  0.00D+00 EMaxC= 1.00D-01 BMatC= 9.76D-05 BMatP= 3.05D-03
 IDIUse=3 WtCom= 9.92D-01 WtEn= 7.53D-03
 Coeff-Com:  0.566D-02 0.994D+00
 Coeff-En:   0.000D+00 0.100D+01
 Coeff:      0.562D-02 0.994D+00
 Gap=     0.309 Goal=   None    Shift=    0.000
 RMSDP=8.27D-05 MaxDP=5.18D-03 DE=-1.27D-03 OVMax= 4.36D-03

 Cycle   3  Pass 1  IDiag  1:
 E= -829.677549413440     Delta-E=       -0.000090803411 Rises=F Damp=F
 DIIS: error= 5.22D-04 at cycle   3 NSaved=   3.
 NSaved= 3 IEnMin= 3 EnMin= -829.677549413440     IErMin= 3 ErrMin= 5.22D-04
 ErrMax= 5.22D-04  0.00D+00 EMaxC= 1.00D-01 BMatC= 3.42D-05 BMatP= 9.76D-05
 IDIUse=3 WtCom= 9.95D-01 WtEn= 5.22D-03
 Coeff-Com: -0.247D-01 0.346D+00 0.679D+00
 Coeff-En:   0.000D+00 0.000D+00 0.100D+01
 Coeff:     -0.246D-01 0.344D+00 0.680D+00
 Gap=     0.308 Goal=   None    Shift=    0.000
 RMSDP=2.39D-05 MaxDP=7.33D-04 DE=-9.08D-05 OVMax= 1.61D-03

 Cycle   4  Pass 1  IDiag  1:
 E= -829.677578066695     Delta-E=       -0.000028653255 Rises=F Damp=F
 DIIS: error= 9.65D-05 at cycle   4 NSaved=   4.
 NSaved= 4 IEnMin= 4 EnMin= -829.677578066695     IErMin= 4 ErrMin= 9.65D-05
 ErrMax= 9.65D-05  0.00D+00 EMaxC= 1.00D-01 BMatC= 2.02D-06 BMatP= 3.42D-05
 IDIUse=1 WtCom= 1.00D+00 WtEn= 0.00D+00
 Coeff-Com:  0.701D-03-0.129D+00-0.465D-02 0.113D+01
 Coeff:      0.701D-03-0.129D+00-0.465D-02 0.113D+01
 Gap=     0.308 Goal=   None    Shift=    0.000
 RMSDP=1.82D-05 MaxDP=8.50D-04 DE=-2.87D-05 OVMax= 1.18D-03

 Cycle   5  Pass 1  IDiag  1:
 E= -829.677582719086     Delta-E=       -0.000004652391 Rises=F Damp=F
 DIIS: error= 3.21D-05 at cycle   5 NSaved=   5.
 NSaved= 5 IEnMin= 5 EnMin= -829.677582719086     IErMin= 5 ErrMin= 3.21D-05
 ErrMax= 3.21D-05  0.00D+00 EMaxC= 1.00D-01 BMatC= 1.96D-07 BMatP= 2.02D-06
 IDIUse=1 WtCom= 1.00D+00 WtEn= 0.00D+00
 Coeff-Com:  0.173D-02-0.320D-01-0.530D-01 0.403D-01 0.104D+01
 Coeff:      0.173D-02-0.320D-01-0.530D-01 0.403D-01 0.104D+01
 Gap=     0.308 Goal=   None    Shift=    0.000
 RMSDP=5.89D-06 MaxDP=1.99D-04 DE=-4.65D-06 OVMax= 4.04D-04

 Cycle   6  Pass 1  IDiag  1:
 E= -829.677583294797     Delta-E=       -0.000000575711 Rises=F Damp=F
 DIIS: error= 1.15D-05 at cycle   6 NSaved=   6.
 NSaved= 6 IEnMin= 6 EnMin= -829.677583294797     IErMin= 6 ErrMin= 1.15D-05
 ErrMax= 1.15D-05  0.00D+00 EMaxC= 1.00D-01 BMatC= 2.78D-08 BMatP= 1.96D-07
 IDIUse=1 WtCom= 1.00D+00 WtEn= 0.00D+00
 Coeff-Com: -0.272D-03 0.275D-01 0.780D-02-0.225D+00-0.526D-01 0.124D+01
 Coeff:     -0.272D-03 0.275D-01 0.780D-02-0.225D+00-0.526D-01 0.124D+01
 Gap=     0.308 Goal=   None    Shift=    0.000
 RMSDP=2.82D-06 MaxDP=7.54D-05 DE=-5.76D-07 OVMax= 2.08D-04

 Cycle   7  Pass 1  IDiag  1:
 E= -829.677583394304     Delta-E=       -0.000000099507 Rises=F Damp=F
 DIIS: error= 2.06D-06 at cycle   7 NSaved=   7.
 NSaved= 7 IEnMin= 7 EnMin= -829.677583394304     IErMin= 7 ErrMin= 2.06D-06
 ErrMax= 2.06D-06  0.00D+00 EMaxC= 1.00D-01 BMatC= 8.31D-10 BMatP= 2.78D-08
 IDIUse=1 WtCom= 1.00D+00 WtEn= 0.00D+00
 Coeff-Com: -0.770D-04 0.481D-03 0.225D-02 0.500D-02-0.342D-01-0.863D-01
 Coeff-Com:  0.111D+01
 Coeff:     -0.770D-04 0.481D-03 0.225D-02 0.500D-02-0.342D-01-0.863D-01
 Coeff:      0.111D+01
 Gap=     0.308 Goal=   None    Shift=    0.000
 RMSDP=7.04D-07 MaxDP=3.48D-05 DE=-9.95D-08 OVMax= 3.31D-05

 Cycle   8  Pass 1  IDiag  1:
 E= -829.677583397047     Delta-E=       -0.000000002743 Rises=F Damp=F
 DIIS: error= 8.40D-07 at cycle   8 NSaved=   8.
 NSaved= 8 IEnMin= 8 EnMin= -829.677583397047     IErMin= 8 ErrMin= 8.40D-07
 ErrMax= 8.40D-07  0.00D+00 EMaxC= 1.00D-01 BMatC= 7.39D-11 BMatP= 8.31D-10
 IDIUse=1 WtCom= 1.00D+00 WtEn= 0.00D+00
 Coeff-Com:  0.228D-04-0.216D-02-0.666D-03 0.171D-01 0.765D-02-0.102D+00
 Coeff-Com: -0.147D-01 0.109D+01
 Coeff:      0.228D-04-0.216D-02-0.666D-03 0.171D-01 0.765D-02-0.102D+00
 Coeff:     -0.147D-01 0.109D+01
 Gap=     0.308 Goal=   None    Shift=    0.000
 RMSDP=2.59D-07 MaxDP=1.81D-05 DE=-2.74D-09 OVMax= 1.10D-05

 Cycle   9  Pass 1  IDiag  1:
 E= -829.677583397300     Delta-E=       -0.000000000253 Rises=F Damp=F
 DIIS: error= 2.68D-07 at cycle   9 NSaved=   9.
 NSaved= 9 IEnMin= 9 EnMin= -829.677583397300     IErMin= 9 ErrMin= 2.68D-07
 ErrMax= 2.68D-07  0.00D+00 EMaxC= 1.00D-01 BMatC= 9.00D-12 BMatP= 7.39D-11
 IDIUse=1 WtCom= 1.00D+00 WtEn= 0.00D+00
 Coeff-Com: -0.647D-06 0.514D-03 0.376D-04-0.488D-02 0.138D-02 0.316D-01
 Coeff-Com: -0.918D-01-0.191D+00 0.125D+01
 Coeff:     -0.647D-06 0.514D-03 0.376D-04-0.488D-02 0.138D-02 0.316D-01
 Coeff:     -0.918D-01-0.191D+00 0.125D+01
 Gap=     0.308 Goal=   None    Shift=    0.000
 RMSDP=6.96D-08 MaxDP=3.13D-06 DE=-2.53D-10 OVMax= 4.27D-06

 Cycle  10  Pass 1  IDiag  1:
 E= -829.677583397342     Delta-E=       -0.000000000042 Rises=F Damp=F
 DIIS: error= 1.16D-07 at cycle  10 NSaved=  10.
 NSaved=10 IEnMin=10 EnMin= -829.677583397342     IErMin=10 ErrMin= 1.16D-07
 ErrMax= 1.16D-07  0.00D+00 EMaxC= 1.00D-01 BMatC= 1.68D-12 BMatP= 9.00D-12
 IDIUse=1 WtCom= 1.00D+00 WtEn= 0.00D+00
 Coeff-Com: -0.442D-05 0.380D-03 0.130D-03-0.303D-02-0.134D-02 0.178D-01
 Coeff-Com: -0.445D-02-0.153D+00-0.679D-01 0.121D+01
 Coeff:     -0.442D-05 0.380D-03 0.130D-03-0.303D-02-0.134D-02 0.178D-01
 Coeff:     -0.445D-02-0.153D+00-0.679D-01 0.121D+01
 Gap=     0.308 Goal=   None    Shift=    0.000
 RMSDP=2.73D-08 MaxDP=1.25D-06 DE=-4.16D-11 OVMax= 2.52D-06

 Cycle  11  Pass 1  IDiag  1:
 E= -829.677583397353     Delta-E=       -0.000000000012 Rises=F Damp=F
 DIIS: error= 4.39D-08 at cycle  11 NSaved=  11.
 NSaved=11 IEnMin=11 EnMin= -829.677583397353     IErMin=11 ErrMin= 4.39D-08
 ErrMax= 4.39D-08  0.00D+00 EMaxC= 1.00D-01 BMatC= 2.26D-13 BMatP= 1.68D-12
 IDIUse=1 WtCom= 1.00D+00 WtEn= 0.00D+00
 Coeff-Com:  0.904D-06-0.159D-03-0.387D-04 0.140D-02 0.136D-04-0.826D-02
 Coeff-Com:  0.106D-01 0.808D-01-0.185D+00-0.363D+00 0.146D+01
 Coeff:      0.904D-06-0.159D-03-0.387D-04 0.140D-02 0.136D-04-0.826D-02
 Coeff:      0.106D-01 0.808D-01-0.185D+00-0.363D+00 0.146D+01
 Gap=     0.308 Goal=   None    Shift=    0.000
 RMSDP=1.54D-08 MaxDP=9.87D-07 DE=-1.18D-11 OVMax= 1.28D-06

 Cycle  12  Pass 1  IDiag  1:
 E= -829.677583397357     Delta-E=       -0.000000000004 Rises=F Damp=F
 DIIS: error= 1.05D-08 at cycle  12 NSaved=  12.
 NSaved=12 IEnMin=12 EnMin= -829.677583397357     IErMin=12 ErrMin= 1.05D-08
 ErrMax= 1.05D-08  0.00D+00 EMaxC= 1.00D-01 BMatC= 1.61D-14 BMatP= 2.26D-13
 IDIUse=1 WtCom= 1.00D+00 WtEn= 0.00D+00
 Coeff-Com: -0.101D-06 0.406D-04 0.218D-05-0.360D-03 0.274D-04 0.247D-02
 Coeff-Com: -0.536D-02-0.197D-01 0.803D-01 0.414D-01-0.541D+00 0.144D+01
 Coeff:     -0.101D-06 0.406D-04 0.218D-05-0.360D-03 0.274D-04 0.247D-02
 Coeff:     -0.536D-02-0.197D-01 0.803D-01 0.414D-01-0.541D+00 0.144D+01
 Gap=     0.308 Goal=   None    Shift=    0.000
 RMSDP=4.54D-09 MaxDP=2.39D-07 DE=-3.87D-12 OVMax= 2.53D-07

 SCF Done:  E(RHF) =  -829.677583397     A.U. after   12 cycles
            NFock= 12  Conv=0.45D-08     -V/T= 2.2848
 KE= 6.457683336615D+02 PE=-2.210442640162D+03 EE= 5.840892625972D+02
 Leave Link  502 at Fri Nov  5 16:19:23 2021, MaxMem= 16106127360 cpu:              52.6 elap:               2.5
 (Enter /sw/contrib/gaussian/g16/B01/g16/l801.exe)
 ExpMin= 2.53D-02 ExpMax= 4.56D+05 ExpMxC= 1.44D+03 IAcc=3 IRadAn=         5 AccDes= 0.00D+00
 HarFok:  IExCor=  205 AccDes= 0.00D+00 IRadAn=         5 IDoV=-2 UseB2=F ITyADJ=14
 ICtDFT= 12500011 ScaDFX=  1.000000  1.000000  1.000000  1.000000
 Defaulting to unpruned grid for atomic number  53.
 Largest valence mixing into a core orbital is  4.48D-04
 Largest core mixing into a valence orbital is  1.60D-04
 Range of M.O.s used for correlation:    11   174
 NBasis=   174 NAE=    26 NBE=    26 NFC=    10 NFV=     0
 NROrb=    164 NOA=    16 NOB=    16 NVA=   148 NVB=   148

 **** Warning!!: The largest alpha MO coefficient is  0.18736420D+02

 Leave Link  801 at Fri Nov  5 16:19:24 2021, MaxMem= 16106127360 cpu:               2.9 elap:               0.2
 (Enter /sw/contrib/gaussian/g16/B01/g16/l906.exe)
 Frozen-core derivative calculation, NFC=  10 NFV=   0.
 FulOut=F Deriv=T AODrv=T NAtomX=     4
   MMem=         130  MDisk=          16 MDiskD=          16
  W3Min=      922896 MinDsk=     1491158 NBas6D=         204
 NBas2D=       21411    NTT=       20910    LW2=    26219120
    MDV= 16105674223 MDiskM=      394697 NBas2p=       21411
 Fully direct method using O(ONN) memory.
 IMap=   1   2   3   4   5   6   7   8   9  10  11  12  13  14  15  16  17  18  19  20
 IMap=  21  22  23  24  25  26
 JobTyp=1 Pass  1:  I=  11 to  26 NPSUse= 28 ParTrn=T ParDer=T DoDerP=T.
 Spin components of T(2) and E(2):
     alpha-alpha T2 =       0.3167232357D-01 E2=     -0.9253374075D-01
     alpha-beta  T2 =       0.1659270079D+00 E2=     -0.5010055099D+00
     beta-beta   T2 =       0.3167232357D-01 E2=     -0.9253374075D-01
 The integrals were generated   1 times.
 ANorm=    0.1108725239D+01
 E2 =    -0.6860729914D+00 EUMP2 =    -0.83036365638871D+03
 Leave Link  906 at Fri Nov  5 16:19:38 2021, MaxMem= 16106127360 cpu:             406.5 elap:              14.6
 (Enter /sw/contrib/gaussian/g16/B01/g16/l1002.exe)
 Minotr:  Closed shell wavefunction.
          Computing MP2/KS-MP2 derivatives.
          Using Z-Vector for PSCF gradient.
          Skipping F1 and S1 gradient terms here.
          IDoAtm=1111
          Frozen-core window.
          Direct CPHF calculation.
          Differentiating once with respect to electric field.
                with respect to dipole field.
          Differentiating once with respect to nuclear coordinates.
          Using symmetry in CPHF.
          Requested convergence is 1.0D-10 RMS, and 1.0D-09 maximum.
          NewPWx=F KeepS1=T KeepF1=T KeepIn=T MapXYZ=F SortEE=F KeepMc=T.
 Keep R1 ints in memory in symmetry-blocked form, NReq=174585663.
 FoFCou: FMM=F IPFlag=           0 FMFlag=           0 FMFlg1=           0
         NFxFlg=           0 DoJE=F BraDBF=F KetDBF=F FulRan=T
         wScrn=  0.000000 ICntrl=       600 IOpCl=  0 I1Cent=           0 NGrid=           0
         NMat0=    1 NMatS0=  15225 NMatT0=    0 NMatD0=    1 NMtDS0=    0 NMtDT0=    0
 Petite list used in FoFCou.
          MDV=   16106127360 using IRadAn=       5.
          Solving linear equations separately, MaxMat=       0.
          There are     1 degrees of freedom in the 1st order CPHF.  IDoFFX=0 NUNeed=     1.
 LinEq1:  Iter=  0 NonCon=     1 RMS=2.94D-03 Max=4.60D-02 NDo=     1
 AX will form     1 AO Fock derivatives at one time.
 LinEq1:  Iter=  1 NonCon=     1 RMS=4.74D-04 Max=5.22D-03 NDo=     1
 LinEq1:  Iter=  2 NonCon=     1 RMS=2.16D-04 Max=4.63D-03 NDo=     1
 LinEq1:  Iter=  3 NonCon=     1 RMS=6.74D-05 Max=1.09D-03 NDo=     1
 LinEq1:  Iter=  4 NonCon=     1 RMS=3.18D-05 Max=9.40D-04 NDo=     1
 LinEq1:  Iter=  5 NonCon=     1 RMS=8.08D-06 Max=1.29D-04 NDo=     1
 LinEq1:  Iter=  6 NonCon=     1 RMS=1.88D-06 Max=2.36D-05 NDo=     1
 LinEq1:  Iter=  7 NonCon=     1 RMS=4.25D-07 Max=5.69D-06 NDo=     1
 LinEq1:  Iter=  8 NonCon=     1 RMS=9.63D-08 Max=1.62D-06 NDo=     1
 LinEq1:  Iter=  9 NonCon=     1 RMS=3.10D-08 Max=7.86D-07 NDo=     1
 LinEq1:  Iter= 10 NonCon=     1 RMS=8.87D-09 Max=1.48D-07 NDo=     1
 LinEq1:  Iter= 11 NonCon=     1 RMS=2.20D-09 Max=4.42D-08 NDo=     1
 LinEq1:  Iter= 12 NonCon=     1 RMS=6.27D-10 Max=1.02D-08 NDo=     1
 LinEq1:  Iter= 13 NonCon=     1 RMS=1.71D-10 Max=3.54D-09 NDo=     1
 LinEq1:  Iter= 14 NonCon=     0 RMS=2.98D-11 Max=4.19D-10 NDo=     1
 Linear equations converged to 1.000D-10 1.000D-09 after    14 iterations.
 End of Minotr F.D. properties file   721 does not exist.
 End of Minotr F.D. properties file   722 does not exist.
 End of Minotr F.D. properties file   788 does not exist.
 Leave Link 1002 at Fri Nov  5 16:19:41 2021, MaxMem= 16106127360 cpu:              47.1 elap:               2.7
 (Enter /sw/contrib/gaussian/g16/B01/g16/l701.exe)
 ... and contract with generalized density number  2.
 Compute integral first derivatives.
   2 Symmetry operations used in ECPInt.
 ECPInt:  NShTT=    1596 NPrTT=   10643 LenC2=    1597 LenP2D=    8533.
 LDataN:  DoStor=T MaxTD1= 8 Len=  415
 Leave Link  701 at Fri Nov  5 16:19:42 2021, MaxMem= 16106127360 cpu:              20.9 elap:               0.8
 (Enter /sw/contrib/gaussian/g16/B01/g16/l702.exe)
 L702 exits ... SP integral derivatives will be done elsewhere.
 Leave Link  702 at Fri Nov  5 16:19:42 2021, MaxMem= 16106127360 cpu:               1.2 elap:               0.1
 (Enter /sw/contrib/gaussian/g16/B01/g16/l703.exe)
 Integral derivatives from FoFJK, PRISM(SPDF).
 Compute integral first derivatives, UseDBF=F ICtDFT=           0.
 Calling FoFJK, ICntrl=  10002127 FMM=F ISym2X=1 I1Cent= 0 IOpClX= 0 NMat=1 NMatS=1 NMatT=0.
 FoFJK:  IHMeth= 1 ICntrl=10002127 DoSepK=F KAlg= 0 I1Cent=           0 FoldK=F
 IRaf=         0 NMat=       1 IRICut=       1 DoRegI=T DoRafI=F ISym2E= 1 IDoP0=0 IntGTp=1.
 FoFCou: FMM=F IPFlag=           0 FMFlag=      100000 FMFlg1=         800
         NFxFlg=           0 DoJE=F BraDBF=F KetDBF=F FulRan=T
         wScrn=  0.000000 ICntrl=  10002127 IOpCl=  0 I1Cent=           0 NGrid=           0
         NMat0=    1 NMatS0=      1 NMatT0=    0 NMatD0=    1 NMtDS0=    0 NMtDT0=    0
 Petite list used in FoFCou.
 Leave Link  703 at Fri Nov  5 16:19:44 2021, MaxMem= 16106127360 cpu:              57.7 elap:               2.1
 (Enter /sw/contrib/gaussian/g16/B01/g16/l716.exe)
 Dipole        = 5.66948061D-01 2.71340142D-01 0.00000000D+00
 ***** Axes restored to original set *****
 -------------------------------------------------------------------
 Center     Atomic                   Forces (Hartrees/Bohr)
 Number     Number              X              Y              Z
 -------------------------------------------------------------------
      1        8           0.015690640    0.045622021   -0.000000000
      2       17          -0.005488356    0.001077679   -0.000000000
      3       53          -0.004712182   -0.016957428   -0.000000000
      4        1          -0.005490102   -0.029742271   -0.000000000
 -------------------------------------------------------------------
 Cartesian Forces:  Max     0.045622021 RMS     0.017280411
 -----------------------------------------------------------------------------------------------
                       Internal Coordinate Forces (Hartree/Bohr or radian)
  Cent   Atom   N1       Length/X         N2         Alpha/Y        N3         Beta/Z          J
 -----------------------------------------------------------------------------------------------
      1  O 
         X        1   0.000000(     1)
      2  Cl       1  -0.005488(     2)      2  -0.000000(     5)
      3  I        1   0.017575(     3)      2   0.000000(     6)      3   0.005413(     8)     0
      4  H        1   0.030226(     4)      2   0.000000(     7)      3  -0.001957(     9)     0
 -----------------------------------------------------------------------------------------------
 Internal  Forces:  Max     0.030225830 RMS     0.011952396
 Leave Link  716 at Fri Nov  5 16:19:44 2021, MaxMem= 16106127360 cpu:               1.0 elap:               0.1
 (Enter /sw/contrib/gaussian/g16/B01/g16/l103.exe)

 GradGradGradGradGradGradGradGradGradGradGradGradGradGradGradGradGradGrad
 Berny optimization.
 Search for a local minimum.
 Step number   2 out of a maximum of   20
 All quantities printed in internal units (Hartrees-Bohrs-Radians)
 Update second derivatives using D2CorN and points    1    2
 DE= -8.26D-03 DEPred=-7.01D-03 R= 1.18D+00
 TightC=F SS=  1.41D+00  RLast= 3.00D-01 DXNew= 5.0454D-01 9.0000D-01
 Trust test= 1.18D+00 RLast= 3.00D-01 DXMaxT set to 5.05D-01
 The second derivative matrix:
                          r1        r2        r3        a1        OOP
           r1           0.36254
           r2          -0.00065   0.07316
           r3           0.00000  -0.04581   0.61350
           a1          -0.00000   0.00346   0.00000   0.41000
           OOP          0.00000  -0.00000   0.00000   0.00000   0.87901
 ITU=  1  0
 Linear search step of   0.600 exceeds DXMaxT=   0.505 but not scaled.
 Quartic linear search produced a step of  2.00000.
 Variable       Old X    -DE/DX   Delta X   Delta X   Delta X     New X
                                 (Linear)    (Quad)   (Total)
    r1        3.20687  -0.00549   0.00000   0.00000   0.00000   3.20687
    r2        5.78904   0.01758   0.60000   0.00000   0.60000   6.38904
    r3        1.83043   0.03023   0.00000   0.00000   0.00000   1.83043
    a1        1.78869   0.00346   0.00000   0.00000   0.00000   1.78869
   OOP        1.57080   0.00000   0.00000   0.00000   0.00000   1.57080
         Item               Value     Threshold  Converged?
 Maximum Force            0.017575     0.000450     NO 
 RMS     Force            0.017575     0.000300     NO 
 Maximum Displacement     0.600000     0.001800     NO 
 RMS     Displacement     0.268328     0.001200     NO 
 Predicted change in Energy=-2.623484D-03
 Lowest energy point so far.  Saving SCF results.
 GradGradGradGradGradGradGradGradGradGradGradGradGradGradGradGradGradGrad

 Leave Link  103 at Fri Nov  5 16:19:44 2021, MaxMem= 16106127360 cpu:               0.5 elap:               0.0
 (Enter /sw/contrib/gaussian/g16/B01/g16/l202.exe)
 ---------------------------------------------------------------------------------------------------
                            Z-MATRIX (ANGSTROMS AND DEGREES)
   CD    Cent   Atom    N1       Length/X        N2       Alpha/Y        N3        Beta/Z          J
 ---------------------------------------------------------------------------------------------------
      1      1  O 
      2         X        1  10.000000(     1)
      3      2  Cl       1   1.697002(     2)      2   90.000(     5)
      4      3  I        1   3.380936(     3)      2   90.000(     6)      3  102.484(     8)      0
      5      4  H        1   0.968623(     4)      2   90.000(     7)      3  102.484(     9)      0
 ---------------------------------------------------------------------------------------------------
                         Z-Matrix orientation:                         
 ---------------------------------------------------------------------
 Center     Atomic      Atomic             Coordinates (Angstroms)
 Number     Number       Type             X           Y           Z
 ---------------------------------------------------------------------
      1          8           0        0.000000    0.000000    0.000000
      2         -1           0        0.000000    0.000000   10.000000
      3         17           0        1.697002    0.000000    0.000000
      4         53           0       -0.730864   -3.300994    0.000000
      5          1           0       -0.209389   -0.945721    0.000000
 ---------------------------------------------------------------------
                    Distance matrix (angstroms):
                    1          2          3          4          5
     1  O    0.000000
     2  X   10.000000   0.000000
     3  Cl   1.697002  10.142969   0.000000
     4  I    3.380936  10.556075   4.097694   0.000000
[...]
 (Enter /sw/contrib/gaussian/g16/B01/g16/l1002.exe)
 Minotr:  Closed shell wavefunction.
          Computing MP2/KS-MP2 derivatives.
          Using Z-Vector for PSCF gradient.
          Skipping F1 and S1 gradient terms here.
          IDoAtm=1111
          Frozen-core window.
          Direct CPHF calculation.
          Differentiating once with respect to electric field.
                with respect to dipole field.
          Differentiating once with respect to nuclear coordinates.
          Using symmetry in CPHF.
          Requested convergence is 1.0D-10 RMS, and 1.0D-09 maximum.
          NewPWx=F KeepS1=T KeepF1=T KeepIn=T MapXYZ=F SortEE=F KeepMc=T.
 Keep R1 ints in memory in symmetry-blocked form, NReq=174585663.
 FoFCou: FMM=F IPFlag=           0 FMFlag=           0 FMFlg1=           0
         NFxFlg=           0 DoJE=F BraDBF=F KetDBF=F FulRan=T
         wScrn=  0.000000 ICntrl=       600 IOpCl=  0 I1Cent=           0 NGrid=           0
         NMat0=    1 NMatS0=  15225 NMatT0=    0 NMatD0=    1 NMtDS0=    0 NMtDT0=    0
 Petite list used in FoFCou.
          MDV=   16106127360 using IRadAn=       5.
          Solving linear equations separately, MaxMat=       0.
          There are     1 degrees of freedom in the 1st order CPHF.  IDoFFX=0 NUNeed=     1.
 LinEq1:  Iter=  0 NonCon=     1 RMS=2.85D-03 Max=4.47D-02 NDo=     1
 AX will form     1 AO Fock derivatives at one time.
 LinEq1:  Iter=  1 NonCon=     1 RMS=4.48D-04 Max=5.08D-03 NDo=     1
 LinEq1:  Iter=  2 NonCon=     1 RMS=2.01D-04 Max=3.95D-03 NDo=     1
 LinEq1:  Iter=  3 NonCon=     1 RMS=6.19D-05 Max=9.85D-04 NDo=     1
 LinEq1:  Iter=  4 NonCon=     1 RMS=2.88D-05 Max=8.34D-04 NDo=     1
 LinEq1:  Iter=  5 NonCon=     1 RMS=7.71D-06 Max=1.18D-04 NDo=     1
 LinEq1:  Iter=  6 NonCon=     1 RMS=1.88D-06 Max=2.28D-05 NDo=     1
 LinEq1:  Iter=  7 NonCon=     1 RMS=4.27D-07 Max=7.61D-06 NDo=     1
 LinEq1:  Iter=  8 NonCon=     1 RMS=1.04D-07 Max=2.18D-06 NDo=     1
 LinEq1:  Iter=  9 NonCon=     1 RMS=3.24D-08 Max=6.53D-07 NDo=     1
 LinEq1:  Iter= 10 NonCon=     1 RMS=9.41D-09 Max=1.75D-07 NDo=     1
 LinEq1:  Iter= 11 NonCon=     1 RMS=2.05D-09 Max=3.75D-08 NDo=     1
 LinEq1:  Iter= 12 NonCon=     1 RMS=4.45D-10 Max=6.51D-09 NDo=     1
 LinEq1:  Iter= 13 NonCon=     1 RMS=1.28D-10 Max=1.99D-09 NDo=     1
 LinEq1:  Iter= 14 NonCon=     0 RMS=2.63D-11 Max=4.15D-10 NDo=     1
 Linear equations converged to 1.000D-10 1.000D-09 after    14 iterations.
 End of Minotr F.D. properties file   721 does not exist.
 End of Minotr F.D. properties file   722 does not exist.
 End of Minotr F.D. properties file   788 does not exist.
 Leave Link 1002 at Fri Nov  5 16:20:51 2021, MaxMem= 16106127360 cpu:              46.4 elap:               2.5
 (Enter /sw/contrib/gaussian/g16/B01/g16/l701.exe)
 ... and contract with generalized density number  2.
 Compute integral first derivatives.
   2 Symmetry operations used in ECPInt.
 ECPInt:  NShTT=    1596 NPrTT=   10643 LenC2=    1597 LenP2D=    8411.
 LDataN:  DoStor=T MaxTD1= 8 Len=  415
 Leave Link  701 at Fri Nov  5 16:20:52 2021, MaxMem= 16106127360 cpu:              23.7 elap:               0.9
 (Enter /sw/contrib/gaussian/g16/B01/g16/l702.exe)
 L702 exits ... SP integral derivatives will be done elsewhere.
 Leave Link  702 at Fri Nov  5 16:20:52 2021, MaxMem= 16106127360 cpu:               1.6 elap:               0.1
 (Enter /sw/contrib/gaussian/g16/B01/g16/l703.exe)
 Integral derivatives from FoFJK, PRISM(SPDF).
 Compute integral first derivatives, UseDBF=F ICtDFT=           0.
 Calling FoFJK, ICntrl=  10002127 FMM=F ISym2X=1 I1Cent= 0 IOpClX= 0 NMat=1 NMatS=1 NMatT=0.
 FoFJK:  IHMeth= 1 ICntrl=10002127 DoSepK=F KAlg= 0 I1Cent=           0 FoldK=F
 IRaf=         0 NMat=       1 IRICut=       1 DoRegI=T DoRafI=F ISym2E= 1 IDoP0=0 IntGTp=1.
 FoFCou: FMM=F IPFlag=           0 FMFlag=      100000 FMFlg1=         800
         NFxFlg=           0 DoJE=F BraDBF=F KetDBF=F FulRan=T
         wScrn=  0.000000 ICntrl=  10002127 IOpCl=  0 I1Cent=           0 NGrid=           0
         NMat0=    1 NMatS0=      1 NMatT0=    0 NMatD0=    1 NMtDS0=    0 NMtDT0=    0
 Petite list used in FoFCou.
 Leave Link  703 at Fri Nov  5 16:20:54 2021, MaxMem= 16106127360 cpu:              57.5 elap:               2.1
 (Enter /sw/contrib/gaussian/g16/B01/g16/l716.exe)
 Dipole        = 2.67698725D-01 7.91627884D-01 0.00000000D+00
 ***** Axes restored to original set *****
 -------------------------------------------------------------------
 Center     Atomic                   Forces (Hartrees/Bohr)
 Number     Number              X              Y              Z
 -------------------------------------------------------------------
      1        8           0.010943665    0.027926231   -0.000000000
      2       17          -0.004742775    0.000554120   -0.000000000
      3       53          -0.000430057    0.000095292   -0.000000000
      4        1          -0.005770833   -0.028575643   -0.000000000
 -------------------------------------------------------------------
 Cartesian Forces:  Max     0.028575643 RMS     0.012153542
 -----------------------------------------------------------------------------------------------
                       Internal Coordinate Forces (Hartree/Bohr or radian)
  Cent   Atom   N1       Length/X         N2         Alpha/Y        N3         Beta/Z          J
 -----------------------------------------------------------------------------------------------
      1  O 
         X        1   0.000000(     1)
      2  Cl       1  -0.004743(     2)      2  -0.000000(     5)
      3  I        1  -0.000000(     3)      2  -0.000000(     6)      3   0.002771(     8)     0
      4  H        1   0.029147(     4)      2   0.000000(     7)      3  -0.000994(     9)     0
 -----------------------------------------------------------------------------------------------
 Internal  Forces:  Max     0.029147473 RMS     0.009892382
 Leave Link  716 at Fri Nov  5 16:20:54 2021, MaxMem= 16106127360 cpu:               3.2 elap:               0.2
 (Enter /sw/contrib/gaussian/g16/B01/g16/l103.exe)

 GradGradGradGradGradGradGradGradGradGradGradGradGradGradGradGradGradGrad
 Berny optimization.
 Search for a local minimum.
 Step number   5 out of a maximum of   20
 All quantities printed in internal units (Hartrees-Bohrs-Radians)
 Update second derivatives using D2CorN and points    4    5
 DE= -1.24D-07 DEPred=-1.36D-07 R= 9.09D-01
 Trust test= 9.09D-01 RLast= 3.46D-03 DXMaxT set to 5.05D-01
 The second derivative matrix:
                          r1        r2        r3        a1        OOP
           r1           0.36254
           r2          -0.00136   0.02078
           r3           0.00000  -0.00006   0.61350
           a1          -0.00000   0.00226   0.00000   0.41000
           OOP          0.00000   0.00000   0.00000   0.00000   0.87901
 ITU=  0  1  0  1  0
     Eigenvalues ---    0.020781000.000001000.000001000.000001000.00000
 RFO step:  Lambda= 0.00000000D+00 EMin= 2.07796465D-02
 Quartic linear search produced a step of -0.00103.
 Variable       Old X    -DE/DX   Delta X   Delta X   Delta X     New X
                                 (Linear)    (Quad)   (Total)
    r1        3.20687  -0.00474   0.00000   0.00000   0.00000   3.20687
    r2        6.28993  -0.00000  -0.00000   0.00000  -0.00000   6.28992
    r3        1.83043   0.02915   0.00000   0.00000   0.00000   1.83043
    a1        1.78869   0.00178   0.00000   0.00000   0.00000   1.78869
   OOP        1.57080   0.00000   0.00000   0.00000   0.00000   1.57080
         Item               Value     Threshold  Converged?
 Maximum Force            0.000000     0.000450     YES
 RMS     Force            0.000000     0.000300     YES
 Maximum Displacement     0.000004     0.001800     YES
 RMS     Displacement     0.000002     0.001200     YES
 Predicted change in Energy=-1.276734D-13
 Optimization completed.
    -- Stationary point found.
                       ----------------------------
                       !   Optimized Parameters   !
                       ! (Angstroms and Degrees)  !
 ----------------------                            ----------------------
 !      Name          Value   Derivative information (Atomic Units)     !
 ------------------------------------------------------------------------
 !       r1          1.697    -DE/DX =   -0.0047                        !
 !       r2          3.3285   -DE/DX =    0.0                           !
 !       r3          0.9686   -DE/DX =    0.0291                        !
 !       a1        102.4843   -DE/DX =    0.0018                        !
 !       OOP        90.0      -DE/DX =    0.0                           !
 ------------------------------------------------------------------------
 Lowest energy point so far.  Saving SCF results.
 Largest change from initial coordinates is atom    2       0.695 Angstoms.
 GradGradGradGradGradGradGradGradGradGradGradGradGradGradGradGradGradGrad

 Leave Link  103 at Fri Nov  5 16:20:54 2021, MaxMem= 16106127360 cpu:               0.4 elap:               0.0
 (Enter /sw/contrib/gaussian/g16/B01/g16/l202.exe)
 ---------------------------------------------------------------------------------------------------
                            Z-MATRIX (ANGSTROMS AND DEGREES)
   CD    Cent   Atom    N1       Length/X        N2       Alpha/Y        N3        Beta/Z          J
 ---------------------------------------------------------------------------------------------------
      1      1  O 
      2         X        1  10.000000(     1)
      3      2  Cl       1   1.697002(     2)      2   90.000(     5)
      4      3  I        1   3.328486(     3)      2   90.000(     6)      3  102.484(     8)      0
      5      4  H        1   0.968623(     4)      2   90.000(     7)      3  102.484(     9)      0
 ---------------------------------------------------------------------------------------------------
                         Z-Matrix orientation:                         
 ---------------------------------------------------------------------
 Center     Atomic      Atomic             Coordinates (Angstroms)
 Number     Number       Type             X           Y           Z
 ---------------------------------------------------------------------
      1          8           0        0.000000    0.000000    0.000000
      2         -1           0        0.000000    0.000000   10.000000
      3         17           0        1.697002    0.000000    0.000000
      4         53           0       -0.719526   -3.249785    0.000000
      5          1           0       -0.209389   -0.945721    0.000000
 ---------------------------------------------------------------------
                    Distance matrix (angstroms):
                    1          2          3          4          5
     1  O    0.000000
     2  X   10.000000   0.000000
     3  Cl   1.697002  10.142969   0.000000
     4  I    3.328486  10.539394   4.049779   0.000000
     5  H    0.968623  10.046802   2.128077   2.359863   0.000000
 Stoichiometry    ClHIO(1-)
 Framework group  CS[SG(ClHIO)]
 Deg. of freedom     5
 Full point group                 CS      NOp   2
 RotChk:  IX=3 Diff= 1.64D-16
 Largest Abelian subgroup         CS      NOp   2
 Largest concise Abelian subgroup C1      NOp   1
                         Standard orientation:                         
 ---------------------------------------------------------------------
 Center     Atomic      Atomic             Coordinates (Angstroms)
 Number     Number       Type             X           Y           Z
 ---------------------------------------------------------------------
      1          8           0       -0.976269    1.966498    0.000000
      2         17           0        0.500136    2.803182    0.000000
      3         53           0       -0.000000   -1.215595    0.000000
      4          1           0       -0.692165    1.040477    0.000000
 ---------------------------------------------------------------------
 Rotational constants (GHZ):          21.2035123           0.9668162           0.9246548
 Leave Link  202 at Fri Nov  5 16:20:54 2021, MaxMem= 16106127360 cpu:               0.4 elap:               0.0
 (Enter /sw/contrib/gaussian/g16/B01/g16/l601.exe)
 Copying SCF densities to generalized density rwf, IOpCl= 0 IROHF=0.

 **********************************************************************

            Population analysis using the MP2 Density.

 **********************************************************************

 Orbital symmetries:
       Occupied  (A') (A') (A') (A') (A') (A") (A') (A') (A") (A')
                 (A') (A") (A') (A") (A') (A') (A') (A') (A') (A")
                 (A') (A') (A") (A') (A") (A')
       Virtual   (A') (A') (A') (A") (A') (A') (A") (A') (A') (A')
                 (A") (A') (A') (A") (A') (A") (A') (A') (A') (A")
                 (A') (A') (A") (A') (A") (A') (A') (A') (A') (A')
                 (A") (A") (A') (A") (A') (A") (A') (A') (A') (A')
                 (A") (A') (A") (A") (A') (A') (A') (A") (A") (A')
                 (A') (A") (A') (A') (A") (A') (A') (A") (A') (A')
                 (A") (A') (A") (A') (A') (A') (A") (A') (A") (A')
                 (A") (A') (A") (A') (A') (A") (A") (A') (A') (A')
                 (A') (A") (A') (A') (A') (A") (A") (A') (A') (A')
                 (A") (A') (A") (A') (A") (A') (A') (A") (A') (A')
                 (A") (A') (A") (A') (A') (A") (A') (A") (A') (A')
                 (A") (A') (A') (A") (A") (A') (A') (A") (A') (A')
                 (A') (A") (A") (A') (A") (A') (A') (A') (A') (A')
                 (A") (A') (A') (A') (A") (A') (A") (A') (A") (A")
                 (A') (A') (A") (A') (A') (A') (A') (A')
 The electronic state is 1-A'.
 Alpha  occ. eigenvalues -- -104.74500 -20.47940 -10.46435  -7.93149  -7.92879
 Alpha  occ. eigenvalues --   -7.92869  -7.47628  -5.30204  -5.30149  -5.30146
 Alpha  occ. eigenvalues --   -2.02960  -2.02925  -2.02922  -2.02864  -2.02864
 Alpha  occ. eigenvalues --   -1.25075  -0.91328  -0.64214  -0.56026  -0.45697
 Alpha  occ. eigenvalues --   -0.44797  -0.32279  -0.29688  -0.16121  -0.15147
 Alpha  occ. eigenvalues --   -0.15138
 Alpha virt. eigenvalues --    0.15184   0.17487   0.21550   0.22585   0.24039
 Alpha virt. eigenvalues --    0.25013   0.25282   0.27099   0.29503   0.30490
 Alpha virt. eigenvalues --    0.30553   0.31207   0.34601   0.37477   0.37936
 Alpha virt. eigenvalues --    0.39022   0.41984   0.42657   0.44745   0.50198
 Alpha virt. eigenvalues --    0.52701   0.54339   0.55526   0.56026   0.56645
 Alpha virt. eigenvalues --    0.58525   0.63847   0.66096   0.73964   0.75411
 Alpha virt. eigenvalues --    0.75843   0.77013   0.77354   0.79270   0.79286
 Alpha virt. eigenvalues --    0.81088   0.82083   0.83052   0.83699   0.86105
 Alpha virt. eigenvalues --    0.86996   0.87580   0.88269   0.89184   0.89755
 Alpha virt. eigenvalues --    0.92978   0.95476   0.95850   0.99343   1.01643
 Alpha virt. eigenvalues --    1.03714   1.07929   1.08952   1.11032   1.11420
 Alpha virt. eigenvalues --    1.13094   1.19144   1.19182   1.20967   1.23863
 Alpha virt. eigenvalues --    1.25172   1.33179   1.33479   1.40164   1.44186
 Alpha virt. eigenvalues --    1.49365   1.53347   1.54325   1.59937   1.60455
 Alpha virt. eigenvalues --    1.66130   1.67780   1.71305   1.73219   1.74447
 Alpha virt. eigenvalues --    1.74581   1.76365   1.77551   1.80605   1.85761
 Alpha virt. eigenvalues --    1.87874   1.89747   1.89967   1.96292   2.05292
 Alpha virt. eigenvalues --    2.05301   2.10599   2.13638   2.14800   2.28252
 Alpha virt. eigenvalues --    2.36724   2.49342   2.52028   2.54439   2.56440
 Alpha virt. eigenvalues --    2.57167   2.58999   2.66969   2.68835   2.70096
 Alpha virt. eigenvalues --    2.70721   2.72069   2.75481   2.77943   2.89450
 Alpha virt. eigenvalues --    2.96741   3.01870   3.07460   3.17551   3.19222
 Alpha virt. eigenvalues --    3.20324   3.23746   3.27753   3.28381   3.29302
 Alpha virt. eigenvalues --    3.35686   3.50574   3.52459   3.53644   3.86453
 Alpha virt. eigenvalues --    3.94884   4.32304   4.43330   4.53664   4.56991
 Alpha virt. eigenvalues --    4.57106   4.77208   4.99819   5.17943   5.46651
 Alpha virt. eigenvalues --    5.47854   5.71775   6.36975   6.55684   6.83117
 Alpha virt. eigenvalues --    6.89317   6.89762   6.97155   7.31423   7.36102
 Alpha virt. eigenvalues --    7.41459   7.43822   7.50531   7.78445   7.80944
 Alpha virt. eigenvalues --    8.39174  15.46509  59.21521
          Condensed to atoms (all electrons):
               1          2          3          4
     1  O    8.664425  -0.105435  -0.081316  -0.010521
     2  Cl  -0.105435  17.041778   0.007350  -0.004154
     3  I   -0.081316   0.007350  25.890225   0.042077
     4  H   -0.010521  -0.004154   0.042077   0.707570
 Mulliken charges:
               1
     1  O   -0.467154
     2  Cl   0.060461
     3  I   -0.858336
     4  H    0.265028
 Sum of Mulliken charges =  -1.00000
 Mulliken charges with hydrogens summed into heavy atoms:
               1
     1  O   -0.202125
     2  Cl   0.060461
     3  I   -0.858336
 Electronic spatial extent (au):  <R**2>=            896.7172
 Charge=             -1.0000 electrons
 Dipole moment (field-independent basis, Debye):
    X=              0.6804    Y=              2.0121    Z=              0.0000  Tot=              2.1241
 Quadrupole moment (field-independent basis, Debye-Ang):
   XX=            -53.3990   YY=            -67.1690   ZZ=            -53.3356
   XY=              2.2492   XZ=              0.0000   YZ=              0.0000
 Traceless Quadrupole moment (field-independent basis, Debye-Ang):
   XX=              4.5689   YY=             -9.2012   ZZ=              4.6323
   XY=              2.2492   XZ=              0.0000   YZ=              0.0000
 Octapole moment (field-independent basis, Debye-Ang**2):
  XXX=              1.4728  YYY=            -42.2553  ZZZ=              0.0000  XYY=              7.1142
  XXY=             -9.2521  XXZ=              0.0000  XZZ=             -0.4699  YZZ=             -9.8151
  YYZ=              0.0000  XYZ=              0.0000
 Hexadecapole moment (field-independent basis, Debye-Ang**3):
 XXXX=           -139.0929 YYYY=          -1201.6241 ZZZZ=            -87.7468 XXXY=            -11.6363
 XXXZ=              0.0000 YYYX=             -1.9582 YYYZ=              0.0000 ZZZX=              0.0000
 ZZZY=              0.0000 XXYY=           -210.6518 XXZZ=            -38.9186 YYZZ=           -208.7956
 XXYZ=              0.0000 YYXZ=              0.0000 ZZXY=             -7.5481
 N-N= 1.439436841928D+02 E-N=-2.195785268871D+03  KE= 6.460592692416D+02
 Symmetry A'   KE= 5.568163480634D+02
 Symmetry A"   KE= 8.924292117821D+01
 No NMR shielding tensors so no spin-rotation constants.
 Leave Link  601 at Fri Nov  5 16:20:54 2021, MaxMem= 16106127360 cpu:               3.9 elap:               0.2
 (Enter /sw/contrib/gaussian/g16/B01/g16/l9999.exe)
 1\1\GINC-N2096\POpt\RMP2-FC\Gen\Cl1H1I1O1(1-)\CGAVINH\05-Nov-2021\1\\#
 p opt=(z-matrix) mp2/gen Pseudo=read density=current\\title\\-1,1\O\X,
 1,10.\Cl,1,r1,2,90.\I,1,r2,2,90.,3,a1,0\H,1,r3,2,OOP,3,a1,0\\r2=3.3284
 8634\r1=1.69700154\r3=0.96862334\a1=102.48429983\OOP=90.\\Version=ES64
 L-G16RevB.01\State=1-A'\HF=-829.6867201\MP2=-830.3673626\RMSD=5.849e-0
 9\RMSF=1.215e-02\Dipole=0.2676987,0.7916279,0.\Quadrupole=3.3968439,-6
 .8408334,3.4439895,1.6722502,0.,0.\PG=CS [SG(Cl1H1I1O1)]\\@


 LET US PLACE AT THE END OF EVERY CHAPTER.....THE
 TWO LETTERS USED BY THE ROMAN JUDGES WHEN THEY DID
 NOT UNDERSTAND A PLEADING.
 N. L. -NON LIQUET- IT IS NOT CLEAR.
                                              -- VOLTAIRE
 Job cpu time:       0 days  0 hours 50 minutes 51.6 seconds.
 Elapsed time:       0 days  0 hours  1 minutes 59.3 seconds.
 File lengths (MBytes):  RWF=     20 Int=      0 D2E=      0 Chk=      8 Scr=      1
 Normal termination of Gaussian 16 at Fri Nov  5 16:20:54 2021.
