 Entering Gaussian System, Link 0=g16
 Input=ihocl_oop_40_sp.gjf
 Output=ihocl_oop_40_sp.log
 Initial command:
 /sw/contrib/gaussian/g16/B01/g16/l1.exe "/scr/Gau-4318.inp" -scrdir="/scr/"
 Entering Link 1 = /sw/contrib/gaussian/g16/B01/g16/l1.exe PID=      4319.
  
 Copyright (c) 1988-2017, Gaussian, Inc.  All Rights Reserved.
  
 This is part of the Gaussian(R) 16 program.  It is based on
 the Gaussian(R) 09 system (copyright 2009, Gaussian, Inc.),
 the Gaussian(R) 03 system (copyright 2003, Gaussian, Inc.),
 the Gaussian(R) 98 system (copyright 1998, Gaussian, Inc.),
 the Gaussian(R) 94 system (copyright 1995, Gaussian, Inc.),
 the Gaussian 92(TM) system (copyright 1992, Gaussian, Inc.),
 the Gaussian 90(TM) system (copyright 1990, Gaussian, Inc.),
 the Gaussian 88(TM) system (copyright 1988, Gaussian, Inc.),
 the Gaussian 86(TM) system (copyright 1986, Carnegie Mellon
 University), and the Gaussian 82(TM) system (copyright 1983,
 Carnegie Mellon University). Gaussian is a federally registered
 trademark of Gaussian, Inc.
  
 This software contains proprietary and confidential information,
 including trade secrets, belonging to Gaussian, Inc.
  
 This software is provided under written license and may be
 used, copied, transmitted, or stored only in accord with that
 written license.
  
 The following legend is applicable only to US Government
 contracts under FAR:
  
                    RESTRICTED RIGHTS LEGEND
  
 Use, reproduction and disclosure by the US Government is
 subject to restrictions as set forth in subparagraphs (a)
 and (c) of the Commercial Computer Software - Restricted
 Rights clause in FAR 52.227-19.
  
 Gaussian, Inc.
 340 Quinnipiac St., Bldg. 40, Wallingford CT 06492
  
  
 ---------------------------------------------------------------
 Warning -- This program may not be used in any manner that
 competes with the business of Gaussian, Inc. or will provide
 assistance to any competitor of Gaussian, Inc.  The licensee
 of this program is prohibited from giving any competitor of
 Gaussian, Inc. access to this program.  By using this program,
 the user acknowledges that Gaussian, Inc. is engaged in the
 business of creating and licensing software in the field of
 computational chemistry and represents and warrants to the
 licensee that it is not a competitor of Gaussian, Inc. and that
 it will not use this program in any manner prohibited above.
 ---------------------------------------------------------------
  

 Cite this work as:
 Gaussian 16, Revision B.01,
 M. J. Frisch, G. W. Trucks, H. B. Schlegel, G. E. Scuseria, 
 M. A. Robb, J. R. Cheeseman, G. Scalmani, V. Barone, 
 G. A. Petersson, H. Nakatsuji, X. Li, M. Caricato, A. V. Marenich, 
 J. Bloino, B. G. Janesko, R. Gomperts, B. Mennucci, H. P. Hratchian, 
 J. V. Ortiz, A. F. Izmaylov, J. L. Sonnenberg, D. Williams-Young, 
 F. Ding, F. Lipparini, F. Egidi, J. Goings, B. Peng, A. Petrone, 
 T. Henderson, D. Ranasinghe, V. G. Zakrzewski, J. Gao, N. Rega, 
 G. Zheng, W. Liang, M. Hada, M. Ehara, K. Toyota, R. Fukuda, 
 J. Hasegawa, M. Ishida, T. Nakajima, Y. Honda, O. Kitao, H. Nakai, 
 T. Vreven, K. Throssell, J. A. Montgomery, Jr., J. E. Peralta, 
 F. Ogliaro, M. J. Bearpark, J. J. Heyd, E. N. Brothers, K. N. Kudin, 
 V. N. Staroverov, T. A. Keith, R. Kobayashi, J. Normand, 
 K. Raghavachari, A. P. Rendell, J. C. Burant, S. S. Iyengar, 
 J. Tomasi, M. Cossi, J. M. Millam, M. Klene, C. Adamo, R. Cammi, 
 J. W. Ochterski, R. L. Martin, K. Morokuma, O. Farkas, 
 J. B. Foresman, and D. J. Fox, Gaussian, Inc., Wallingford CT, 2016.
 
 ******************************************
 Gaussian 16:  ES64L-G16RevB.01 20-Dec-2017
                 5-Nov-2021 
 ******************************************
 %nproc=28
 Will use up to   28 processors via shared memory.
 %mem=120GB
 %chk=/gscratch/ilahie/mccoygrp/coire_hocl/oop_s_rOH_f/ihocl/ihocl_oop_40_sp.chk
 --------------------------------------------------------
 #p pop=NBO SP NoSymm mp2/gen Pseudo=read density=current
 --------------------------------------------------------
 1/30=1,38=1,172=1/1;
 2/12=2,15=1,17=6,18=5,40=1/2;
 3/5=7,11=9,16=1,17=8,25=1,30=1,71=1/1,2,3;
 4//1;
 5/5=2,38=5/2;
 8/6=4,10=1/1;
 9/15=1,16=-3/6;
 10/5=1,13=10,31=1/2;
 6/7=2,8=2,9=2,10=2,22=-1,40=1/1,7;
 99/5=1,9=1/99;
 Leave Link    1 at Fri Nov  5 16:38:05 2021, MaxMem= 16106127360 cpu:               2.0 elap:               0.1
 (Enter /sw/contrib/gaussian/g16/B01/g16/l101.exe)
 -----
 title
 -----
 Symbolic Z-matrix:
 Charge = -1 Multiplicity = 1
 O
 X                    1     10. 
 Cl                   1    r1       2     90. 
 I                    1    r2       2     90.      3    a1       0
 H                    1    r3       2    oop      3    a1       0
       Variables:
  r1                    1.6974                   
  r2                    3.32849                  
  r3                    0.96862                  
  a1                  102.4843                   
  OOP                  50.                       
 
 ITRead=  0  0  0  0
 MicOpt= -1 -1 -1 -1
 NAtoms=      4 NQM=        4 NQMF=       0 NMMI=      0 NMMIF=      0
                NMic=       0 NMicF=      0.
                    Isotopes and Nuclear Properties:
 (Nuclear quadrupole moments (NQMom) in fm**2, nuclear magnetic moments (NMagM)
  in nuclear magnetons)

  Atom         1           2           3           4
 IAtWgt=          16          35         127           1
 AtmWgt=  15.9949146  34.9688527 126.9004000   1.0078250
 NucSpn=           0           3           5           1
 AtZEff=  -0.0000000  -0.0000000  -0.0000000  -0.0000000
 NQMom=    0.0000000  -8.1650000 -71.0000000   0.0000000
 NMagM=    0.0000000   0.8218740   2.8132800   2.7928460
 AtZNuc=   8.0000000  17.0000000  53.0000000   1.0000000
 Leave Link  101 at Fri Nov  5 16:38:05 2021, MaxMem= 16106127360 cpu:               2.5 elap:               0.1
 (Enter /sw/contrib/gaussian/g16/B01/g16/l202.exe)
                          Input orientation:                          
 ---------------------------------------------------------------------
 Center     Atomic      Atomic             Coordinates (Angstroms)
 Number     Number       Type             X           Y           Z
 ---------------------------------------------------------------------
      1          8           0        0.000000    0.000000    0.000000
      2         17           0        1.697402    0.000000    0.000000
      3         53           0       -0.719526   -3.249785    0.000000
      4          1           0       -0.160402   -0.724464    0.622619
 ---------------------------------------------------------------------
                    Distance matrix (angstroms):
                    1          2          3          4
     1  O    0.000000
     2  Cl   1.697402   0.000000
     3  I    3.328486   4.050018   0.000000
     4  H    0.968623   2.089003   2.660361   0.000000
 Symmetry turned off by external request.
 Stoichiometry    ClHIO(1-)
 Framework group  C1[X(ClHIO)]
 Deg. of freedom     6
 Full point group                 C1      NOp   1
 Rotational constants (GHZ):          20.7572965           0.9650401           0.9234344
 Leave Link  202 at Fri Nov  5 16:38:05 2021, MaxMem= 16106127360 cpu:               1.1 elap:               0.1
 (Enter /sw/contrib/gaussian/g16/B01/g16/l301.exe)
 General basis read from cards:  (5D, 7F)
 Centers:       4      1      2
 aug-cc-pVTZ
 ****
 Centers:       3
 S 11 1.40
     Exponent=  5.5465400000D+03 Coefficients=  1.5640400000D-04
     Exponent=  8.3821400000D+02 Coefficients=  9.8640400000D-04
     Exponent=  1.8218700000D+02 Coefficients=  2.7924000000D-03
     Exponent=  3.1212300000D+01 Coefficients= -4.3251400000D-02
     Exponent=  1.9531400000D+01 Coefficients=  2.3413400000D-01
     Exponent=  8.2409900000D+40 Coefficients= -7.5094300000D-01
     Exponent=  2.1945500000D+40 Coefficients=  8.8296800000D-01
     Exponent=  1.1091100000D+40 Coefficients=  4.6206100000D-01
     Exponent=  3.7464100000D-01 Coefficients=  2.2286400000D-02
     Exponent=  1.7708400000D-01 Coefficients= -4.3534000000D-03
     Exponent=  8.1061400000D-02 Coefficients=  1.1024000000D-03
 S 11 1.40
     Exponent=  5.5465400000D+03 Coefficients= -7.3404000000D-05
     Exponent=  8.3821400000D+02 Coefficients= -5.0840400000D-04
     Exponent=  1.8218700000D+02 Coefficients= -1.1584000000D-03
     Exponent=  3.1212300000D+01 Coefficients=  1.2193400000D-02
     Exponent=  1.9531400000D+01 Coefficients= -8.7854400000D-02
     Exponent=  8.2409900000D+40 Coefficients=  3.3824000000D-01
     Exponent=  2.1945500000D+40 Coefficients= -5.7655400000D-01
     Exponent=  1.1091100000D+40 Coefficients= -4.0929800000D-01
     Exponent=  3.7464100000D-01 Coefficients=  5.6745900000D-01
     Exponent=  1.7708400000D-01 Coefficients=  6.1248900000D-01
     Exponent=  8.1061400000D-02 Coefficients=  1.4323100000D-01
 S 1 1.40
     Exponent=  3.7464100000D-01 Coefficients=  1.4040400000D+40
 S 1 1.40
     Exponent=  1.7708400000D-01 Coefficients=  1.4040400000D+40
 S 1 1.40
     Exponent=  1.4014000000D-01 Coefficients=  1.4040400000D+40
 S 1 1.40
     Exponent=  4.1240400000D-02 Coefficients=  1.4040400000D+40
 P 9 1.40
     Exponent=  1.8898800000D+02 Coefficients=  5.8540400000D-04
     Exponent=  2.1286800000D+01 Coefficients=  3.6923400000D-02
     Exponent=  1.4039600000D+01 Coefficients= -2.3532400000D-01
     Exponent=  3.4518400000D+40 Coefficients=  3.4148300000D-01
     Exponent=  1.9745600000D+40 Coefficients=  5.3478800000D-01
     Exponent=  1.0242400000D+40 Coefficients=  2.6514100000D-01
     Exponent=  4.4943700000D-01 Coefficients=  2.5787400000D-02
     Exponent=  1.8664800000D-01 Coefficients=  5.2240400000D-04
     Exponent=  7.3481400000D-02 Coefficients=  6.0640400000D-04
 P 9 1.40
     Exponent=  1.8898800000D+02 Coefficients= -2.5640400000D-04
     Exponent=  2.1286800000D+01 Coefficients= -1.1682400000D-02
     Exponent=  1.4039600000D+01 Coefficients=  8.3192400000D-02
     Exponent=  3.4518400000D+40 Coefficients= -1.5697400000D-01
     Exponent=  1.9745600000D+40 Coefficients= -2.2451800000D-01
     Exponent=  1.0242400000D+40 Coefficients= -1.1445100000D-01
     Exponent=  4.4943700000D-01 Coefficients=  3.7535600000D-01
     Exponent=  1.8664800000D-01 Coefficients=  5.7513600000D-01
     Exponent=  7.3481400000D-02 Coefficients=  2.4591700000D-01
 P 1 1.40
     Exponent=  5.9814000000D-01 Coefficients=  1.4040400000D+40
 P 1 1.40
     Exponent=  9.6184000000D-02 Coefficients=  1.4040400000D+40
 P 1 1.40
     Exponent=  3.5940400000D-02 Coefficients=  1.4040400000D+40
 D 9 1.40
     Exponent=  1.3266200000D+02 Coefficients=  5.7240400000D-04
     Exponent=  3.7605400000D+01 Coefficients=  4.4024000000D-03
     Exponent=  1.0389100000D+01 Coefficients= -4.0922400000D-02
     Exponent=  6.4901700000D+40 Coefficients=  9.9661400000D-02
     Exponent=  3.4545100000D+40 Coefficients=  3.2266300000D-01
     Exponent=  1.8441300000D+40 Coefficients=  4.4034300000D-01
     Exponent=  9.6247800000D-01 Coefficients=  2.6830600000D-01
     Exponent=  4.7285300000D-01 Coefficients=  8.4847400000D-02
     Exponent=  1.9324000000D-01 Coefficients=  7.6324000000D-03
 D 1 1.40
     Exponent=  4.7285300000D-01 Coefficients=  1.4040400000D+40
 D 1 1.40
     Exponent=  1.9324000000D-01 Coefficients=  1.4040400000D+40
 D 1 1.40
     Exponent=  7.8240400000D-02 Coefficients=  1.4040400000D+40
 F 1 1.40
     Exponent=  4.0644000000D-01 Coefficients=  1.4040400000D+40
 F 1 1.40
     Exponent=  1.8484000000D-01 Coefficients=  1.4040400000D+40
 ****
 ======================================================================================================
                                       Pseudopotential Parameters
 ======================================================================================================
  Center     Atomic      Valence      Angular      Power
  Number     Number     Electrons     Momentum     of R      Exponent        Coefficient   SO-Coeffient
 ======================================================================================================
    1          8
                                   No pseudopotential on this center.
    2         17
                                   No pseudopotential on this center.
    3         53           25
                                      G and up 
                                                     2        1.4040400        0.40404000    0.00000000
                                      S - G
                                                     2       40.0333760       49.98964900    0.00000000
                                                     2       17.3405760      281.40655600    0.00000000
                                                     2        8.8517200       61.41673900    0.00000000
                                      P - G
                                                     2       15.7201410       67.41623900    0.00000000
                                                     2       15.2082220      134.80769600    0.00000000
                                                     2        8.2941860       14.56654800    0.00000000
                                                     2        7.7539490       28.96842200    0.00000000
                                      D - G
                                                     2       13.8177510       35.53875600    0.00000000
                                                     2       13.5878050       53.33975900    0.00000000
                                                     2        6.9476300        9.71646600    0.00000000
                                                     2        6.9640990       14.97754000    0.00000000
                                      F - G
                                                     2       18.5229500      -20.17661800    0.00000000
                                                     2       18.2510350      -26.08807700    0.00000000
                                                     2        7.5579010       -0.22043400    0.00000000
                                                     2        7.5974040       -0.22164600    0.00000000
    4          1
                                   No pseudopotential on this center.
 ======================================================================================================
 Ernie: Thresh=  0.10000D-02 Tol=  0.10000D-05 Strict=F.
 Ernie:  23 primitive shells out of 166 were deleted.
   174 basis functions,   383 primitive gaussians,   204 cartesian basis functions
    26 alpha electrons       26 beta electrons
       nuclear repulsion energy       143.3762658564 Hartrees.
 IExCor=    0 DFT=F Ex=HF Corr=None ExCW=0 ScaHFX=  1.000000
 ScaDFX=  1.000000  1.000000  1.000000  1.000000 ScalE2=  1.000000  1.000000
 IRadAn=      5 IRanWt=     -1 IRanGd=            0 ICorTp=0 IEmpDi=  4
 NAtoms=    4 NActive=    4 NUniq=    4 SFac= 1.00D+00 NAtFMM=   60 NAOKFM=F Big=F
 Integral buffers will be    131072 words long.
 Raffenetti 1 integral format.
 Two-electron integral symmetry is turned off.
 Leave Link  301 at Fri Nov  5 16:38:05 2021, MaxMem= 16106127360 cpu:               3.4 elap:               0.2
 (Enter /sw/contrib/gaussian/g16/B01/g16/l302.exe)
 NPDir=0 NMtPBC=     1 NCelOv=     1 NCel=       1 NClECP=     1 NCelD=      1
         NCelK=      1 NCelE2=     1 NClLst=     1 CellRange=     0.0.
 One-electron integrals computed using PRISM.
   1 Symmetry operations used in ECPInt.
 ECPInt:  NShTT=    1596 NPrTT=   10643 LenC2=    1597 LenP2D=    8941.
 LDataN:  DoStor=T MaxTD1= 7 Len=  274
 NBasis=   174 RedAO= T EigKep=  2.96D-04  NBF=   174
 NBsUse=   174 1.00D-06 EigRej= -1.00D+00 NBFU=   174
 Leave Link  302 at Fri Nov  5 16:38:06 2021, MaxMem= 16106127360 cpu:               7.9 elap:               0.3
 (Enter /sw/contrib/gaussian/g16/B01/g16/l303.exe)
 DipDrv:  MaxL=1.
 Leave Link  303 at Fri Nov  5 16:38:06 2021, MaxMem= 16106127360 cpu:               0.9 elap:               0.1
 (Enter /sw/contrib/gaussian/g16/B01/g16/l401.exe)
 ExpMin= 2.53D-02 ExpMax= 1.62D+41 ExpMxC= 1.62D+41 IAcc=4 IRadAn=    399590 AccDes= 0.00D+00
 Harris functional with IExCor=  205 and IRadAn=  399590 diagonalized for initial guess.
 HarFok:  IExCor=  205 AccDes= 0.00D+00 IRadAn=    399590 IDoV= 1 UseB2=F ITyADJ=14
 ICtDFT=  3500011 ScaDFX=  1.000000  1.000000  1.000000  1.000000
 Spurious integrated density or basis function:
 NE=   51 NElCor=    0 El error=1.99D-07 rel=2.52D-09 Tolerance=1.00D-03
 Shell    37     absolute error=9.67D-01              Tolerance=1.20D-02
 Shell    28       signed error=8.91D-08              Tolerance=1.00D-01
 Inaccurate quadrature in CalDSu.
 Error termination via Lnk1e in /sw/contrib/gaussian/g16/B01/g16/l401.exe at Fri Nov  5 16:38:06 2021.
 Job cpu time:       0 days  0 hours  0 minutes 24.1 seconds.
 Elapsed time:       0 days  0 hours  0 minutes  1.1 seconds.
 File lengths (MBytes):  RWF=      6 Int=      0 D2E=      0 Chk=      8 Scr=      1
