 Entering Gaussian System, Link 0=g16
 Input=clhocl_30_sp.gjf
 Output=clhocl_30_sp.log
 Initial command:
 /sw/contrib/gaussian/g16/B01/g16/l1.exe "/scr/Gau-28489.inp" -scrdir="/scr/"
 Entering Link 1 = /sw/contrib/gaussian/g16/B01/g16/l1.exe PID=     28490.
  
 Copyright (c) 1988-2017, Gaussian, Inc.  All Rights Reserved.
  
 This is part of the Gaussian(R) 16 program.  It is based on
 the Gaussian(R) 09 system (copyright 2009, Gaussian, Inc.),
 the Gaussian(R) 03 system (copyright 2003, Gaussian, Inc.),
 the Gaussian(R) 98 system (copyright 1998, Gaussian, Inc.),
 the Gaussian(R) 94 system (copyright 1995, Gaussian, Inc.),
 the Gaussian 92(TM) system (copyright 1992, Gaussian, Inc.),
 the Gaussian 90(TM) system (copyright 1990, Gaussian, Inc.),
 the Gaussian 88(TM) system (copyright 1988, Gaussian, Inc.),
 the Gaussian 86(TM) system (copyright 1986, Carnegie Mellon
 University), and the Gaussian 82(TM) system (copyright 1983,
 Carnegie Mellon University). Gaussian is a federally registered
 trademark of Gaussian, Inc.
  
 This software contains proprietary and confidential information,
 including trade secrets, belonging to Gaussian, Inc.
  
 This software is provided under written license and may be
 used, copied, transmitted, or stored only in accord with that
 written license.
  
 The following legend is applicable only to US Government
 contracts under FAR:
  
                    RESTRICTED RIGHTS LEGEND
  
 Use, reproduction and disclosure by the US Government is
 subject to restrictions as set forth in subparagraphs (a)
 and (c) of the Commercial Computer Software - Restricted
 Rights clause in FAR 52.227-19.
  
 Gaussian, Inc.
 340 Quinnipiac St., Bldg. 40, Wallingford CT 06492
  
  
 ---------------------------------------------------------------
 Warning -- This program may not be used in any manner that
 competes with the business of Gaussian, Inc. or will provide
 assistance to any competitor of Gaussian, Inc.  The licensee
 of this program is prohibited from giving any competitor of
 Gaussian, Inc. access to this program.  By using this program,
 the user acknowledges that Gaussian, Inc. is engaged in the
 business of creating and licensing software in the field of
 computational chemistry and represents and warrants to the
 licensee that it is not a competitor of Gaussian, Inc. and that
 it will not use this program in any manner prohibited above.
 ---------------------------------------------------------------
  

 Cite this work as:
 Gaussian 16, Revision B.01,
 M. J. Frisch, G. W. Trucks, H. B. Schlegel, G. E. Scuseria, 
 M. A. Robb, J. R. Cheeseman, G. Scalmani, V. Barone, 
 G. A. Petersson, H. Nakatsuji, X. Li, M. Caricato, A. V. Marenich, 
 J. Bloino, B. G. Janesko, R. Gomperts, B. Mennucci, H. P. Hratchian, 
 J. V. Ortiz, A. F. Izmaylov, J. L. Sonnenberg, D. Williams-Young, 
 F. Ding, F. Lipparini, F. Egidi, J. Goings, B. Peng, A. Petrone, 
 T. Henderson, D. Ranasinghe, V. G. Zakrzewski, J. Gao, N. Rega, 
 G. Zheng, W. Liang, M. Hada, M. Ehara, K. Toyota, R. Fukuda, 
 J. Hasegawa, M. Ishida, T. Nakajima, Y. Honda, O. Kitao, H. Nakai, 
 T. Vreven, K. Throssell, J. A. Montgomery, Jr., J. E. Peralta, 
 F. Ogliaro, M. J. Bearpark, J. J. Heyd, E. N. Brothers, K. N. Kudin, 
 V. N. Staroverov, T. A. Keith, R. Kobayashi, J. Normand, 
 K. Raghavachari, A. P. Rendell, J. C. Burant, S. S. Iyengar, 
 J. Tomasi, M. Cossi, J. M. Millam, M. Klene, C. Adamo, R. Cammi, 
 J. W. Ochterski, R. L. Martin, K. Morokuma, O. Farkas, 
 J. B. Foresman, and D. J. Fox, Gaussian, Inc., Wallingford CT, 2016.
 
 ******************************************
 Gaussian 16:  ES64L-G16RevB.01 20-Dec-2017
                22-Sep-2021 
 ******************************************
 %nproc=28
 Will use up to   28 processors via shared memory.
 %mem=120GB
 %chk=/gscratch/ilahie/mccoygrp/coire_hocl/clhocl/clhocl_30_sp.chk
 ----------------------------------------------------
 #p pop=NBO SP NoSymm mp2/aug-cc-pvtz density=current
 ----------------------------------------------------
 1/30=1,38=1,172=1/1;
 2/12=2,15=1,17=6,18=5,40=1/2;
 3/5=16,6=1,7=10,11=9,25=1,30=1,71=1/1,2,3;
 4//1;
 5/5=2,38=5/2;
 8/6=4,10=1/1;
 9/15=1,16=-3/6;
 10/5=1,13=10,31=1/2;
 6/7=2,8=2,9=2,10=2,22=-1,40=1/1,7;
 99/5=1,9=1/99;
 Leave Link    1 at Wed Sep 22 16:32:10 2021, MaxMem= 16106127360 cpu:               1.8 elap:               0.1
 (Enter /sw/contrib/gaussian/g16/B01/g16/l101.exe)
 -----
 title
 -----
 Symbolic Z-matrix:
 Charge = -1 Multiplicity = 1
 O                     0.        0.        0. 
 Cl                    2.90468   0.        0. 
 Cl                   -0.39369   1.63605   0. 
 H                     0.86479   0.        0.49929 
 
 ITRead=  0  0  0  0
 MicOpt= -1 -1 -1 -1
 NAtoms=      4 NQM=        4 NQMF=       0 NMMI=      0 NMMIF=      0
                NMic=       0 NMicF=      0.
                    Isotopes and Nuclear Properties:
 (Nuclear quadrupole moments (NQMom) in fm**2, nuclear magnetic moments (NMagM)
  in nuclear magnetons)

  Atom         1           2           3           4
 IAtWgt=          16          35          35           1
 AtmWgt=  15.9949146  34.9688527  34.9688527   1.0078250
 NucSpn=           0           3           3           1
 AtZEff=  -0.0000000  -0.0000000  -0.0000000  -0.0000000
 NQMom=    0.0000000  -8.1650000  -8.1650000   0.0000000
 NMagM=    0.0000000   0.8218740   0.8218740   2.7928460
 AtZNuc=   8.0000000  17.0000000  17.0000000   1.0000000
 Leave Link  101 at Wed Sep 22 16:32:10 2021, MaxMem= 16106127360 cpu:               2.4 elap:               0.1
 (Enter /sw/contrib/gaussian/g16/B01/g16/l202.exe)
                          Input orientation:                          
 ---------------------------------------------------------------------
 Center     Atomic      Atomic             Coordinates (Angstroms)
 Number     Number       Type             X           Y           Z
 ---------------------------------------------------------------------
      1          8           0        0.000000    0.000000    0.000000
      2         17           0        2.904676    0.000000    0.000000
      3         17           0       -0.393687    1.636049    0.000000
      4          1           0        0.864787    0.000000    0.499285
 ---------------------------------------------------------------------
                    Distance matrix (angstroms):
                    1          2          3          4
     1  O    0.000000
     2  Cl   2.904676   0.000000
     3  Cl   1.682749   3.681827   0.000000
     4  H    0.998570   2.100103   2.123605   0.000000
 Symmetry turned off by external request.
 Stoichiometry    Cl2HO(1-)
 Framework group  C1[X(Cl2HO)]
 Deg. of freedom     6
 Full point group                 C1      NOp   1
 Rotational constants (GHZ):          23.3367024           2.0581668           1.8948058
 Leave Link  202 at Wed Sep 22 16:32:11 2021, MaxMem= 16106127360 cpu:               0.5 elap:               0.0
 (Enter /sw/contrib/gaussian/g16/B01/g16/l301.exe)
 Standard basis: Aug-CC-pVTZ (5D, 7F)
 Ernie: Thresh=  0.10000D-02 Tol=  0.10000D-05 Strict=F.
 Ernie:  29 primitive shells out of 169 were deleted.
   169 basis functions,   327 primitive gaussians,   198 cartesian basis functions
    22 alpha electrons       22 beta electrons
       nuclear repulsion energy       121.8411385803 Hartrees.
 IExCor=    0 DFT=F Ex=HF Corr=None ExCW=0 ScaHFX=  1.000000
 ScaDFX=  1.000000  1.000000  1.000000  1.000000 ScalE2=  1.000000  1.000000
 IRadAn=      5 IRanWt=     -1 IRanGd=            0 ICorTp=0 IEmpDi=  4
 NAtoms=    4 NActive=    4 NUniq=    4 SFac= 1.00D+00 NAtFMM=   60 NAOKFM=F Big=F
 Integral buffers will be    131072 words long.
 Raffenetti 1 integral format.
 Two-electron integral symmetry is turned off.
 Leave Link  301 at Wed Sep 22 16:32:11 2021, MaxMem= 16106127360 cpu:               1.4 elap:               0.1
 (Enter /sw/contrib/gaussian/g16/B01/g16/l302.exe)
 NPDir=0 NMtPBC=     1 NCelOv=     1 NCel=       1 NClECP=     1 NCelD=      1
         NCelK=      1 NCelE2=     1 NClLst=     1 CellRange=     0.0.
 One-electron integrals computed using PRISM.
 NBasis=   169 RedAO= T EigKep=  2.81D-04  NBF=   169
 NBsUse=   169 1.00D-06 EigRej= -1.00D+00 NBFU=   169
 Leave Link  302 at Wed Sep 22 16:32:11 2021, MaxMem= 16106127360 cpu:               7.8 elap:               0.3
 (Enter /sw/contrib/gaussian/g16/B01/g16/l303.exe)
 DipDrv:  MaxL=1.
 Leave Link  303 at Wed Sep 22 16:32:11 2021, MaxMem= 16106127360 cpu:               0.7 elap:               0.1
 (Enter /sw/contrib/gaussian/g16/B01/g16/l401.exe)
 ExpMin= 2.53D-02 ExpMax= 4.56D+05 ExpMxC= 1.44D+03 IAcc=3 IRadAn=         5 AccDes= 0.00D+00
 Harris functional with IExCor=  205 and IRadAn=       5 diagonalized for initial guess.
 HarFok:  IExCor=  205 AccDes= 0.00D+00 IRadAn=         5 IDoV= 1 UseB2=F ITyADJ=14
 ICtDFT=  3500011 ScaDFX=  1.000000  1.000000  1.000000  1.000000
 FoFCou: FMM=F IPFlag=           0 FMFlag=      100000 FMFlg1=           0
         NFxFlg=           0 DoJE=T BraDBF=F KetDBF=T FulRan=T
         wScrn=  0.000000 ICntrl=       500 IOpCl=  0 I1Cent=   200000004 NGrid=           0
         NMat0=    1 NMatS0=      1 NMatT0=    0 NMatD0=    1 NMtDS0=    0 NMtDT0=    0
 Symmetry not used in FoFCou.
 Harris En= -993.815336170456    
 JPrj=0 DoOrth=F DoCkMO=F.
 Leave Link  401 at Wed Sep 22 16:32:11 2021, MaxMem= 16106127360 cpu:               6.8 elap:               0.3
 (Enter /sw/contrib/gaussian/g16/B01/g16/l502.exe)
 Keep R1 ints in memory in canonical form, NReq=117118997.
 FoFCou: FMM=F IPFlag=           0 FMFlag=           0 FMFlg1=           0
         NFxFlg=           0 DoJE=F BraDBF=F KetDBF=F FulRan=T
         wScrn=  0.000000 ICntrl=       600 IOpCl=  0 I1Cent=           0 NGrid=           0
         NMat0=    1 NMatS0=  14365 NMatT0=    0 NMatD0=    1 NMtDS0=    0 NMtDT0=    0
 Symmetry not used in FoFCou.
 Two-electron integral symmetry not used.
 Closed shell SCF:
 Using DIIS extrapolation, IDIIS=  1040.
 NGot= 16106127360 LenX= 16002858349 LenY= 16002818704
 Requested convergence on RMS density matrix=1.00D-08 within 128 cycles.
 Requested convergence on MAX density matrix=1.00D-06.
 Requested convergence on             energy=1.00D-06.
 No special actions if energy rises.

 Cycle   1  Pass 1  IDiag  1:
 E= -994.385163954679    
 DIIS: error= 2.56D-02 at cycle   1 NSaved=   1.
 NSaved= 1 IEnMin= 1 EnMin= -994.385163954679     IErMin= 1 ErrMin= 2.56D-02
 ErrMax= 2.56D-02  0.00D+00 EMaxC= 1.00D-01 BMatC= 4.22D-01 BMatP= 4.22D-01
 IDIUse=3 WtCom= 7.44D-01 WtEn= 2.56D-01
 Coeff-Com:  0.100D+01
 Coeff-En:   0.100D+01
 Coeff:      0.100D+01
 Gap=     0.548 Goal=   None    Shift=    0.000
 GapD=    0.548 DampG=2.000 DampE=0.500 DampFc=1.0000 IDamp=-1.
 RMSDP=2.13D-03 MaxDP=7.08D-02              OVMax= 1.21D-01

 Cycle   2  Pass 1  IDiag  1:
 E= -994.480910466557     Delta-E=       -0.095746511878 Rises=F Damp=F
 DIIS: error= 1.34D-02 at cycle   2 NSaved=   2.
 NSaved= 2 IEnMin= 2 EnMin= -994.480910466557     IErMin= 2 ErrMin= 1.34D-02
 ErrMax= 1.34D-02  0.00D+00 EMaxC= 1.00D-01 BMatC= 4.85D-02 BMatP= 4.22D-01
 IDIUse=3 WtCom= 8.66D-01 WtEn= 1.34D-01
 Coeff-Com:  0.165D+00 0.835D+00
 Coeff-En:   0.000D+00 0.100D+01
 Coeff:      0.143D+00 0.857D+00
 Gap=     0.359 Goal=   None    Shift=    0.000
 RMSDP=9.72D-04 MaxDP=3.93D-02 DE=-9.57D-02 OVMax= 7.72D-02

 Cycle   3  Pass 1  IDiag  1:
 E= -994.505802563034     Delta-E=       -0.024892096477 Rises=F Damp=F
 DIIS: error= 6.39D-03 at cycle   3 NSaved=   3.
 NSaved= 3 IEnMin= 3 EnMin= -994.505802563034     IErMin= 3 ErrMin= 6.39D-03
 ErrMax= 6.39D-03  0.00D+00 EMaxC= 1.00D-01 BMatC= 1.31D-02 BMatP= 4.85D-02
 IDIUse=3 WtCom= 9.36D-01 WtEn= 6.39D-02
 Coeff-Com: -0.149D-01 0.332D+00 0.683D+00
 Coeff-En:   0.000D+00 0.106D+00 0.894D+00
 Coeff:     -0.139D-01 0.317D+00 0.697D+00
 Gap=     0.345 Goal=   None    Shift=    0.000
 RMSDP=3.46D-04 MaxDP=1.33D-02 DE=-2.49D-02 OVMax= 3.44D-02

 Cycle   4  Pass 1  IDiag  1:
 E= -994.514759899574     Delta-E=       -0.008957336540 Rises=F Damp=F
 DIIS: error= 8.82D-04 at cycle   4 NSaved=   4.
 NSaved= 4 IEnMin= 4 EnMin= -994.514759899574     IErMin= 4 ErrMin= 8.82D-04
 ErrMax= 8.82D-04  0.00D+00 EMaxC= 1.00D-01 BMatC= 1.63D-04 BMatP= 1.31D-02
 IDIUse=3 WtCom= 9.91D-01 WtEn= 8.82D-03
 Coeff-Com: -0.428D-02 0.273D-01 0.117D+00 0.860D+00
 Coeff-En:   0.000D+00 0.000D+00 0.000D+00 0.100D+01
 Coeff:     -0.424D-02 0.271D-01 0.116D+00 0.861D+00
 Gap=     0.338 Goal=   None    Shift=    0.000
 RMSDP=5.43D-05 MaxDP=1.41D-03 DE=-8.96D-03 OVMax= 2.90D-03

 Cycle   5  Pass 1  IDiag  1:
 E= -994.514931732865     Delta-E=       -0.000171833291 Rises=F Damp=F
 DIIS: error= 2.02D-04 at cycle   5 NSaved=   5.
 NSaved= 5 IEnMin= 5 EnMin= -994.514931732865     IErMin= 5 ErrMin= 2.02D-04
 ErrMax= 2.02D-04  0.00D+00 EMaxC= 1.00D-01 BMatC= 1.53D-05 BMatP= 1.63D-04
 IDIUse=3 WtCom= 9.98D-01 WtEn= 2.02D-03
 Coeff-Com:  0.955D-03-0.385D-01-0.714D-01 0.161D-02 0.111D+01
 Coeff-En:   0.000D+00 0.000D+00 0.000D+00 0.000D+00 0.100D+01
 Coeff:      0.953D-03-0.384D-01-0.713D-01 0.161D-02 0.111D+01
 Gap=     0.340 Goal=   None    Shift=    0.000
 RMSDP=3.25D-05 MaxDP=1.15D-03 DE=-1.72D-04 OVMax= 3.06D-03

 Cycle   6  Pass 1  IDiag  1:
 E= -994.514970364454     Delta-E=       -0.000038631589 Rises=F Damp=F
 DIIS: error= 9.00D-05 at cycle   6 NSaved=   6.
 NSaved= 6 IEnMin= 6 EnMin= -994.514970364454     IErMin= 6 ErrMin= 9.00D-05
 ErrMax= 9.00D-05  0.00D+00 EMaxC= 1.00D-01 BMatC= 1.92D-06 BMatP= 1.53D-05
 IDIUse=1 WtCom= 1.00D+00 WtEn= 0.00D+00
 Coeff-Com:  0.268D-03 0.797D-02 0.157D-01-0.702D-01-0.408D+00 0.145D+01
 Coeff:      0.268D-03 0.797D-02 0.157D-01-0.702D-01-0.408D+00 0.145D+01
 Gap=     0.340 Goal=   None    Shift=    0.000
 RMSDP=1.62D-05 MaxDP=5.77D-04 DE=-3.86D-05 OVMax= 1.55D-03

 Cycle   7  Pass 1  IDiag  1:
 E= -994.514977173881     Delta-E=       -0.000006809427 Rises=F Damp=F
 DIIS: error= 2.56D-05 at cycle   7 NSaved=   7.
 NSaved= 7 IEnMin= 7 EnMin= -994.514977173881     IErMin= 7 ErrMin= 2.56D-05
 ErrMax= 2.56D-05  0.00D+00 EMaxC= 1.00D-01 BMatC= 1.19D-07 BMatP= 1.92D-06
 IDIUse=1 WtCom= 1.00D+00 WtEn= 0.00D+00
 Coeff-Com: -0.178D-03-0.587D-03-0.634D-03 0.264D-01 0.838D-01-0.593D+00
 Coeff-Com:  0.148D+01
 Coeff:     -0.178D-03-0.587D-03-0.634D-03 0.264D-01 0.838D-01-0.593D+00
 Coeff:      0.148D+01
 Gap=     0.340 Goal=   None    Shift=    0.000
 RMSDP=4.99D-06 MaxDP=1.76D-04 DE=-6.81D-06 OVMax= 4.77D-04

 Cycle   8  Pass 1  IDiag  1:
 E= -994.514977712448     Delta-E=       -0.000000538567 Rises=F Damp=F
 DIIS: error= 5.70D-06 at cycle   8 NSaved=   8.
 NSaved= 8 IEnMin= 8 EnMin= -994.514977712448     IErMin= 8 ErrMin= 5.70D-06
 ErrMax= 5.70D-06  0.00D+00 EMaxC= 1.00D-01 BMatC= 8.21D-09 BMatP= 1.19D-07
 IDIUse=1 WtCom= 1.00D+00 WtEn= 0.00D+00
 Coeff-Com:  0.109D-04-0.684D-03-0.116D-02 0.174D-02 0.204D-01-0.342D-01
 Coeff-Com: -0.168D+00 0.118D+01
 Coeff:      0.109D-04-0.684D-03-0.116D-02 0.174D-02 0.204D-01-0.342D-01
 Coeff:     -0.168D+00 0.118D+01
 Gap=     0.340 Goal=   None    Shift=    0.000
 RMSDP=1.10D-06 MaxDP=2.38D-05 DE=-5.39D-07 OVMax= 1.23D-04

 Cycle   9  Pass 1  IDiag  1:
 E= -994.514977742828     Delta-E=       -0.000000030379 Rises=F Damp=F
 DIIS: error= 2.64D-06 at cycle   9 NSaved=   9.
 NSaved= 9 IEnMin= 9 EnMin= -994.514977742828     IErMin= 9 ErrMin= 2.64D-06
 ErrMax= 2.64D-06  0.00D+00 EMaxC= 1.00D-01 BMatC= 1.17D-09 BMatP= 8.21D-09
 IDIUse=1 WtCom= 1.00D+00 WtEn= 0.00D+00
 Coeff-Com:  0.166D-04 0.216D-03 0.394D-03-0.352D-02-0.156D-01 0.820D-01
 Coeff-Com: -0.147D+00-0.236D+00 0.132D+01
 Coeff:      0.166D-04 0.216D-03 0.394D-03-0.352D-02-0.156D-01 0.820D-01
 Coeff:     -0.147D+00-0.236D+00 0.132D+01
 Gap=     0.340 Goal=   None    Shift=    0.000
 RMSDP=5.22D-07 MaxDP=1.09D-05 DE=-3.04D-08 OVMax= 6.15D-05

 Cycle  10  Pass 1  IDiag  1:
 E= -994.514977748419     Delta-E=       -0.000000005591 Rises=F Damp=F
 DIIS: error= 1.32D-06 at cycle  10 NSaved=  10.
 NSaved=10 IEnMin=10 EnMin= -994.514977748419     IErMin=10 ErrMin= 1.32D-06
 ErrMax= 1.32D-06  0.00D+00 EMaxC= 1.00D-01 BMatC= 1.77D-10 BMatP= 1.17D-09
 IDIUse=1 WtCom= 1.00D+00 WtEn= 0.00D+00
 Coeff-Com: -0.252D-05 0.337D-04 0.515D-05 0.493D-03 0.112D-02-0.128D-01
 Coeff-Com:  0.534D-01-0.139D+00-0.215D+00 0.131D+01
 Coeff:     -0.252D-05 0.337D-04 0.515D-05 0.493D-03 0.112D-02-0.128D-01
 Coeff:      0.534D-01-0.139D+00-0.215D+00 0.131D+01
 Gap=     0.340 Goal=   None    Shift=    0.000
 RMSDP=2.26D-07 MaxDP=5.24D-06 DE=-5.59D-09 OVMax= 2.67D-05

 Cycle  11  Pass 1  IDiag  1:
 E= -994.514977749284     Delta-E=       -0.000000000865 Rises=F Damp=F
 DIIS: error= 4.09D-07 at cycle  11 NSaved=  11.
 NSaved=11 IEnMin=11 EnMin= -994.514977749284     IErMin=11 ErrMin= 4.09D-07
 ErrMax= 4.09D-07  0.00D+00 EMaxC= 1.00D-01 BMatC= 1.58D-11 BMatP= 1.77D-10
 IDIUse=1 WtCom= 1.00D+00 WtEn= 0.00D+00
 Coeff-Com: -0.289D-05-0.196D-04-0.262D-04 0.420D-03 0.152D-02-0.859D-02
 Coeff-Com:  0.135D-01 0.397D-01-0.120D+00-0.227D+00 0.130D+01
 Coeff:     -0.289D-05-0.196D-04-0.262D-04 0.420D-03 0.152D-02-0.859D-02
 Coeff:      0.135D-01 0.397D-01-0.120D+00-0.227D+00 0.130D+01
 Gap=     0.340 Goal=   None    Shift=    0.000
 RMSDP=7.53D-08 MaxDP=1.87D-06 DE=-8.65D-10 OVMax= 8.37D-06

 Cycle  12  Pass 1  IDiag  1:
 E= -994.514977749368     Delta-E=       -0.000000000084 Rises=F Damp=F
 DIIS: error= 8.66D-08 at cycle  12 NSaved=  12.
 NSaved=12 IEnMin=12 EnMin= -994.514977749368     IErMin=12 ErrMin= 8.66D-08
 ErrMax= 8.66D-08  0.00D+00 EMaxC= 1.00D-01 BMatC= 9.33D-13 BMatP= 1.58D-11
 IDIUse=1 WtCom= 1.00D+00 WtEn= 0.00D+00
 Coeff-Com:  0.642D-06-0.131D-05-0.421D-06-0.851D-04-0.238D-03 0.184D-02
 Coeff-Com: -0.507D-02 0.283D-02 0.317D-01-0.539D-01-0.173D+00 0.120D+01
 Coeff:      0.642D-06-0.131D-05-0.421D-06-0.851D-04-0.238D-03 0.184D-02
 Coeff:     -0.507D-02 0.283D-02 0.317D-01-0.539D-01-0.173D+00 0.120D+01
 Gap=     0.340 Goal=   None    Shift=    0.000
 RMSDP=1.47D-08 MaxDP=3.28D-07 DE=-8.44D-11 OVMax= 1.26D-06

 Cycle  13  Pass 1  IDiag  1:
 E= -994.514977749373     Delta-E=       -0.000000000005 Rises=F Damp=F
 DIIS: error= 2.17D-08 at cycle  13 NSaved=  13.
 NSaved=13 IEnMin=13 EnMin= -994.514977749373     IErMin=13 ErrMin= 2.17D-08
 ErrMax= 2.17D-08  0.00D+00 EMaxC= 1.00D-01 BMatC= 1.44D-13 BMatP= 9.33D-13
 IDIUse=1 WtCom= 1.00D+00 WtEn= 0.00D+00
 Coeff-Com:  0.207D-06 0.235D-05 0.251D-05-0.312D-04-0.126D-03 0.633D-03
 Coeff-Com: -0.590D-03-0.530D-02 0.949D-02 0.346D-01-0.138D+00-0.102D+00
 Coeff-Com:  0.120D+01
 Coeff:      0.207D-06 0.235D-05 0.251D-05-0.312D-04-0.126D-03 0.633D-03
 Coeff:     -0.590D-03-0.530D-02 0.949D-02 0.346D-01-0.138D+00-0.102D+00
 Coeff:      0.120D+01
 Gap=     0.340 Goal=   None    Shift=    0.000
 RMSDP=5.51D-09 MaxDP=1.05D-07 DE=-5.00D-12 OVMax= 4.24D-07

 SCF Done:  E(RHF) =  -994.514977749     A.U. after   13 cycles
            NFock= 13  Conv=0.55D-08     -V/T= 2.0001
 KE= 9.943723655317D+02 PE=-2.621411866205D+03 EE= 5.106833843437D+02
 Leave Link  502 at Wed Sep 22 16:32:15 2021, MaxMem= 16106127360 cpu:              28.8 elap:               3.3
 (Enter /sw/contrib/gaussian/g16/B01/g16/l801.exe)
 ExpMin= 2.53D-02 ExpMax= 4.56D+05 ExpMxC= 1.44D+03 IAcc=3 IRadAn=         5 AccDes= 0.00D+00
 HarFok:  IExCor=  205 AccDes= 0.00D+00 IRadAn=         5 IDoV=-2 UseB2=F ITyADJ=14
 ICtDFT= 12500011 ScaDFX=  1.000000  1.000000  1.000000  1.000000
 Largest valence mixing into a core orbital is  4.47D-04
 Largest core mixing into a valence orbital is  1.74D-04
 Range of M.O.s used for correlation:    12   169
 NBasis=   169 NAE=    22 NBE=    22 NFC=    11 NFV=     0
 NROrb=    158 NOA=    11 NOB=    11 NVA=   147 NVB=   147

 **** Warning!!: The largest alpha MO coefficient is  0.11090701D+02

 Leave Link  801 at Wed Sep 22 16:32:15 2021, MaxMem= 16106127360 cpu:               4.0 elap:               0.2
 (Enter /sw/contrib/gaussian/g16/B01/g16/l906.exe)
 Frozen-core derivative calculation, NFC=  11 NFV=   0.
 FulOut=F Deriv=T AODrv=F NAtomX=     4
   MMem=         144  MDisk=          11 MDiskD=          11
  W3Min=      736164 MinDsk=     1250177 NBas6D=         198
 NBas2D=       20187    NTT=       19701    LW2=     3500000
    MDV= 16105751256 MDiskM=      406660 NBas2p=       19980
 Fully in-core method, ICMem=   420417501.
 IMap=   1   2   3   4   5   6   7   8   9  10  11  12  13  14  15  16  17  18  19  20
 IMap=  21  22
 JobTyp=1 Pass  1 fully in-core, NPsUse= 28.
 Compute canonical integrals.
 FoFCou: FMM=F IPFlag=           0 FMFlag=           0 FMFlg1=           0
         NFxFlg=           0 DoJE=F BraDBF=F KetDBF=F FulRan=T
         wScrn=  0.000000 ICntrl=       600 IOpCl=  1 I1Cent=           0 NGrid=           0
         NMat0=    1 NMatS0=  20187 NMatT0=    0 NMatD0=    1 NMtDS0=    0 NMtDT0=    0
 Symmetry not used in FoFCou.
 Spin components of T(2) and E(2):
     alpha-alpha T2 =       0.2919456016D-01 E2=     -0.8385919830D-01
     alpha-beta  T2 =       0.1594681613D+00 E2=     -0.4979657647D+00
     beta-beta   T2 =       0.2919456016D-01 E2=     -0.8385919830D-01
 The integrals were generated   1 times.
 ANorm=    0.1103565712D+01
 E2 =    -0.6656841613D+00 EUMP2 =    -0.99518066191063D+03
 Leave Link  906 at Wed Sep 22 16:32:19 2021, MaxMem= 16106127360 cpu:             114.6 elap:               4.1
 (Enter /sw/contrib/gaussian/g16/B01/g16/l1002.exe)
 Minotr:  Closed shell wavefunction.
          Computing MP2/KS-MP2 derivatives.
          Using Z-Vector for PSCF gradient.
          Skipping F1 and S1 gradient terms here.
          Frozen-core window.
          Direct CPHF calculation.
          Differentiating once with respect to electric field.
                with respect to dipole field.
          Electric field/nuclear overlap derivatives assumed to be zero.
          Requested convergence is 1.0D-10 RMS, and 1.0D-09 maximum.
          NewPWx=F KeepS1=T KeepF1=T KeepIn=T MapXYZ=F SortEE=F KeepMc=T.
 Keep R1 ints in memory in canonical form, NReq=117123241.
 FoFCou: FMM=F IPFlag=           0 FMFlag=           0 FMFlg1=           0
         NFxFlg=           0 DoJE=F BraDBF=F KetDBF=F FulRan=T
         wScrn=  0.000000 ICntrl=       600 IOpCl=  0 I1Cent=           0 NGrid=           0
         NMat0=    1 NMatS0=  14365 NMatT0=    0 NMatD0=    1 NMtDS0=    0 NMtDT0=    0
 Symmetry not used in FoFCou.
 Two-electron integral symmetry not used.
          MDV=   16106127360 using IRadAn=       5.
          Solving linear equations separately, MaxMat=       0.
          There are     1 degrees of freedom in the 1st order CPHF.  IDoFFX=0 NUNeed=     1.
 LinEq1:  Iter=  0 NonCon=     1 RMS=3.08D-03 Max=3.84D-02 NDo=     1
 AX will form     1 AO Fock derivatives at one time.
 LinEq1:  Iter=  1 NonCon=     1 RMS=3.88D-04 Max=4.58D-03 NDo=     1
 LinEq1:  Iter=  2 NonCon=     1 RMS=1.59D-04 Max=2.54D-03 NDo=     1
 LinEq1:  Iter=  3 NonCon=     1 RMS=6.22D-05 Max=9.68D-04 NDo=     1
 LinEq1:  Iter=  4 NonCon=     1 RMS=2.69D-05 Max=5.51D-04 NDo=     1
 LinEq1:  Iter=  5 NonCon=     1 RMS=7.24D-06 Max=1.52D-04 NDo=     1
 LinEq1:  Iter=  6 NonCon=     1 RMS=2.38D-06 Max=4.19D-05 NDo=     1
 LinEq1:  Iter=  7 NonCon=     1 RMS=6.97D-07 Max=9.64D-06 NDo=     1
 LinEq1:  Iter=  8 NonCon=     1 RMS=1.35D-07 Max=1.35D-06 NDo=     1
 LinEq1:  Iter=  9 NonCon=     1 RMS=3.08D-08 Max=3.65D-07 NDo=     1
 LinEq1:  Iter= 10 NonCon=     1 RMS=8.00D-09 Max=1.25D-07 NDo=     1
 LinEq1:  Iter= 11 NonCon=     1 RMS=2.00D-09 Max=4.07D-08 NDo=     1
 LinEq1:  Iter= 12 NonCon=     1 RMS=5.20D-10 Max=8.88D-09 NDo=     1
 LinEq1:  Iter= 13 NonCon=     1 RMS=1.22D-10 Max=1.51D-09 NDo=     1
 LinEq1:  Iter= 14 NonCon=     0 RMS=3.32D-11 Max=3.90D-10 NDo=     1
 Linear equations converged to 1.000D-10 1.000D-09 after    14 iterations.
 End of Minotr F.D. properties file   721 does not exist.
 End of Minotr F.D. properties file   722 does not exist.
 End of Minotr F.D. properties file   788 does not exist.
 Leave Link 1002 at Wed Sep 22 16:32:23 2021, MaxMem= 16106127360 cpu:              30.4 elap:               3.7
 (Enter /sw/contrib/gaussian/g16/B01/g16/l601.exe)
 Copying SCF densities to generalized density rwf, IOpCl= 0 IROHF=0.

 **********************************************************************

            Population analysis using the MP2 Density.

 **********************************************************************

 Alpha  occ. eigenvalues -- -104.73070-104.53600 -20.46385 -10.45031 -10.26065
 Alpha  occ. eigenvalues --   -7.91749  -7.91483  -7.91470  -7.72678  -7.72665
 Alpha  occ. eigenvalues --   -7.72664  -1.23362  -0.89570  -0.77217  -0.54256
 Alpha  occ. eigenvalues --   -0.44382  -0.43516  -0.30795  -0.28087  -0.18960
 Alpha  occ. eigenvalues --   -0.18374  -0.18257
 Alpha virt. eigenvalues --    0.15767   0.18290   0.22468   0.23247   0.26120
 Alpha virt. eigenvalues --    0.27431   0.28070   0.28992   0.30481   0.31843
 Alpha virt. eigenvalues --    0.33878   0.34730   0.40757   0.41870   0.46357
 Alpha virt. eigenvalues --    0.49225   0.52455   0.54272   0.55646   0.58085
 Alpha virt. eigenvalues --    0.58725   0.60627   0.61655   0.62538   0.65923
 Alpha virt. eigenvalues --    0.66800   0.67408   0.70129   0.76457   0.79334
 Alpha virt. eigenvalues --    0.85414   0.86461   0.88707   0.89775   0.90732
 Alpha virt. eigenvalues --    0.92195   0.96203   0.98966   0.99869   1.06703
 Alpha virt. eigenvalues --    1.08313   1.09783   1.09945   1.11584   1.13138
 Alpha virt. eigenvalues --    1.14809   1.19330   1.19715   1.20284   1.21583
 Alpha virt. eigenvalues --    1.22394   1.24597   1.27026   1.29153   1.31882
 Alpha virt. eigenvalues --    1.34702   1.39076   1.41734   1.43016   1.43180
 Alpha virt. eigenvalues --    1.44501   1.48907   1.51086   1.55875   1.60927
 Alpha virt. eigenvalues --    1.62883   1.65588   1.68736   1.71915   1.74191
 Alpha virt. eigenvalues --    1.77900   1.85425   1.85695   1.88247   1.95471
 Alpha virt. eigenvalues --    1.97880   2.18221   2.39550   2.42634   2.51273
 Alpha virt. eigenvalues --    2.51995   2.54270   2.60495   2.63120   2.64925
 Alpha virt. eigenvalues --    2.68234   2.70163   2.71261   2.72466   2.75274
 Alpha virt. eigenvalues --    2.77810   2.79907   2.81469   2.82559   2.89139
 Alpha virt. eigenvalues --    2.91402   2.93094   2.95619   3.00988   3.02548
 Alpha virt. eigenvalues --    3.07413   3.11130   3.18383   3.20740   3.22291
 Alpha virt. eigenvalues --    3.24796   3.29736   3.30599   3.34074   3.34866
 Alpha virt. eigenvalues --    3.35908   3.39582   3.42808   3.48742   3.50721
 Alpha virt. eigenvalues --    3.52902   3.56821   3.59277   3.63237   3.91733
 Alpha virt. eigenvalues --    4.19138   4.35769   4.49569   4.57532   4.61889
 Alpha virt. eigenvalues --    4.73974   4.97878   5.03460   5.36381   5.44298
 Alpha virt. eigenvalues --    5.68202   6.21217   6.45402   6.65818   6.88621
 Alpha virt. eigenvalues --    6.90572   6.92241   6.99556   7.33809   7.35004
 Alpha virt. eigenvalues --    7.35858   7.45164   7.53587   7.75228   7.76640
 Alpha virt. eigenvalues --    8.37174  14.43573
          Condensed to atoms (all electrons):
               1          2          3          4
     1  O    8.559896  -0.084741  -0.117656   0.065798
     2  Cl  -0.084741  17.889054   0.001812   0.079096
     3  Cl  -0.117656   0.001812  17.057299   0.000483
     4  H    0.065798   0.079096   0.000483   0.604165
 Mulliken charges:
               1
     1  O   -0.423297
     2  Cl  -0.885221
     3  Cl   0.058061
     4  H    0.250457
 Sum of Mulliken charges =  -1.00000
 Mulliken charges with hydrogens summed into heavy atoms:
               1
     1  O   -0.172840
     2  Cl  -0.885221
     3  Cl   0.058061
 Electronic spatial extent (au):  <R**2>=            795.2215
 Charge=             -1.0000 electrons
 Dipole moment (field-independent basis, Debye):
    X=            -10.4777    Y=             -0.6532    Z=              0.4322  Tot=             10.5070
 Quadrupole moment (field-independent basis, Debye-Ang):
   XX=            -71.4336   YY=            -36.9641   ZZ=            -36.2661
   XY=              0.4737   XZ=              0.2885   YZ=             -0.1640
 Traceless Quadrupole moment (field-independent basis, Debye-Ang):
   XX=            -23.2124   YY=             11.2572   ZZ=             11.9552
   XY=              0.4737   XZ=              0.2885   YZ=             -0.1640
 Octapole moment (field-independent basis, Debye-Ang**2):
  XXX=           -232.9078  YYY=            -62.8271  ZZZ=             -1.4989  XYY=            -44.0404
  XXY=            -21.8954  XXZ=             -2.2153  XZZ=            -43.2584  YZZ=            -22.2655
  YYZ=             -0.8573  XYZ=              0.0971
 Hexadecapole moment (field-independent basis, Debye-Ang**3):
 XXXX=          -1207.0227 YYYY=           -246.3638 ZZZZ=            -51.2710 XXXY=             28.1119
 XXXZ=             -8.4088 YYYX=             22.3016 YYYZ=             -0.7912 ZZZX=             -1.9209
 ZZZY=             -0.2474 XXYY=           -196.7411 XXZZ=           -160.9857 YYZZ=            -54.0754
 XXYZ=             -0.1837 YYXZ=             -0.4125 ZZXY=              9.2980
 N-N= 1.218411385803D+02 E-N=-2.621463644895D+03  KE= 9.950324448365D+02
 No NMR shielding tensors so no spin-rotation constants.
 Leave Link  601 at Wed Sep 22 16:32:23 2021, MaxMem= 16106127360 cpu:               4.1 elap:               0.2
 (Enter /sw/contrib/gaussian/g16/B01/g16/l607.exe)
 ******************************Gaussian NBO Version 3.1******************************
             N A T U R A L   A T O M I C   O R B I T A L   A N D
          N A T U R A L   B O N D   O R B I T A L   A N A L Y S I S
 ******************************Gaussian NBO Version 3.1******************************
       /RESON  / : Allow strongly delocalized NBO set

 Analyzing the MP2 density

 Job title: title                                                           

 Storage needed:     86521 in NPA,    114817 in NBO (********** available)
 GSVD:  LWork=        1191 too small for GESVD, short by       52514 words or       52514 for optimal perf.


 NATURAL POPULATIONS:  Natural atomic orbital occupancies 
                                                          
   NAO  Atom  No  lang   Type(AO)    Occupancy
 --------------------------------------------
     1    O    1  S      Cor( 1S)     1.99970
     2    O    1  S      Val( 2S)     1.79217
     3    O    1  S      Ryd( 3S)     0.00937
     4    O    1  S      Ryd( 4S)     0.00113
     5    O    1  S      Ryd( 5S)     0.00017
     6    O    1  px     Val( 2p)     1.69761
     7    O    1  px     Ryd( 3p)     0.01309
     8    O    1  px     Ryd( 4p)     0.00072
     9    O    1  px     Ryd( 5p)     0.00039
    10    O    1  py     Val( 2p)     1.26958
    11    O    1  py     Ryd( 3p)     0.00777
    12    O    1  py     Ryd( 4p)     0.00062
    13    O    1  py     Ryd( 5p)     0.00035
    14    O    1  pz     Val( 2p)     1.86715
    15    O    1  pz     Ryd( 3p)     0.01774
    16    O    1  pz     Ryd( 4p)     0.00070
    17    O    1  pz     Ryd( 5p)     0.00024
    18    O    1  dxy    Ryd( 3d)     0.00924
    19    O    1  dxy    Ryd( 4d)     0.00048
    20    O    1  dxy    Ryd( 5d)     0.00018
    21    O    1  dxz    Ryd( 3d)     0.01069
    22    O    1  dxz    Ryd( 4d)     0.00058
    23    O    1  dxz    Ryd( 5d)     0.00019
    24    O    1  dyz    Ryd( 3d)     0.00963
    25    O    1  dyz    Ryd( 4d)     0.00056
    26    O    1  dyz    Ryd( 5d)     0.00010
    27    O    1  dx2y2  Ryd( 3d)     0.01107
    28    O    1  dx2y2  Ryd( 4d)     0.00043
    29    O    1  dx2y2  Ryd( 5d)     0.00018
    30    O    1  dz2    Ryd( 3d)     0.00885
    31    O    1  dz2    Ryd( 4d)     0.00057
    32    O    1  dz2    Ryd( 5d)     0.00020
    33    O    1  f(0)   Ryd( 4f)     0.00063
    34    O    1  f(0)   Ryd( 5f)     0.00011
    35    O    1  f(C1)  Ryd( 4f)     0.00060
    36    O    1  f(C1)  Ryd( 5f)     0.00012
    37    O    1  f(S1)  Ryd( 4f)     0.00062
    38    O    1  f(S1)  Ryd( 5f)     0.00011
    39    O    1  f(C2)  Ryd( 4f)     0.00062
    40    O    1  f(C2)  Ryd( 5f)     0.00014
    41    O    1  f(S2)  Ryd( 4f)     0.00059
    42    O    1  f(S2)  Ryd( 5f)     0.00012
    43    O    1  f(C3)  Ryd( 4f)     0.00060
    44    O    1  f(C3)  Ryd( 5f)     0.00015
    45    O    1  f(S3)  Ryd( 4f)     0.00059
    46    O    1  f(S3)  Ryd( 5f)     0.00011

    47   Cl    2  S      Cor( 1S)     2.00000
    48   Cl    2  S      Cor( 2S)     2.00000
    49   Cl    2  S      Val( 3S)     1.97404
    50   Cl    2  S      Ryd( 4S)     0.00243
    51   Cl    2  S      Ryd( 5S)     0.00027
    52   Cl    2  S      Ryd( 6S)     0.00012
    53   Cl    2  px     Cor( 2p)     2.00002
    54   Cl    2  px     Val( 3p)     1.89825
    55   Cl    2  px     Ryd( 4p)     0.01126
    56   Cl    2  px     Ryd( 5p)     0.00054
    57   Cl    2  px     Ryd( 6p)     0.00007
    58   Cl    2  py     Cor( 2p)     2.00003
    59   Cl    2  py     Val( 3p)     1.95181
    60   Cl    2  py     Ryd( 4p)     0.01308
    61   Cl    2  py     Ryd( 5p)     0.00057
    62   Cl    2  py     Ryd( 6p)     0.00006
    63   Cl    2  pz     Cor( 2p)     2.00003
    64   Cl    2  pz     Val( 3p)     1.94446
    65   Cl    2  pz     Ryd( 4p)     0.01294
    66   Cl    2  pz     Ryd( 5p)     0.00057
    67   Cl    2  pz     Ryd( 6p)     0.00005
    68   Cl    2  dxy    Ryd( 3d)     0.01863
    69   Cl    2  dxy    Ryd( 4d)     0.00078
    70   Cl    2  dxy    Ryd( 5d)     0.00013
    71   Cl    2  dxz    Ryd( 3d)     0.01871
    72   Cl    2  dxz    Ryd( 4d)     0.00084
    73   Cl    2  dxz    Ryd( 5d)     0.00013
    74   Cl    2  dyz    Ryd( 3d)     0.01834
    75   Cl    2  dyz    Ryd( 4d)     0.00097
    76   Cl    2  dyz    Ryd( 5d)     0.00011
    77   Cl    2  dx2y2  Ryd( 3d)     0.01828
    78   Cl    2  dx2y2  Ryd( 4d)     0.00091
    79   Cl    2  dx2y2  Ryd( 5d)     0.00013
    80   Cl    2  dz2    Ryd( 3d)     0.01833
    81   Cl    2  dz2    Ryd( 4d)     0.00093
    82   Cl    2  dz2    Ryd( 5d)     0.00011
    83   Cl    2  f(0)   Ryd( 4f)     0.00129
    84   Cl    2  f(0)   Ryd( 5f)     0.00015
    85   Cl    2  f(C1)  Ryd( 4f)     0.00129
    86   Cl    2  f(C1)  Ryd( 5f)     0.00016
    87   Cl    2  f(S1)  Ryd( 4f)     0.00129
    88   Cl    2  f(S1)  Ryd( 5f)     0.00014
    89   Cl    2  f(C2)  Ryd( 4f)     0.00129
    90   Cl    2  f(C2)  Ryd( 5f)     0.00016
    91   Cl    2  f(S2)  Ryd( 4f)     0.00130
    92   Cl    2  f(S2)  Ryd( 5f)     0.00015
    93   Cl    2  f(C3)  Ryd( 4f)     0.00129
    94   Cl    2  f(C3)  Ryd( 5f)     0.00017
    95   Cl    2  f(S3)  Ryd( 4f)     0.00128
    96   Cl    2  f(S3)  Ryd( 5f)     0.00016

    97   Cl    3  S      Cor( 1S)     2.00000
    98   Cl    3  S      Cor( 2S)     1.99980
    99   Cl    3  S      Val( 3S)     1.88197
   100   Cl    3  S      Ryd( 4S)     0.00827
   101   Cl    3  S      Ryd( 5S)     0.00054
   102   Cl    3  S      Ryd( 6S)     0.00017
   103   Cl    3  px     Cor( 2p)     2.00003
   104   Cl    3  px     Val( 3p)     1.89162
   105   Cl    3  px     Ryd( 4p)     0.00973
   106   Cl    3  px     Ryd( 5p)     0.00056
   107   Cl    3  px     Ryd( 6p)     0.00007
   108   Cl    3  py     Cor( 2p)     1.99997
   109   Cl    3  py     Val( 3p)     0.96993
   110   Cl    3  py     Ryd( 4p)     0.00706
   111   Cl    3  py     Ryd( 5p)     0.00052
   112   Cl    3  py     Ryd( 6p)     0.00022
   113   Cl    3  pz     Cor( 2p)     2.00003
   114   Cl    3  pz     Val( 3p)     1.95422
   115   Cl    3  pz     Ryd( 4p)     0.01050
   116   Cl    3  pz     Ryd( 5p)     0.00064
   117   Cl    3  pz     Ryd( 6p)     0.00003
   118   Cl    3  dxy    Ryd( 3d)     0.01815
   119   Cl    3  dxy    Ryd( 4d)     0.00074
   120   Cl    3  dxy    Ryd( 5d)     0.00026
   121   Cl    3  dxz    Ryd( 3d)     0.01718
   122   Cl    3  dxz    Ryd( 4d)     0.00078
   123   Cl    3  dxz    Ryd( 5d)     0.00020
   124   Cl    3  dyz    Ryd( 3d)     0.01990
   125   Cl    3  dyz    Ryd( 4d)     0.00098
   126   Cl    3  dyz    Ryd( 5d)     0.00035
   127   Cl    3  dx2y2  Ryd( 3d)     0.01851
   128   Cl    3  dx2y2  Ryd( 4d)     0.00069
   129   Cl    3  dx2y2  Ryd( 5d)     0.00025
   130   Cl    3  dz2    Ryd( 3d)     0.01744
   131   Cl    3  dz2    Ryd( 4d)     0.00062
   132   Cl    3  dz2    Ryd( 5d)     0.00017
   133   Cl    3  f(0)   Ryd( 4f)     0.00129
   134   Cl    3  f(0)   Ryd( 5f)     0.00013
   135   Cl    3  f(C1)  Ryd( 4f)     0.00127
   136   Cl    3  f(C1)  Ryd( 5f)     0.00013
   137   Cl    3  f(S1)  Ryd( 4f)     0.00142
   138   Cl    3  f(S1)  Ryd( 5f)     0.00014
   139   Cl    3  f(C2)  Ryd( 4f)     0.00128
   140   Cl    3  f(C2)  Ryd( 5f)     0.00014
   141   Cl    3  f(S2)  Ryd( 4f)     0.00123
   142   Cl    3  f(S2)  Ryd( 5f)     0.00013
   143   Cl    3  f(C3)  Ryd( 4f)     0.00144
   144   Cl    3  f(C3)  Ryd( 5f)     0.00013
   145   Cl    3  f(S3)  Ryd( 4f)     0.00145
   146   Cl    3  f(S3)  Ryd( 5f)     0.00014

   147    H    4  S      Val( 1S)     0.47856
   148    H    4  S      Ryd( 2S)     0.00692
   149    H    4  S      Ryd( 3S)     0.00027
   150    H    4  S      Ryd( 4S)     0.00014
   151    H    4  px     Ryd( 2p)     0.00598
   152    H    4  px     Ryd( 3p)     0.00084
   153    H    4  px     Ryd( 4p)     0.00029
   154    H    4  py     Ryd( 2p)     0.00308
   155    H    4  py     Ryd( 3p)     0.00040
   156    H    4  py     Ryd( 4p)     0.00012
   157    H    4  pz     Ryd( 2p)     0.00396
   158    H    4  pz     Ryd( 3p)     0.00050
   159    H    4  pz     Ryd( 4p)     0.00021
   160    H    4  dxy    Ryd( 3d)     0.00024
   161    H    4  dxy    Ryd( 4d)     0.00008
   162    H    4  dxz    Ryd( 3d)     0.00033
   163    H    4  dxz    Ryd( 4d)     0.00010
   164    H    4  dyz    Ryd( 3d)     0.00019
   165    H    4  dyz    Ryd( 4d)     0.00006
   166    H    4  dx2y2  Ryd( 3d)     0.00025
   167    H    4  dx2y2  Ryd( 4d)     0.00012
   168    H    4  dz2    Ryd( 3d)     0.00025
   169    H    4  dz2    Ryd( 4d)     0.00010


 Summary of Natural Population Analysis:                  
                                                          
                                       Natural Population 
                Natural  -----------------------------------------------
    Atom  No    Charge         Core      Valence    Rydberg      Total
 -----------------------------------------------------------------------
      O    1   -0.73653      1.99970     6.62650    0.11033     8.73653
     Cl    2   -0.91805     10.00007     7.76856    0.14942    17.91805
     Cl    3    0.15757      9.99982     6.69774    0.14487    16.84243
      H    4    0.49701      0.00000     0.47856    0.02443     0.50299
 =======================================================================
   * Total *   -1.00000     21.99959    21.57136    0.42905    44.00000

                                 Natural Population      
 --------------------------------------------------------
   Core                      21.99959 ( 99.9982% of  22)
   Valence                   21.57136 ( 98.0516% of  22)
   Natural Minimal Basis     43.57095 ( 99.0249% of  44)
   Natural Rydberg Basis      0.42905 (  0.9751% of  44)
 --------------------------------------------------------

    Atom  No          Natural Electron Configuration
 ----------------------------------------------------------------------------
      O    1      [core]2S( 1.79)2p( 4.83)3S( 0.01)3p( 0.04)3d( 0.05)
     Cl    2      [core]3S( 1.97)3p( 5.79)3d( 0.09)4p( 0.04)4f( 0.01)
     Cl    3      [core]3S( 1.88)3p( 4.82)4S( 0.01)3d( 0.09)4p( 0.03)4f( 0.01)
      H    4            1S( 0.48)2S( 0.01)2p( 0.01)


 NATURAL BOND ORBITAL ANALYSIS:

                       Occupancies       Lewis Structure    Low   High
           Occ.    -------------------  -----------------   occ   occ
  Cycle   Thresh.   Lewis   Non-Lewis     CR  BD  3C  LP    (L)   (NL)   Dev
 =============================================================================
   1(1)    1.90    43.47940   0.52060     11   2   0   9     1      0    0.09
   2(2)    1.90    43.47940   0.52060     11   2   0   9     1      0    0.09
   3(1)    1.80    43.47940   0.52060     11   2   0   9     0      0    0.09
 -----------------------------------------------------------------------------

 Structure accepted: No low occupancy Lewis orbitals

 --------------------------------------------------------
   Core                     21.99959 ( 99.998% of  22)
   Valence Lewis            21.47981 ( 97.635% of  22)
  ==================       ============================
   Total Lewis              43.47940 ( 98.817% of  44)
  -----------------------------------------------------
   Valence non-Lewis         0.13972 (  0.318% of  44)
   Rydberg non-Lewis         0.38088 (  0.866% of  44)
  ==================       ============================
   Total non-Lewis           0.52060 (  1.183% of  44)
 --------------------------------------------------------


       (Occupancy)   Bond orbital/ Coefficients/ Hybrids
 ---------------------------------------------------------------------------------
     1. (1.93993) BD ( 1) O   1 -Cl   3  
                ( 58.88%)   0.7673* O   1 s( 10.32%)p 8.63( 89.12%)d 0.05(  0.54%)
                                                  f 0.00(  0.02%)
                                            0.0003  0.3181 -0.0428 -0.0136 -0.0014
                                           -0.2112  0.0304  0.0067  0.0022  0.9187
                                           -0.0211 -0.0087 -0.0100  0.0271  0.0153
                                            0.0028 -0.0004 -0.0106 -0.0015 -0.0029
                                            0.0071  0.0007 -0.0012  0.0171  0.0023
                                           -0.0005 -0.0582 -0.0044 -0.0003 -0.0384
                                           -0.0031 -0.0001 -0.0000  0.0001  0.0022
                                            0.0002 -0.0086  0.0004 -0.0029  0.0017
                                            0.0046 -0.0009  0.0047  0.0015 -0.0062
                                            0.0009
                ( 41.12%)   0.6413*Cl   3 s(  8.61%)p10.46( 90.11%)d 0.13(  1.16%)
                                                  f 0.01(  0.11%)
                                           -0.0000  0.0005  0.2873 -0.0590 -0.0102
                                           -0.0024  0.0001  0.2287 -0.0143 -0.0050
                                            0.0016 -0.0004 -0.9187  0.0655  0.0129
                                           -0.0039  0.0000  0.0053 -0.0002 -0.0019
                                            0.0009 -0.0489  0.0055 -0.0002  0.0068
                                            0.0002 -0.0009 -0.0092 -0.0013 -0.0008
                                           -0.0771  0.0097  0.0006 -0.0546  0.0061
                                            0.0003 -0.0008  0.0001 -0.0050  0.0008
                                            0.0198 -0.0026  0.0001 -0.0005 -0.0016
                                            0.0010 -0.0177  0.0023  0.0191 -0.0022
     2. (1.96413) BD ( 1) O   1 - H   4  
                ( 78.92%)   0.8884* O   1 s( 26.42%)p 2.77( 73.05%)d 0.02(  0.52%)
                                                  f 0.00(  0.01%)
                                            0.0002  0.5139 -0.0053 -0.0081  0.0025
                                            0.7213 -0.0113 -0.0069 -0.0030 -0.0235
                                            0.0156  0.0015  0.0020  0.4574 -0.0023
                                           -0.0043 -0.0037  0.0223  0.0042  0.0010
                                            0.0557  0.0037 -0.0008  0.0156  0.0028
                                            0.0003  0.0352  0.0024  0.0017 -0.0043
                                            0.0010  0.0020 -0.0082  0.0004  0.0003
                                            0.0005  0.0007 -0.0001  0.0049  0.0019
                                            0.0003 -0.0009 -0.0012  0.0025 -0.0019
                                           -0.0002
                ( 21.08%)   0.4591* H   4 s( 99.80%)p 0.00(  0.20%)d 0.00(  0.00%)
                                            0.9985  0.0315  0.0013 -0.0004  0.0032
                                           -0.0285 -0.0075  0.0127  0.0016 -0.0041
                                            0.0247 -0.0173 -0.0023  0.0011  0.0015
                                            0.0005 -0.0010  0.0016  0.0012  0.0010
                                           -0.0014 -0.0020 -0.0017
     3. (1.99970) CR ( 1) O   1           s(100.00%)p 0.00(  0.00%)
                                            1.0000 -0.0004  0.0000  0.0000 -0.0000
                                           -0.0001 -0.0000  0.0000  0.0000 -0.0002
                                            0.0000  0.0000  0.0000 -0.0000 -0.0000
                                            0.0000  0.0000  0.0000 -0.0000 -0.0000
                                           -0.0000 -0.0000  0.0000 -0.0000 -0.0000
                                           -0.0000  0.0000  0.0000 -0.0000  0.0000
                                            0.0000 -0.0000  0.0000 -0.0000 -0.0000
                                           -0.0000  0.0000 -0.0000 -0.0000 -0.0000
                                           -0.0000  0.0000 -0.0000 -0.0000  0.0000
                                           -0.0000
     4. (2.00000) CR ( 1)Cl   2           s(100.00%)
                                            1.0000 -0.0000  0.0000  0.0000 -0.0000
                                            0.0000 -0.0000 -0.0000  0.0000  0.0000
                                           -0.0000 -0.0000  0.0000  0.0000  0.0000
                                            0.0000  0.0000  0.0000  0.0000 -0.0000
                                            0.0000 -0.0000 -0.0000 -0.0000 -0.0000
                                           -0.0000 -0.0000 -0.0000  0.0000  0.0000
                                            0.0000  0.0000 -0.0000 -0.0000 -0.0000
                                           -0.0000 -0.0000 -0.0000  0.0000  0.0000
                                           -0.0000 -0.0000  0.0000  0.0000 -0.0000
                                           -0.0000 -0.0000 -0.0000  0.0000  0.0000
     5. (2.00000) CR ( 2)Cl   2           s(100.00%)p 0.00(  0.00%)
                                           -0.0000  1.0000  0.0000  0.0000 -0.0000
                                            0.0000 -0.0000 -0.0002  0.0000  0.0000
                                           -0.0000 -0.0000  0.0000  0.0000  0.0000
                                            0.0000  0.0000  0.0001  0.0000 -0.0000
                                            0.0000 -0.0000 -0.0000 -0.0000 -0.0000
                                           -0.0000 -0.0000 -0.0000  0.0000  0.0000
                                            0.0000  0.0000 -0.0000 -0.0000 -0.0000
                                           -0.0000 -0.0000 -0.0000  0.0000  0.0000
                                           -0.0000 -0.0000  0.0000  0.0000 -0.0000
                                           -0.0000 -0.0000 -0.0000  0.0000  0.0000
     6. (2.00002) CR ( 3)Cl   2           s(  0.00%)p 1.00(100.00%)
                                           -0.0000 -0.0000  0.0000  0.0000 -0.0000
                                            0.0000  1.0000 -0.0001  0.0000  0.0000
                                           -0.0000 -0.0000 -0.0000  0.0000  0.0000
                                            0.0000  0.0000  0.0000  0.0000 -0.0000
                                            0.0000  0.0000 -0.0000 -0.0000 -0.0000
                                           -0.0000 -0.0000 -0.0000 -0.0000  0.0000
                                            0.0000  0.0000 -0.0000 -0.0000 -0.0000
                                            0.0000 -0.0000 -0.0000  0.0000  0.0000
                                           -0.0000 -0.0000  0.0000  0.0000  0.0000
                                           -0.0000 -0.0000 -0.0000  0.0000  0.0000
     7. (2.00003) CR ( 4)Cl   2           s(  0.00%)p 1.00(100.00%)
                                           -0.0000 -0.0000  0.0000  0.0000 -0.0000
                                            0.0000 -0.0000 -0.0000  0.0000  0.0000
                                            0.0000  1.0000  0.0000  0.0000  0.0000
                                           -0.0000  0.0000  0.0000  0.0000 -0.0000
                                            0.0000 -0.0000 -0.0000  0.0000 -0.0000
                                           -0.0000 -0.0000  0.0000  0.0000  0.0000
                                            0.0000  0.0000  0.0000 -0.0000 -0.0000
                                            0.0000 -0.0000 -0.0000  0.0000  0.0000
                                           -0.0000 -0.0000  0.0000  0.0000 -0.0000
                                           -0.0000 -0.0000 -0.0000  0.0000  0.0000
     8. (2.00003) CR ( 5)Cl   2           s(  0.00%)p 1.00(100.00%)
                                            0.0000  0.0000 -0.0000 -0.0000  0.0000
                                           -0.0000  0.0000  0.0001 -0.0000 -0.0000
                                            0.0000  0.0000  0.0000 -0.0000 -0.0000
                                           -0.0000  1.0000  0.0000 -0.0000  0.0000
                                           -0.0000  0.0000  0.0000  0.0000  0.0000
                                            0.0000  0.0000  0.0000  0.0000  0.0000
                                           -0.0000 -0.0000  0.0000  0.0000  0.0000
                                            0.0000  0.0000  0.0000 -0.0000 -0.0000
                                            0.0000  0.0000 -0.0000 -0.0000 -0.0000
                                           -0.0000  0.0000  0.0000 -0.0000 -0.0000
     9. (2.00000) CR ( 1)Cl   3           s(100.00%)
                                            1.0000  0.0000  0.0000 -0.0000 -0.0000
                                           -0.0000  0.0000  0.0000 -0.0000 -0.0000
                                            0.0000 -0.0000 -0.0000  0.0000  0.0000
                                           -0.0000 -0.0000  0.0000  0.0000 -0.0000
                                            0.0000 -0.0000  0.0000 -0.0000  0.0000
                                           -0.0000 -0.0000 -0.0000 -0.0000 -0.0000
                                           -0.0000  0.0000  0.0000 -0.0000  0.0000
                                            0.0000 -0.0000  0.0000 -0.0000  0.0000
                                            0.0000 -0.0000 -0.0000 -0.0000 -0.0000
                                            0.0000 -0.0000  0.0000  0.0000 -0.0000
    10. (1.99980) CR ( 2)Cl   3           s(100.00%)p 0.00(  0.00%)
                                            0.0000  1.0000 -0.0004  0.0000  0.0000
                                            0.0000 -0.0000 -0.0001  0.0000  0.0000
                                           -0.0000  0.0000  0.0004 -0.0000 -0.0000
                                            0.0000 -0.0000 -0.0000 -0.0000  0.0000
                                           -0.0000  0.0000 -0.0000 -0.0000 -0.0000
                                           -0.0000  0.0000  0.0000  0.0000  0.0000
                                            0.0000 -0.0000 -0.0000  0.0000 -0.0000
                                           -0.0000  0.0000 -0.0000  0.0000 -0.0000
                                           -0.0000  0.0000 -0.0000  0.0000  0.0000
                                           -0.0000  0.0000 -0.0000 -0.0000  0.0000
    11. (2.00003) CR ( 3)Cl   3           s(  0.00%)p 1.00(100.00%)
                                            0.0000 -0.0000 -0.0000  0.0000  0.0000
                                            0.0000  1.0000  0.0001  0.0000  0.0000
                                           -0.0000  0.0000  0.0001 -0.0000 -0.0000
                                            0.0000 -0.0000  0.0000  0.0000  0.0000
                                            0.0000  0.0000  0.0000  0.0000 -0.0000
                                            0.0000  0.0000  0.0000 -0.0000  0.0000
                                            0.0000 -0.0000 -0.0000  0.0000 -0.0000
                                            0.0000 -0.0000  0.0000  0.0000 -0.0000
                                           -0.0000  0.0000  0.0000 -0.0000  0.0000
                                           -0.0000  0.0000 -0.0000 -0.0000  0.0000
    12. (1.99997) CR ( 4)Cl   3           s(  0.00%)p 1.00(100.00%)
                                           -0.0000  0.0000  0.0001 -0.0000 -0.0000
                                           -0.0000  0.0000  0.0001 -0.0000 -0.0000
                                            0.0000  1.0000 -0.0003  0.0000  0.0000
                                           -0.0000 -0.0000  0.0000  0.0000 -0.0000
                                            0.0000 -0.0000  0.0000  0.0000  0.0000
                                            0.0000 -0.0000 -0.0000 -0.0000 -0.0000
                                           -0.0000  0.0000 -0.0000 -0.0000  0.0000
                                            0.0000 -0.0000  0.0000 -0.0000  0.0000
                                            0.0000 -0.0000  0.0000 -0.0000 -0.0000
                                            0.0000 -0.0000  0.0000  0.0000 -0.0000
    13. (2.00003) CR ( 5)Cl   3           s(  0.00%)p 1.00(100.00%)
                                           -0.0000 -0.0000 -0.0000  0.0000  0.0000
                                           -0.0000 -0.0000  0.0000  0.0000 -0.0000
                                            0.0000 -0.0000  0.0000 -0.0000  0.0000
                                           -0.0000  1.0000  0.0002  0.0000  0.0000
                                           -0.0000 -0.0000 -0.0000 -0.0000 -0.0000
                                           -0.0000 -0.0000  0.0000  0.0000  0.0000
                                            0.0000 -0.0000 -0.0000  0.0000  0.0000
                                            0.0000 -0.0000  0.0000  0.0000 -0.0000
                                           -0.0000  0.0000 -0.0000  0.0000 -0.0000
                                            0.0000  0.0000  0.0000 -0.0000 -0.0000
    14. (1.96786) LP ( 1) O   1           s( 63.38%)p 0.58( 36.52%)d 0.00(  0.09%)
                                                  f 0.00(  0.00%)
                                            0.0002  0.7960  0.0116  0.0075 -0.0012
                                           -0.3758 -0.0063 -0.0040 -0.0017 -0.3516
                                           -0.0046 -0.0055 -0.0024 -0.3165 -0.0045
                                           -0.0030 -0.0007 -0.0206 -0.0013  0.0042
                                           -0.0120 -0.0001  0.0010 -0.0179 -0.0022
                                            0.0012  0.0007  0.0008  0.0016  0.0006
                                           -0.0001  0.0011  0.0029 -0.0004  0.0003
                                           -0.0004 -0.0008  0.0009  0.0016 -0.0010
                                           -0.0016  0.0006  0.0043 -0.0020  0.0000
                                            0.0006
    15. (1.95265) LP ( 2) O   1           s(  0.02%)p99.99( 99.76%)d 9.48(  0.20%)
                                                  f 0.69(  0.01%)
                                           -0.0000  0.0095  0.0099  0.0046 -0.0007
                                           -0.5366 -0.0098 -0.0029 -0.0023 -0.1504
                                           -0.0039 -0.0011 -0.0020  0.8286  0.0166
                                            0.0059  0.0062 -0.0208 -0.0011  0.0034
                                           -0.0015 -0.0046 -0.0064  0.0271  0.0034
                                           -0.0021 -0.0018  0.0036  0.0048  0.0256
                                           -0.0008 -0.0062 -0.0039  0.0006  0.0070
                                            0.0001  0.0009 -0.0004 -0.0065  0.0015
                                           -0.0035 -0.0000  0.0032 -0.0019  0.0032
                                           -0.0005
    16. (1.97868) LP ( 1)Cl   2           s( 94.99%)p 0.05(  5.01%)d 0.00(  0.00%)
                                                  f 0.00(  0.00%)
                                            0.0000  0.0000  0.9746 -0.0001  0.0003
                                           -0.0002 -0.0000  0.2100 -0.0013  0.0006
                                           -0.0003  0.0000 -0.0039 -0.0001 -0.0000
                                           -0.0001  0.0000 -0.0776  0.0004 -0.0001
                                            0.0002 -0.0000  0.0000  0.0000  0.0002
                                           -0.0003  0.0002 -0.0000 -0.0000 -0.0000
                                            0.0008  0.0005 -0.0002 -0.0006 -0.0002
                                            0.0001 -0.0002 -0.0002  0.0003  0.0001
                                            0.0000  0.0000  0.0003  0.0002  0.0000
                                            0.0000 -0.0004 -0.0003  0.0000  0.0000
    17. (1.95211) LP ( 2)Cl   2           s(  0.00%)p 1.00( 99.99%)d 0.00(  0.01%)
                                                  f 0.00(  0.00%)
                                            0.0000  0.0000  0.0044  0.0008 -0.0009
                                            0.0012  0.0000 -0.1622 -0.0001  0.0000
                                            0.0000 -0.0000  0.8894  0.0014  0.0010
                                           -0.0001  0.0000 -0.4273 -0.0001 -0.0004
                                            0.0003 -0.0081 -0.0017  0.0002  0.0022
                                           -0.0002 -0.0006  0.0036  0.0015  0.0007
                                            0.0019  0.0006  0.0000 -0.0026 -0.0009
                                           -0.0003  0.0002  0.0000  0.0012  0.0007
                                           -0.0003 -0.0002 -0.0003 -0.0001 -0.0014
                                           -0.0009 -0.0004 -0.0001  0.0021  0.0013
    18. (1.95178) LP ( 3)Cl   2           s(  0.00%)p 1.00( 99.99%)d 0.00(  0.01%)
                                                  f 0.00(  0.00%)
                                           -0.0000 -0.0000  0.0027 -0.0009  0.0013
                                           -0.0014 -0.0000  0.3048 -0.0004 -0.0001
                                            0.0001 -0.0000  0.4570  0.0006  0.0004
                                           -0.0000 -0.0000  0.8355  0.0003  0.0009
                                           -0.0004 -0.0040 -0.0007  0.0003 -0.0045
                                           -0.0003  0.0009  0.0018  0.0008  0.0005
                                           -0.0019  0.0001  0.0009  0.0052  0.0019
                                            0.0007 -0.0004 -0.0002 -0.0022 -0.0013
                                           -0.0002 -0.0001  0.0009  0.0004 -0.0008
                                           -0.0006  0.0006  0.0002  0.0010  0.0006
    19. (1.88737) LP ( 4)Cl   2           s(  5.01%)p18.96( 94.94%)d 0.01(  0.05%)
                                                  f 0.00(  0.00%)
                                           -0.0000 -0.0002  0.2238  0.0005 -0.0014
                                            0.0010 -0.0001 -0.9145  0.0023  0.0020
                                           -0.0005 -0.0000 -0.0063  0.0002  0.0003
                                            0.0001  0.0001  0.3363  0.0018 -0.0007
                                            0.0008 -0.0001 -0.0004 -0.0005 -0.0142
                                           -0.0039 -0.0010 -0.0001 -0.0000  0.0000
                                            0.0140  0.0032 -0.0002 -0.0058 -0.0015
                                           -0.0001 -0.0023 -0.0012  0.0014  0.0010
                                           -0.0000 -0.0001  0.0032  0.0016  0.0000
                                           -0.0000 -0.0031 -0.0017  0.0001  0.0003
    20. (1.97424) LP ( 1)Cl   3           s( 91.58%)p 0.09(  8.40%)d 0.00(  0.02%)
                                                  f 0.00(  0.00%)
                                            0.0000  0.0003  0.9569  0.0070  0.0012
                                            0.0003 -0.0000 -0.0474 -0.0002  0.0004
                                            0.0001  0.0000  0.2848 -0.0064 -0.0029
                                            0.0012  0.0000  0.0240  0.0007  0.0002
                                            0.0001  0.0053  0.0001  0.0004  0.0006
                                            0.0001 -0.0003  0.0006  0.0005  0.0004
                                            0.0108 -0.0007 -0.0002  0.0082  0.0007
                                            0.0003 -0.0003  0.0001  0.0006 -0.0000
                                           -0.0022 -0.0003  0.0001 -0.0001 -0.0005
                                            0.0003  0.0017  0.0003 -0.0028  0.0001
    21. (1.95611) LP ( 2)Cl   3           s(  0.02%)p99.99( 99.92%)d 3.09(  0.05%)
                                                  f 0.48(  0.01%)
                                            0.0000  0.0000  0.0114 -0.0056 -0.0025
                                            0.0014 -0.0001  0.4517  0.0060  0.0021
                                           -0.0003 -0.0000  0.1116  0.0017 -0.0001
                                            0.0006  0.0001 -0.8846 -0.0139 -0.0042
                                            0.0019  0.0031  0.0072  0.0032  0.0062
                                            0.0081  0.0030 -0.0054 -0.0146 -0.0071
                                           -0.0037 -0.0052 -0.0027 -0.0003  0.0003
                                           -0.0000  0.0041 -0.0001 -0.0018  0.0007
                                            0.0002 -0.0003  0.0058 -0.0014  0.0032
                                           -0.0007 -0.0025  0.0003 -0.0030  0.0009
    22. (1.95494) LP ( 3)Cl   3           s(  0.10%)p99.99( 99.85%)d 0.42(  0.04%)
                                                  f 0.09(  0.01%)
                                            0.0000 -0.0000  0.0308  0.0056  0.0036
                                           -0.0015  0.0001 -0.8596 -0.0113 -0.0013
                                            0.0003  0.0001 -0.2081 -0.0030 -0.0006
                                           -0.0008  0.0001 -0.4648 -0.0075 -0.0012
                                            0.0003  0.0042 -0.0100 -0.0050 -0.0000
                                            0.0028  0.0016  0.0015 -0.0062 -0.0034
                                            0.0069  0.0109  0.0057 -0.0019 -0.0032
                                           -0.0003  0.0030 -0.0005  0.0010  0.0005
                                            0.0009  0.0001  0.0022  0.0000  0.0020
                                           -0.0005  0.0055 -0.0011  0.0059 -0.0009
    23. (0.01964) RY*( 1) O   1           s(  0.21%)p99.99( 98.28%)d 6.94(  1.45%)
                                                  f 0.26(  0.06%)
                                           -0.0000 -0.0004  0.0456  0.0043  0.0014
                                            0.0125 -0.5285  0.0212  0.0095  0.0066
                                           -0.1491  0.0047 -0.0021 -0.0210  0.8240
                                           -0.0326 -0.0048 -0.0570 -0.0121 -0.0004
                                            0.0005 -0.0092 -0.0117  0.0737  0.0223
                                            0.0064 -0.0050  0.0073  0.0070  0.0692
                                            0.0052 -0.0054 -0.0072  0.0060  0.0063
                                           -0.0064  0.0025 -0.0013 -0.0105  0.0089
                                           -0.0037  0.0034  0.0089 -0.0066  0.0042
                                           -0.0045
    24. (0.01569) RY*( 2) O   1           s( 28.51%)p 2.41( 68.79%)d 0.09(  2.46%)
                                                  f 0.01(  0.25%)
                                           -0.0000  0.0021  0.5312 -0.0531 -0.0051
                                            0.0067 -0.4991  0.0060  0.0316  0.0416
                                           -0.4926 -0.0025  0.0341  0.0066 -0.4376
                                            0.0079  0.0234 -0.1002 -0.0205 -0.0079
                                           -0.0321  0.0017  0.0098 -0.1014 -0.0195
                                           -0.0079  0.0411  0.0032 -0.0013  0.0215
                                            0.0033 -0.0009  0.0008 -0.0030  0.0143
                                           -0.0084 -0.0115  0.0044  0.0249 -0.0118
                                           -0.0068  0.0046  0.0300 -0.0141 -0.0099
                                            0.0034
    25. (0.00789) RY*( 3) O   1           s( 15.09%)p 0.52(  7.91%)d 5.01( 75.55%)
                                                  f 0.10(  1.45%)
                                           -0.0000  0.0148  0.3838 -0.0567  0.0118
                                            0.0105  0.2279 -0.0149  0.0604 -0.0150
                                           -0.1000  0.0020  0.0413 -0.0008  0.1052
                                           -0.0095  0.0106  0.6058 -0.0016  0.0023
                                           -0.1325  0.0024 -0.0085  0.2249  0.0098
                                            0.0076 -0.5070 -0.0089 -0.0298  0.2490
                                           -0.0063  0.0061 -0.0007 -0.0002  0.0081
                                           -0.0102 -0.0033  0.0044 -0.0447  0.0187
                                            0.0269 -0.0125 -0.0899  0.0357 -0.0375
                                            0.0188
    26. (0.00706) RY*( 4) O   1           s(  0.76%)p 0.43(  0.33%)d99.99( 97.18%)
                                                  f 2.27(  1.73%)
                                            0.0000  0.0055  0.0867 -0.0089 -0.0022
                                            0.0088  0.0251  0.0062  0.0017 -0.0016
                                           -0.0006  0.0054  0.0074 -0.0159 -0.0456
                                           -0.0091  0.0061 -0.0999  0.0125 -0.0006
                                           -0.4083  0.0211 -0.0059  0.8024 -0.0350
                                            0.0087  0.2802 -0.0206  0.0008 -0.2649
                                            0.0133 -0.0089 -0.0659  0.0284 -0.0341
                                            0.0156  0.0104 -0.0043 -0.0819  0.0343
                                           -0.0169  0.0071  0.0282 -0.0156  0.0345
                                           -0.0130
    27. (0.00635) RY*( 5) O   1           s(  0.41%)p20.34(  8.42%)d99.99( 89.61%)
                                                  f 3.77(  1.56%)
                                           -0.0000  0.0022  0.0595 -0.0241 -0.0036
                                            0.0452  0.2595 -0.0168  0.0044 -0.0035
                                           -0.1118 -0.0015  0.0310 -0.0119  0.0292
                                           -0.0051  0.0044 -0.6828  0.0328 -0.0205
                                            0.0105 -0.0012 -0.0004  0.1844 -0.0271
                                           -0.0083 -0.2633  0.0131 -0.0128  0.5672
                                           -0.0399  0.0190  0.0154 -0.0095  0.0633
                                           -0.0320  0.0338 -0.0174 -0.0350  0.0184
                                           -0.0370  0.0179  0.0488 -0.0168 -0.0494
                                            0.0208
    28. (0.00609) RY*( 6) O   1           s(  1.11%)p17.64( 19.60%)d69.94( 77.70%)
                                                  f 1.43(  1.59%)
                                           -0.0000  0.0088  0.0999 -0.0288 -0.0150
                                            0.0453  0.3088 -0.0150 -0.0180 -0.0134
                                           -0.2291 -0.0006  0.0334  0.0429  0.2041
                                           -0.0180 -0.0202 -0.1701 -0.0051 -0.0145
                                           -0.6747  0.0465 -0.0234 -0.4461  0.0328
                                           -0.0091 -0.0650 -0.0051  0.0015 -0.2915
                                            0.0208 -0.0053  0.0508 -0.0267 -0.0459
                                            0.0231 -0.0493  0.0189 -0.0085  0.0075
                                           -0.0643  0.0285  0.0218 -0.0079 -0.0367
                                            0.0140
    29. (0.00573) RY*( 7) O   1           s(  1.16%)p10.59( 12.32%)d72.50( 84.38%)
                                                  f 1.84(  2.14%)
                                           -0.0000  0.0200  0.1030 -0.0205  0.0142
                                           -0.0100 -0.0950 -0.0017  0.0165  0.0723
                                            0.3248 -0.0053 -0.0474 -0.0021 -0.0285
                                           -0.0016  0.0036  0.1734 -0.0025  0.0058
                                           -0.4006  0.0587 -0.0022 -0.1654  0.0270
                                            0.0083  0.4982 -0.0431 -0.0132  0.6062
                                           -0.0629 -0.0044  0.0297 -0.0136 -0.0091
                                            0.0015  0.0882 -0.0336  0.0232 -0.0095
                                           -0.0226  0.0081 -0.0339  0.0123  0.0871
                                           -0.0349
    30. (0.00303) RY*( 8) O   1           s( 28.23%)p 1.06( 29.88%)d 1.46( 41.17%)
                                                  f 0.03(  0.71%)
                                            0.0000 -0.0062  0.5091 -0.1509  0.0185
                                           -0.0278  0.4373 -0.0554  0.1556  0.0222
                                           -0.0554  0.0164  0.0875 -0.0134  0.2525
                                           -0.0541  0.0345 -0.0330  0.0109 -0.0122
                                            0.3995 -0.0976  0.0277 -0.0495  0.0082
                                           -0.0004  0.4653 -0.0708  0.0358 -0.0960
                                            0.0768  0.0065 -0.0219  0.0226  0.0292
                                           -0.0226  0.0048  0.0001  0.0454 -0.0321
                                            0.0147 -0.0023  0.0158 -0.0117  0.0323
                                           -0.0028
    31. (0.00249) RY*( 9) O   1           s( 19.55%)p 3.00( 58.58%)d 1.09( 21.29%)
                                                  f 0.03(  0.59%)
                                           -0.0000  0.0003  0.4309 -0.0984 -0.0115
                                            0.0054 -0.1994 -0.0076  0.0889  0.0135
                                            0.7323 -0.0305  0.0145  0.0053 -0.0139
                                           -0.0098  0.0128 -0.2361  0.0377 -0.0394
                                           -0.0441 -0.0080 -0.0116 -0.0624  0.0123
                                           -0.0004 -0.2929  0.0134 -0.0871 -0.2215
                                            0.0679 -0.0274 -0.0009 -0.0036  0.0235
                                           -0.0213 -0.0315  0.0331  0.0066  0.0002
                                           -0.0115  0.0034  0.0203 -0.0209 -0.0297
                                            0.0287
    32. (0.00078) RY*(10) O   1           s( 46.11%)p 0.82( 38.03%)d 0.26( 11.82%)
                                                  f 0.09(  4.03%)
                                           -0.0000 -0.0018  0.0497  0.6756  0.0463
                                            0.0065  0.0010 -0.3784  0.2490  0.0136
                                           -0.0156 -0.2036 -0.1829  0.0025 -0.0130
                                           -0.2973  0.1059 -0.0243  0.1134  0.0824
                                           -0.0188  0.0238 -0.0959 -0.0083  0.0408
                                            0.0018 -0.0089 -0.1214 -0.0063 -0.0101
                                            0.2382  0.1202 -0.0020 -0.0258  0.1363
                                           -0.0555  0.0524 -0.0120 -0.0140  0.0038
                                            0.0416 -0.0147 -0.1061  0.0182  0.0300
                                           -0.0213
    33. (0.00066) RY*(11) O   1           s(  1.68%)p 7.75( 13.00%)d38.38( 64.35%)
                                                  f12.51( 20.98%)
                                           -0.0000 -0.0004  0.0625  0.1121 -0.0173
                                            0.0042  0.0081 -0.2482 -0.0511  0.0054
                                            0.0085 -0.0626 -0.0900 -0.0023  0.0327
                                            0.2097  0.0924 -0.0033  0.3515  0.0518
                                           -0.0125 -0.3302 -0.0107  0.0064 -0.2393
                                           -0.0187  0.0163  0.2301  0.0282 -0.0275
                                           -0.5430 -0.0243  0.0713  0.0066 -0.0083
                                           -0.0059 -0.3361  0.0472  0.1337 -0.0098
                                           -0.1176  0.0234 -0.1669  0.0017  0.1667
                                           -0.0364
    34. (0.00063) RY*(12) O   1           s(  2.09%)p36.73( 76.79%)d 6.28( 13.13%)
                                                  f 3.82(  7.99%)
                                           -0.0000  0.0021  0.0469  0.1367  0.0027
                                            0.0007  0.0248  0.5051 -0.2130  0.0069
                                            0.0267  0.1213 -0.0094  0.0025 -0.0161
                                           -0.6292  0.2348  0.0326  0.0718  0.0447
                                           -0.0051 -0.2766 -0.0047 -0.0204 -0.1358
                                           -0.0221 -0.0044  0.1560  0.0241  0.0100
                                           -0.0307  0.0347 -0.0638 -0.0186  0.0174
                                            0.0041  0.0080  0.0023 -0.0154 -0.0368
                                           -0.2506  0.0191  0.0950  0.0064  0.0317
                                            0.0164
    35. (0.00059) RY*(13) O   1           s(  2.49%)p 6.03( 14.99%)d18.42( 45.78%)
                                                  f14.78( 36.75%)
                                           -0.0000  0.0039 -0.0125  0.1259  0.0941
                                            0.0042 -0.0091 -0.0229  0.0247  0.0087
                                            0.0131  0.0121  0.0652 -0.0003  0.0036
                                            0.3701 -0.0839  0.0430 -0.1529  0.0530
                                           -0.0494 -0.4698 -0.0476  0.0300 -0.1828
                                            0.0298 -0.0075  0.0836  0.0301  0.0305
                                            0.3976  0.0465  0.1183  0.0062 -0.0368
                                            0.0028  0.2388 -0.0203  0.2856 -0.0068
                                           -0.4166  0.0386  0.1208 -0.0115 -0.1522
                                            0.0084
    36. (0.00051) RY*(14) O   1           s(  0.14%)p27.34(  3.89%)d99.99( 56.25%)
                                                  f99.99( 39.72%)
                                           -0.0000  0.0002  0.0283  0.0228 -0.0100
                                           -0.0046 -0.0004  0.1592 -0.0975 -0.0006
                                           -0.0001  0.0138 -0.0412  0.0076  0.0288
                                            0.0111  0.0330  0.0013  0.4343 -0.0294
                                            0.0013  0.1832 -0.0205 -0.0013 -0.5196
                                            0.0599  0.0180 -0.2391  0.0487 -0.0117
                                            0.0699 -0.0221  0.2425  0.0163 -0.1861
                                            0.0031  0.1896 -0.0066  0.2101  0.0128
                                            0.3195  0.0065 -0.0527 -0.0192 -0.3433
                                           -0.0099
    37. (0.00049) RY*(15) O   1           s(  0.33%)p36.07( 11.89%)d60.91( 20.08%)
                                                  f99.99( 67.70%)
                                            0.0000  0.0022 -0.0269 -0.0101  0.0497
                                           -0.0018  0.0019  0.2128  0.0685 -0.0025
                                           -0.0173  0.2348  0.0091  0.0009 -0.0045
                                            0.0202 -0.1138 -0.0387 -0.0112 -0.0391
                                            0.0059  0.2755 -0.0758  0.0354 -0.1223
                                            0.0507 -0.0228 -0.2127  0.0025  0.0090
                                            0.2209 -0.0504  0.0296 -0.0009  0.2867
                                            0.0095 -0.3582 -0.0094  0.3418  0.0332
                                           -0.2591 -0.0084 -0.4317 -0.0122  0.3059
                                            0.0132
    38. (0.00048) RY*(16) O   1           s(  2.65%)p22.59( 59.98%)d 1.26(  3.33%)
                                                  f12.82( 34.03%)
                                           -0.0000  0.0055  0.0601  0.1362  0.0660
                                            0.0023  0.0197 -0.0954 -0.0020  0.0059
                                           -0.0097  0.7348 -0.1915  0.0003  0.0122
                                            0.1135  0.0225 -0.0171  0.0776  0.0233
                                            0.0050  0.0133 -0.0163 -0.0235  0.0036
                                           -0.0195 -0.0653  0.0280 -0.1101 -0.0539
                                           -0.0676 -0.0201  0.0610  0.0057  0.0015
                                           -0.0033  0.3716  0.0409 -0.0477 -0.0057
                                            0.1311  0.0044  0.1618  0.0109  0.3870
                                            0.0341
    39. (0.00049) RY*(17) O   1           s(  1.03%)p 5.86(  6.05%)d37.74( 39.01%)
                                                  f52.16( 53.91%)
                                            0.0000  0.0008  0.0378  0.0766  0.0552
                                           -0.0046 -0.0025  0.1276 -0.0685  0.0004
                                           -0.0182  0.0452 -0.0899 -0.0035 -0.0051
                                            0.1490 -0.0825 -0.0294  0.3847 -0.0566
                                            0.0364 -0.0422  0.0435 -0.0240  0.3736
                                           -0.0626 -0.0109 -0.2829  0.0035 -0.0168
                                           -0.0917 -0.0087 -0.4726 -0.0366 -0.2431
                                           -0.0158  0.2169  0.0210 -0.0295 -0.0071
                                           -0.3016 -0.0120 -0.2901 -0.0370 -0.1731
                                           -0.0074
    40. (0.00047) RY*(18) O   1           s(  7.47%)p 6.74( 50.30%)d 1.15(  8.56%)
                                                  f 4.51( 33.68%)
                                           -0.0000  0.0021  0.0822  0.2365  0.1094
                                            0.0117  0.0526  0.5117 -0.0685 -0.0031
                                           -0.0092 -0.2794 -0.0651 -0.0009  0.0234
                                            0.3830 -0.0625  0.0061  0.1875  0.0540
                                           -0.0234 -0.1050 -0.0490 -0.0162  0.1680
                                           -0.0268  0.0078 -0.0314  0.0172 -0.0073
                                            0.0489  0.0218 -0.0056 -0.0055  0.3679
[...]
                                            0.0971  0.0556 -0.0684
   152. (0.00039) RY*( 7) H   4           s(  2.74%)p21.04( 57.60%)d14.49( 39.66%)
                                           -0.0011 -0.0566 -0.0736  0.1369  0.0727
                                            0.0502  0.2897 -0.0059 -0.5461  0.0559
                                            0.1387 -0.1931 -0.3554 -0.1493  0.0896
                                            0.4955  0.0009  0.1596  0.0285 -0.1828
                                           -0.1685  0.1176  0.1373
   153. (0.00029) RY*( 8) H   4           s(  0.69%)p79.84( 55.47%)d63.10( 43.84%)
                                            0.0042 -0.0347  0.0498  0.0570  0.0266
                                           -0.0932 -0.2103 -0.0447  0.3390 -0.0766
                                           -0.0546  0.4114 -0.4539  0.2564 -0.1242
                                            0.4990  0.0886 -0.2377 -0.0454 -0.1842
                                            0.0796 -0.0351 -0.0173
   154. (0.00026) RY*( 9) H   4           s( 24.81%)p 0.69( 17.12%)d 2.34( 58.07%)
                                            0.0079 -0.0200  0.4770  0.1418 -0.0371
                                            0.2365  0.0786 -0.0009  0.2990 -0.0455
                                           -0.0052  0.0246 -0.1248 -0.3101 -0.0883
                                           -0.1811  0.1378  0.4422 -0.1160 -0.4582
                                           -0.0002  0.0779  0.0038
   155. (0.00024) RY*(10) H   4           s(  5.84%)p 5.70( 33.27%)d10.43( 60.89%)
                                           -0.0025 -0.0351  0.2367 -0.0334 -0.0514
                                            0.0687  0.2811 -0.1158  0.0836 -0.1605
                                            0.0519 -0.4427  0.0391  0.5041  0.0180
                                           -0.1199  0.0154 -0.4176  0.0138 -0.3320
                                           -0.1452  0.0261  0.1825
   156. (0.00020) RY*(11) H   4           s(  9.39%)p 7.44( 69.83%)d 2.21( 20.78%)
                                           -0.0226 -0.0861  0.2914 -0.0325 -0.0847
                                           -0.3849 -0.3885  0.0237  0.1009 -0.0758
                                           -0.0033 -0.5747 -0.2128 -0.0520  0.0046
                                            0.1214  0.1972  0.1494 -0.0546  0.3429
                                            0.0414 -0.0010  0.0826
   157. (0.00017) RY*(12) H   4           s(  0.45%)p44.11( 19.91%)d99.99( 79.64%)
                                            0.0058 -0.0272 -0.0022  0.0611 -0.0609
                                            0.1666  0.0887  0.0593  0.1146  0.1457
                                            0.1068  0.0675 -0.3255 -0.0575  0.0088
                                           -0.2339  0.0456 -0.2276  0.0282  0.3215
                                           -0.0090  0.7596  0.0553
   158. (0.00013) RY*(13) H   4           s( 17.78%)p 1.22( 21.65%)d 3.41( 60.58%)
                                           -0.0058 -0.0226  0.1651  0.3872  0.0548
                                           -0.1106 -0.1416  0.0159  0.0251 -0.1334
                                            0.0037 -0.1234  0.3838 -0.1130  0.1343
                                            0.2858 -0.3701 -0.1467  0.0889 -0.1550
                                            0.2170  0.3564 -0.3588
   159. (0.00011) RY*(14) H   4           s( 38.36%)p 0.29( 11.07%)d 1.32( 50.57%)
                                            0.0037  0.0360  0.2316  0.5733  0.0091
                                            0.0453  0.2590  0.0102  0.1423  0.0477
                                           -0.0502  0.1210  0.0405  0.2191 -0.0285
                                            0.0711 -0.2470  0.1598 -0.0788  0.4632
                                           -0.2579 -0.2095  0.1846
   160. (0.00011) RY*(15) H   4           s( 10.59%)p 0.82(  8.73%)d 7.62( 80.68%)
                                            0.0016 -0.0095  0.2491  0.2092 -0.0245
                                           -0.0119 -0.0099  0.0327 -0.1048  0.2499
                                           -0.0182  0.0035 -0.1078 -0.5124 -0.0436
                                           -0.1098  0.0933 -0.6119  0.1331 -0.0034
                                           -0.0326 -0.3583 -0.0002
   161. (0.00009) RY*(16) H   4           s(  0.42%)p99.99( 44.20%)d99.99( 55.38%)
   162. (0.00006) RY*(17) H   4           s( 40.94%)p 0.49( 20.05%)d 0.95( 39.01%)
   163. (0.00006) RY*(18) H   4           s(  0.70%)p 3.06(  2.16%)d99.99( 97.14%)
   164. (0.00005) RY*(19) H   4           s(  1.33%)p19.36( 25.68%)d55.05( 73.00%)
   165. (0.00005) RY*(20) H   4           s(  7.16%)p 1.63( 11.65%)d11.34( 81.19%)
   166. (0.00004) RY*(21) H   4           s(  9.94%)p 2.28( 22.68%)d 6.78( 67.38%)
   167. (0.00003) RY*(22) H   4           s(  6.42%)p 6.07( 38.95%)d 8.52( 54.64%)
   168. (0.05773) BD*( 1) O   1 -Cl   3  
                ( 41.12%)   0.6413* O   1 s( 10.32%)p 8.63( 89.12%)d 0.05(  0.54%)
                                                  f 0.00(  0.02%)
                                           -0.0003 -0.3181  0.0428  0.0136  0.0014
                                            0.2112 -0.0304 -0.0067 -0.0022 -0.9187
                                            0.0211  0.0087  0.0100 -0.0271 -0.0153
                                           -0.0028  0.0004  0.0106  0.0015  0.0029
                                           -0.0071 -0.0007  0.0012 -0.0171 -0.0023
                                            0.0005  0.0582  0.0044  0.0003  0.0384
                                            0.0031  0.0001  0.0000 -0.0001 -0.0022
                                           -0.0002  0.0086 -0.0004  0.0029 -0.0017
                                           -0.0046  0.0009 -0.0047 -0.0015  0.0062
                                           -0.0009
                ( 58.88%)  -0.7673*Cl   3 s(  8.61%)p10.46( 90.11%)d 0.13(  1.16%)
                                                  f 0.01(  0.11%)
                                            0.0000 -0.0005 -0.2873  0.0590  0.0102
                                            0.0024 -0.0001 -0.2287  0.0143  0.0050
                                           -0.0016  0.0004  0.9187 -0.0655 -0.0129
                                            0.0039 -0.0000 -0.0053  0.0002  0.0019
                                           -0.0009  0.0489 -0.0055  0.0002 -0.0068
                                           -0.0002  0.0009  0.0092  0.0013  0.0008
                                            0.0771 -0.0097 -0.0006  0.0546 -0.0061
                                           -0.0003  0.0008 -0.0001  0.0050 -0.0008
                                           -0.0198  0.0026 -0.0001  0.0005  0.0016
                                           -0.0010  0.0177 -0.0023 -0.0191  0.0022
   169. (0.08199) BD*( 1) O   1 - H   4  
                ( 21.08%)   0.4591* O   1 s( 26.42%)p 2.77( 73.05%)d 0.02(  0.52%)
                                                  f 0.00(  0.01%)
                                           -0.0002 -0.5139  0.0053  0.0081 -0.0025
                                           -0.7213  0.0113  0.0069  0.0030  0.0235
                                           -0.0156 -0.0015 -0.0020 -0.4574  0.0023
                                            0.0043  0.0037 -0.0223 -0.0042 -0.0010
                                           -0.0557 -0.0037  0.0008 -0.0156 -0.0028
                                           -0.0003 -0.0352 -0.0024 -0.0017  0.0043
                                           -0.0010 -0.0020  0.0082 -0.0004 -0.0003
                                           -0.0005 -0.0007  0.0001 -0.0049 -0.0019
                                           -0.0003  0.0009  0.0012 -0.0025  0.0019
                                            0.0002
                ( 78.92%)  -0.8884* H   4 s( 99.80%)p 0.00(  0.20%)d 0.00(  0.00%)
                                           -0.9985 -0.0315 -0.0013  0.0004 -0.0032
                                            0.0285  0.0075 -0.0127 -0.0016  0.0041
                                           -0.0247  0.0173  0.0023 -0.0011 -0.0015
                                           -0.0005  0.0010 -0.0016 -0.0012 -0.0010
                                            0.0014  0.0020  0.0017


 NHO Directionality and "Bond Bending" (deviations from line of nuclear centers)

         [Thresholds for printing:  angular deviation  >  1.0 degree]
                                    hybrid p-character > 25.0%
                                    orbital occupancy  >  0.10e

                                Line of Centers        Hybrid 1              Hybrid 2
                                ---------------  -------------------   ------------------
                NBO               Theta   Phi    Theta   Phi    Dev    Theta   Phi    Dev
 ========================================================================================
     1. BD (   1) O   1 -Cl   3    90.0  103.5    87.1  101.1   3.8      --     --    --
     2. BD (   1) O   1 - H   4    60.0    0.0    57.4  359.6   2.6      --     --    --
    14. LP (   1) O   1             --     --    121.4  223.2   --       --     --    --
    15. LP (   2) O   1             --     --     33.8  195.9   --       --     --    --
    17. LP (   2)Cl   2             --     --    115.3  100.3   --       --     --    --
    18. LP (   3)Cl   2             --     --     33.3   56.4   --       --     --    --
    19. LP (   4)Cl   2             --     --     69.6  180.4   --       --     --    --
    21. LP (   2)Cl   3             --     --    152.3   13.9   --       --     --    --
    22. LP (   3)Cl   3             --     --    117.8  193.7   --       --     --    --


 Natural Bond Orbitals (Summary):

           NBO                  Occupancy  
 -----------------------------------------------
 Molecular unit  1  (HOCl)
     1. BD (   1) O   1 -Cl   3          1.93993
     2. BD (   1) O   1 - H   4          1.96413
     3. CR (   1) O   1                  1.99970
     9. CR (   1)Cl   3                  2.00000
    10. CR (   2)Cl   3                  1.99980
    11. CR (   3)Cl   3                  2.00003
    12. CR (   4)Cl   3                  1.99997
    13. CR (   5)Cl   3                  2.00003
    14. LP (   1) O   1                  1.96786
    15. LP (   2) O   1                  1.95265
    20. LP (   1)Cl   3                  1.97424
    21. LP (   2)Cl   3                  1.95611
    22. LP (   3)Cl   3                  1.95494
    23. RY*(   1) O   1                  0.01964
    24. RY*(   2) O   1                  0.01569
    25. RY*(   3) O   1                  0.00789
    26. RY*(   4) O   1                  0.00706
    27. RY*(   5) O   1                  0.00635
    28. RY*(   6) O   1                  0.00609
    29. RY*(   7) O   1                  0.00573
    30. RY*(   8) O   1                  0.00303
    31. RY*(   9) O   1                  0.00249
    32. RY*(  10) O   1                  0.00078
    33. RY*(  11) O   1                  0.00066
    34. RY*(  12) O   1                  0.00063
    35. RY*(  13) O   1                  0.00059
    36. RY*(  14) O   1                  0.00051
    37. RY*(  15) O   1                  0.00049
    38. RY*(  16) O   1                  0.00048
    39. RY*(  17) O   1                  0.00049
    40. RY*(  18) O   1                  0.00047
    41. RY*(  19) O   1                  0.00045
    42. RY*(  20) O   1                  0.00044
    43. RY*(  21) O   1                  0.00045
    44. RY*(  22) O   1                  0.00042
    45. RY*(  23) O   1                  0.00035
    46. RY*(  24) O   1                  0.00030
    47. RY*(  25) O   1                  0.00024
    48. RY*(  26) O   1                  0.00020
    49. RY*(  27) O   1                  0.00014
    50. RY*(  28) O   1                  0.00013
    51. RY*(  29) O   1                  0.00013
    52. RY*(  30) O   1                  0.00010
    53. RY*(  31) O   1                  0.00008
    54. RY*(  32) O   1                  0.00008
    55. RY*(  33) O   1                  0.00008
    56. RY*(  34) O   1                  0.00008
    57. RY*(  35) O   1                  0.00007
    58. RY*(  36) O   1                  0.00007
    59. RY*(  37) O   1                  0.00007
    60. RY*(  38) O   1                  0.00004
    61. RY*(  39) O   1                  0.00004
    62. RY*(  40) O   1                  0.00005
    63. RY*(  41) O   1                  0.00002
   105. RY*(   1)Cl   3                  0.02278
   106. RY*(   2)Cl   3                  0.01758
   107. RY*(   3)Cl   3                  0.01683
   108. RY*(   4)Cl   3                  0.01650
   109. RY*(   5)Cl   3                  0.01165
   110. RY*(   6)Cl   3                  0.00925
   111. RY*(   7)Cl   3                  0.00906
   112. RY*(   8)Cl   3                  0.00632
   113. RY*(   9)Cl   3                  0.00170
   114. RY*(  10)Cl   3                  0.00127
   115. RY*(  11)Cl   3                  0.00126
   116. RY*(  12)Cl   3                  0.00120
   117. RY*(  13)Cl   3                  0.00119
   118. RY*(  14)Cl   3                  0.00116
   119. RY*(  15)Cl   3                  0.00110
   120. RY*(  16)Cl   3                  0.00094
   121. RY*(  17)Cl   3                  0.00077
   122. RY*(  18)Cl   3                  0.00074
   123. RY*(  19)Cl   3                  0.00064
   124. RY*(  20)Cl   3                  0.00055
   125. RY*(  21)Cl   3                  0.00042
   126. RY*(  22)Cl   3                  0.00038
   127. RY*(  23)Cl   3                  0.00033
   128. RY*(  24)Cl   3                  0.00031
   129. RY*(  25)Cl   3                  0.00019
   130. RY*(  26)Cl   3                  0.00016
   131. RY*(  27)Cl   3                  0.00013
   132. RY*(  28)Cl   3                  0.00014
   133. RY*(  29)Cl   3                  0.00012
   134. RY*(  30)Cl   3                  0.00012
   135. RY*(  31)Cl   3                  0.00012
   136. RY*(  32)Cl   3                  0.00009
   137. RY*(  33)Cl   3                  0.00010
   138. RY*(  34)Cl   3                  0.00010
   139. RY*(  35)Cl   3                  0.00010
   140. RY*(  36)Cl   3                  0.00010
   141. RY*(  37)Cl   3                  0.00006
   142. RY*(  38)Cl   3                  0.00003
   143. RY*(  39)Cl   3                  0.00003
   144. RY*(  40)Cl   3                  0.00004
   145. RY*(  41)Cl   3                  0.00000
   146. RY*(   1) H   4                  0.00918
   147. RY*(   2) H   4                  0.00513
   148. RY*(   3) H   4                  0.00373
   149. RY*(   4) H   4                  0.00287
   150. RY*(   5) H   4                  0.00053
   151. RY*(   6) H   4                  0.00048
   152. RY*(   7) H   4                  0.00039
   153. RY*(   8) H   4                  0.00029
   154. RY*(   9) H   4                  0.00026
   155. RY*(  10) H   4                  0.00024
   156. RY*(  11) H   4                  0.00020
   157. RY*(  12) H   4                  0.00017
   158. RY*(  13) H   4                  0.00013
   159. RY*(  14) H   4                  0.00011
   160. RY*(  15) H   4                  0.00011
   161. RY*(  16) H   4                  0.00009
   162. RY*(  17) H   4                  0.00006
   163. RY*(  18) H   4                  0.00006
   164. RY*(  19) H   4                  0.00005
   165. RY*(  20) H   4                  0.00005
   166. RY*(  21) H   4                  0.00004
   167. RY*(  22) H   4                  0.00003
   168. BD*(   1) O   1 -Cl   3          0.05773
   169. BD*(   1) O   1 - H   4          0.08199
       -------------------------------
              Total Lewis   25.70939  ( 98.5716%)
        Valence non-Lewis    0.13972  (  0.5357%)
        Rydberg non-Lewis    0.23284  (  0.8927%)
       -------------------------------
            Total unit  1   26.08195  (100.0000%)
           Charge unit  1   -0.08195

 Molecular unit  2  (Cl)
     4. CR (   1)Cl   2                  2.00000
     5. CR (   2)Cl   2                  2.00000
     6. CR (   3)Cl   2                  2.00002
     7. CR (   4)Cl   2                  2.00003
     8. CR (   5)Cl   2                  2.00003
    16. LP (   1)Cl   2                  1.97868
    17. LP (   2)Cl   2                  1.95211
    18. LP (   3)Cl   2                  1.95178
    19. LP (   4)Cl   2                  1.88737
    64. RY*(   1)Cl   2                  0.01849
    65. RY*(   2)Cl   2                  0.01845
    66. RY*(   3)Cl   2                  0.01832
    67. RY*(   4)Cl   2                  0.01832
    68. RY*(   5)Cl   2                  0.01794
    69. RY*(   6)Cl   2                  0.01307
    70. RY*(   7)Cl   2                  0.01307
    71. RY*(   8)Cl   2                  0.01094
    72. RY*(   9)Cl   2                  0.00261
    73. RY*(  10)Cl   2                  0.00131
    74. RY*(  11)Cl   2                  0.00130
    75. RY*(  12)Cl   2                  0.00129
    76. RY*(  13)Cl   2                  0.00129
    77. RY*(  14)Cl   2                  0.00128
    78. RY*(  15)Cl   2                  0.00128
    79. RY*(  16)Cl   2                  0.00126
    80. RY*(  17)Cl   2                  0.00099
    81. RY*(  18)Cl   2                  0.00099
    82. RY*(  19)Cl   2                  0.00077
    83. RY*(  20)Cl   2                  0.00076
    84. RY*(  21)Cl   2                  0.00072
    85. RY*(  22)Cl   2                  0.00054
    86. RY*(  23)Cl   2                  0.00055
    87. RY*(  24)Cl   2                  0.00052
    88. RY*(  25)Cl   2                  0.00023
    89. RY*(  26)Cl   2                  0.00016
    90. RY*(  27)Cl   2                  0.00017
    91. RY*(  28)Cl   2                  0.00015
    92. RY*(  29)Cl   2                  0.00014
    93. RY*(  30)Cl   2                  0.00014
    94. RY*(  31)Cl   2                  0.00014
    95. RY*(  32)Cl   2                  0.00015
    96. RY*(  33)Cl   2                  0.00012
    97. RY*(  34)Cl   2                  0.00012
    98. RY*(  35)Cl   2                  0.00009
    99. RY*(  36)Cl   2                  0.00010
   100. RY*(  37)Cl   2                  0.00010
   101. RY*(  38)Cl   2                  0.00007
   102. RY*(  39)Cl   2                  0.00004
   103. RY*(  40)Cl   2                  0.00002
   104. RY*(  41)Cl   2                  0.00003
       -------------------------------
              Total Lewis   17.77001  ( 99.1738%)
        Valence non-Lewis    0.00000  (  0.0000%)
        Rydberg non-Lewis    0.14804  (  0.8262%)
       -------------------------------
            Total unit  2   17.91805  (100.0000%)
           Charge unit  2   -0.91805
 Leave Link  607 at Wed Sep 22 16:32:25 2021, MaxMem= 16106127360 cpu:              70.9 elap:               2.6
 (Enter /sw/contrib/gaussian/g16/B01/g16/l9999.exe)
 1\1\GINC-N2096\SP\RMP2-FC\Aug-CC-pVTZ\Cl2H1O1(1-)\CGAVINH\22-Sep-2021\
 0\\#p pop=NBO SP NoSymm mp2/aug-cc-pvtz density=current\\title\\-1,1\O
 ,0,0.,0.,0.\Cl,0,2.904676,0.,0.\Cl,0,-0.3936866,1.6360486,0.\H,0,0.864
 786987,0.,0.499285\\Version=ES64L-G16RevB.01\HF=-994.5149777\MP2=-995.
 1806619\RMSD=5.507e-09\Dipole=-2.2082892,0.9652904,0.1920011\Quadrupol
 e=-17.2578177,8.3694273,8.8883904,0.3521909,0.214496,-0.1219065\PG=C01
  [X(Cl2H1O1)]\\@


 A MAN IS EXACTLY AS GREAT AS THE TIDE SURGING
 BENEATH HIM.      - BISMARCK
 Job cpu time:       0 days  0 hours  4 minutes 36.2 seconds.
 Elapsed time:       0 days  0 hours  0 minutes 15.1 seconds.
 File lengths (MBytes):  RWF=     14 Int=      0 D2E=      0 Chk=      8 Scr=      1
 Normal termination of Gaussian 16 at Wed Sep 22 16:32:26 2021.
