 Entering Gaussian System, Link 0=g16
 Input=clhocl_30_opt.gjf
 Output=clhocl_30_opt.log
 Initial command:
 /sw/contrib/gaussian/g16/B01/g16/l1.exe "/scr/Gau-31150.inp" -scrdir="/scr/"
 Entering Link 1 = /sw/contrib/gaussian/g16/B01/g16/l1.exe PID=     31151.
  
 Copyright (c) 1988-2017, Gaussian, Inc.  All Rights Reserved.
  
 This is part of the Gaussian(R) 16 program.  It is based on
 the Gaussian(R) 09 system (copyright 2009, Gaussian, Inc.),
 the Gaussian(R) 03 system (copyright 2003, Gaussian, Inc.),
 the Gaussian(R) 98 system (copyright 1998, Gaussian, Inc.),
 the Gaussian(R) 94 system (copyright 1995, Gaussian, Inc.),
 the Gaussian 92(TM) system (copyright 1992, Gaussian, Inc.),
 the Gaussian 90(TM) system (copyright 1990, Gaussian, Inc.),
 the Gaussian 88(TM) system (copyright 1988, Gaussian, Inc.),
 the Gaussian 86(TM) system (copyright 1986, Carnegie Mellon
 University), and the Gaussian 82(TM) system (copyright 1983,
 Carnegie Mellon University). Gaussian is a federally registered
 trademark of Gaussian, Inc.
  
 This software contains proprietary and confidential information,
 including trade secrets, belonging to Gaussian, Inc.
  
 This software is provided under written license and may be
 used, copied, transmitted, or stored only in accord with that
 written license.
  
 The following legend is applicable only to US Government
 contracts under FAR:
  
                    RESTRICTED RIGHTS LEGEND
  
 Use, reproduction and disclosure by the US Government is
 subject to restrictions as set forth in subparagraphs (a)
 and (c) of the Commercial Computer Software - Restricted
 Rights clause in FAR 52.227-19.
  
 Gaussian, Inc.
 340 Quinnipiac St., Bldg. 40, Wallingford CT 06492
  
  
 ---------------------------------------------------------------
 Warning -- This program may not be used in any manner that
 competes with the business of Gaussian, Inc. or will provide
 assistance to any competitor of Gaussian, Inc.  The licensee
 of this program is prohibited from giving any competitor of
 Gaussian, Inc. access to this program.  By using this program,
 the user acknowledges that Gaussian, Inc. is engaged in the
 business of creating and licensing software in the field of
 computational chemistry and represents and warrants to the
 licensee that it is not a competitor of Gaussian, Inc. and that
 it will not use this program in any manner prohibited above.
 ---------------------------------------------------------------
  

 Cite this work as:
 Gaussian 16, Revision B.01,
 M. J. Frisch, G. W. Trucks, H. B. Schlegel, G. E. Scuseria, 
 M. A. Robb, J. R. Cheeseman, G. Scalmani, V. Barone, 
 G. A. Petersson, H. Nakatsuji, X. Li, M. Caricato, A. V. Marenich, 
 J. Bloino, B. G. Janesko, R. Gomperts, B. Mennucci, H. P. Hratchian, 
 J. V. Ortiz, A. F. Izmaylov, J. L. Sonnenberg, D. Williams-Young, 
 F. Ding, F. Lipparini, F. Egidi, J. Goings, B. Peng, A. Petrone, 
 T. Henderson, D. Ranasinghe, V. G. Zakrzewski, J. Gao, N. Rega, 
 G. Zheng, W. Liang, M. Hada, M. Ehara, K. Toyota, R. Fukuda, 
 J. Hasegawa, M. Ishida, T. Nakajima, Y. Honda, O. Kitao, H. Nakai, 
 T. Vreven, K. Throssell, J. A. Montgomery, Jr., J. E. Peralta, 
 F. Ogliaro, M. J. Bearpark, J. J. Heyd, E. N. Brothers, K. N. Kudin, 
 V. N. Staroverov, T. A. Keith, R. Kobayashi, J. Normand, 
 K. Raghavachari, A. P. Rendell, J. C. Burant, S. S. Iyengar, 
 J. Tomasi, M. Cossi, J. M. Millam, M. Klene, C. Adamo, R. Cammi, 
 J. W. Ochterski, R. L. Martin, K. Morokuma, O. Farkas, 
 J. B. Foresman, and D. J. Fox, Gaussian, Inc., Wallingford CT, 2016.
 
 ******************************************
 Gaussian 16:  ES64L-G16RevB.01 20-Dec-2017
                16-Sep-2021 
 ******************************************
 %nproc=28
 Will use up to   28 processors via shared memory.
 %mem=120GB
 %chk=/gscratch/ilahie/mccoygrp/coire_hocl/clhocl/clhocl_30_opt.chk
 -------------------------------------------------
 #p opt=(z-matrix) mp2/aug-cc-pvtz density=current
 -------------------------------------------------
 1/10=7,18=40,38=1/1,3;
 2/12=2,17=6,18=5,29=3,40=1/2;
 3/5=16,6=1,7=10,11=9,25=1,30=1,71=1/1,2,3;
 4//1;
 5/5=2,38=5/2;
 8/6=4,10=1/1;
 9/15=2,16=-3/6;
 10/5=1/2;
 6/7=2,8=2,9=2,10=2,22=-1/1;
 7/12=2,29=1/1,2,3,16;
 1/10=7,18=40/3(2);
 2/29=3/2;
 99//99;
 2/29=3/2;
 3/5=16,6=1,7=10,11=9,25=1,30=1,71=1/1,2,3;
 4/5=5,16=3,69=1/1;
 5/5=2,38=5/2;
 8/6=4,10=1/1;
 9/15=2,16=-3/6;
 10/5=1/2;
 7/12=2/1,2,3,16;
 1/18=40/3(-8);
 2/29=3/2;
 6/7=2,8=2,9=2,10=2,22=-1/1;
 99/9=10/99;
 Leave Link    1 at Thu Sep 16 14:54:15 2021, MaxMem= 16106127360 cpu:               3.3 elap:               0.1
 (Enter /sw/contrib/gaussian/g16/B01/g16/l101.exe)
 -----
 title
 -----
 Symbolic Z-matrix:
 Charge = -1 Multiplicity = 1
 O
 X                    1     10. 
 Cl                   1    r1       2     90. 
 Cl                   1    r2       2     90.      3    a1       0
 H                    1    r3       2    oop      3    a1       0
       Variables:
  r1                    1.68275 -1        0.     
  r2                    2.90468 -1        0.     
  r3                    1.02843                  
  a1                  103.53016 -1        0.     
  OOP                  60.      -1        0.     
 
 ITRead=  0  0  0  0
 MicOpt= -1 -1 -1 -1
 NAtoms=      4 NQM=        4 NQMF=       0 NMMI=      0 NMMIF=      0
                NMic=       0 NMicF=      0.
                    Isotopes and Nuclear Properties:
 (Nuclear quadrupole moments (NQMom) in fm**2, nuclear magnetic moments (NMagM)
  in nuclear magnetons)

  Atom         1           2           3           4
 IAtWgt=          16          35          35           1
 AtmWgt=  15.9949146  34.9688527  34.9688527   1.0078250
 NucSpn=           0           3           3           1
 AtZEff=  -0.0000000  -0.0000000  -0.0000000  -0.0000000
 NQMom=    0.0000000  -8.1650000  -8.1650000   0.0000000
 NMagM=    0.0000000   0.8218740   0.8218740   2.7928460
 AtZNuc=   8.0000000  17.0000000  17.0000000   1.0000000
 Leave Link  101 at Thu Sep 16 14:54:15 2021, MaxMem= 16106127360 cpu:               2.9 elap:               0.1
 (Enter /sw/contrib/gaussian/g16/B01/g16/l103.exe)

 GradGradGradGradGradGradGradGradGradGradGradGradGradGradGradGradGradGrad
 Berny optimization.
 Initialization pass.
                       ----------------------------
                       !    Initial Parameters    !
                       ! (Angstroms and Degrees)  !
 ----------------------                            ----------------------
 !      Name          Value   Derivative information (Atomic Units)     !
 ------------------------------------------------------------------------
 !       r1          1.6827   Frozen                                    !
 !       r2          2.9047   Frozen                                    !
 !       r3          1.0284   estimate D2E/DX2                          !
 !       a1        103.5302   Frozen                                    !
 !       OOP        60.0      Frozen                                    !
 ------------------------------------------------------------------------
 Trust Radius=3.00D-01 FncErr=1.00D-07 GrdErr=1.00D-07 EigMax=2.50D+02 EigMin=1.00D-04
 Number of steps in this run=     20 maximum allowed number of steps=    100.
 GradGradGradGradGradGradGradGradGradGradGradGradGradGradGradGradGradGrad

 Leave Link  103 at Thu Sep 16 14:54:15 2021, MaxMem= 16106127360 cpu:               0.9 elap:               0.1
 (Enter /sw/contrib/gaussian/g16/B01/g16/l202.exe)
 ---------------------------------------------------------------------------------------------------
                            Z-MATRIX (ANGSTROMS AND DEGREES)
   CD    Cent   Atom    N1       Length/X        N2       Alpha/Y        N3        Beta/Z          J
 ---------------------------------------------------------------------------------------------------
      1      1  O 
      2         X        1  10.000000(     1)
      3      2  Cl       1   1.682749(     2)      2   90.000(     5)
      4      3  Cl       1   2.904676(     3)      2   90.000(     6)      3  103.530(     8)      0
      5      4  H        1   1.028426(     4)      2   60.000(     7)      3  103.530(     9)      0
 ---------------------------------------------------------------------------------------------------
                         Z-Matrix orientation:                         
 ---------------------------------------------------------------------
 Center     Atomic      Atomic             Coordinates (Angstroms)
 Number     Number       Type             X           Y           Z
 ---------------------------------------------------------------------
      1          8           0        0.000000    0.000000    0.000000
      2         -1           0        0.000000    0.000000   10.000000
      3         17           0        1.682749    0.000000    0.000000
      4         17           0       -0.679570   -2.824062    0.000000
      5          1           0       -0.208372   -0.865925    0.514213
 ---------------------------------------------------------------------
                    Distance matrix (angstroms):
                    1          2          3          4          5
     1  O    0.000000
     2  X   10.000000   0.000000
     3  Cl   1.682749  10.140594   0.000000
     4  Cl   2.904676  10.413316   3.681831   0.000000
     5  H    1.028426   9.527508   2.142564   2.078640   0.000000
 Stoichiometry    Cl2HO(1-)
 Framework group  C1[X(Cl2HO)]
 Deg. of freedom     6
 Full point group                 C1      NOp   1
 Largest Abelian subgroup         C1      NOp   1
 Largest concise Abelian subgroup C1      NOp   1
                         Standard orientation:                         
 ---------------------------------------------------------------------
 Center     Atomic      Atomic             Coordinates (Angstroms)
 Number     Number       Type             X           Y           Z
 ---------------------------------------------------------------------
      1          8           0        0.678818    0.991433   -0.042510
      2         17           0        1.682274   -0.358712    0.000258
      3         17           0       -1.993431   -0.146582   -0.008597
      4          1           0       -0.140869    0.658539    0.481851
 ---------------------------------------------------------------------
 Rotational constants (GHZ):          23.3351170           2.0579866           1.8948544
 Leave Link  202 at Thu Sep 16 14:54:15 2021, MaxMem= 16106127360 cpu:               1.0 elap:               0.1
 (Enter /sw/contrib/gaussian/g16/B01/g16/l301.exe)
 Standard basis: Aug-CC-pVTZ (5D, 7F)
 Ernie: Thresh=  0.10000D-02 Tol=  0.10000D-05 Strict=F.
 Ernie:  29 primitive shells out of 169 were deleted.
 There are   198 symmetry adapted cartesian basis functions of A   symmetry.
 There are   169 symmetry adapted basis functions of A   symmetry.
   169 basis functions,   327 primitive gaussians,   198 cartesian basis functions
    22 alpha electrons       22 beta electrons
       nuclear repulsion energy       121.7247520380 Hartrees.
 IExCor=    0 DFT=F Ex=HF Corr=None ExCW=0 ScaHFX=  1.000000
 ScaDFX=  1.000000  1.000000  1.000000  1.000000 ScalE2=  1.000000  1.000000
 IRadAn=      5 IRanWt=     -1 IRanGd=            0 ICorTp=0 IEmpDi=  4
 NAtoms=    4 NActive=    4 NUniq=    4 SFac= 1.00D+00 NAtFMM=   60 NAOKFM=F Big=F
 Integral buffers will be    131072 words long.
 Raffenetti 1 integral format.
 Two-electron integral symmetry is turned on.
 Leave Link  301 at Thu Sep 16 14:54:15 2021, MaxMem= 16106127360 cpu:               1.8 elap:               0.1
 (Enter /sw/contrib/gaussian/g16/B01/g16/l302.exe)
 NPDir=0 NMtPBC=     1 NCelOv=     1 NCel=       1 NClECP=     1 NCelD=      1
         NCelK=      1 NCelE2=     1 NClLst=     1 CellRange=     0.0.
 One-electron integrals computed using PRISM.
 One-electron integral symmetry used in STVInt
 NBasis=   169 RedAO= T EigKep=  2.98D-04  NBF=   169
 NBsUse=   169 1.00D-06 EigRej= -1.00D+00 NBFU=   169
 Leave Link  302 at Thu Sep 16 14:54:15 2021, MaxMem= 16106127360 cpu:               6.7 elap:               0.3
 (Enter /sw/contrib/gaussian/g16/B01/g16/l303.exe)
 DipDrv:  MaxL=1.
 Leave Link  303 at Thu Sep 16 14:54:16 2021, MaxMem= 16106127360 cpu:               3.0 elap:               0.1
 (Enter /sw/contrib/gaussian/g16/B01/g16/l401.exe)
 ExpMin= 2.53D-02 ExpMax= 4.56D+05 ExpMxC= 1.44D+03 IAcc=3 IRadAn=         5 AccDes= 0.00D+00
 Harris functional with IExCor=  205 and IRadAn=       5 diagonalized for initial guess.
 HarFok:  IExCor=  205 AccDes= 0.00D+00 IRadAn=         5 IDoV= 1 UseB2=F ITyADJ=14
 ICtDFT=  3500011 ScaDFX=  1.000000  1.000000  1.000000  1.000000
 FoFCou: FMM=F IPFlag=           0 FMFlag=      100000 FMFlg1=           0
         NFxFlg=           0 DoJE=T BraDBF=F KetDBF=T FulRan=T
         wScrn=  0.000000 ICntrl=       500 IOpCl=  0 I1Cent=   200000004 NGrid=           0
         NMat0=    1 NMatS0=      1 NMatT0=    0 NMatD0=    1 NMtDS0=    0 NMtDT0=    0
 Petite list used in FoFCou.
 Harris En= -993.813771245801    
 JPrj=0 DoOrth=F DoCkMO=F.
 Leave Link  401 at Thu Sep 16 14:54:16 2021, MaxMem= 16106127360 cpu:              11.4 elap:               0.5
 (Enter /sw/contrib/gaussian/g16/B01/g16/l502.exe)
 Keep R1 ints in memory in canonical form, NReq=117119419.
 FoFCou: FMM=F IPFlag=           0 FMFlag=           0 FMFlg1=           0
         NFxFlg=           0 DoJE=F BraDBF=F KetDBF=F FulRan=T
         wScrn=  0.000000 ICntrl=       600 IOpCl=  0 I1Cent=           0 NGrid=           0
         NMat0=    1 NMatS0=  14365 NMatT0=    0 NMatD0=    1 NMtDS0=    0 NMtDT0=    0
 Symmetry not used in FoFCou.
 Two-electron integral symmetry not used.
 Closed shell SCF:
 Using DIIS extrapolation, IDIIS=  1040.
 NGot= 16106127360 LenX= 16002857927 LenY= 16002818282
 Requested convergence on RMS density matrix=1.00D-08 within 128 cycles.
 Requested convergence on MAX density matrix=1.00D-06.
 Requested convergence on             energy=1.00D-06.
 No special actions if energy rises.

 Cycle   1  Pass 1  IDiag  1:
 E= -994.385343653603    
 DIIS: error= 2.57D-02 at cycle   1 NSaved=   1.
 NSaved= 1 IEnMin= 1 EnMin= -994.385343653603     IErMin= 1 ErrMin= 2.57D-02
 ErrMax= 2.57D-02  0.00D+00 EMaxC= 1.00D-01 BMatC= 4.19D-01 BMatP= 4.19D-01
 IDIUse=3 WtCom= 7.43D-01 WtEn= 2.57D-01
 Coeff-Com:  0.100D+01
 Coeff-En:   0.100D+01
 Coeff:      0.100D+01
 Gap=     0.545 Goal=   None    Shift=    0.000
 GapD=    0.545 DampG=2.000 DampE=0.500 DampFc=1.0000 IDamp=-1.
 RMSDP=2.11D-03 MaxDP=7.06D-02              OVMax= 1.21D-01

 Cycle   2  Pass 1  IDiag  1:
 E= -994.479530501700     Delta-E=       -0.094186848097 Rises=F Damp=F
 DIIS: error= 1.28D-02 at cycle   2 NSaved=   2.
 NSaved= 2 IEnMin= 2 EnMin= -994.479530501700     IErMin= 2 ErrMin= 1.28D-02
 ErrMax= 1.28D-02  0.00D+00 EMaxC= 1.00D-01 BMatC= 4.71D-02 BMatP= 4.19D-01
 IDIUse=3 WtCom= 8.72D-01 WtEn= 1.28D-01
 Coeff-Com:  0.162D+00 0.838D+00
 Coeff-En:   0.000D+00 0.100D+01
 Coeff:      0.141D+00 0.859D+00
 Gap=     0.361 Goal=   None    Shift=    0.000
 RMSDP=9.57D-04 MaxDP=3.85D-02 DE=-9.42D-02 OVMax= 7.66D-02

 Cycle   3  Pass 1  IDiag  1:
 E= -994.503480817844     Delta-E=       -0.023950316144 Rises=F Damp=F
 DIIS: error= 6.39D-03 at cycle   3 NSaved=   3.
 NSaved= 3 IEnMin= 3 EnMin= -994.503480817844     IErMin= 3 ErrMin= 6.39D-03
 ErrMax= 6.39D-03  0.00D+00 EMaxC= 1.00D-01 BMatC= 1.33D-02 BMatP= 4.71D-02
 IDIUse=3 WtCom= 9.36D-01 WtEn= 6.39D-02
 Coeff-Com: -0.149D-01 0.336D+00 0.679D+00
 Coeff-En:   0.000D+00 0.118D+00 0.882D+00
 Coeff:     -0.139D-01 0.322D+00 0.692D+00
 Gap=     0.347 Goal=   None    Shift=    0.000
 RMSDP=3.46D-04 MaxDP=1.22D-02 DE=-2.40D-02 OVMax= 3.44D-02

 Cycle   4  Pass 1  IDiag  1:
 E= -994.512541732637     Delta-E=       -0.009060914793 Rises=F Damp=F
 DIIS: error= 8.54D-04 at cycle   4 NSaved=   4.
 NSaved= 4 IEnMin= 4 EnMin= -994.512541732637     IErMin= 4 ErrMin= 8.54D-04
 ErrMax= 8.54D-04  0.00D+00 EMaxC= 1.00D-01 BMatC= 1.63D-04 BMatP= 1.33D-02
 IDIUse=3 WtCom= 9.91D-01 WtEn= 8.54D-03
 Coeff-Com: -0.431D-02 0.288D-01 0.118D+00 0.858D+00
 Coeff-En:   0.000D+00 0.000D+00 0.000D+00 0.100D+01
 Coeff:     -0.427D-02 0.285D-01 0.117D+00 0.859D+00
 Gap=     0.340 Goal=   None    Shift=    0.000
 RMSDP=5.41D-05 MaxDP=1.43D-03 DE=-9.06D-03 OVMax= 2.89D-03

 Cycle   5  Pass 1  IDiag  1:
 E= -994.512713711798     Delta-E=       -0.000171979161 Rises=F Damp=F
 DIIS: error= 1.76D-04 at cycle   5 NSaved=   5.
 NSaved= 5 IEnMin= 5 EnMin= -994.512713711798     IErMin= 5 ErrMin= 1.76D-04
 ErrMax= 1.76D-04  0.00D+00 EMaxC= 1.00D-01 BMatC= 1.52D-05 BMatP= 1.63D-04
 IDIUse=3 WtCom= 9.98D-01 WtEn= 1.76D-03
 Coeff-Com:  0.954D-03-0.389D-01-0.711D-01 0.862D-03 0.111D+01
 Coeff-En:   0.000D+00 0.000D+00 0.000D+00 0.000D+00 0.100D+01
 Coeff:      0.953D-03-0.388D-01-0.710D-01 0.861D-03 0.111D+01
 Gap=     0.342 Goal=   None    Shift=    0.000
 RMSDP=3.24D-05 MaxDP=7.45D-04 DE=-1.72D-04 OVMax= 3.05D-03

 Cycle   6  Pass 1  IDiag  1:
 E= -994.512752222532     Delta-E=       -0.000038510733 Rises=F Damp=F
 DIIS: error= 8.73D-05 at cycle   6 NSaved=   6.
 NSaved= 6 IEnMin= 6 EnMin= -994.512752222532     IErMin= 6 ErrMin= 8.73D-05
 ErrMax= 8.73D-05  0.00D+00 EMaxC= 1.00D-01 BMatC= 1.90D-06 BMatP= 1.52D-05
 IDIUse=1 WtCom= 1.00D+00 WtEn= 0.00D+00
 Coeff-Com:  0.265D-03 0.809D-02 0.158D-01-0.688D-01-0.410D+00 0.145D+01
 Coeff:      0.265D-03 0.809D-02 0.158D-01-0.688D-01-0.410D+00 0.145D+01
 Gap=     0.342 Goal=   None    Shift=    0.000
 RMSDP=1.60D-05 MaxDP=3.99D-04 DE=-3.85D-05 OVMax= 1.55D-03

 Cycle   7  Pass 1  IDiag  1:
 E= -994.512758952237     Delta-E=       -0.000006729705 Rises=F Damp=F
 DIIS: error= 2.51D-05 at cycle   7 NSaved=   7.
 NSaved= 7 IEnMin= 7 EnMin= -994.512758952237     IErMin= 7 ErrMin= 2.51D-05
 ErrMax= 2.51D-05  0.00D+00 EMaxC= 1.00D-01 BMatC= 1.18D-07 BMatP= 1.90D-06
 IDIUse=1 WtCom= 1.00D+00 WtEn= 0.00D+00
 Coeff-Com: -0.175D-03-0.692D-03-0.863D-03 0.265D-01 0.881D-01-0.603D+00
 Coeff-Com:  0.149D+01
 Coeff:     -0.175D-03-0.692D-03-0.863D-03 0.265D-01 0.881D-01-0.603D+00
 Coeff:      0.149D+01
 Gap=     0.342 Goal=   None    Shift=    0.000
 RMSDP=4.93D-06 MaxDP=1.27D-04 DE=-6.73D-06 OVMax= 4.81D-04

 Cycle   8  Pass 1  IDiag  1:
 E= -994.512759482250     Delta-E=       -0.000000530013 Rises=F Damp=F
 DIIS: error= 5.43D-06 at cycle   8 NSaved=   8.
 NSaved= 8 IEnMin= 8 EnMin= -994.512759482250     IErMin= 8 ErrMin= 5.43D-06
 ErrMax= 5.43D-06  0.00D+00 EMaxC= 1.00D-01 BMatC= 7.82D-09 BMatP= 1.18D-07
 IDIUse=1 WtCom= 1.00D+00 WtEn= 0.00D+00
 Coeff-Com:  0.127D-04-0.634D-03-0.104D-02 0.105D-02 0.171D-01-0.188D-01
 Coeff-Com: -0.195D+00 0.120D+01
 Coeff:      0.127D-04-0.634D-03-0.104D-02 0.105D-02 0.171D-01-0.188D-01
 Coeff:     -0.195D+00 0.120D+01
 Gap=     0.342 Goal=   None    Shift=    0.000
 RMSDP=1.07D-06 MaxDP=2.72D-05 DE=-5.30D-07 OVMax= 1.18D-04

 Cycle   9  Pass 1  IDiag  1:
 E= -994.512759511384     Delta-E=       -0.000000029134 Rises=F Damp=F
 DIIS: error= 2.55D-06 at cycle   9 NSaved=   9.
 NSaved= 9 IEnMin= 9 EnMin= -994.512759511384     IErMin= 9 ErrMin= 2.55D-06
 ErrMax= 2.55D-06  0.00D+00 EMaxC= 1.00D-01 BMatC= 1.08D-09 BMatP= 7.82D-09
 IDIUse=1 WtCom= 1.00D+00 WtEn= 0.00D+00
 Coeff-Com:  0.159D-04 0.218D-03 0.388D-03-0.334D-02-0.151D-01 0.783D-01
 Coeff-Com: -0.137D+00-0.243D+00 0.132D+01
 Coeff:      0.159D-04 0.218D-03 0.388D-03-0.334D-02-0.151D-01 0.783D-01
 Coeff:     -0.137D+00-0.243D+00 0.132D+01
 Gap=     0.342 Goal=   None    Shift=    0.000
 RMSDP=5.03D-07 MaxDP=1.06D-05 DE=-2.91D-08 OVMax= 5.85D-05

 Cycle  10  Pass 1  IDiag  1:
 E= -994.512759516603     Delta-E=       -0.000000005219 Rises=F Damp=F
 DIIS: error= 1.27D-06 at cycle  10 NSaved=  10.
 NSaved=10 IEnMin=10 EnMin= -994.512759516603     IErMin=10 ErrMin= 1.27D-06
 ErrMax= 1.27D-06  0.00D+00 EMaxC= 1.00D-01 BMatC= 1.69D-10 BMatP= 1.08D-09
 IDIUse=1 WtCom= 1.00D+00 WtEn= 0.00D+00
 Coeff-Com: -0.282D-05 0.284D-04-0.493D-05 0.549D-03 0.143D-02-0.142D-01
 Coeff-Com:  0.557D-01-0.142D+00-0.212D+00 0.131D+01
 Coeff:     -0.282D-05 0.284D-04-0.493D-05 0.549D-03 0.143D-02-0.142D-01
 Coeff:      0.557D-01-0.142D+00-0.212D+00 0.131D+01
 Gap=     0.342 Goal=   None    Shift=    0.000
 RMSDP=2.21D-07 MaxDP=5.44D-06 DE=-5.22D-09 OVMax= 2.57D-05

 Cycle  11  Pass 1  IDiag  1:
 E= -994.512759517432     Delta-E=       -0.000000000828 Rises=F Damp=F
 DIIS: error= 4.10D-07 at cycle  11 NSaved=  11.
 NSaved=11 IEnMin=11 EnMin= -994.512759517432     IErMin=11 ErrMin= 4.10D-07
 ErrMax= 4.10D-07  0.00D+00 EMaxC= 1.00D-01 BMatC= 1.56D-11 BMatP= 1.69D-10
 IDIUse=1 WtCom= 1.00D+00 WtEn= 0.00D+00
 Coeff-Com: -0.284D-05-0.196D-04-0.248D-04 0.403D-03 0.147D-02-0.824D-02
 Coeff-Com:  0.127D-01 0.416D-01-0.124D+00-0.230D+00 0.131D+01
 Coeff:     -0.284D-05-0.196D-04-0.248D-04 0.403D-03 0.147D-02-0.824D-02
 Coeff:      0.127D-01 0.416D-01-0.124D+00-0.230D+00 0.131D+01
 Gap=     0.342 Goal=   None    Shift=    0.000
 RMSDP=7.53D-08 MaxDP=1.91D-06 DE=-8.28D-10 OVMax= 8.30D-06

 Cycle  12  Pass 1  IDiag  1:
 E= -994.512759517511     Delta-E=       -0.000000000079 Rises=F Damp=F
 DIIS: error= 9.54D-08 at cycle  12 NSaved=  12.
 NSaved=12 IEnMin=12 EnMin= -994.512759517511     IErMin=12 ErrMin= 9.54D-08
 ErrMax= 9.54D-08  0.00D+00 EMaxC= 1.00D-01 BMatC= 9.88D-13 BMatP= 1.56D-11
 IDIUse=1 WtCom= 1.00D+00 WtEn= 0.00D+00
 Coeff-Com:  0.740D-06-0.861D-06 0.193D-06-0.978D-04-0.281D-03 0.210D-02
 Coeff-Com: -0.555D-02 0.222D-02 0.354D-01-0.550D-01-0.196D+00 0.122D+01
 Coeff:      0.740D-06-0.861D-06 0.193D-06-0.978D-04-0.281D-03 0.210D-02
 Coeff:     -0.555D-02 0.222D-02 0.354D-01-0.550D-01-0.196D+00 0.122D+01
 Gap=     0.342 Goal=   None    Shift=    0.000
 RMSDP=1.56D-08 MaxDP=3.54D-07 DE=-7.91D-11 OVMax= 1.37D-06

 Cycle  13  Pass 1  IDiag  1:
 E= -994.512759517517     Delta-E=       -0.000000000006 Rises=F Damp=F
 DIIS: error= 2.19D-08 at cycle  13 NSaved=  13.
 NSaved=13 IEnMin=13 EnMin= -994.512759517517     IErMin=13 ErrMin= 2.19D-08
 ErrMax= 2.19D-08  0.00D+00 EMaxC= 1.00D-01 BMatC= 1.42D-13 BMatP= 9.88D-13
 IDIUse=1 WtCom= 1.00D+00 WtEn= 0.00D+00
 Coeff-Com:  0.195D-06 0.241D-05 0.256D-05-0.296D-04-0.123D-03 0.606D-03
 Coeff-Com: -0.516D-03-0.556D-02 0.106D-01 0.338D-01-0.139D+00-0.912D-01
 Coeff-Com:  0.119D+01
 Coeff:      0.195D-06 0.241D-05 0.256D-05-0.296D-04-0.123D-03 0.606D-03
 Coeff:     -0.516D-03-0.556D-02 0.106D-01 0.338D-01-0.139D+00-0.912D-01
 Coeff:      0.119D+01
 Gap=     0.342 Goal=   None    Shift=    0.000
 RMSDP=5.49D-09 MaxDP=1.01D-07 DE=-5.91D-12 OVMax= 3.87D-07

 SCF Done:  E(RHF) =  -994.512759518     A.U. after   13 cycles
            NFock= 13  Conv=0.55D-08     -V/T= 2.0002
 KE= 9.943295328417D+02 PE=-2.621182125685D+03 EE= 5.106150812876D+02
 Leave Link  502 at Thu Sep 16 14:54:19 2021, MaxMem= 16106127360 cpu:              26.4 elap:               3.3
 (Enter /sw/contrib/gaussian/g16/B01/g16/l801.exe)
 ExpMin= 2.53D-02 ExpMax= 4.56D+05 ExpMxC= 1.44D+03 IAcc=3 IRadAn=         5 AccDes= 0.00D+00
 HarFok:  IExCor=  205 AccDes= 0.00D+00 IRadAn=         5 IDoV=-2 UseB2=F ITyADJ=14
 ICtDFT= 12500011 ScaDFX=  1.000000  1.000000  1.000000  1.000000
 DSYEVD-2 returned Info=         101 IAlg= 4 N=    50 NDim=    50 NE2=   322120631 trying  DSYEV.
 Largest valence mixing into a core orbital is  4.47D-04
 Largest core mixing into a valence orbital is  1.74D-04
 Range of M.O.s used for correlation:    12   169
 NBasis=   169 NAE=    22 NBE=    22 NFC=    11 NFV=     0
 NROrb=    158 NOA=    11 NOB=    11 NVA=   147 NVB=   147

 **** Warning!!: The largest alpha MO coefficient is  0.10675801D+02

 Leave Link  801 at Thu Sep 16 14:54:20 2021, MaxMem= 16106127360 cpu:               4.8 elap:               0.3
 (Enter /sw/contrib/gaussian/g16/B01/g16/l906.exe)
 Frozen-core derivative calculation, NFC=  11 NFV=   0.
 FulOut=F Deriv=T AODrv=T NAtomX=     4
   MMem=         143  MDisk=          11 MDiskD=          11
  W3Min=      736164 MinDsk=     1250177 NBas6D=         198
 NBas2D=       20187    NTT=       19701    LW2=     3500000
    MDV= 16105748612 MDiskM=      406660 NBas2p=       20117
 Fully direct method using O(ONN) memory.
 IMap=   1   2   3   4   5   6   7   8   9  10  11  12  13  14  15  16  17  18  19  20
 IMap=  21  22
 JobTyp=1 Pass  1:  I=  12 to  22 NPSUse= 28 ParTrn=T ParDer=T DoDerP=T.
 Spin components of T(2) and E(2):
     alpha-alpha T2 =       0.2939288168D-01 E2=     -0.8414784625D-01
     alpha-beta  T2 =       0.1603632265D+00 E2=     -0.4990562888D+00
     beta-beta   T2 =       0.2939288168D-01 E2=     -0.8414784625D-01
 The integrals were generated   1 times.
 ANorm=    0.1104150800D+01
 E2 =    -0.6673519813D+00 EUMP2 =    -0.99518011149877D+03
 Leave Link  906 at Thu Sep 16 14:54:31 2021, MaxMem= 16106127360 cpu:             306.2 elap:              11.0
 (Enter /sw/contrib/gaussian/g16/B01/g16/l1002.exe)
 Minotr:  Closed shell wavefunction.
          Computing MP2/KS-MP2 derivatives.
          Using Z-Vector for PSCF gradient.
          Skipping F1 and S1 gradient terms here.
          IDoAtm=1111
          Frozen-core window.
          Direct CPHF calculation.
          Differentiating once with respect to electric field.
                with respect to dipole field.
          Differentiating once with respect to nuclear coordinates.
          Requested convergence is 1.0D-10 RMS, and 1.0D-09 maximum.
          NewPWx=F KeepS1=T KeepF1=T KeepIn=T MapXYZ=F SortEE=F KeepMc=T.
 Keep R1 ints in memory in canonical form, NReq=117123755.
 FoFCou: FMM=F IPFlag=           0 FMFlag=           0 FMFlg1=           0
         NFxFlg=           0 DoJE=F BraDBF=F KetDBF=F FulRan=T
         wScrn=  0.000000 ICntrl=       600 IOpCl=  0 I1Cent=           0 NGrid=           0
         NMat0=    1 NMatS0=  14365 NMatT0=    0 NMatD0=    1 NMtDS0=    0 NMtDT0=    0
 Symmetry not used in FoFCou.
 Two-electron integral symmetry not used.
          MDV=   16106127360 using IRadAn=       5.
          Solving linear equations separately, MaxMat=       0.
          There are     1 degrees of freedom in the 1st order CPHF.  IDoFFX=0 NUNeed=     1.
 LinEq1:  Iter=  0 NonCon=     1 RMS=3.13D-03 Max=3.68D-02 NDo=     1
 AX will form     1 AO Fock derivatives at one time.
 LinEq1:  Iter=  1 NonCon=     1 RMS=3.96D-04 Max=4.62D-03 NDo=     1
 LinEq1:  Iter=  2 NonCon=     1 RMS=1.63D-04 Max=2.69D-03 NDo=     1
 LinEq1:  Iter=  3 NonCon=     1 RMS=6.48D-05 Max=9.70D-04 NDo=     1
 LinEq1:  Iter=  4 NonCon=     1 RMS=2.79D-05 Max=5.76D-04 NDo=     1
 LinEq1:  Iter=  5 NonCon=     1 RMS=7.49D-06 Max=1.59D-04 NDo=     1
 LinEq1:  Iter=  6 NonCon=     1 RMS=2.45D-06 Max=4.38D-05 NDo=     1
 LinEq1:  Iter=  7 NonCon=     1 RMS=7.22D-07 Max=1.02D-05 NDo=     1
 LinEq1:  Iter=  8 NonCon=     1 RMS=1.42D-07 Max=1.49D-06 NDo=     1
 LinEq1:  Iter=  9 NonCon=     1 RMS=3.31D-08 Max=3.99D-07 NDo=     1
 LinEq1:  Iter= 10 NonCon=     1 RMS=8.87D-09 Max=1.47D-07 NDo=     1
 LinEq1:  Iter= 11 NonCon=     1 RMS=2.26D-09 Max=4.49D-08 NDo=     1
 LinEq1:  Iter= 12 NonCon=     1 RMS=6.14D-10 Max=1.03D-08 NDo=     1
 LinEq1:  Iter= 13 NonCon=     1 RMS=1.71D-10 Max=1.95D-09 NDo=     1
 LinEq1:  Iter= 14 NonCon=     0 RMS=5.01D-11 Max=5.55D-10 NDo=     1
 Linear equations converged to 1.000D-10 1.000D-09 after    14 iterations.
 End of Minotr F.D. properties file   721 does not exist.
 End of Minotr F.D. properties file   722 does not exist.
 End of Minotr F.D. properties file   788 does not exist.
 Leave Link 1002 at Thu Sep 16 14:54:36 2021, MaxMem= 16106127360 cpu:              33.5 elap:               3.9
 (Enter /sw/contrib/gaussian/g16/B01/g16/l601.exe)
 Copying SCF densities to generalized density rwf, IOpCl= 0 IROHF=0.

 **********************************************************************

            Population analysis using the MP2 Density.

 **********************************************************************

 Orbital symmetries:
       Occupied  (A) (A) (A) (A) (A) (A) (A) (A) (A) (A) (A) (A)
                 (A) (A) (A) (A) (A) (A) (A) (A) (A) (A)
       Virtual   (A) (A) (A) (A) (A) (A) (A) (A) (A) (A) (A) (A)
                 (A) (A) (A) (A) (A) (A) (A) (A) (A) (A) (A) (A)
                 (A) (A) (A) (A) (A) (A) (A) (A) (A) (A) (A) (A)
                 (A) (A) (A) (A) (A) (A) (A) (A) (A) (A) (A) (A)
                 (A) (A) (A) (A) (A) (A) (A) (A) (A) (A) (A) (A)
                 (A) (A) (A) (A) (A) (A) (A) (A) (A) (A) (A) (A)
                 (A) (A) (A) (A) (A) (A) (A) (A) (A) (A) (A) (A)
                 (A) (A) (A) (A) (A) (A) (A) (A) (A) (A) (A) (A)
                 (A) (A) (A) (A) (A) (A) (A) (A) (A) (A) (A) (A)
                 (A) (A) (A) (A) (A) (A) (A) (A) (A) (A) (A) (A)
                 (A) (A) (A) (A) (A) (A) (A) (A) (A) (A) (A) (A)
                 (A) (A) (A) (A) (A) (A) (A) (A) (A) (A) (A) (A)
                 (A) (A) (A)
 The electronic state is 1-A.
 Alpha  occ. eigenvalues -- -104.72852-104.53809 -20.46288 -10.44815 -10.26274
 Alpha  occ. eigenvalues --   -7.91533  -7.91269  -7.91256  -7.72887  -7.72873
 Alpha  occ. eigenvalues --   -7.72872  -1.22602  -0.89148  -0.77435  -0.53393
 Alpha  occ. eigenvalues --   -0.44092  -0.43215  -0.30529  -0.27848  -0.19139
 Alpha  occ. eigenvalues --   -0.18561  -0.18430
 Alpha virt. eigenvalues --    0.15797   0.18356   0.22491   0.23281   0.26089
 Alpha virt. eigenvalues --    0.27387   0.28046   0.29138   0.30509   0.31957
 Alpha virt. eigenvalues --    0.33912   0.34773   0.40730   0.41705   0.46423
 Alpha virt. eigenvalues --    0.49106   0.52465   0.54314   0.55652   0.58095
 Alpha virt. eigenvalues --    0.58469   0.60616   0.61559   0.62485   0.66015
 Alpha virt. eigenvalues --    0.66741   0.67346   0.69890   0.76364   0.79378
 Alpha virt. eigenvalues --    0.85543   0.86394   0.88746   0.89877   0.90659
 Alpha virt. eigenvalues --    0.92398   0.96323   0.98936   0.99960   1.06610
 Alpha virt. eigenvalues --    1.08362   1.09766   1.10066   1.11657   1.13299
 Alpha virt. eigenvalues --    1.14318   1.19388   1.19652   1.20214   1.21771
 Alpha virt. eigenvalues --    1.22423   1.24719   1.27075   1.29148   1.31851
 Alpha virt. eigenvalues --    1.34804   1.38901   1.41607   1.42905   1.43087
 Alpha virt. eigenvalues --    1.44451   1.48752   1.51022   1.56020   1.60707
 Alpha virt. eigenvalues --    1.62732   1.65599   1.68673   1.72027   1.74090
 Alpha virt. eigenvalues --    1.77662   1.84495   1.85855   1.87726   1.95397
 Alpha virt. eigenvalues --    1.98223   2.18719   2.37617   2.42718   2.51131
 Alpha virt. eigenvalues --    2.52079   2.54247   2.60960   2.62635   2.64849
 Alpha virt. eigenvalues --    2.68030   2.70232   2.71433   2.72581   2.75704
 Alpha virt. eigenvalues --    2.77857   2.81029   2.81862   2.82579   2.89308
 Alpha virt. eigenvalues --    2.91256   2.92965   2.94864   3.00491   3.02397
 Alpha virt. eigenvalues --    3.07652   3.11135   3.18757   3.20830   3.22477
 Alpha virt. eigenvalues --    3.25169   3.29842   3.30396   3.33777   3.34727
 Alpha virt. eigenvalues --    3.35646   3.39517   3.42872   3.48569   3.50479
 Alpha virt. eigenvalues --    3.53093   3.56725   3.59167   3.62847   3.91373
 Alpha virt. eigenvalues --    4.16750   4.33861   4.47473   4.55549   4.61672
 Alpha virt. eigenvalues --    4.72580   4.95575   4.97780   5.31064   5.37505
 Alpha virt. eigenvalues --    5.63187   6.21457   6.47625   6.65550   6.88182
 Alpha virt. eigenvalues --    6.90468   6.92293   6.99503   7.29075   7.29471
 Alpha virt. eigenvalues --    7.35461   7.44720   7.53775   7.73793   7.75535
 Alpha virt. eigenvalues --    8.31663  13.99251
          Condensed to atoms (all electrons):
               1          2          3          4
     1  O    8.572761  -0.119145  -0.088174   0.077524
     2  Cl  -0.119145  17.062656   0.002563  -0.001447
     3  Cl  -0.088174   0.002563  17.877139   0.083529
     4  H    0.077524  -0.001447   0.083529   0.577744
 Mulliken charges:
               1
     1  O   -0.442965
     2  Cl   0.055372
     3  Cl  -0.875057
     4  H    0.262650
 Sum of Mulliken charges =  -1.00000
 Mulliken charges with hydrogens summed into heavy atoms:
               1
     1  O   -0.180315
     2  Cl   0.055372
     3  Cl  -0.875057
 Electronic spatial extent (au):  <R**2>=            562.1680
 Charge=             -1.0000 electrons
 Dipole moment (field-independent basis, Debye):
    X=              5.9639    Y=             -0.0659    Z=              0.4996  Tot=              5.9851
 Quadrupole moment (field-independent basis, Debye-Ang):
   XX=            -55.8499   YY=            -37.3245   ZZ=            -36.2925
   XY=             -2.8095   XZ=             -0.0306   YZ=              0.4998
 Traceless Quadrupole moment (field-independent basis, Debye-Ang):
   XX=            -12.6943   YY=              5.8311   ZZ=              6.8632
   XY=             -2.8095   XZ=             -0.0306   YZ=              0.4998
 Octapole moment (field-independent basis, Debye-Ang**2):
  XXX=             49.6150  YYY=              0.4058  ZZZ=             -0.3748  XYY=              6.8159
  XXY=              0.5932  XXZ=             -1.7398  XZZ=              6.3200  YZZ=              1.4189
  YYZ=             -0.0092  XYZ=             -0.4429
 Hexadecapole moment (field-independent basis, Debye-Ang**3):
 XXXX=           -761.1809 YYYY=            -98.4156 ZZZZ=            -51.1846 XXXY=            -11.2482
 XXXZ=              1.7103 YYYX=             -7.4288 YYYZ=             -0.1597 ZZZX=              0.3167
 ZZZY=              0.1898 XXYY=           -128.1716 XXZZ=           -125.5936 YYZZ=            -25.1955
 XXYZ=             -0.0318 YYXZ=             -0.1758 ZZXY=             -0.2292
 N-N= 1.217247520380D+02 E-N=-2.621233768788D+03  KE= 9.949930706438D+02
 No NMR shielding tensors so no spin-rotation constants.
 Leave Link  601 at Thu Sep 16 14:54:36 2021, MaxMem= 16106127360 cpu:               5.9 elap:               0.3
 (Enter /sw/contrib/gaussian/g16/B01/g16/l701.exe)
 ... and contract with generalized density number  2.
 Compute integral first derivatives.
 Leave Link  701 at Thu Sep 16 14:54:36 2021, MaxMem= 16106127360 cpu:               5.9 elap:               0.2
 (Enter /sw/contrib/gaussian/g16/B01/g16/l702.exe)
 L702 exits ... SP integral derivatives will be done elsewhere.
 Leave Link  702 at Thu Sep 16 14:54:37 2021, MaxMem= 16106127360 cpu:               0.9 elap:               0.1
 (Enter /sw/contrib/gaussian/g16/B01/g16/l703.exe)
 Integral derivatives from FoFJK, PRISM(SPDF).
 Compute integral first derivatives, UseDBF=F ICtDFT=           0.
 Calling FoFJK, ICntrl=  10002127 FMM=F ISym2X=0 I1Cent= 0 IOpClX= 0 NMat=1 NMatS=1 NMatT=0.
 FoFJK:  IHMeth= 1 ICntrl=10002127 DoSepK=F KAlg= 0 I1Cent=           0 FoldK=F
 IRaf=         0 NMat=       1 IRICut=       1 DoRegI=T DoRafI=F ISym2E= 0 IDoP0=0 IntGTp=1.
 FoFCou: FMM=F IPFlag=           0 FMFlag=      100000 FMFlg1=         800
         NFxFlg=           0 DoJE=F BraDBF=F KetDBF=F FulRan=T
         wScrn=  0.000000 ICntrl=  10002127 IOpCl=  0 I1Cent=           0 NGrid=           0
         NMat0=    1 NMatS0=      1 NMatT0=    0 NMatD0=    1 NMtDS0=    0 NMtDT0=    0
 Symmetry not used in FoFCou.
 Leave Link  703 at Thu Sep 16 14:54:38 2021, MaxMem= 16106127360 cpu:              39.7 elap:               1.4
 (Enter /sw/contrib/gaussian/g16/B01/g16/l716.exe)
 Dipole        = 2.34636033D+00-2.59169576D-02 1.96574041D-01
 ***** Axes restored to original set *****
 -------------------------------------------------------------------
 Center     Atomic                   Forces (Hartrees/Bohr)
 Number     Number              X              Y              Z
 -------------------------------------------------------------------
      1        8          -0.002604838   -0.007248862    0.020308686
      2       17           0.003200621    0.001759193   -0.000382760
      3       17          -0.000809659   -0.000604713    0.007211212
      4        1           0.000213876    0.006094381   -0.027137137
 -------------------------------------------------------------------
 Cartesian Forces:  Max     0.027137137 RMS     0.010455833
 -----------------------------------------------------------------------------------------------
                       Internal Coordinate Forces (Hartree/Bohr or radian)
  Cent   Atom   N1       Length/X         N2         Alpha/Y        N3         Beta/Z          J
 -----------------------------------------------------------------------------------------------
      1  O 
         X        1   0.000000(     1)
      2  Cl       1   0.003201(     2)      2   0.001217(     5)
      3  Cl       1   0.000777(     3)      2  -0.039583(     6)      3   0.003544(     8)     0
      4  H        1  -0.018743(     4)      2   0.039867(     7)      3   0.002050(     9)     0
 -----------------------------------------------------------------------------------------------
 Internal  Forces:  Max     0.039867417 RMS     0.019823113
 Force constants in Cartesian coordinates: 
                1             2             3             4             5 
      1  0.451375D+00
      2  0.373319D-01  0.393878D+00
      3 -0.185646D-01 -0.182786D+00  0.136326D+00
      4 -0.380493D+00  0.000000D+00  0.000000D+00  0.380493D+00
      5  0.364177D-01 -0.436364D-01  0.106190D-01  0.000000D+00  0.366020D-01
      6 -0.148261D-01  0.921296D-02 -0.920764D-02  0.000000D+00 -0.743775D-02
      7 -0.988041D-02  0.948484D-02 -0.102065D-02  0.000000D+00 -0.140602D-01
      8 -0.430599D-02 -0.300570D-01  0.245605D-03  0.000000D+00  0.338338D-02
      9  0.721796D-03  0.727118D-02  0.563931D-02  0.000000D+00 -0.269689D-03
     10 -0.610022D-01 -0.468167D-01  0.195852D-01  0.000000D+00 -0.223576D-01
     11 -0.694436D-01 -0.320185D+00  0.171921D+00  0.000000D+00  0.365106D-02
     12  0.326689D-01  0.166302D+00 -0.132757D+00  0.000000D+00 -0.291155D-02
                6             7             8             9            10 
      6  0.545761D-02
      7  0.366101D-03  0.946417D-02
      8 -0.880969D-04  0.440615D-02  0.267144D-01
      9  0.731552D-03  0.200982D-03 -0.483635D-04  0.571200D-02
     10  0.144600D-01  0.416240D-03 -0.100162D-03 -0.922778D-03  0.605860D-01
     11 -0.168712D-02  0.169181D-03 -0.407111D-04 -0.695312D-02  0.692744D-01
     12  0.301848D-02  0.453569D-03 -0.109145D-03 -0.120829D-01 -0.331224D-01
               11            12 
     11  0.316574D+00
     12 -0.163281D+00  0.141822D+00
 Force constants in internal coordinates: 
                1             2             3             4             5 
      1  0.000000D+00
      2  0.000000D+00  0.380493D+00
      3  0.000000D+00  0.000000D+00  0.277747D-01
      4  0.000000D+00  0.000000D+00  0.000000D+00  0.430205D+00
      5  0.000000D+00  0.000000D+00  0.000000D+00  0.000000D+00  0.551873D-01
      6  0.000000D+00  0.000000D+00  0.000000D+00  0.000000D+00  0.127691D-01
      7  0.000000D+00  0.000000D+00  0.000000D+00  0.000000D+00  0.215401D-01
      8  0.000000D+00  0.000000D+00  0.000000D+00  0.000000D+00  0.657263D-02
      9  0.000000D+00  0.000000D+00  0.000000D+00  0.000000D+00  0.773554D-01
                6             7             8             9 
      6  0.172100D+00
      7 -0.148836D+00  0.172584D+00
      8  0.622837D-02  0.574652D-02  0.253206D+00
      9  0.674004D-02  0.226524D-01  0.346930D-02  0.122042D+00
 Leave Link  716 at Thu Sep 16 14:54:38 2021, MaxMem= 16106127360 cpu:               3.8 elap:               0.2
 (Enter /sw/contrib/gaussian/g16/B01/g16/l103.exe)

 GradGradGradGradGradGradGradGradGradGradGradGradGradGradGradGradGradGrad
 Berny optimization.
 Search for a local minimum.
 Step number   1 out of a maximum of   20
 All quantities printed in internal units (Hartrees-Bohrs-Radians)
 Second derivative matrix not updated -- first step.
 The second derivative matrix:
                          r1        r2        r3        a1        OOP
           r1           0.38049
           r2          -0.00000   0.02777
           r3          -0.00000   0.00000   0.43021
           a1          -0.00000   0.00000   0.00000   0.38219
           OOP         -0.00000   0.00000   0.00000   0.02840   0.17258
 ITU=  0
     Eigenvalues ---    0.430211000.000001000.000001000.000001000.00000
 RFO step:  Lambda=-8.15066838D-04 EMin= 4.30205488D-01
 Linear search not attempted -- first point.
 Variable       Old X    -DE/DX   Delta X   Delta X   Delta X     New X
                                 (Linear)    (Quad)   (Total)
    r1        3.17994   0.00320   0.00000   0.00000   0.00000   3.17994
    r2        5.48904   0.00078   0.00000   0.00000   0.00000   5.48904
    r3        1.94344  -0.01874   0.00000  -0.04349  -0.04349   1.89996
    a1        1.80694   0.00559   0.00000   0.00000   0.00000   1.80694
   OOP        1.04720   0.03987   0.00000   0.00000   0.00000   1.04720
         Item               Value     Threshold  Converged?
 Maximum Force            0.018743     0.000450     NO 
 RMS     Force            0.018743     0.000300     NO 
 Maximum Displacement     0.043486     0.001800     NO 
 RMS     Displacement     0.019447     0.001200     NO 
 Predicted change in Energy=-4.083055D-04
 Lowest energy point so far.  Saving SCF results.
 GradGradGradGradGradGradGradGradGradGradGradGradGradGradGradGradGradGrad

 Leave Link  103 at Thu Sep 16 14:54:38 2021, MaxMem= 16106127360 cpu:               2.6 elap:               0.1
 (Enter /sw/contrib/gaussian/g16/B01/g16/l202.exe)
 ---------------------------------------------------------------------------------------------------
                            Z-MATRIX (ANGSTROMS AND DEGREES)
   CD    Cent   Atom    N1       Length/X        N2       Alpha/Y        N3        Beta/Z          J
 ---------------------------------------------------------------------------------------------------
      1      1  O 
      2         X        1  10.000000(     1)
      3      2  Cl       1   1.682749(     2)      2   90.000(     5)
      4      3  Cl       1   2.904676(     3)      2   90.000(     6)      3  103.530(     8)      0
      5      4  H        1   1.005414(     4)      2   60.000(     7)      3  103.530(     9)      0
 ---------------------------------------------------------------------------------------------------
                         Z-Matrix orientation:                         
 ---------------------------------------------------------------------
 Center     Atomic      Atomic             Coordinates (Angstroms)
 Number     Number       Type             X           Y           Z
 ---------------------------------------------------------------------
      1          8           0        0.000000    0.000000    0.000000
      2         -1           0        0.000000    0.000000   10.000000
      3         17           0        1.682749    0.000000    0.000000
      4         17           0       -0.679570   -2.824062    0.000000
      5          1           0       -0.203710   -0.846549    0.502707
 ---------------------------------------------------------------------
                    Distance matrix (angstroms):
                    1          2          3          4          5
     1  O    0.000000
     2  X   10.000000   0.000000
     3  Cl   1.682749  10.140594   0.000000
     4  Cl   2.904676  10.413316   3.681831   0.000000
     5  H    1.005414   9.537123   2.127930   2.095165   0.000000
 Stoichiometry    Cl2HO(1-)
 Framework group  C1[X(Cl2HO)]
 Deg. of freedom     6
 Full point group                 C1      NOp   1
 RotChk:  IX=0 Diff= 5.93D-04
 Largest Abelian subgroup         C1      NOp   1
 Largest concise Abelian subgroup C1      NOp   1
                         Standard orientation:                         
 ---------------------------------------------------------------------
 Center     Atomic      Atomic             Coordinates (Angstroms)
 Number     Number       Type             X           Y           Z
 ---------------------------------------------------------------------
      1          8           0        0.678490    0.991207   -0.041902
      2         17           0        1.681810   -0.359059    0.000243
      3         17           0       -1.993873   -0.146547   -0.008211
      4          1           0       -0.122846    0.665641    0.470666
 ---------------------------------------------------------------------
 Rotational constants (GHZ):          23.3364486           2.0581236           1.8948155
 Leave Link  202 at Thu Sep 16 14:54:38 2021, MaxMem= 16106127360 cpu:               0.4 elap:               0.0
 (Enter /sw/contrib/gaussian/g16/B01/g16/l301.exe)
 Standard basis: Aug-CC-pVTZ (5D, 7F)
 Ernie: Thresh=  0.10000D-02 Tol=  0.10000D-05 Strict=F.
 Ernie:  29 primitive shells out of 169 were deleted.
 There are   198 symmetry adapted cartesian basis functions of A   symmetry.
 There are   169 symmetry adapted basis functions of A   symmetry.
   169 basis functions,   327 primitive gaussians,   198 cartesian basis functions
    22 alpha electrons       22 beta electrons
       nuclear repulsion energy       121.8137083700 Hartrees.
 IExCor=    0 DFT=F Ex=HF Corr=None ExCW=0 ScaHFX=  1.000000
 ScaDFX=  1.000000  1.000000  1.000000  1.000000 ScalE2=  1.000000  1.000000
 IRadAn=      5 IRanWt=     -1 IRanGd=            0 ICorTp=0 IEmpDi=  4
 NAtoms=    4 NActive=    4 NUniq=    4 SFac= 1.00D+00 NAtFMM=   60 NAOKFM=F Big=F
 Integral buffers will be    131072 words long.
 Raffenetti 1 integral format.
 Two-electron integral symmetry is turned on.
 Leave Link  301 at Thu Sep 16 14:54:38 2021, MaxMem= 16106127360 cpu:               1.8 elap:               0.1
 (Enter /sw/contrib/gaussian/g16/B01/g16/l302.exe)
 NPDir=0 NMtPBC=     1 NCelOv=     1 NCel=       1 NClECP=     1 NCelD=      1
         NCelK=      1 NCelE2=     1 NClLst=     1 CellRange=     0.0.
 One-electron integrals computed using PRISM.
 One-electron integral symmetry used in STVInt
 NBasis=   169 RedAO= T EigKep=  2.85D-04  NBF=   169
 NBsUse=   169 1.00D-06 EigRej= -1.00D+00 NBFU=   169
 Leave Link  302 at Thu Sep 16 14:54:39 2021, MaxMem= 16106127360 cpu:               4.4 elap:               0.2
 (Enter /sw/contrib/gaussian/g16/B01/g16/l303.exe)
 DipDrv:  MaxL=1.
 Leave Link  303 at Thu Sep 16 14:54:39 2021, MaxMem= 16106127360 cpu:               1.4 elap:               0.1
 (Enter /sw/contrib/gaussian/g16/B01/g16/l401.exe)
 Initial guess from the checkpoint file:  "/gscratch/ilahie/mccoygrp/coire_hocl/clhocl/clhocl_30_opt.chk"
 B after Tr=    -0.000000   -0.000000    0.000000
         Rot=    1.000000    0.000311   -0.000073    0.000102 Ang=   0.04 deg.
 Guess basis will be translated and rotated to current coordinates.
 JPrj=2 DoOrth=T DoCkMO=T.
 Generating alternative initial guess.
 ExpMin= 2.53D-02 ExpMax= 4.56D+05 ExpMxC= 1.44D+03 IAcc=3 IRadAn=         5 AccDes= 0.00D+00
 Harris functional with IExCor=  205 and IRadAn=       5 diagonalized for initial guess.
 HarFok:  IExCor=  205 AccDes= 0.00D+00 IRadAn=         5 IDoV= 1 UseB2=F ITyADJ=14
 ICtDFT=  3500011 ScaDFX=  1.000000  1.000000  1.000000  1.000000
 FoFCou: FMM=F IPFlag=           0 FMFlag=      100000 FMFlg1=           0
         NFxFlg=           0 DoJE=T BraDBF=F KetDBF=T FulRan=T
         wScrn=  0.000000 ICntrl=       500 IOpCl=  0 I1Cent=   200000004 NGrid=           0
         NMat0=    1 NMatS0=      1 NMatT0=    0 NMatD0=    1 NMtDS0=    0 NMtDT0=    0
 Petite list used in FoFCou.
 Harris En= -993.815052188061    
 Leave Link  401 at Thu Sep 16 14:54:39 2021, MaxMem= 16106127360 cpu:               8.6 elap:               0.4
 (Enter /sw/contrib/gaussian/g16/B01/g16/l502.exe)
 Keep R1 ints in memory in canonical form, NReq=117119419.
 FoFCou: FMM=F IPFlag=           0 FMFlag=           0 FMFlg1=           0
         NFxFlg=           0 DoJE=F BraDBF=F KetDBF=F FulRan=T
         wScrn=  0.000000 ICntrl=       600 IOpCl=  0 I1Cent=           0 NGrid=           0
         NMat0=    1 NMatS0=  14365 NMatT0=    0 NMatD0=    1 NMtDS0=    0 NMtDT0=    0
 Symmetry not used in FoFCou.
 Two-electron integral symmetry not used.
 Closed shell SCF:
 Using DIIS extrapolation, IDIIS=  1040.
 NGot= 16106127360 LenX= 16002857927 LenY= 16002818282
 Requested convergence on RMS density matrix=1.00D-08 within 128 cycles.
 Requested convergence on MAX density matrix=1.00D-06.
 Requested convergence on             energy=1.00D-06.
 No special actions if energy rises.

 Cycle   1  Pass 1  IDiag  1:
 E= -994.514389135531    
 DIIS: error= 1.20D-03 at cycle   1 NSaved=   1.
 NSaved= 1 IEnMin= 1 EnMin= -994.514389135531     IErMin= 1 ErrMin= 1.20D-03
 ErrMax= 1.20D-03  0.00D+00 EMaxC= 1.00D-01 BMatC= 2.12D-04 BMatP= 2.12D-04
 IDIUse=3 WtCom= 9.88D-01 WtEn= 1.20D-02
 Coeff-Com:  0.100D+01
 Coeff-En:   0.100D+01
 Coeff:      0.100D+01
 Gap=     0.708 Goal=   None    Shift=    0.000
 GapD=    0.708 DampG=2.000 DampE=1.000 DampFc=2.0000 IDamp=-1.
 RMSDP=1.12D-04 MaxDP=4.34D-03              OVMax= 3.49D-03

 Cycle   2  Pass 1  IDiag  1:
 E= -994.514551815594     Delta-E=       -0.000162680063 Rises=F Damp=F
 DIIS: error= 1.86D-04 at cycle   2 NSaved=   2.
 NSaved= 2 IEnMin= 2 EnMin= -994.514551815594     IErMin= 2 ErrMin= 1.86D-04
 ErrMax= 1.86D-04  0.00D+00 EMaxC= 1.00D-01 BMatC= 1.20D-05 BMatP= 2.12D-04
 IDIUse=3 WtCom= 9.98D-01 WtEn= 1.86D-03
 Coeff-Com: -0.114D-01 0.101D+01
 Coeff-En:   0.000D+00 0.100D+01
 Coeff:     -0.114D-01 0.101D+01
 Gap=     0.341 Goal=   None    Shift=    0.000
 RMSDP=2.22D-05 MaxDP=7.25D-04 DE=-1.63D-04 OVMax= 1.54D-03

 Cycle   3  Pass 1  IDiag  1:
 E= -994.514561884052     Delta-E=       -0.000010068458 Rises=F Damp=F
 DIIS: error= 1.03D-04 at cycle   3 NSaved=   3.
 NSaved= 3 IEnMin= 3 EnMin= -994.514561884052     IErMin= 3 ErrMin= 1.03D-04
 ErrMax= 1.03D-04  0.00D+00 EMaxC= 1.00D-01 BMatC= 3.84D-06 BMatP= 1.20D-05
 IDIUse=3 WtCom= 9.99D-01 WtEn= 1.03D-03
 Coeff-Com: -0.569D-01 0.342D+00 0.715D+00
 Coeff-En:   0.000D+00 0.000D+00 0.100D+01
 Coeff:     -0.569D-01 0.341D+00 0.716D+00
 Gap=     0.341 Goal=   None    Shift=    0.000
 RMSDP=7.73D-06 MaxDP=2.24D-04 DE=-1.01D-05 OVMax= 6.48D-04

 Cycle   4  Pass 1  IDiag  1:
 E= -994.514565047387     Delta-E=       -0.000003163335 Rises=F Damp=F
 DIIS: error= 2.24D-05 at cycle   4 NSaved=   4.
 NSaved= 4 IEnMin= 4 EnMin= -994.514565047387     IErMin= 4 ErrMin= 2.24D-05
 ErrMax= 2.24D-05  0.00D+00 EMaxC= 1.00D-01 BMatC= 1.85D-07 BMatP= 3.84D-06
 IDIUse=1 WtCom= 1.00D+00 WtEn= 0.00D+00
 Coeff-Com: -0.393D-02-0.558D-01 0.898D-01 0.970D+00
 Coeff:     -0.393D-02-0.558D-01 0.898D-01 0.970D+00
 Gap=     0.341 Goal=   None    Shift=    0.000
 RMSDP=2.92D-06 MaxDP=7.96D-05 DE=-3.16D-06 OVMax= 2.66D-04

 Cycle   5  Pass 1  IDiag  1:
 E= -994.514565347921     Delta-E=       -0.000000300535 Rises=F Damp=F
 DIIS: error= 6.92D-06 at cycle   5 NSaved=   5.
 NSaved= 5 IEnMin= 5 EnMin= -994.514565347921     IErMin= 5 ErrMin= 6.92D-06
 ErrMax= 6.92D-06  0.00D+00 EMaxC= 1.00D-01 BMatC= 1.19D-08 BMatP= 1.85D-07
 IDIUse=1 WtCom= 1.00D+00 WtEn= 0.00D+00
 Coeff-Com:  0.422D-02-0.210D-01-0.553D-01-0.109D+00 0.118D+01
 Coeff:      0.422D-02-0.210D-01-0.553D-01-0.109D+00 0.118D+01
 Gap=     0.341 Goal=   None    Shift=    0.000
 RMSDP=1.32D-06 MaxDP=3.76D-05 DE=-3.01D-07 OVMax= 1.23D-04

 Cycle   6  Pass 1  IDiag  1:
 E= -994.514565389818     Delta-E=       -0.000000041897 Rises=F Damp=F
 DIIS: error= 2.17D-06 at cycle   6 NSaved=   6.
 NSaved= 6 IEnMin= 6 EnMin= -994.514565389818     IErMin= 6 ErrMin= 2.17D-06
 ErrMax= 2.17D-06  0.00D+00 EMaxC= 1.00D-01 BMatC= 1.35D-09 BMatP= 1.19D-08
 IDIUse=1 WtCom= 1.00D+00 WtEn= 0.00D+00
 Coeff-Com: -0.371D-03 0.735D-02 0.376D-02-0.635D-01-0.190D+00 0.124D+01
 Coeff:     -0.371D-03 0.735D-02 0.376D-02-0.635D-01-0.190D+00 0.124D+01
 Gap=     0.341 Goal=   None    Shift=    0.000
 RMSDP=4.54D-07 MaxDP=7.89D-06 DE=-4.19D-08 OVMax= 3.68D-05

 Cycle   7  Pass 1  IDiag  1:
 E= -994.514565394960     Delta-E=       -0.000000005142 Rises=F Damp=F
 DIIS: error= 8.63D-07 at cycle   7 NSaved=   7.
 NSaved= 7 IEnMin= 7 EnMin= -994.514565394960     IErMin= 7 ErrMin= 8.63D-07
 ErrMax= 8.63D-07  0.00D+00 EMaxC= 1.00D-01 BMatC= 1.70D-10 BMatP= 1.35D-09
 IDIUse=1 WtCom= 1.00D+00 WtEn= 0.00D+00
 Coeff-Com: -0.495D-03 0.198D-02 0.897D-02 0.223D-01-0.154D+00-0.809D-01
 Coeff-Com:  0.120D+01
 Coeff:     -0.495D-03 0.198D-02 0.897D-02 0.223D-01-0.154D+00-0.809D-01
 Coeff:      0.120D+01
 Gap=     0.341 Goal=   None    Shift=    0.000
 RMSDP=1.66D-07 MaxDP=3.34D-06 DE=-5.14D-09 OVMax= 1.18D-05

 Cycle   8  Pass 1  IDiag  1:
 E= -994.514565395557     Delta-E=       -0.000000000597 Rises=F Damp=F
 DIIS: error= 2.52D-07 at cycle   8 NSaved=   8.
 NSaved= 8 IEnMin= 8 EnMin= -994.514565395557     IErMin= 8 ErrMin= 2.52D-07
 ErrMax= 2.52D-07  0.00D+00 EMaxC= 1.00D-01 BMatC= 1.58D-11 BMatP= 1.70D-10
 IDIUse=1 WtCom= 1.00D+00 WtEn= 0.00D+00
 Coeff-Com:  0.150D-03-0.125D-02-0.178D-02 0.227D-03 0.461D-01-0.548D-01
 Coeff-Com: -0.327D+00 0.134D+01
 Coeff:      0.150D-03-0.125D-02-0.178D-02 0.227D-03 0.461D-01-0.548D-01
 Coeff:     -0.327D+00 0.134D+01
 Gap=     0.341 Goal=   None    Shift=    0.000
 RMSDP=5.54D-08 MaxDP=1.16D-06 DE=-5.97D-10 OVMax= 5.21D-06

 Cycle   9  Pass 1  IDiag  1:
 E= -994.514565395614     Delta-E=       -0.000000000057 Rises=F Damp=F
 DIIS: error= 1.41D-07 at cycle   9 NSaved=   9.
 NSaved= 9 IEnMin= 9 EnMin= -994.514565395614     IErMin= 9 ErrMin= 1.41D-07
 ErrMax= 1.41D-07  0.00D+00 EMaxC= 1.00D-01 BMatC= 2.42D-12 BMatP= 1.58D-11
 IDIUse=1 WtCom= 1.00D+00 WtEn= 0.00D+00
 Coeff-Com:  0.361D-04-0.110D-03-0.549D-03-0.210D-02 0.797D-02 0.269D-01
 Coeff-Com: -0.108D+00-0.258D+00 0.133D+01
 Coeff:      0.361D-04-0.110D-03-0.549D-03-0.210D-02 0.797D-02 0.269D-01
 Coeff:     -0.108D+00-0.258D+00 0.133D+01
 Gap=     0.341 Goal=   None    Shift=    0.000
 RMSDP=2.62D-08 MaxDP=4.40D-07 DE=-5.71D-11 OVMax= 2.59D-06

 Cycle  10  Pass 1  IDiag  1:
 E= -994.514565395628     Delta-E=       -0.000000000014 Rises=F Damp=F
 DIIS: error= 4.40D-08 at cycle  10 NSaved=  10.
 NSaved=10 IEnMin=10 EnMin= -994.514565395628     IErMin=10 ErrMin= 4.40D-08
 ErrMax= 4.40D-08  0.00D+00 EMaxC= 1.00D-01 BMatC= 2.85D-13 BMatP= 2.42D-12
 IDIUse=1 WtCom= 1.00D+00 WtEn= 0.00D+00
 Coeff-Com: -0.289D-04 0.163D-03 0.403D-03 0.976D-03-0.960D-02 0.233D-02
 Coeff-Com:  0.709D-01-0.123D+00-0.329D+00 0.139D+01
 Coeff:     -0.289D-04 0.163D-03 0.403D-03 0.976D-03-0.960D-02 0.233D-02
 Coeff:      0.709D-01-0.123D+00-0.329D+00 0.139D+01
 Gap=     0.341 Goal=   None    Shift=    0.000
 RMSDP=1.09D-08 MaxDP=2.16D-07 DE=-1.36D-11 OVMax= 9.68D-07

 Cycle  11  Pass 1  IDiag  1:
 E= -994.514565395631     Delta-E=       -0.000000000003 Rises=F Damp=F
 DIIS: error= 1.32D-08 at cycle  11 NSaved=  11.
 NSaved=11 IEnMin=11 EnMin= -994.514565395631     IErMin=11 ErrMin= 1.32D-08
 ErrMax= 1.32D-08  0.00D+00 EMaxC= 1.00D-01 BMatC= 3.20D-14 BMatP= 2.85D-13
 IDIUse=1 WtCom= 1.00D+00 WtEn= 0.00D+00
 Coeff-Com:  0.762D-05-0.522D-04-0.116D-03-0.191D-03 0.300D-02-0.299D-02
 Coeff-Com: -0.193D-01 0.664D-01 0.372D-01-0.615D+00 0.153D+01
 Coeff:      0.762D-05-0.522D-04-0.116D-03-0.191D-03 0.300D-02-0.299D-02
 Coeff:     -0.193D-01 0.664D-01 0.372D-01-0.615D+00 0.153D+01
 Gap=     0.341 Goal=   None    Shift=    0.000
 RMSDP=3.46D-09 MaxDP=6.66D-08 DE=-2.73D-12 OVMax= 3.58D-07

 SCF Done:  E(RHF) =  -994.514565396     A.U. after   11 cycles
            NFock= 11  Conv=0.35D-08     -V/T= 2.0002
 KE= 9.943620785705D+02 PE=-2.621357519916D+03 EE= 5.106671675801D+02
 Leave Link  502 at Thu Sep 16 14:54:42 2021, MaxMem= 16106127360 cpu:              23.9 elap:               2.8
 (Enter /sw/contrib/gaussian/g16/B01/g16/l801.exe)
 ExpMin= 2.53D-02 ExpMax= 4.56D+05 ExpMxC= 1.44D+03 IAcc=3 IRadAn=         5 AccDes= 0.00D+00
 HarFok:  IExCor=  205 AccDes= 0.00D+00 IRadAn=         5 IDoV=-2 UseB2=F ITyADJ=14
 ICtDFT= 12500011 ScaDFX=  1.000000  1.000000  1.000000  1.000000
 Largest valence mixing into a core orbital is  4.47D-04
 Largest core mixing into a valence orbital is  1.74D-04
 Range of M.O.s used for correlation:    12   169
 NBasis=   169 NAE=    22 NBE=    22 NFC=    11 NFV=     0
 NROrb=    158 NOA=    11 NOB=    11 NVA=   147 NVB=   147

 **** Warning!!: The largest alpha MO coefficient is  0.10987151D+02

 Leave Link  801 at Thu Sep 16 14:54:42 2021, MaxMem= 16106127360 cpu:               1.9 elap:               0.1
 (Enter /sw/contrib/gaussian/g16/B01/g16/l906.exe)
 Frozen-core derivative calculation, NFC=  11 NFV=   0.
 FulOut=F Deriv=T AODrv=T NAtomX=     4
   MMem=         143  MDisk=          11 MDiskD=          11
  W3Min=      736164 MinDsk=     1250177 NBas6D=         198
 NBas2D=       20187    NTT=       19701    LW2=     3500000
    MDV= 16105748612 MDiskM=      406660 NBas2p=       20117
 Fully direct method using O(ONN) memory.
 IMap=   1   2   3   4   5   6   7   8   9  10  11  12  13  14  15  16  17  18  19  20
 IMap=  21  22
 JobTyp=1 Pass  1:  I=  12 to  22 NPSUse= 28 ParTrn=T ParDer=T DoDerP=T.
 Spin components of T(2) and E(2):
     alpha-alpha T2 =       0.2923969401D-01 E2=     -0.8392511386D-01
     alpha-beta  T2 =       0.1596715324D+00 E2=     -0.4982155679D+00
     beta-beta   T2 =       0.2923969401D-01 E2=     -0.8392511386D-01
 The integrals were generated   1 times.
 ANorm=    0.1103698745D+01
 E2 =    -0.6660657956D+00 EUMP2 =    -0.99518063119121D+03
 Leave Link  906 at Thu Sep 16 14:54:53 2021, MaxMem= 16106127360 cpu:             304.2 elap:              11.0
 (Enter /sw/contrib/gaussian/g16/B01/g16/l1002.exe)
 Minotr:  Closed shell wavefunction.
          Computing MP2/KS-MP2 derivatives.
          Using Z-Vector for PSCF gradient.
          Skipping F1 and S1 gradient terms here.
          IDoAtm=1111
          Frozen-core window.
          Direct CPHF calculation.
          Differentiating once with respect to electric field.
                with respect to dipole field.
          Differentiating once with respect to nuclear coordinates.
          Requested convergence is 1.0D-10 RMS, and 1.0D-09 maximum.
          NewPWx=F KeepS1=T KeepF1=T KeepIn=T MapXYZ=F SortEE=F KeepMc=T.
 Keep R1 ints in memory in canonical form, NReq=117123755.
 FoFCou: FMM=F IPFlag=           0 FMFlag=           0 FMFlg1=           0
         NFxFlg=           0 DoJE=F BraDBF=F KetDBF=F FulRan=T
         wScrn=  0.000000 ICntrl=       600 IOpCl=  0 I1Cent=           0 NGrid=           0
         NMat0=    1 NMatS0=  14365 NMatT0=    0 NMatD0=    1 NMtDS0=    0 NMtDT0=    0
 Symmetry not used in FoFCou.
 Two-electron integral symmetry not used.
          MDV=   16106127360 using IRadAn=       5.
          Solving linear equations separately, MaxMat=       0.
          There are     1 degrees of freedom in the 1st order CPHF.  IDoFFX=0 NUNeed=     1.
 LinEq1:  Iter=  0 NonCon=     1 RMS=3.09D-03 Max=3.81D-02 NDo=     1
 AX will form     1 AO Fock derivatives at one time.
 LinEq1:  Iter=  1 NonCon=     1 RMS=3.90D-04 Max=4.59D-03 NDo=     1
 LinEq1:  Iter=  2 NonCon=     1 RMS=1.60D-04 Max=2.58D-03 NDo=     1
 LinEq1:  Iter=  3 NonCon=     1 RMS=6.28D-05 Max=9.70D-04 NDo=     1
 LinEq1:  Iter=  4 NonCon=     1 RMS=2.71D-05 Max=5.58D-04 NDo=     1
 LinEq1:  Iter=  5 NonCon=     1 RMS=7.30D-06 Max=1.54D-04 NDo=     1
 LinEq1:  Iter=  6 NonCon=     1 RMS=2.40D-06 Max=4.24D-05 NDo=     1
 LinEq1:  Iter=  7 NonCon=     1 RMS=7.03D-07 Max=9.77D-06 NDo=     1
 LinEq1:  Iter=  8 NonCon=     1 RMS=1.36D-07 Max=1.38D-06 NDo=     1
 LinEq1:  Iter=  9 NonCon=     1 RMS=3.13D-08 Max=3.73D-07 NDo=     1
 LinEq1:  Iter= 10 NonCon=     1 RMS=8.17D-09 Max=1.30D-07 NDo=     1
 LinEq1:  Iter= 11 NonCon=     1 RMS=2.05D-09 Max=4.16D-08 NDo=     1
 LinEq1:  Iter= 12 NonCon=     1 RMS=5.38D-10 Max=9.14D-09 NDo=     1
 LinEq1:  Iter= 13 NonCon=     1 RMS=1.32D-10 Max=1.62D-09 NDo=     1
 LinEq1:  Iter= 14 NonCon=     0 RMS=3.85D-11 Max=4.41D-10 NDo=     1
 Linear equations converged to 1.000D-10 1.000D-09 after    14 iterations.
 End of Minotr F.D. properties file   721 does not exist.
 End of Minotr F.D. properties file   722 does not exist.
 End of Minotr F.D. properties file   788 does not exist.
 Leave Link 1002 at Thu Sep 16 14:54:57 2021, MaxMem= 16106127360 cpu:              26.8 elap:               3.7
 (Enter /sw/contrib/gaussian/g16/B01/g16/l701.exe)
 ... and contract with generalized density number  2.
 Compute integral first derivatives.
 Leave Link  701 at Thu Sep 16 14:54:57 2021, MaxMem= 16106127360 cpu:               5.2 elap:               0.2
 (Enter /sw/contrib/gaussian/g16/B01/g16/l702.exe)
 L702 exits ... SP integral derivatives will be done elsewhere.
 Leave Link  702 at Thu Sep 16 14:54:57 2021, MaxMem= 16106127360 cpu:               0.6 elap:               0.0
 (Enter /sw/contrib/gaussian/g16/B01/g16/l703.exe)
 Integral derivatives from FoFJK, PRISM(SPDF).
 Compute integral first derivatives, UseDBF=F ICtDFT=           0.
 Calling FoFJK, ICntrl=  10002127 FMM=F ISym2X=0 I1Cent= 0 IOpClX= 0 NMat=1 NMatS=1 NMatT=0.
 FoFJK:  IHMeth= 1 ICntrl=10002127 DoSepK=F KAlg= 0 I1Cent=           0 FoldK=F
 IRaf=         0 NMat=       1 IRICut=       1 DoRegI=T DoRafI=F ISym2E= 0 IDoP0=0 IntGTp=1.
 FoFCou: FMM=F IPFlag=           0 FMFlag=      100000 FMFlg1=         800
         NFxFlg=           0 DoJE=F BraDBF=F KetDBF=F FulRan=T
         wScrn=  0.000000 ICntrl=  10002127 IOpCl=  0 I1Cent=           0 NGrid=           0
         NMat0=    1 NMatS0=      1 NMatT0=    0 NMatD0=    1 NMtDS0=    0 NMtDT0=    0
 Symmetry not used in FoFCou.
 Leave Link  703 at Thu Sep 16 14:54:58 2021, MaxMem= 16106127360 cpu:              40.6 elap:               1.5
 (Enter /sw/contrib/gaussian/g16/B01/g16/l716.exe)
 Dipole        = 2.39562163D+00-1.88297886D-02 1.94455697D-01
 ***** Axes restored to original set *****
 -------------------------------------------------------------------
 Center     Atomic                   Forces (Hartrees/Bohr)
 Number     Number              X              Y              Z
 -------------------------------------------------------------------
      1        8           0.000611846    0.004586946    0.013070951
      2       17           0.002968850    0.001801813   -0.000413701
      3       17          -0.000920738   -0.001089730    0.006765489
      4        1          -0.002659958   -0.005299030   -0.019422739
 -------------------------------------------------------------------
 Cartesian Forces:  Max     0.019422739 RMS     0.007442563
 -----------------------------------------------------------------------------------------------
                       Internal Coordinate Forces (Hartree/Bohr or radian)
  Cent   Atom   N1       Length/X         N2         Alpha/Y        N3         Beta/Z          J
 -----------------------------------------------------------------------------------------------
      1  O 
         X        1   0.000000(     1)
      2  Cl       1   0.002969(     2)      2   0.001316(     5)
      3  Cl       1   0.001275(     3)      2  -0.037136(     6)      3   0.003514(     8)     0
      4  H        1  -0.004711(     4)      2   0.037444(     7)      3   0.002215(     9)     0
 -----------------------------------------------------------------------------------------------
 Internal  Forces:  Max     0.037443831 RMS     0.017741182
 Leave Link  716 at Thu Sep 16 14:54:59 2021, MaxMem= 16106127360 cpu:               1.8 elap:               0.1
 (Enter /sw/contrib/gaussian/g16/B01/g16/l103.exe)

 GradGradGradGradGradGradGradGradGradGradGradGradGradGradGradGradGradGrad
 Berny optimization.
 Search for a local minimum.
 Step number   2 out of a maximum of   20
 All quantities printed in internal units (Hartrees-Bohrs-Radians)
 Update second derivatives using D2CorN and points    1    2
 DE= -5.20D-04 DEPred=-4.08D-04 R= 1.27D+00
 TightC=F SS=  1.41D+00  RLast= 4.35D-02 DXNew= 5.0454D-01 1.3046D-01
 Trust test= 1.27D+00 RLast= 4.35D-02 DXMaxT set to 3.00D-01
 The second derivative matrix:
                          r1        r2        r3        a1        OOP
           r1           0.38049
           r2          -0.00000   0.02777
           r3          -0.00266   0.00572   0.32269
           a1          -0.00000   0.00000   0.00156   0.38219
           OOP         -0.00000   0.00000  -0.02787   0.02840   0.17258
 ITU=  1  0
     Eigenvalues ---    0.322691000.000001000.000001000.000001000.00000
 RFO step:  Lambda= 0.00000000D+00 EMin= 3.22693589D-01
 Quartic linear search produced a step of  0.29777.
 Variable       Old X    -DE/DX   Delta X   Delta X   Delta X     New X
                                 (Linear)    (Quad)   (Total)
    r1        3.17994   0.00297   0.00000   0.00000   0.00000   3.17994
    r2        5.48904   0.00127   0.00000   0.00000   0.00000   5.48904
    r3        1.89996  -0.00471  -0.01295  -0.00000  -0.01295   1.88701
    a1        1.80694   0.00573   0.00000   0.00000   0.00000   1.80694
   OOP        1.04720   0.03744   0.00000   0.00000   0.00000   1.04720
         Item               Value     Threshold  Converged?
 Maximum Force            0.004711     0.000450     NO 
 RMS     Force            0.004711     0.000300     NO 
 Maximum Displacement     0.012949     0.001800     NO 
 RMS     Displacement     0.005791     0.001200     NO 
 Predicted change in Energy=-3.394463D-05
 Lowest energy point so far.  Saving SCF results.
 GradGradGradGradGradGradGradGradGradGradGradGradGradGradGradGradGradGrad

 Leave Link  103 at Thu Sep 16 14:54:59 2021, MaxMem= 16106127360 cpu:               0.5 elap:               0.0
 (Enter /sw/contrib/gaussian/g16/B01/g16/l202.exe)
 ---------------------------------------------------------------------------------------------------
                            Z-MATRIX (ANGSTROMS AND DEGREES)
   CD    Cent   Atom    N1       Length/X        N2       Alpha/Y        N3        Beta/Z          J
 ---------------------------------------------------------------------------------------------------
      1      1  O 
      2         X        1  10.000000(     1)
      3      2  Cl       1   1.682749(     2)      2   90.000(     5)
      4      3  Cl       1   2.904676(     3)      2   90.000(     6)      3  103.530(     8)      0
      5      4  H        1   0.998562(     4)      2   60.000(     7)      3  103.530(     9)      0
 ---------------------------------------------------------------------------------------------------
                         Z-Matrix orientation:                         
 ---------------------------------------------------------------------
 Center     Atomic      Atomic             Coordinates (Angstroms)
 Number     Number       Type             X           Y           Z
 ---------------------------------------------------------------------
      1          8           0        0.000000    0.000000    0.000000
      2         -1           0        0.000000    0.000000   10.000000
      3         17           0        1.682749    0.000000    0.000000
      4         17           0       -0.679570   -2.824062    0.000000
      5          1           0       -0.202321   -0.840779    0.499281
 ---------------------------------------------------------------------
                    Distance matrix (angstroms):
                    1          2          3          4          5
     1  O    0.000000
     2  X   10.000000   0.000000
     3  Cl   1.682749  10.140594   0.000000
     4  Cl   2.904676  10.413316   3.681831   0.000000
     5  H    0.998562   9.539995   2.123602   2.100109   0.000000
 Stoichiometry    Cl2HO(1-)
 Framework group  C1[X(Cl2HO)]
 Deg. of freedom     6
 Full point group                 C1      NOp   1
 RotChk:  IX=0 Diff= 1.81D-04
 Largest Abelian subgroup         C1      NOp   1
 Largest concise Abelian subgroup C1      NOp   1
                         Standard orientation:                         
 ---------------------------------------------------------------------
 Center     Atomic      Atomic             Coordinates (Angstroms)
 Number     Number       Type             X           Y           Z
 ---------------------------------------------------------------------
      1          8           0        0.678392    0.991140   -0.041717
      2         17           0        1.681672   -0.359162    0.000239
      3         17           0       -1.994005   -0.146536   -0.008097
      4          1           0       -0.117479    0.667755    0.467338
 ---------------------------------------------------------------------
 Rotational constants (GHZ):          23.3367653           2.0581628           1.8948028
 Leave Link  202 at Thu Sep 16 14:54:59 2021, MaxMem= 16106127360 cpu:               2.2 elap:               0.1
 (Enter /sw/contrib/gaussian/g16/B01/g16/l301.exe)
 Standard basis: Aug-CC-pVTZ (5D, 7F)
 Ernie: Thresh=  0.10000D-02 Tol=  0.10000D-05 Strict=F.
 Ernie:  29 primitive shells out of 169 were deleted.
 There are   198 symmetry adapted cartesian basis functions of A   symmetry.
 There are   169 symmetry adapted basis functions of A   symmetry.
   169 basis functions,   327 primitive gaussians,   198 cartesian basis functions
    22 alpha electrons       22 beta electrons
       nuclear repulsion energy       121.8411113613 Hartrees.
 IExCor=    0 DFT=F Ex=HF Corr=None ExCW=0 ScaHFX=  1.000000
 ScaDFX=  1.000000  1.000000  1.000000  1.000000 ScalE2=  1.000000  1.000000
 IRadAn=      5 IRanWt=     -1 IRanGd=            0 ICorTp=0 IEmpDi=  4
 NAtoms=    4 NActive=    4 NUniq=    4 SFac= 1.00D+00 NAtFMM=   60 NAOKFM=F Big=F
 Integral buffers will be    131072 words long.
 Raffenetti 1 integral format.
 Two-electron integral symmetry is turned on.
 Leave Link  301 at Thu Sep 16 14:54:59 2021, MaxMem= 16106127360 cpu:               1.3 elap:               0.1
 (Enter /sw/contrib/gaussian/g16/B01/g16/l302.exe)
 NPDir=0 NMtPBC=     1 NCelOv=     1 NCel=       1 NClECP=     1 NCelD=      1
         NCelK=      1 NCelE2=     1 NClLst=     1 CellRange=     0.0.
 One-electron integrals computed using PRISM.
 One-electron integral symmetry used in STVInt
 NBasis=   169 RedAO= T EigKep=  2.81D-04  NBF=   169
 NBsUse=   169 1.00D-06 EigRej= -1.00D+00 NBFU=   169
 Leave Link  302 at Thu Sep 16 14:54:59 2021, MaxMem= 16106127360 cpu:               4.9 elap:               0.2
 (Enter /sw/contrib/gaussian/g16/B01/g16/l303.exe)
 DipDrv:  MaxL=1.
 Leave Link  303 at Thu Sep 16 14:54:59 2021, MaxMem= 16106127360 cpu:               1.3 elap:               0.1
 (Enter /sw/contrib/gaussian/g16/B01/g16/l401.exe)
 Initial guess from the checkpoint file:  "/gscratch/ilahie/mccoygrp/coire_hocl/clhocl/clhocl_30_opt.chk"
 B after Tr=     0.000000    0.000000   -0.000000
         Rot=    1.000000    0.000091   -0.000021    0.000031 Ang=   0.01 deg.
 Guess basis will be translated and rotated to current coordinates.
 JPrj=2 DoOrth=T DoCkMO=T.
 Leave Link  401 at Thu Sep 16 14:54:59 2021, MaxMem= 16106127360 cpu:               2.4 elap:               0.1
 (Enter /sw/contrib/gaussian/g16/B01/g16/l502.exe)
 Keep R1 ints in memory in canonical form, NReq=117119419.
 FoFCou: FMM=F IPFlag=           0 FMFlag=           0 FMFlg1=           0
         NFxFlg=           0 DoJE=F BraDBF=F KetDBF=F FulRan=T
         wScrn=  0.000000 ICntrl=       600 IOpCl=  0 I1Cent=           0 NGrid=           0
         NMat0=    1 NMatS0=  14365 NMatT0=    0 NMatD0=    1 NMtDS0=    0 NMtDT0=    0
 Symmetry not used in FoFCou.
 Two-electron integral symmetry not used.
 Closed shell SCF:
 Using DIIS extrapolation, IDIIS=  1040.
 NGot= 16106127360 LenX= 16002857927 LenY= 16002818282
 Requested convergence on RMS density matrix=1.00D-08 within 128 cycles.
 Requested convergence on MAX density matrix=1.00D-06.
 Requested convergence on             energy=1.00D-06.
 No special actions if energy rises.

 Cycle   1  Pass 1  IDiag  1:
 E= -994.514962013144    
 DIIS: error= 3.82D-04 at cycle   1 NSaved=   1.
 NSaved= 1 IEnMin= 1 EnMin= -994.514962013144     IErMin= 1 ErrMin= 3.82D-04
 ErrMax= 3.82D-04  0.00D+00 EMaxC= 1.00D-01 BMatC= 2.01D-05 BMatP= 2.01D-05
 IDIUse=3 WtCom= 9.96D-01 WtEn= 3.82D-03
 Coeff-Com:  0.100D+01
 Coeff-En:   0.100D+01
 Coeff:      0.100D+01
 Gap=     0.709 Goal=   None    Shift=    0.000
 RMSDP=3.51D-05 MaxDP=1.45D-03              OVMax= 1.06D-03

 Cycle   2  Pass 1  IDiag  1:
 E= -994.514977054764     Delta-E=       -0.000015041620 Rises=F Damp=F
 DIIS: error= 5.50D-05 at cycle   2 NSaved=   2.
 NSaved= 2 IEnMin= 2 EnMin= -994.514977054764     IErMin= 2 ErrMin= 5.50D-05
 ErrMax= 5.50D-05  0.00D+00 EMaxC= 1.00D-01 BMatC= 1.06D-06 BMatP= 2.01D-05
 IDIUse=1 WtCom= 1.00D+00 WtEn= 0.00D+00
 Coeff-Com: -0.159D-01 0.102D+01
 Coeff:     -0.159D-01 0.102D+01
 Gap=     0.340 Goal=   None    Shift=    0.000
 RMSDP=6.64D-06 MaxDP=2.29D-04 DE=-1.50D-05 OVMax= 4.51D-04

 Cycle   3  Pass 1  IDiag  1:
 E= -994.514977941073     Delta-E=       -0.000000886308 Rises=F Damp=F
 DIIS: error= 3.06D-05 at cycle   3 NSaved=   3.
 NSaved= 3 IEnMin= 3 EnMin= -994.514977941073     IErMin= 3 ErrMin= 3.06D-05
 ErrMax= 3.06D-05  0.00D+00 EMaxC= 1.00D-01 BMatC= 3.30D-07 BMatP= 1.06D-06
 IDIUse=1 WtCom= 1.00D+00 WtEn= 0.00D+00
 Coeff-Com: -0.546D-01 0.337D+00 0.717D+00
 Coeff:     -0.546D-01 0.337D+00 0.717D+00
 Gap=     0.340 Goal=   None    Shift=    0.000
 RMSDP=2.27D-06 MaxDP=6.51D-05 DE=-8.86D-07 OVMax= 1.91D-04

 Cycle   4  Pass 1  IDiag  1:
 E= -994.514978210698     Delta-E=       -0.000000269626 Rises=F Damp=F
 DIIS: error= 6.85D-06 at cycle   4 NSaved=   4.
 NSaved= 4 IEnMin= 4 EnMin= -994.514978210698     IErMin= 4 ErrMin= 6.85D-06
 ErrMax= 6.85D-06  0.00D+00 EMaxC= 1.00D-01 BMatC= 1.70D-08 BMatP= 3.30D-07
 IDIUse=1 WtCom= 1.00D+00 WtEn= 0.00D+00
 Coeff-Com: -0.402D-02-0.531D-01 0.100D+00 0.957D+00
 Coeff:     -0.402D-02-0.531D-01 0.100D+00 0.957D+00
 Gap=     0.340 Goal=   None    Shift=    0.000
 RMSDP=8.50D-07 MaxDP=2.30D-05 DE=-2.70D-07 OVMax= 7.57D-05

 Cycle   5  Pass 1  IDiag  1:
 E= -994.514978236771     Delta-E=       -0.000000026072 Rises=F Damp=F
 DIIS: error= 1.98D-06 at cycle   5 NSaved=   5.
 NSaved= 5 IEnMin= 5 EnMin= -994.514978236771     IErMin= 5 ErrMin= 1.98D-06
 ErrMax= 1.98D-06  0.00D+00 EMaxC= 1.00D-01 BMatC= 1.04D-09 BMatP= 1.70D-08
 IDIUse=1 WtCom= 1.00D+00 WtEn= 0.00D+00
 Coeff-Com:  0.401D-02-0.217D-01-0.548D-01-0.930D-01 0.117D+01
 Coeff:      0.401D-02-0.217D-01-0.548D-01-0.930D-01 0.117D+01
 Gap=     0.340 Goal=   None    Shift=    0.000
 RMSDP=3.85D-07 MaxDP=1.09D-05 DE=-2.61D-08 OVMax= 3.53D-05

 Cycle   6  Pass 1  IDiag  1:
 E= -994.514978240353     Delta-E=       -0.000000003582 Rises=F Damp=F
 DIIS: error= 6.25D-07 at cycle   6 NSaved=   6.
 NSaved= 6 IEnMin= 6 EnMin= -994.514978240353     IErMin= 6 ErrMin= 6.25D-07
 ErrMax= 6.25D-07  0.00D+00 EMaxC= 1.00D-01 BMatC= 1.21D-10 BMatP= 1.04D-09
 IDIUse=1 WtCom= 1.00D+00 WtEn= 0.00D+00
 Coeff-Com: -0.295D-03 0.693D-02 0.240D-02-0.647D-01-0.180D+00 0.124D+01
 Coeff:     -0.295D-03 0.693D-02 0.240D-02-0.647D-01-0.180D+00 0.124D+01
 Gap=     0.340 Goal=   None    Shift=    0.000
 RMSDP=1.35D-07 MaxDP=2.31D-06 DE=-3.58D-09 OVMax= 1.08D-05

 Cycle   7  Pass 1  IDiag  1:
 E= -994.514978240812     Delta-E=       -0.000000000458 Rises=F Damp=F
 DIIS: error= 2.62D-07 at cycle   7 NSaved=   7.
 NSaved= 7 IEnMin= 7 EnMin= -994.514978240812     IErMin= 7 ErrMin= 2.62D-07
 ErrMax= 2.62D-07  0.00D+00 EMaxC= 1.00D-01 BMatC= 1.57D-11 BMatP= 1.21D-10
 IDIUse=1 WtCom= 1.00D+00 WtEn= 0.00D+00
 Coeff-Com: -0.485D-03 0.204D-02 0.930D-02 0.219D-01-0.154D+00-0.102D+00
 Coeff-Com:  0.122D+01
 Coeff:     -0.485D-03 0.204D-02 0.930D-02 0.219D-01-0.154D+00-0.102D+00
 Coeff:      0.122D+01
 Gap=     0.340 Goal=   None    Shift=    0.000
 RMSDP=5.13D-08 MaxDP=1.02D-06 DE=-4.58D-10 OVMax= 3.78D-06

 Cycle   8  Pass 1  IDiag  1:
 E= -994.514978240864     Delta-E=       -0.000000000052 Rises=F Damp=F
 DIIS: error= 7.85D-08 at cycle   8 NSaved=   8.
 NSaved= 8 IEnMin= 8 EnMin= -994.514978240864     IErMin= 8 ErrMin= 7.85D-08
 ErrMax= 7.85D-08  0.00D+00 EMaxC= 1.00D-01 BMatC= 1.43D-12 BMatP= 1.57D-11
 IDIUse=1 WtCom= 1.00D+00 WtEn= 0.00D+00
 Coeff-Com:  0.142D-03-0.124D-02-0.174D-02 0.350D-03 0.455D-01-0.498D-01
 Coeff-Com: -0.331D+00 0.134D+01
 Coeff:      0.142D-03-0.124D-02-0.174D-02 0.350D-03 0.455D-01-0.498D-01
 Coeff:     -0.331D+00 0.134D+01
 Gap=     0.340 Goal=   None    Shift=    0.000
 RMSDP=1.69D-08 MaxDP=3.61D-07 DE=-5.18D-11 OVMax= 1.62D-06

 Cycle   9  Pass 1  IDiag  1:
 E= -994.514978240868     Delta-E=       -0.000000000004 Rises=F Damp=F
 DIIS: error= 4.35D-08 at cycle   9 NSaved=   9.
 NSaved= 9 IEnMin= 9 EnMin= -994.514978240868     IErMin= 9 ErrMin= 4.35D-08
 ErrMax= 4.35D-08  0.00D+00 EMaxC= 1.00D-01 BMatC= 2.18D-13 BMatP= 1.43D-12
 IDIUse=1 WtCom= 1.00D+00 WtEn= 0.00D+00
 Coeff-Com:  0.350D-04-0.114D-03-0.573D-03-0.206D-02 0.770D-02 0.287D-01
 Coeff-Com: -0.106D+00-0.268D+00 0.134D+01
 Coeff:      0.350D-04-0.114D-03-0.573D-03-0.206D-02 0.770D-02 0.287D-01
 Coeff:     -0.106D+00-0.268D+00 0.134D+01
 Gap=     0.340 Goal=   None    Shift=    0.000
 RMSDP=7.97D-09 MaxDP=1.38D-07 DE=-4.32D-12 OVMax= 8.04D-07

 SCF Done:  E(RHF) =  -994.514978241     A.U. after    9 cycles
            NFock=  9  Conv=0.80D-08     -V/T= 2.0001
 KE= 9.943723769922D+02 PE=-2.621411809302D+03 EE= 5.106833427077D+02
 Leave Link  502 at Thu Sep 16 14:55:02 2021, MaxMem= 16106127360 cpu:              24.1 elap:               2.5
 (Enter /sw/contrib/gaussian/g16/B01/g16/l801.exe)
 ExpMin= 2.53D-02 ExpMax= 4.56D+05 ExpMxC= 1.44D+03 IAcc=3 IRadAn=         5 AccDes= 0.00D+00
 HarFok:  IExCor=  205 AccDes= 0.00D+00 IRadAn=         5 IDoV=-2 UseB2=F ITyADJ=14
 ICtDFT= 12500011 ScaDFX=  1.000000  1.000000  1.000000  1.000000
 Largest valence mixing into a core orbital is  4.47D-04
 Largest core mixing into a valence orbital is  1.74D-04
 Range of M.O.s used for correlation:    12   169
 NBasis=   169 NAE=    22 NBE=    22 NFC=    11 NFV=     0
 NROrb=    158 NOA=    11 NOB=    11 NVA=   147 NVB=   147

 **** Warning!!: The largest alpha MO coefficient is  0.11090818D+02

 Leave Link  801 at Thu Sep 16 14:55:02 2021, MaxMem= 16106127360 cpu:               4.0 elap:               0.2
 (Enter /sw/contrib/gaussian/g16/B01/g16/l906.exe)
 Frozen-core derivative calculation, NFC=  11 NFV=   0.
 FulOut=F Deriv=T AODrv=T NAtomX=     4
   MMem=         143  MDisk=          11 MDiskD=          11
  W3Min=      736164 MinDsk=     1250177 NBas6D=         198
 NBas2D=       20187    NTT=       19701    LW2=     3500000
    MDV= 16105748612 MDiskM=      406660 NBas2p=       20117
 Fully direct method using O(ONN) memory.
 IMap=   1   2   3   4   5   6   7   8   9  10  11  12  13  14  15  16  17  18  19  20
 IMap=  21  22
 JobTyp=1 Pass  1:  I=  12 to  22 NPSUse= 28 ParTrn=T ParDer=T DoDerP=T.
 Spin components of T(2) and E(2):
     alpha-alpha T2 =       0.2919450566D-01 E2=     -0.8385911286D-01
     alpha-beta  T2 =       0.1594679306D+00 E2=     -0.4979654609D+00
     beta-beta   T2 =       0.2919450566D-01 E2=     -0.8385911286D-01
 The integrals were generated   1 times.
 ANorm=    0.1103565559D+01
 E2 =    -0.6656836866D+00 EUMP2 =    -0.99518066192750D+03
 Leave Link  906 at Thu Sep 16 14:55:13 2021, MaxMem= 16106127360 cpu:             308.8 elap:              11.1
 (Enter /sw/contrib/gaussian/g16/B01/g16/l1002.exe)
 Minotr:  Closed shell wavefunction.
          Computing MP2/KS-MP2 derivatives.
          Using Z-Vector for PSCF gradient.
          Skipping F1 and S1 gradient terms here.
          IDoAtm=1111
          Frozen-core window.
          Direct CPHF calculation.
          Differentiating once with respect to electric field.
                with respect to dipole field.
          Differentiating once with respect to nuclear coordinates.
          Requested convergence is 1.0D-10 RMS, and 1.0D-09 maximum.
          NewPWx=F KeepS1=T KeepF1=T KeepIn=T MapXYZ=F SortEE=F KeepMc=T.
 Keep R1 ints in memory in canonical form, NReq=117123755.
 FoFCou: FMM=F IPFlag=           0 FMFlag=           0 FMFlg1=           0
         NFxFlg=           0 DoJE=F BraDBF=F KetDBF=F FulRan=T
         wScrn=  0.000000 ICntrl=       600 IOpCl=  0 I1Cent=           0 NGrid=           0
         NMat0=    1 NMatS0=  14365 NMatT0=    0 NMatD0=    1 NMtDS0=    0 NMtDT0=    0
 Symmetry not used in FoFCou.
 Two-electron integral symmetry not used.
          MDV=   16106127360 using IRadAn=       5.
          Solving linear equations separately, MaxMat=       0.
          There are     1 degrees of freedom in the 1st order CPHF.  IDoFFX=0 NUNeed=     1.
 LinEq1:  Iter=  0 NonCon=     1 RMS=3.08D-03 Max=3.84D-02 NDo=     1
 AX will form     1 AO Fock derivatives at one time.
 LinEq1:  Iter=  1 NonCon=     1 RMS=3.88D-04 Max=4.58D-03 NDo=     1
 LinEq1:  Iter=  2 NonCon=     1 RMS=1.59D-04 Max=2.54D-03 NDo=     1
 LinEq1:  Iter=  3 NonCon=     1 RMS=6.22D-05 Max=9.68D-04 NDo=     1
 LinEq1:  Iter=  4 NonCon=     1 RMS=2.69D-05 Max=5.51D-04 NDo=     1
 LinEq1:  Iter=  5 NonCon=     1 RMS=7.24D-06 Max=1.52D-04 NDo=     1
 LinEq1:  Iter=  6 NonCon=     1 RMS=2.38D-06 Max=4.19D-05 NDo=     1
 LinEq1:  Iter=  7 NonCon=     1 RMS=6.97D-07 Max=9.64D-06 NDo=     1
 LinEq1:  Iter=  8 NonCon=     1 RMS=1.35D-07 Max=1.35D-06 NDo=     1
 LinEq1:  Iter=  9 NonCon=     1 RMS=3.08D-08 Max=3.65D-07 NDo=     1
 LinEq1:  Iter= 10 NonCon=     1 RMS=8.00D-09 Max=1.25D-07 NDo=     1
 LinEq1:  Iter= 11 NonCon=     1 RMS=2.00D-09 Max=4.07D-08 NDo=     1
 LinEq1:  Iter= 12 NonCon=     1 RMS=5.20D-10 Max=8.88D-09 NDo=     1
 LinEq1:  Iter= 13 NonCon=     1 RMS=1.21D-10 Max=1.51D-09 NDo=     1
 LinEq1:  Iter= 14 NonCon=     0 RMS=3.32D-11 Max=3.90D-10 NDo=     1
 Linear equations converged to 1.000D-10 1.000D-09 after    14 iterations.
 End of Minotr F.D. properties file   721 does not exist.
 End of Minotr F.D. properties file   722 does not exist.
 End of Minotr F.D. properties file   788 does not exist.
 Leave Link 1002 at Thu Sep 16 14:55:17 2021, MaxMem= 16106127360 cpu:              29.2 elap:               3.8
 (Enter /sw/contrib/gaussian/g16/B01/g16/l701.exe)
 ... and contract with generalized density number  2.
 Compute integral first derivatives.
 Leave Link  701 at Thu Sep 16 14:55:17 2021, MaxMem= 16106127360 cpu:               5.4 elap:               0.2
 (Enter /sw/contrib/gaussian/g16/B01/g16/l702.exe)
 L702 exits ... SP integral derivatives will be done elsewhere.
 Leave Link  702 at Thu Sep 16 14:55:17 2021, MaxMem= 16106127360 cpu:               0.6 elap:               0.0
 (Enter /sw/contrib/gaussian/g16/B01/g16/l703.exe)
 Integral derivatives from FoFJK, PRISM(SPDF).
 Compute integral first derivatives, UseDBF=F ICtDFT=           0.
 Calling FoFJK, ICntrl=  10002127 FMM=F ISym2X=0 I1Cent= 0 IOpClX= 0 NMat=1 NMatS=1 NMatT=0.
 FoFJK:  IHMeth= 1 ICntrl=10002127 DoSepK=F KAlg= 0 I1Cent=           0 FoldK=F
 IRaf=         0 NMat=       1 IRICut=       1 DoRegI=T DoRafI=F ISym2E= 0 IDoP0=0 IntGTp=1.
 FoFCou: FMM=F IPFlag=           0 FMFlag=      100000 FMFlg1=         800
         NFxFlg=           0 DoJE=F BraDBF=F KetDBF=F FulRan=T
         wScrn=  0.000000 ICntrl=  10002127 IOpCl=  0 I1Cent=           0 NGrid=           0
         NMat0=    1 NMatS0=      1 NMatT0=    0 NMatD0=    1 NMtDS0=    0 NMtDT0=    0
 Symmetry not used in FoFCou.
 Leave Link  703 at Thu Sep 16 14:55:19 2021, MaxMem= 16106127360 cpu:              40.3 elap:               1.5
 (Enter /sw/contrib/gaussian/g16/B01/g16/l716.exe)
 Dipole        = 2.40986514D+00-1.68567892D-02 1.93793344D-01
 ***** Axes restored to original set *****
 -------------------------------------------------------------------
 Center     Atomic                   Forces (Hartrees/Bohr)
 Number     Number              X              Y              Z
 -------------------------------------------------------------------
      1        8           0.001684993    0.008558031    0.010650528
      2       17           0.002893614    0.001814457   -0.000423122
      3       17          -0.000950573   -0.001221676    0.006639400
      4        1          -0.003628034   -0.009150812   -0.016866806
 -------------------------------------------------------------------
 Cartesian Forces:  Max     0.016866806 RMS     0.007241224
 -----------------------------------------------------------------------------------------------
                       Internal Coordinate Forces (Hartree/Bohr or radian)
  Cent   Atom   N1       Length/X         N2         Alpha/Y        N3         Beta/Z          J
 -----------------------------------------------------------------------------------------------
      1  O 
         X        1   0.000000(     1)
      2  Cl       1   0.002894(     2)      2   0.001345(     5)
      3  Cl       1   0.001410(     3)      2  -0.036444(     6)      3   0.003504(     8)     0
      4  H        1   0.000007(     4)      2   0.036759(     7)      3   0.002266(     9)     0
 -----------------------------------------------------------------------------------------------
 Internal  Forces:  Max     0.036758746 RMS     0.017349193
 Leave Link  716 at Thu Sep 16 14:55:19 2021, MaxMem= 16106127360 cpu:               0.8 elap:               0.1
 (Enter /sw/contrib/gaussian/g16/B01/g16/l103.exe)

 GradGradGradGradGradGradGradGradGradGradGradGradGradGradGradGradGradGrad
 Berny optimization.
 Search for a local minimum.
 Step number   3 out of a maximum of   20
 All quantities printed in internal units (Hartrees-Bohrs-Radians)
 Update second derivatives using D2CorN and points    2    3
 DE= -3.07D-05 DEPred=-3.39D-05 R= 9.05D-01
 TightC=F SS=  1.41D+00  RLast= 1.29D-02 DXNew= 5.0454D-01 3.8847D-02
 Trust test= 9.05D-01 RLast= 1.29D-02 DXMaxT set to 3.00D-01
 The second derivative matrix:
                          r1        r2        r3        a1        OOP
           r1           0.38049
           r2          -0.00000   0.02777
           r3          -0.00424   0.00808   0.36430
           a1          -0.00000   0.00000   0.00233   0.38219
           OOP         -0.00000   0.00000  -0.04039   0.02840   0.17258
 ITU=  1  1  0
     Eigenvalues ---    0.364301000.000001000.000001000.000001000.00000
 RFO step:  Lambda= 0.00000000D+00 EMin= 3.64300590D-01
 Quartic linear search produced a step of -0.00136.
 Variable       Old X    -DE/DX   Delta X   Delta X   Delta X     New X
                                 (Linear)    (Quad)   (Total)
    r1        3.17994   0.00289   0.00000   0.00000   0.00000   3.17994
    r2        5.48904   0.00141   0.00000   0.00000   0.00000   5.48904
    r3        1.88701   0.00001   0.00002  -0.00000   0.00002   1.88703
    a1        1.80694   0.00577   0.00000   0.00000   0.00000   1.80694
   OOP        1.04720   0.03676   0.00000   0.00000   0.00000   1.04720
         Item               Value     Threshold  Converged?
 Maximum Force            0.000007     0.000450     YES
 RMS     Force            0.000007     0.000300     YES
 Maximum Displacement     0.000018     0.001800     YES
 RMS     Displacement     0.000008     0.001200     YES
 Predicted change in Energy=-5.938917D-11
 Optimization completed.
    -- Stationary point found.
                       ----------------------------
                       !   Optimized Parameters   !
                       ! (Angstroms and Degrees)  !
 ----------------------                            ----------------------
 !      Name          Value   Derivative information (Atomic Units)     !
 ------------------------------------------------------------------------
 !       r1          1.6827   -DE/DX =    0.0029                        !
 !       r2          2.9047   -DE/DX =    0.0014                        !
 !       r3          0.9986   -DE/DX =    0.0                           !
 !       a1        103.5302   -DE/DX =    0.0058                        !
 !       OOP        60.0      -DE/DX =    0.0368                        !
 ------------------------------------------------------------------------
 Lowest energy point so far.  Saving SCF results.
 Largest change from initial coordinates is atom    4       0.029 Angstoms.
 GradGradGradGradGradGradGradGradGradGradGradGradGradGradGradGradGradGrad

 Leave Link  103 at Thu Sep 16 14:55:19 2021, MaxMem= 16106127360 cpu:               2.5 elap:               0.1
 (Enter /sw/contrib/gaussian/g16/B01/g16/l202.exe)
 ---------------------------------------------------------------------------------------------------
                            Z-MATRIX (ANGSTROMS AND DEGREES)
   CD    Cent   Atom    N1       Length/X        N2       Alpha/Y        N3        Beta/Z          J
 ---------------------------------------------------------------------------------------------------
      1      1  O 
      2         X        1  10.000000(     1)
      3      2  Cl       1   1.682749(     2)      2   90.000(     5)
      4      3  Cl       1   2.904676(     3)      2   90.000(     6)      3  103.530(     8)      0
      5      4  H        1   0.998562(     4)      2   60.000(     7)      3  103.530(     9)      0
 ---------------------------------------------------------------------------------------------------
                         Z-Matrix orientation:                         
 ---------------------------------------------------------------------
 Center     Atomic      Atomic             Coordinates (Angstroms)
 Number     Number       Type             X           Y           Z
 ---------------------------------------------------------------------
      1          8           0        0.000000    0.000000    0.000000
      2         -1           0        0.000000    0.000000   10.000000
      3         17           0        1.682749    0.000000    0.000000
      4         17           0       -0.679570   -2.824062    0.000000
      5          1           0       -0.202321   -0.840779    0.499281
 ---------------------------------------------------------------------
                    Distance matrix (angstroms):
                    1          2          3          4          5
     1  O    0.000000
     2  X   10.000000   0.000000
     3  Cl   1.682749  10.140594   0.000000
     4  Cl   2.904676  10.413316   3.681831   0.000000
     5  H    0.998562   9.539995   2.123602   2.100109   0.000000
 Stoichiometry    Cl2HO(1-)
 Framework group  C1[X(Cl2HO)]
 Deg. of freedom     6
 Full point group                 C1      NOp   1
 RotChk:  IX=0 Diff= 1.64D-16
 Largest Abelian subgroup         C1      NOp   1
 Largest concise Abelian subgroup C1      NOp   1
                         Standard orientation:                         
 ---------------------------------------------------------------------
 Center     Atomic      Atomic             Coordinates (Angstroms)
 Number     Number       Type             X           Y           Z
 ---------------------------------------------------------------------
      1          8           0        0.678392    0.991140   -0.041717
      2         17           0        1.681672   -0.359162    0.000239
      3         17           0       -1.994005   -0.146536   -0.008097
      4          1           0       -0.117479    0.667755    0.467338
 ---------------------------------------------------------------------
 Rotational constants (GHZ):          23.3367653           2.0581628           1.8948028
 Leave Link  202 at Thu Sep 16 14:55:19 2021, MaxMem= 16106127360 cpu:               0.4 elap:               0.0
 (Enter /sw/contrib/gaussian/g16/B01/g16/l601.exe)
 Copying SCF densities to generalized density rwf, IOpCl= 0 IROHF=0.

 **********************************************************************

            Population analysis using the MP2 Density.

 **********************************************************************

 Orbital symmetries:
       Occupied  (A) (A) (A) (A) (A) (A) (A) (A) (A) (A) (A) (A)
                 (A) (A) (A) (A) (A) (A) (A) (A) (A) (A)
       Virtual   (A) (A) (A) (A) (A) (A) (A) (A) (A) (A) (A) (A)
                 (A) (A) (A) (A) (A) (A) (A) (A) (A) (A) (A) (A)
                 (A) (A) (A) (A) (A) (A) (A) (A) (A) (A) (A) (A)
                 (A) (A) (A) (A) (A) (A) (A) (A) (A) (A) (A) (A)
                 (A) (A) (A) (A) (A) (A) (A) (A) (A) (A) (A) (A)
                 (A) (A) (A) (A) (A) (A) (A) (A) (A) (A) (A) (A)
                 (A) (A) (A) (A) (A) (A) (A) (A) (A) (A) (A) (A)
                 (A) (A) (A) (A) (A) (A) (A) (A) (A) (A) (A) (A)
                 (A) (A) (A) (A) (A) (A) (A) (A) (A) (A) (A) (A)
                 (A) (A) (A) (A) (A) (A) (A) (A) (A) (A) (A) (A)
                 (A) (A) (A) (A) (A) (A) (A) (A) (A) (A) (A) (A)
                 (A) (A) (A) (A) (A) (A) (A) (A) (A) (A) (A) (A)
                 (A) (A) (A)
 The electronic state is 1-A.
 Alpha  occ. eigenvalues -- -104.73070-104.53600 -20.46385 -10.45031 -10.26065
 Alpha  occ. eigenvalues --   -7.91749  -7.91483  -7.91470  -7.72678  -7.72665
 Alpha  occ. eigenvalues --   -7.72664  -1.23362  -0.89570  -0.77217  -0.54256
 Alpha  occ. eigenvalues --   -0.44382  -0.43516  -0.30795  -0.28087  -0.18960
 Alpha  occ. eigenvalues --   -0.18374  -0.18257
 Alpha virt. eigenvalues --    0.15767   0.18290   0.22468   0.23247   0.26120
 Alpha virt. eigenvalues --    0.27431   0.28070   0.28992   0.30481   0.31843
 Alpha virt. eigenvalues --    0.33878   0.34730   0.40757   0.41870   0.46357
 Alpha virt. eigenvalues --    0.49225   0.52455   0.54272   0.55646   0.58085
 Alpha virt. eigenvalues --    0.58725   0.60627   0.61655   0.62538   0.65923
 Alpha virt. eigenvalues --    0.66800   0.67408   0.70129   0.76457   0.79334
 Alpha virt. eigenvalues --    0.85414   0.86461   0.88707   0.89775   0.90732
 Alpha virt. eigenvalues --    0.92195   0.96203   0.98966   0.99869   1.06703
 Alpha virt. eigenvalues --    1.08313   1.09782   1.09945   1.11584   1.13138
 Alpha virt. eigenvalues --    1.14809   1.19330   1.19715   1.20284   1.21583
 Alpha virt. eigenvalues --    1.22394   1.24597   1.27026   1.29153   1.31882
 Alpha virt. eigenvalues --    1.34702   1.39076   1.41734   1.43016   1.43180
 Alpha virt. eigenvalues --    1.44501   1.48907   1.51086   1.55875   1.60927
 Alpha virt. eigenvalues --    1.62883   1.65588   1.68735   1.71915   1.74191
 Alpha virt. eigenvalues --    1.77900   1.85426   1.85695   1.88247   1.95471
 Alpha virt. eigenvalues --    1.97880   2.18221   2.39551   2.42634   2.51273
 Alpha virt. eigenvalues --    2.51995   2.54270   2.60495   2.63120   2.64925
 Alpha virt. eigenvalues --    2.68234   2.70163   2.71261   2.72466   2.75274
 Alpha virt. eigenvalues --    2.77809   2.79907   2.81469   2.82559   2.89139
 Alpha virt. eigenvalues --    2.91402   2.93094   2.95619   3.00988   3.02548
 Alpha virt. eigenvalues --    3.07413   3.11130   3.18383   3.20740   3.22291
 Alpha virt. eigenvalues --    3.24796   3.29736   3.30599   3.34074   3.34866
 Alpha virt. eigenvalues --    3.35908   3.39582   3.42808   3.48742   3.50721
 Alpha virt. eigenvalues --    3.52902   3.56821   3.59277   3.63237   3.91733
 Alpha virt. eigenvalues --    4.19138   4.35770   4.49570   4.57533   4.61889
 Alpha virt. eigenvalues --    4.73974   4.97878   5.03462   5.36383   5.44300
 Alpha virt. eigenvalues --    5.68203   6.21217   6.45402   6.65818   6.88621
 Alpha virt. eigenvalues --    6.90572   6.92241   6.99556   7.33810   7.35006
 Alpha virt. eigenvalues --    7.35858   7.45164   7.53587   7.75228   7.76641
 Alpha virt. eigenvalues --    8.37175  14.43586
          Condensed to atoms (all electrons):
               1          2          3          4
     1  O    8.559892  -0.117656  -0.084740   0.065795
     2  Cl  -0.117656  17.057297   0.001812   0.000484
     3  Cl  -0.084740   0.001812  17.889058   0.079094
     4  H    0.065795   0.000484   0.079094   0.604173
 Mulliken charges:
               1
     1  O   -0.423291
     2  Cl   0.058062
     3  Cl  -0.885224
     4  H    0.250453
 Sum of Mulliken charges =  -1.00000
 Mulliken charges with hydrogens summed into heavy atoms:
               1
     1  O   -0.172838
     2  Cl   0.058062
     3  Cl  -0.885224
 Electronic spatial extent (au):  <R**2>=            562.1960
 Charge=             -1.0000 electrons
 Dipole moment (field-independent basis, Debye):
    X=              6.1253    Y=             -0.0428    Z=              0.4926  Tot=              6.1452
 Quadrupole moment (field-independent basis, Debye-Ang):
   XX=            -55.9613   YY=            -37.2742   ZZ=            -36.3064
   XY=             -2.8317   XZ=             -0.0304   YZ=              0.4965
 Traceless Quadrupole moment (field-independent basis, Debye-Ang):
   XX=            -12.7807   YY=              5.9065   ZZ=              6.8742
   XY=             -2.8317   XZ=             -0.0304   YZ=              0.4965
 Octapole moment (field-independent basis, Debye-Ang**2):
  XXX=             50.6347  YYY=              0.5112  ZZZ=             -0.3591  XYY=              7.0249
  XXY=              0.6157  XXZ=             -1.6766  XZZ=              6.4975  YZZ=              1.4423
  YYZ=              0.0142  XYZ=             -0.4173
 Hexadecapole moment (field-independent basis, Debye-Ang**3):
 XXXX=           -762.7238 YYYY=            -98.3076 ZZZZ=            -51.2074 XXXY=            -11.5409
 XXXZ=              1.5237 YYYX=             -7.4847 YYYZ=             -0.1317 ZZZX=              0.2917
 ZZZY=              0.1899 XXYY=           -128.2819 XXZZ=           -125.7506 YYZZ=            -25.1783
 XXYZ=             -0.0546 YYXZ=             -0.1765 ZZXY=             -0.2475
 N-N= 1.218411113613D+02 E-N=-2.621463587282D+03  KE= 9.950324553752D+02
 No NMR shielding tensors so no spin-rotation constants.
 Leave Link  601 at Thu Sep 16 14:55:19 2021, MaxMem= 16106127360 cpu:               5.9 elap:               0.3
 (Enter /sw/contrib/gaussian/g16/B01/g16/l9999.exe)
 1\1\GINC-N2114\POpt\RMP2-FC\Aug-CC-pVTZ\Cl2H1O1(1-)\CGAVINH\16-Sep-202
 1\1\\#p opt=(z-matrix) mp2/aug-cc-pvtz density=current\\title\\-1,1\O\
 X,1,10.\Cl,1,r1,2,90.\Cl,1,r2,2,90.,3,a1,0\H,1,r3,2,OOP,3,a1,0\\r3=0.9
 9856169\r1=1.68274942\r2=2.9046761\a1=103.53015674\OOP=60.\\Version=ES
 64L-G16RevB.01\State=1-A\HF=-994.5149782\MP2=-995.1806619\RMSD=7.971e-
 09\RMSF=7.241e-03\Dipole=2.4098651,-0.0168568,0.1937933\Quadrupole=-9.
 5021227,4.391314,5.1108087,-2.1052887,-0.022568,0.3691226\PG=C01 [X(Cl
 2H1O1)]\\@


 RESEARCH IS WHAT I AM DOING WHEN I DON'T KNOW WHAT I AM DOING.
     -- WERNER VON BRAUN
 Job cpu time:       0 days  0 hours 21 minutes 59.3 seconds.
 Elapsed time:       0 days  0 hours  1 minutes  3.0 seconds.
 File lengths (MBytes):  RWF=     19 Int=      0 D2E=      0 Chk=      8 Scr=      1
 Normal termination of Gaussian 16 at Thu Sep 16 14:55:19 2021.
