 Entering Gaussian System, Link 0=g16
 Input=clhocl_45_sp.gjf
 Output=clhocl_45_sp.log
 Initial command:
 /sw/contrib/gaussian/g16/B01/g16/l1.exe "/scr/Gau-24390.inp" -scrdir="/scr/"
 Entering Link 1 = /sw/contrib/gaussian/g16/B01/g16/l1.exe PID=     24391.
  
 Copyright (c) 1988-2017, Gaussian, Inc.  All Rights Reserved.
  
 This is part of the Gaussian(R) 16 program.  It is based on
 the Gaussian(R) 09 system (copyright 2009, Gaussian, Inc.),
 the Gaussian(R) 03 system (copyright 2003, Gaussian, Inc.),
 the Gaussian(R) 98 system (copyright 1998, Gaussian, Inc.),
 the Gaussian(R) 94 system (copyright 1995, Gaussian, Inc.),
 the Gaussian 92(TM) system (copyright 1992, Gaussian, Inc.),
 the Gaussian 90(TM) system (copyright 1990, Gaussian, Inc.),
 the Gaussian 88(TM) system (copyright 1988, Gaussian, Inc.),
 the Gaussian 86(TM) system (copyright 1986, Carnegie Mellon
 University), and the Gaussian 82(TM) system (copyright 1983,
 Carnegie Mellon University). Gaussian is a federally registered
 trademark of Gaussian, Inc.
  
 This software contains proprietary and confidential information,
 including trade secrets, belonging to Gaussian, Inc.
  
 This software is provided under written license and may be
 used, copied, transmitted, or stored only in accord with that
 written license.
  
 The following legend is applicable only to US Government
 contracts under FAR:
  
                    RESTRICTED RIGHTS LEGEND
  
 Use, reproduction and disclosure by the US Government is
 subject to restrictions as set forth in subparagraphs (a)
 and (c) of the Commercial Computer Software - Restricted
 Rights clause in FAR 52.227-19.
  
 Gaussian, Inc.
 340 Quinnipiac St., Bldg. 40, Wallingford CT 06492
  
  
 ---------------------------------------------------------------
 Warning -- This program may not be used in any manner that
 competes with the business of Gaussian, Inc. or will provide
 assistance to any competitor of Gaussian, Inc.  The licensee
 of this program is prohibited from giving any competitor of
 Gaussian, Inc. access to this program.  By using this program,
 the user acknowledges that Gaussian, Inc. is engaged in the
 business of creating and licensing software in the field of
 computational chemistry and represents and warrants to the
 licensee that it is not a competitor of Gaussian, Inc. and that
 it will not use this program in any manner prohibited above.
 ---------------------------------------------------------------
  

 Cite this work as:
 Gaussian 16, Revision B.01,
 M. J. Frisch, G. W. Trucks, H. B. Schlegel, G. E. Scuseria, 
 M. A. Robb, J. R. Cheeseman, G. Scalmani, V. Barone, 
 G. A. Petersson, H. Nakatsuji, X. Li, M. Caricato, A. V. Marenich, 
 J. Bloino, B. G. Janesko, R. Gomperts, B. Mennucci, H. P. Hratchian, 
 J. V. Ortiz, A. F. Izmaylov, J. L. Sonnenberg, D. Williams-Young, 
 F. Ding, F. Lipparini, F. Egidi, J. Goings, B. Peng, A. Petrone, 
 T. Henderson, D. Ranasinghe, V. G. Zakrzewski, J. Gao, N. Rega, 
 G. Zheng, W. Liang, M. Hada, M. Ehara, K. Toyota, R. Fukuda, 
 J. Hasegawa, M. Ishida, T. Nakajima, Y. Honda, O. Kitao, H. Nakai, 
 T. Vreven, K. Throssell, J. A. Montgomery, Jr., J. E. Peralta, 
 F. Ogliaro, M. J. Bearpark, J. J. Heyd, E. N. Brothers, K. N. Kudin, 
 V. N. Staroverov, T. A. Keith, R. Kobayashi, J. Normand, 
 K. Raghavachari, A. P. Rendell, J. C. Burant, S. S. Iyengar, 
 J. Tomasi, M. Cossi, J. M. Millam, M. Klene, C. Adamo, R. Cammi, 
 J. W. Ochterski, R. L. Martin, K. Morokuma, O. Farkas, 
 J. B. Foresman, and D. J. Fox, Gaussian, Inc., Wallingford CT, 2016.
 
 ******************************************
 Gaussian 16:  ES64L-G16RevB.01 20-Dec-2017
                16-Sep-2021 
 ******************************************
 %nproc=28
 Will use up to   28 processors via shared memory.
 %mem=120GB
 %chk=/gscratch/ilahie/mccoygrp/coire_hocl/clhocl/clhocl_45_sp.chk
 --------------------------------------------
 #p SP NoSymm mp2/aug-cc-pvtz density=current
 --------------------------------------------
 1/30=1,38=1,172=1/1;
 2/12=2,15=1,17=6,18=5,40=1/2;
 3/5=16,6=1,7=10,11=9,25=1,30=1,71=1/1,2,3;
 4//1;
 5/5=2,38=5/2;
 8/6=4,10=1/1;
 9/15=1,16=-3/6;
 10/5=1,13=10,31=1/2;
 6/7=2,8=2,9=2,10=2,22=-1/1;
 99/5=1,9=1/99;
 Leave Link    1 at Thu Sep 16 15:38:16 2021, MaxMem= 16106127360 cpu:               2.2 elap:               0.1
 (Enter /sw/contrib/gaussian/g16/B01/g16/l101.exe)
 -----
 title
 -----
 Symbolic Z-matrix:
 Charge = -1 Multiplicity = 1
 O                     0.        0.        0. 
 Cl                    2.90468   0.        0. 
 Cl                   -0.39369   1.63605   0. 
 H                     0.6947    0.        0.6947 
 
 ITRead=  0  0  0  0
 MicOpt= -1 -1 -1 -1
 NAtoms=      4 NQM=        4 NQMF=       0 NMMI=      0 NMMIF=      0
                NMic=       0 NMicF=      0.
                    Isotopes and Nuclear Properties:
 (Nuclear quadrupole moments (NQMom) in fm**2, nuclear magnetic moments (NMagM)
  in nuclear magnetons)

  Atom         1           2           3           4
 IAtWgt=          16          35          35           1
 AtmWgt=  15.9949146  34.9688527  34.9688527   1.0078250
 NucSpn=           0           3           3           1
 AtZEff=  -0.0000000  -0.0000000  -0.0000000  -0.0000000
 NQMom=    0.0000000  -8.1650000  -8.1650000   0.0000000
 NMagM=    0.0000000   0.8218740   0.8218740   2.7928460
 AtZNuc=   8.0000000  17.0000000  17.0000000   1.0000000
 Leave Link  101 at Thu Sep 16 15:38:16 2021, MaxMem= 16106127360 cpu:               2.4 elap:               0.1
 (Enter /sw/contrib/gaussian/g16/B01/g16/l202.exe)
                          Input orientation:                          
 ---------------------------------------------------------------------
 Center     Atomic      Atomic             Coordinates (Angstroms)
 Number     Number       Type             X           Y           Z
 ---------------------------------------------------------------------
      1          8           0        0.000000    0.000000    0.000000
      2         17           0        2.904676    0.000000    0.000000
      3         17           0       -0.393687    1.636049    0.000000
      4          1           0        0.694697    0.000000    0.694697
 ---------------------------------------------------------------------
                    Distance matrix (angstroms):
                    1          2          3          4
     1  O    0.000000
     2  Cl   2.904676   0.000000
     3  Cl   1.682749   3.681827   0.000000
     4  H    0.982450   2.316595   2.084188   0.000000
 Symmetry turned off by external request.
 Stoichiometry    Cl2HO(1-)
 Framework group  C1[X(Cl2HO)]
 Deg. of freedom     6
 Full point group                 C1      NOp   1
 Rotational constants (GHZ):          22.9900601           2.0563816           1.8941723
 Leave Link  202 at Thu Sep 16 15:38:16 2021, MaxMem= 16106127360 cpu:               1.7 elap:               0.1
 (Enter /sw/contrib/gaussian/g16/B01/g16/l301.exe)
 Standard basis: Aug-CC-pVTZ (5D, 7F)
 Ernie: Thresh=  0.10000D-02 Tol=  0.10000D-05 Strict=F.
 Ernie:  29 primitive shells out of 169 were deleted.
   169 basis functions,   327 primitive gaussians,   198 cartesian basis functions
    22 alpha electrons       22 beta electrons
       nuclear repulsion energy       121.5905011226 Hartrees.
 IExCor=    0 DFT=F Ex=HF Corr=None ExCW=0 ScaHFX=  1.000000
 ScaDFX=  1.000000  1.000000  1.000000  1.000000 ScalE2=  1.000000  1.000000
 IRadAn=      5 IRanWt=     -1 IRanGd=            0 ICorTp=0 IEmpDi=  4
 NAtoms=    4 NActive=    4 NUniq=    4 SFac= 1.00D+00 NAtFMM=   60 NAOKFM=F Big=F
 Integral buffers will be    131072 words long.
 Raffenetti 1 integral format.
 Two-electron integral symmetry is turned off.
 Leave Link  301 at Thu Sep 16 15:38:16 2021, MaxMem= 16106127360 cpu:               1.9 elap:               0.1
 (Enter /sw/contrib/gaussian/g16/B01/g16/l302.exe)
 NPDir=0 NMtPBC=     1 NCelOv=     1 NCel=       1 NClECP=     1 NCelD=      1
         NCelK=      1 NCelE2=     1 NClLst=     1 CellRange=     0.0.
 One-electron integrals computed using PRISM.
 NBasis=   169 RedAO= T EigKep=  2.97D-04  NBF=   169
 NBsUse=   169 1.00D-06 EigRej= -1.00D+00 NBFU=   169
 Leave Link  302 at Thu Sep 16 15:38:17 2021, MaxMem= 16106127360 cpu:               8.7 elap:               0.4
 (Enter /sw/contrib/gaussian/g16/B01/g16/l303.exe)
 DipDrv:  MaxL=1.
 Leave Link  303 at Thu Sep 16 15:38:17 2021, MaxMem= 16106127360 cpu:               1.5 elap:               0.1
 (Enter /sw/contrib/gaussian/g16/B01/g16/l401.exe)
 ExpMin= 2.53D-02 ExpMax= 4.56D+05 ExpMxC= 1.44D+03 IAcc=3 IRadAn=         5 AccDes= 0.00D+00
 Harris functional with IExCor=  205 and IRadAn=       5 diagonalized for initial guess.
 HarFok:  IExCor=  205 AccDes= 0.00D+00 IRadAn=         5 IDoV= 1 UseB2=F ITyADJ=14
 ICtDFT=  3500011 ScaDFX=  1.000000  1.000000  1.000000  1.000000
 FoFCou: FMM=F IPFlag=           0 FMFlag=      100000 FMFlg1=           0
         NFxFlg=           0 DoJE=T BraDBF=F KetDBF=T FulRan=T
         wScrn=  0.000000 ICntrl=       500 IOpCl=  0 I1Cent=   200000004 NGrid=           0
         NMat0=    1 NMatS0=      1 NMatT0=    0 NMatD0=    1 NMtDS0=    0 NMtDT0=    0
 Symmetry not used in FoFCou.
 Harris En= -993.810026314704    
 JPrj=0 DoOrth=F DoCkMO=F.
 Leave Link  401 at Thu Sep 16 15:38:17 2021, MaxMem= 16106127360 cpu:               6.5 elap:               0.3
 (Enter /sw/contrib/gaussian/g16/B01/g16/l502.exe)
 Keep R1 ints in memory in canonical form, NReq=117118953.
 FoFCou: FMM=F IPFlag=           0 FMFlag=           0 FMFlg1=           0
         NFxFlg=           0 DoJE=F BraDBF=F KetDBF=F FulRan=T
         wScrn=  0.000000 ICntrl=       600 IOpCl=  0 I1Cent=           0 NGrid=           0
         NMat0=    1 NMatS0=  14365 NMatT0=    0 NMatD0=    1 NMtDS0=    0 NMtDT0=    0
 Symmetry not used in FoFCou.
 Two-electron integral symmetry not used.
 Closed shell SCF:
 Using DIIS extrapolation, IDIIS=  1040.
 NGot= 16106127360 LenX= 16002858349 LenY= 16002818704
 Requested convergence on RMS density matrix=1.00D-08 within 128 cycles.
 Requested convergence on MAX density matrix=1.00D-06.
 Requested convergence on             energy=1.00D-06.
 No special actions if energy rises.

 Cycle   1  Pass 1  IDiag  1:
 E= -994.373258779973    
 DIIS: error= 3.21D-02 at cycle   1 NSaved=   1.
 NSaved= 1 IEnMin= 1 EnMin= -994.373258779973     IErMin= 1 ErrMin= 3.21D-02
 ErrMax= 3.21D-02  0.00D+00 EMaxC= 1.00D-01 BMatC= 4.23D-01 BMatP= 4.23D-01
 IDIUse=3 WtCom= 6.79D-01 WtEn= 3.21D-01
 Coeff-Com:  0.100D+01
 Coeff-En:   0.100D+01
 Coeff:      0.100D+01
 Gap=     0.537 Goal=   None    Shift=    0.000
 GapD=    0.537 DampG=2.000 DampE=0.500 DampFc=1.0000 IDamp=-1.
 RMSDP=2.14D-03 MaxDP=7.09D-02              OVMax= 1.22D-01

 Cycle   2  Pass 1  IDiag  1:
 E= -994.472047091663     Delta-E=       -0.098788311690 Rises=F Damp=F
 DIIS: error= 1.33D-02 at cycle   2 NSaved=   2.
 NSaved= 2 IEnMin= 2 EnMin= -994.472047091663     IErMin= 2 ErrMin= 1.33D-02
 ErrMax= 1.33D-02  0.00D+00 EMaxC= 1.00D-01 BMatC= 4.87D-02 BMatP= 4.23D-01
 IDIUse=3 WtCom= 8.67D-01 WtEn= 1.33D-01
 Coeff-Com:  0.166D+00 0.834D+00
 Coeff-En:   0.000D+00 0.100D+01
 Coeff:      0.144D+00 0.856D+00
 Gap=     0.344 Goal=   None    Shift=    0.000
 RMSDP=9.93D-04 MaxDP=4.04D-02 DE=-9.88D-02 OVMax= 7.67D-02

 Cycle   3  Pass 1  IDiag  1:
 E= -994.497503192774     Delta-E=       -0.025456101111 Rises=F Damp=F
 DIIS: error= 6.65D-03 at cycle   3 NSaved=   3.
 NSaved= 3 IEnMin= 3 EnMin= -994.497503192774     IErMin= 3 ErrMin= 6.65D-03
 ErrMax= 6.65D-03  0.00D+00 EMaxC= 1.00D-01 BMatC= 1.28D-02 BMatP= 4.87D-02
 IDIUse=3 WtCom= 9.33D-01 WtEn= 6.65D-02
 Coeff-Com: -0.144D-01 0.328D+00 0.686D+00
 Coeff-En:   0.000D+00 0.939D-01 0.906D+00
 Coeff:     -0.135D-01 0.313D+00 0.701D+00
 Gap=     0.330 Goal=   None    Shift=    0.000
 RMSDP=3.45D-04 MaxDP=1.32D-02 DE=-2.55D-02 OVMax= 3.41D-02

 Cycle   4  Pass 1  IDiag  1:
 E= -994.506238095096     Delta-E=       -0.008734902322 Rises=F Damp=F
 DIIS: error= 8.26D-04 at cycle   4 NSaved=   4.
 NSaved= 4 IEnMin= 4 EnMin= -994.506238095096     IErMin= 4 ErrMin= 8.26D-04
 ErrMax= 8.26D-04  0.00D+00 EMaxC= 1.00D-01 BMatC= 1.74D-04 BMatP= 1.28D-02
 IDIUse=3 WtCom= 9.92D-01 WtEn= 8.26D-03
 Coeff-Com: -0.445D-02 0.322D-01 0.130D+00 0.842D+00
 Coeff-En:   0.000D+00 0.000D+00 0.000D+00 0.100D+01
 Coeff:     -0.442D-02 0.319D-01 0.129D+00 0.843D+00
 Gap=     0.323 Goal=   None    Shift=    0.000
 RMSDP=5.44D-05 MaxDP=1.30D-03 DE=-8.73D-03 OVMax= 2.97D-03

 Cycle   5  Pass 1  IDiag  1:
 E= -994.506411815061     Delta-E=       -0.000173719965 Rises=F Damp=F
 DIIS: error= 2.32D-04 at cycle   5 NSaved=   5.
 NSaved= 5 IEnMin= 5 EnMin= -994.506411815061     IErMin= 5 ErrMin= 2.32D-04
 ErrMax= 2.32D-04  0.00D+00 EMaxC= 1.00D-01 BMatC= 1.49D-05 BMatP= 1.74D-04
 IDIUse=3 WtCom= 9.98D-01 WtEn= 2.32D-03
 Coeff-Com:  0.868D-03-0.377D-01-0.714D-01-0.891D-02 0.112D+01
 Coeff-En:   0.000D+00 0.000D+00 0.000D+00 0.000D+00 0.100D+01
 Coeff:      0.866D-03-0.376D-01-0.713D-01-0.889D-02 0.112D+01
 Gap=     0.325 Goal=   None    Shift=    0.000
 RMSDP=3.24D-05 MaxDP=1.12D-03 DE=-1.74D-04 OVMax= 3.05D-03

 Cycle   6  Pass 1  IDiag  1:
 E= -994.506449268055     Delta-E=       -0.000037452994 Rises=F Damp=F
 DIIS: error= 9.32D-05 at cycle   6 NSaved=   6.
 NSaved= 6 IEnMin= 6 EnMin= -994.506449268055     IErMin= 6 ErrMin= 9.32D-05
 ErrMax= 9.32D-05  0.00D+00 EMaxC= 1.00D-01 BMatC= 1.83D-06 BMatP= 1.49D-05
 IDIUse=1 WtCom= 1.00D+00 WtEn= 0.00D+00
 Coeff-Com:  0.309D-03 0.712D-02 0.142D-01-0.654D-01-0.391D+00 0.143D+01
 Coeff:      0.309D-03 0.712D-02 0.142D-01-0.654D-01-0.391D+00 0.143D+01
 Gap=     0.325 Goal=   None    Shift=    0.000
 RMSDP=1.55D-05 MaxDP=5.40D-04 DE=-3.75D-05 OVMax= 1.47D-03

 Cycle   7  Pass 1  IDiag  1:
 E= -994.506455558616     Delta-E=       -0.000006290561 Rises=F Damp=F
 DIIS: error= 2.14D-05 at cycle   7 NSaved=   7.
 NSaved= 7 IEnMin= 7 EnMin= -994.506455558616     IErMin= 7 ErrMin= 2.14D-05
 ErrMax= 2.14D-05  0.00D+00 EMaxC= 1.00D-01 BMatC= 1.13D-07 BMatP= 1.83D-06
 IDIUse=1 WtCom= 1.00D+00 WtEn= 0.00D+00
 Coeff-Com: -0.188D-03-0.252D-04 0.504D-03 0.229D-01 0.642D-01-0.540D+00
 Coeff-Com:  0.145D+01
 Coeff:     -0.188D-03-0.252D-04 0.504D-03 0.229D-01 0.642D-01-0.540D+00
 Coeff:      0.145D+01
 Gap=     0.325 Goal=   None    Shift=    0.000
 RMSDP=4.70D-06 MaxDP=1.66D-04 DE=-6.29D-06 OVMax= 4.56D-04

 Cycle   8  Pass 1  IDiag  1:
 E= -994.506456053401     Delta-E=       -0.000000494786 Rises=F Damp=F
 DIIS: error= 6.34D-06 at cycle   8 NSaved=   8.
 NSaved= 8 IEnMin= 8 EnMin= -994.506456053401     IErMin= 8 ErrMin= 6.34D-06
 ErrMax= 6.34D-06  0.00D+00 EMaxC= 1.00D-01 BMatC= 8.28D-09 BMatP= 1.13D-07
 IDIUse=1 WtCom= 1.00D+00 WtEn= 0.00D+00
 Coeff-Com: -0.333D-05-0.789D-03-0.140D-02 0.410D-02 0.320D-01-0.974D-01
 Coeff-Com: -0.408D-01 0.110D+01
 Coeff:     -0.333D-05-0.789D-03-0.140D-02 0.410D-02 0.320D-01-0.974D-01
 Coeff:     -0.408D-01 0.110D+01
 Gap=     0.325 Goal=   None    Shift=    0.000
 RMSDP=1.01D-06 MaxDP=2.31D-05 DE=-4.95D-07 OVMax= 1.08D-04

 Cycle   9  Pass 1  IDiag  1:
 E= -994.506456080985     Delta-E=       -0.000000027584 Rises=F Damp=F
 DIIS: error= 2.62D-06 at cycle   9 NSaved=   9.
 NSaved= 9 IEnMin= 9 EnMin= -994.506456080985     IErMin= 9 ErrMin= 2.62D-06
 ErrMax= 2.62D-06  0.00D+00 EMaxC= 1.00D-01 BMatC= 1.15D-09 BMatP= 8.28D-09
 IDIUse=1 WtCom= 1.00D+00 WtEn= 0.00D+00
 Coeff-Com:  0.193D-04 0.156D-03 0.314D-03-0.336D-02-0.152D-01 0.851D-01
 Coeff-Com: -0.165D+00-0.203D+00 0.130D+01
 Coeff:      0.193D-04 0.156D-03 0.314D-03-0.336D-02-0.152D-01 0.851D-01
 Coeff:     -0.165D+00-0.203D+00 0.130D+01
 Gap=     0.325 Goal=   None    Shift=    0.000
 RMSDP=4.90D-07 MaxDP=8.69D-06 DE=-2.76D-08 OVMax= 5.65D-05

 Cycle  10  Pass 1  IDiag  1:
 E= -994.506456086064     Delta-E=       -0.000000005080 Rises=F Damp=F
 DIIS: error= 1.08D-06 at cycle  10 NSaved=  10.
 NSaved=10 IEnMin=10 EnMin= -994.506456086064     IErMin=10 ErrMin= 1.08D-06
 ErrMax= 1.08D-06  0.00D+00 EMaxC= 1.00D-01 BMatC= 1.59D-10 BMatP= 1.15D-09
 IDIUse=1 WtCom= 1.00D+00 WtEn= 0.00D+00
 Coeff-Com: -0.174D-05 0.475D-04 0.366D-04 0.240D-03 0.124D-03-0.753D-02
 Coeff-Com:  0.415D-01-0.100D+00-0.281D+00 0.135D+01
 Coeff:     -0.174D-05 0.475D-04 0.366D-04 0.240D-03 0.124D-03-0.753D-02
 Coeff:      0.415D-01-0.100D+00-0.281D+00 0.135D+01
 Gap=     0.325 Goal=   None    Shift=    0.000
 RMSDP=2.15D-07 MaxDP=4.41D-06 DE=-5.08D-09 OVMax= 2.56D-05

 Cycle  11  Pass 1  IDiag  1:
 E= -994.506456086871     Delta-E=       -0.000000000806 Rises=F Damp=F
 DIIS: error= 3.43D-07 at cycle  11 NSaved=  11.
 NSaved=11 IEnMin=11 EnMin= -994.506456086871     IErMin=11 ErrMin= 3.43D-07
 ErrMax= 3.43D-07  0.00D+00 EMaxC= 1.00D-01 BMatC= 1.66D-11 BMatP= 1.59D-10
 IDIUse=1 WtCom= 1.00D+00 WtEn= 0.00D+00
 Coeff-Com: -0.298D-05-0.191D-04-0.306D-04 0.421D-03 0.173D-02-0.961D-02
 Coeff-Com:  0.158D-01 0.365D-01-0.114D+00-0.254D+00 0.132D+01
 Coeff:     -0.298D-05-0.191D-04-0.306D-04 0.421D-03 0.173D-02-0.961D-02
 Coeff:      0.158D-01 0.365D-01-0.114D+00-0.254D+00 0.132D+01
 Gap=     0.325 Goal=   None    Shift=    0.000
 RMSDP=7.80D-08 MaxDP=1.74D-06 DE=-8.06D-10 OVMax= 9.01D-06

 Cycle  12  Pass 1  IDiag  1:
 E= -994.506456086954     Delta-E=       -0.000000000084 Rises=F Damp=F
 DIIS: error= 6.67D-08 at cycle  12 NSaved=  12.
 NSaved=12 IEnMin=12 EnMin= -994.506456086954     IErMin=12 ErrMin= 6.67D-08
 ErrMax= 6.67D-08  0.00D+00 EMaxC= 1.00D-01 BMatC= 1.06D-12 BMatP= 1.66D-11
 IDIUse=1 WtCom= 1.00D+00 WtEn= 0.00D+00
 Coeff-Com:  0.478D-06-0.254D-05-0.129D-05-0.602D-04-0.179D-03 0.149D-02
 Coeff-Com: -0.465D-02 0.310D-02 0.338D-01-0.716D-01-0.149D+00 0.119D+01
 Coeff:      0.478D-06-0.254D-05-0.129D-05-0.602D-04-0.179D-03 0.149D-02
 Coeff:     -0.465D-02 0.310D-02 0.338D-01-0.716D-01-0.149D+00 0.119D+01
 Gap=     0.325 Goal=   None    Shift=    0.000
 RMSDP=1.65D-08 MaxDP=3.68D-07 DE=-8.37D-11 OVMax= 1.60D-06

 Cycle  13  Pass 1  IDiag  1:
 E= -994.506456086962     Delta-E=       -0.000000000008 Rises=F Damp=F
 DIIS: error= 2.05D-08 at cycle  13 NSaved=  13.
 NSaved=13 IEnMin=13 EnMin= -994.506456086962     IErMin=13 ErrMin= 2.05D-08
 ErrMax= 2.05D-08  0.00D+00 EMaxC= 1.00D-01 BMatC= 1.55D-13 BMatP= 1.06D-12
 IDIUse=1 WtCom= 1.00D+00 WtEn= 0.00D+00
 Coeff-Com:  0.226D-06 0.226D-05 0.240D-05-0.308D-04-0.134D-03 0.673D-03
 Coeff-Com: -0.625D-03-0.475D-02 0.519D-02 0.465D-01-0.137D+00-0.159D+00
 Coeff-Com:  0.125D+01
 Coeff:      0.226D-06 0.226D-05 0.240D-05-0.308D-04-0.134D-03 0.673D-03
 Coeff:     -0.625D-03-0.475D-02 0.519D-02 0.465D-01-0.137D+00-0.159D+00
 Coeff:      0.125D+01
 Gap=     0.325 Goal=   None    Shift=    0.000
 RMSDP=5.96D-09 MaxDP=1.19D-07 DE=-8.19D-12 OVMax= 4.60D-07

 SCF Done:  E(RHF) =  -994.506456087     A.U. after   13 cycles
            NFock= 13  Conv=0.60D-08     -V/T= 2.0001
 KE= 9.943838508172D+02 PE=-2.620908284233D+03 EE= 5.104274762060D+02
 Leave Link  502 at Thu Sep 16 15:38:20 2021, MaxMem= 16106127360 cpu:              26.2 elap:               3.3
 (Enter /sw/contrib/gaussian/g16/B01/g16/l801.exe)
 ExpMin= 2.53D-02 ExpMax= 4.56D+05 ExpMxC= 1.44D+03 IAcc=3 IRadAn=         5 AccDes= 0.00D+00
 HarFok:  IExCor=  205 AccDes= 0.00D+00 IRadAn=         5 IDoV=-2 UseB2=F ITyADJ=14
 ICtDFT= 12500011 ScaDFX=  1.000000  1.000000  1.000000  1.000000
 Largest valence mixing into a core orbital is  4.47D-04
 Largest core mixing into a valence orbital is  1.75D-04
 Range of M.O.s used for correlation:    12   169
 NBasis=   169 NAE=    22 NBE=    22 NFC=    11 NFV=     0
 NROrb=    158 NOA=    11 NOB=    11 NVA=   147 NVB=   147

 **** Warning!!: The largest alpha MO coefficient is  0.10779440D+02

 Leave Link  801 at Thu Sep 16 15:38:20 2021, MaxMem= 16106127360 cpu:               2.2 elap:               0.1
 (Enter /sw/contrib/gaussian/g16/B01/g16/l906.exe)
 Frozen-core derivative calculation, NFC=  11 NFV=   0.
 FulOut=F Deriv=T AODrv=F NAtomX=     4
   MMem=         144  MDisk=          11 MDiskD=          11
  W3Min=      736164 MinDsk=     1250177 NBas6D=         198
 NBas2D=       20187    NTT=       19701    LW2=     3500000
    MDV= 16105751396 MDiskM=      406660 NBas2p=       19980
 Fully in-core method, ICMem=   420417501.
 IMap=   1   2   3   4   5   6   7   8   9  10  11  12  13  14  15  16  17  18  19  20
 IMap=  21  22
 JobTyp=1 Pass  1 fully in-core, NPsUse= 28.
 Compute canonical integrals.
 FoFCou: FMM=F IPFlag=           0 FMFlag=           0 FMFlg1=           0
         NFxFlg=           0 DoJE=F BraDBF=F KetDBF=F FulRan=T
         wScrn=  0.000000 ICntrl=       600 IOpCl=  1 I1Cent=           0 NGrid=           0
         NMat0=    1 NMatS0=  20187 NMatT0=    0 NMatD0=    1 NMtDS0=    0 NMtDT0=    0
 Symmetry not used in FoFCou.
 Spin components of T(2) and E(2):
     alpha-alpha T2 =       0.2907067353D-01 E2=     -0.8348930287D-01
     alpha-beta  T2 =       0.1593553229D+00 E2=     -0.4971921946D+00
     beta-beta   T2 =       0.2907067353D-01 E2=     -0.8348930287D-01
 The integrals were generated   1 times.
 ANorm=    0.1103402316D+01
 E2 =    -0.6641708003D+00 EUMP2 =    -0.99517062688727D+03
 Leave Link  906 at Thu Sep 16 15:38:25 2021, MaxMem= 16106127360 cpu:             119.3 elap:               4.3
 (Enter /sw/contrib/gaussian/g16/B01/g16/l1002.exe)
 Minotr:  Closed shell wavefunction.
          Computing MP2/KS-MP2 derivatives.
          Using Z-Vector for PSCF gradient.
          Skipping F1 and S1 gradient terms here.
          Frozen-core window.
          Direct CPHF calculation.
          Differentiating once with respect to electric field.
                with respect to dipole field.
          Electric field/nuclear overlap derivatives assumed to be zero.
          Requested convergence is 1.0D-10 RMS, and 1.0D-09 maximum.
          NewPWx=F KeepS1=T KeepF1=T KeepIn=T MapXYZ=F SortEE=F KeepMc=T.
 Keep R1 ints in memory in canonical form, NReq=117123197.
 FoFCou: FMM=F IPFlag=           0 FMFlag=           0 FMFlg1=           0
         NFxFlg=           0 DoJE=F BraDBF=F KetDBF=F FulRan=T
         wScrn=  0.000000 ICntrl=       600 IOpCl=  0 I1Cent=           0 NGrid=           0
         NMat0=    1 NMatS0=  14365 NMatT0=    0 NMatD0=    1 NMtDS0=    0 NMtDT0=    0
 Symmetry not used in FoFCou.
 Two-electron integral symmetry not used.
          MDV=   16106127360 using IRadAn=       5.
          Solving linear equations separately, MaxMat=       0.
          There are     1 degrees of freedom in the 1st order CPHF.  IDoFFX=0 NUNeed=     1.
 LinEq1:  Iter=  0 NonCon=     1 RMS=3.07D-03 Max=3.96D-02 NDo=     1
 AX will form     1 AO Fock derivatives at one time.
 LinEq1:  Iter=  1 NonCon=     1 RMS=3.94D-04 Max=3.60D-03 NDo=     1
 LinEq1:  Iter=  2 NonCon=     1 RMS=1.57D-04 Max=1.89D-03 NDo=     1
 LinEq1:  Iter=  3 NonCon=     1 RMS=6.19D-05 Max=9.45D-04 NDo=     1
 LinEq1:  Iter=  4 NonCon=     1 RMS=2.77D-05 Max=4.96D-04 NDo=     1
 LinEq1:  Iter=  5 NonCon=     1 RMS=8.08D-06 Max=1.60D-04 NDo=     1
 LinEq1:  Iter=  6 NonCon=     1 RMS=2.58D-06 Max=3.40D-05 NDo=     1
 LinEq1:  Iter=  7 NonCon=     1 RMS=7.26D-07 Max=7.65D-06 NDo=     1
 LinEq1:  Iter=  8 NonCon=     1 RMS=1.43D-07 Max=2.06D-06 NDo=     1
 LinEq1:  Iter=  9 NonCon=     1 RMS=3.67D-08 Max=5.72D-07 NDo=     1
 LinEq1:  Iter= 10 NonCon=     1 RMS=1.02D-08 Max=1.79D-07 NDo=     1
 LinEq1:  Iter= 11 NonCon=     1 RMS=2.59D-09 Max=4.39D-08 NDo=     1
 LinEq1:  Iter= 12 NonCon=     1 RMS=7.39D-10 Max=7.04D-09 NDo=     1
 LinEq1:  Iter= 13 NonCon=     1 RMS=2.01D-10 Max=2.14D-09 NDo=     1
 LinEq1:  Iter= 14 NonCon=     0 RMS=4.99D-11 Max=6.50D-10 NDo=     1
 Linear equations converged to 1.000D-10 1.000D-09 after    14 iterations.
 End of Minotr F.D. properties file   721 does not exist.
 End of Minotr F.D. properties file   722 does not exist.
 End of Minotr F.D. properties file   788 does not exist.
 Leave Link 1002 at Thu Sep 16 15:38:28 2021, MaxMem= 16106127360 cpu:              26.0 elap:               3.7
 (Enter /sw/contrib/gaussian/g16/B01/g16/l601.exe)
 Copying SCF densities to generalized density rwf, IOpCl= 0 IROHF=0.

 **********************************************************************

            Population analysis using the MP2 Density.

 **********************************************************************

 Alpha  occ. eigenvalues -- -104.73614-104.52571 -20.47448 -10.45583 -10.25021
 Alpha  occ. eigenvalues --   -7.92303  -7.92032  -7.92015  -7.71631  -7.71622
 Alpha  occ. eigenvalues --   -7.71620  -1.24642  -0.90209  -0.75972  -0.55331
 Alpha  occ. eigenvalues --   -0.45214  -0.44312  -0.31410  -0.28721  -0.17712
 Alpha  occ. eigenvalues --   -0.17335  -0.17157
 Alpha virt. eigenvalues --    0.15361   0.18011   0.22265   0.23200   0.26365
 Alpha virt. eigenvalues --    0.27538   0.28055   0.28810   0.29955   0.31860
 Alpha virt. eigenvalues --    0.32897   0.35146   0.40440   0.41399   0.45941
 Alpha virt. eigenvalues --    0.47968   0.52724   0.53956   0.55668   0.57748
 Alpha virt. eigenvalues --    0.58406   0.58876   0.61091   0.62372   0.65197
 Alpha virt. eigenvalues --    0.66358   0.67315   0.68120   0.75924   0.79829
 Alpha virt. eigenvalues --    0.84943   0.87106   0.88584   0.89694   0.90506
 Alpha virt. eigenvalues --    0.92736   0.95496   0.97615   1.01130   1.05614
 Alpha virt. eigenvalues --    1.07978   1.08819   1.10332   1.11607   1.12480
 Alpha virt. eigenvalues --    1.15780   1.19420   1.20127   1.20540   1.22081
 Alpha virt. eigenvalues --    1.22347   1.23231   1.26392   1.27742   1.30150
 Alpha virt. eigenvalues --    1.33113   1.33379   1.39069   1.41849   1.43671
 Alpha virt. eigenvalues --    1.44503   1.48439   1.49483   1.52647   1.55959
 Alpha virt. eigenvalues --    1.58031   1.65230   1.67717   1.69539   1.71345
 Alpha virt. eigenvalues --    1.75969   1.79915   1.84364   1.86826   1.96400
 Alpha virt. eigenvalues --    1.98249   2.12582   2.35593   2.42637   2.49053
 Alpha virt. eigenvalues --    2.49803   2.53282   2.60112   2.60974   2.64270
 Alpha virt. eigenvalues --    2.67800   2.69039   2.70099   2.72002   2.74598
 Alpha virt. eigenvalues --    2.77511   2.81131   2.82232   2.82458   2.88549
 Alpha virt. eigenvalues --    2.89875   2.93297   2.96129   2.98320   3.00410
 Alpha virt. eigenvalues --    3.01840   3.10370   3.16092   3.20463   3.21541
 Alpha virt. eigenvalues --    3.23390   3.25863   3.29453   3.31886   3.35594
 Alpha virt. eigenvalues --    3.35819   3.40043   3.43086   3.47131   3.49441
 Alpha virt. eigenvalues --    3.52232   3.56159   3.58343   3.62682   3.91227
 Alpha virt. eigenvalues --    4.04963   4.37011   4.48196   4.55418   4.64292
 Alpha virt. eigenvalues --    4.73656   4.92291   5.01687   5.37468   5.46020
 Alpha virt. eigenvalues --    5.69001   6.11297   6.40035   6.66466   6.85995
 Alpha virt. eigenvalues --    6.90506   6.91981   6.98620   7.34086   7.36658
 Alpha virt. eigenvalues --    7.37454   7.46780   7.49245   7.71998   7.73066
 Alpha virt. eigenvalues --    8.39932  14.59975
          Condensed to atoms (all electrons):
               1          2          3          4
     1  O    8.500832  -0.083130  -0.121616   0.085988
     2  Cl  -0.083130  17.941116  -0.000157   0.066075
     3  Cl  -0.121616  -0.000157  17.050845   0.001033
     4  H    0.085988   0.066075   0.001033   0.610824
 Mulliken charges:
               1
     1  O   -0.382073
     2  Cl  -0.923903
     3  Cl   0.069896
     4  H    0.236080
 Sum of Mulliken charges =  -1.00000
 Mulliken charges with hydrogens summed into heavy atoms:
               1
     1  O   -0.145993
     2  Cl  -0.923903
     3  Cl   0.069896
 Electronic spatial extent (au):  <R**2>=            796.6423
 Charge=             -1.0000 electrons
 Dipole moment (field-independent basis, Debye):
    X=            -11.2205    Y=             -0.5768    Z=              0.6870  Tot=             11.2563
 Quadrupole moment (field-independent basis, Debye-Ang):
   XX=            -73.9756   YY=            -36.9239   ZZ=            -35.8286
   XY=              0.4888   XZ=              0.3747   YZ=             -0.2384
 Traceless Quadrupole moment (field-independent basis, Debye-Ang):
   XX=            -25.0663   YY=             11.9854   ZZ=             13.0808
   XY=              0.4888   XZ=              0.3747   YZ=             -0.2384
 Octapole moment (field-independent basis, Debye-Ang**2):
  XXX=           -241.6502  YYY=            -62.0749  ZZZ=             -1.5965  XYY=            -44.7160
  XXY=            -21.8895  XXZ=             -2.6557  XZZ=            -43.7457  YZZ=            -22.1640
  YYZ=             -1.1365  XYZ=              0.1275
 Hexadecapole moment (field-independent basis, Debye-Ang**3):
 XXXX=          -1244.4330 YYYY=           -245.2888 ZZZZ=            -52.3709 XXXY=             28.1080
 XXXZ=             -9.1734 YYYX=             22.3526 YYYZ=             -1.0608 ZZZX=             -2.0003
 ZZZY=             -0.3404 XXYY=           -199.4442 XXZZ=           -163.7778 YYZZ=            -54.2102
 XXYZ=             -0.2294 YYXZ=             -0.4691 ZZXY=              9.2778
 N-N= 1.215905011226D+02 E-N=-2.620955499995D+03  KE= 9.950458793969D+02
 No NMR shielding tensors so no spin-rotation constants.
 Leave Link  601 at Thu Sep 16 15:38:29 2021, MaxMem= 16106127360 cpu:               4.1 elap:               0.2
 (Enter /sw/contrib/gaussian/g16/B01/g16/l9999.exe)
 1\1\GINC-N2114\SP\RMP2-FC\Aug-CC-pVTZ\Cl2H1O1(1-)\CGAVINH\16-Sep-2021\
 0\\#p SP NoSymm mp2/aug-cc-pvtz density=current\\title\\-1,1\O,0,0.,0.
 ,0.\Cl,0,2.904676,0.,0.\Cl,0,-0.39368664,1.6360486,0.\H,0,0.69469717,0
 .,0.69469717\\Version=ES64L-G16RevB.01\HF=-994.5064561\MP2=-995.170626
 9\RMSD=5.957e-09\Dipole=-2.5079966,0.9953659,0.3008116\Quadrupole=-18.
 6361458,8.9108871,9.7252587,0.363377,0.2785648,-0.1772347\PG=C01 [X(Cl
 2H1O1)]\\@


 The best way to pay for a lovely moment is to enjoy it.
 -- Richard Bach
 Job cpu time:       0 days  0 hours  3 minutes 25.2 seconds.
 Elapsed time:       0 days  0 hours  0 minutes 12.9 seconds.
 File lengths (MBytes):  RWF=     14 Int=      0 D2E=      0 Chk=      8 Scr=      1
 Normal termination of Gaussian 16 at Thu Sep 16 15:38:29 2021.
