title                                                                   
SP        RMP2-FC                                                     Aug-CC-pVTZ         
Number of atoms                            I                4
Info1-9                                    I   N=           9
          40          13           0           0           0         110
           1           2           1
Full Title                                 C   N=           1
title       
Route                                      C   N=           5
#p pop=NBO SP NoSymm mp2/aug-cc-pvtz density=current        
Charge                                     I               -1
Multiplicity                               I                1
Number of electrons                        I               44
Number of alpha electrons                  I               22
Number of beta electrons                   I               22
Number of basis functions                  I              169
Number of independent functions            I              169
Number of point charges in /Mol/           I                0
Number of translation vectors              I                0
Atomic numbers                             I   N=           4
           8          17          17           1
Nuclear charges                            R   N=           4
  8.00000000E+00  1.70000000E+01  1.70000000E+01  1.00000000E+00
Current cartesian coordinates              R   N=          12
  0.00000000E+00  0.00000000E+00  0.00000000E+00  5.48904212E+00  0.00000000E+00
  0.00000000E+00 -7.43959853E-01  3.09168378E+00  0.00000000E+00  1.42833198E+00
  0.00000000E+00  1.19851283E+00
Number of symbols in /Mol/                 I                0
Force Field                                I                0
Atom Types                                 C   N=           4
                                                
Int Atom Types                             I   N=           4
           0           0           0           0
MM charges                                 R   N=           4
  0.00000000E+00  0.00000000E+00  0.00000000E+00  0.00000000E+00
Integer atomic weights                     I   N=           4
          16          35          35           1
Real atomic weights                        R   N=           4
  1.59949146E+01  3.49688527E+01  3.49688527E+01  1.00782504E+00
Atom fragment info                         I   N=           4
           0           0           0           0
Atom residue num                           I   N=           4
           0           0           0           0
Nuclear spins                              I   N=           4
           0           3           3           1
Nuclear ZEff                               R   N=           4
 -5.60000000E+00 -1.42400000E+01 -1.42400000E+01 -1.00000000E+00
Nuclear ZNuc                               R   N=           4
  8.00000000E+00  1.70000000E+01  1.70000000E+01  1.00000000E+00
Nuclear QMom                               R   N=           4
  0.00000000E+00 -8.16500000E+00 -8.16500000E+00  0.00000000E+00
Nuclear GFac                               R   N=           4
  0.00000000E+00  8.21874000E-01  8.21874000E-01  2.79284600E+00
MicOpt                                     I   N=           4
          -1          -1          -1          -1
Number of residues                         I                0
Number of secondary structures             I                0
Number of contracted shells                I               55
Number of primitive shells                 I              140
Pure/Cartesian d shells                    I                0
Pure/Cartesian f shells                    I                0
Highest angular momentum                   I                3
Largest degree of contraction              I               11
Shell types                                I   N=          55
           0           0           0           0           0           1
           1           1           1          -2          -2          -2
          -3          -3           0           0           0           0
           0           0           1           1           1           1
           1          -2          -2          -2          -3          -3
           0           0           0           0           0           0
           1           1           1           1           1          -2
          -2          -2          -3          -3           0           0
           0           0           1           1           1          -2
          -2
Number of primitives per shell             I   N=          55
           7           6           1           1           1           3
           1           1           1           1           1           1
           1           1          11           9           8           1
           1           1           6           6           1           1
           1           1           1           1           1           1
          11           9           8           1           1           1
           6           6           1           1           1           1
           1           1           1           1           3           1
           1           1           1           1           1           1
           1
Shell to atom map                          I   N=          55
           1           1           1           1           1           1
           1           1           1           1           1           1
           1           1           2           2           2           2
           2           2           2           2           2           2
           2           2           2           2           2           2
           3           3           3           3           3           3
           3           3           3           3           3           3
           3           3           3           3           4           4
           4           4           4           4           4           4
           4
Primitive exponents                        R   N=         140
  1.53300000E+04  2.29900000E+03  5.22400000E+02  1.47300000E+02  4.75500000E+01
  1.67600000E+01  6.20700000E+00  5.22400000E+02  1.47300000E+02  4.75500000E+01
  1.67600000E+01  6.20700000E+00  6.88200000E-01  1.75200000E+00  2.38400000E-01
  7.37600000E-02  3.44600000E+01  7.74900000E+00  2.28000000E+00  7.15600000E-01
  2.14000000E-01  5.97400000E-02  2.31400000E+00  6.45000000E-01  2.14000000E-01
  1.42800000E+00  5.00000000E-01  4.56100000E+05  6.83300000E+04  1.55500000E+04
  4.40500000E+03  1.43900000E+03  5.20400000E+02  2.03100000E+02  8.39600000E+01
  3.62000000E+01  1.58300000E+01  6.33400000E+00  4.40500000E+03  1.43900000E+03
  5.20400000E+02  2.03100000E+02  8.39600000E+01  3.62000000E+01  1.58300000E+01
  6.33400000E+00  2.69400000E+00  1.43900000E+03  2.03100000E+02  8.39600000E+01
  3.62000000E+01  1.58300000E+01  6.33400000E+00  2.69400000E+00  4.31300000E-01
  9.76800000E-01  1.62500000E-01  5.91000000E-02  6.63300000E+02  1.56800000E+02
  4.99800000E+01  1.84200000E+01  7.24000000E+00  2.92200000E+00  1.56800000E+02
  4.99800000E+01  1.84200000E+01  7.24000000E+00  2.92200000E+00  3.81800000E-01
  1.02200000E+00  1.30100000E-01  4.19000000E-02  1.04600000E+00  3.44000000E-01
  1.35000000E-01  7.06000000E-01  3.12000000E-01  4.56100000E+05  6.83300000E+04
  1.55500000E+04  4.40500000E+03  1.43900000E+03  5.20400000E+02  2.03100000E+02
  8.39600000E+01  3.62000000E+01  1.58300000E+01  6.33400000E+00  4.40500000E+03
  1.43900000E+03  5.20400000E+02  2.03100000E+02  8.39600000E+01  3.62000000E+01
  1.58300000E+01  6.33400000E+00  2.69400000E+00  1.43900000E+03  2.03100000E+02
  8.39600000E+01  3.62000000E+01  1.58300000E+01  6.33400000E+00  2.69400000E+00
  4.31300000E-01  9.76800000E-01  1.62500000E-01  5.91000000E-02  6.63300000E+02
  1.56800000E+02  4.99800000E+01  1.84200000E+01  7.24000000E+00  2.92200000E+00
  1.56800000E+02  4.99800000E+01  1.84200000E+01  7.24000000E+00  2.92200000E+00
  3.81800000E-01  1.02200000E+00  1.30100000E-01  4.19000000E-02  1.04600000E+00
  3.44000000E-01  1.35000000E-01  7.06000000E-01  3.12000000E-01  3.38700000E+01
  5.09500000E+00  1.15900000E+00  3.25800000E-01  1.02700000E-01  2.52600000E-02
  1.40700000E+00  3.88000000E-01  1.02000000E-01  1.05700000E+00  2.47000000E-01
Contraction coefficients                   R   N=         140
  5.19808943E-04  4.02025621E-03  2.07128267E-02  8.10105536E-02  2.35962985E-01
  4.42653446E-01  3.57064423E-01 -4.42115008E-05 -1.22591041E-03 -1.05517725E-02
 -6.74452633E-02 -1.71198607E-01  1.07329856E+00  1.00000000E+00  1.00000000E+00
  1.00000000E+00  4.11634896E-02  2.57762836E-01  8.02419274E-01  1.00000000E+00
  1.00000000E+00  1.00000000E+00  1.00000000E+00  1.00000000E+00  1.00000000E+00
  1.00000000E+00  1.00000000E+00  4.93229477E-05  3.83207967E-04  2.00947816E-03
  8.38950124E-03  2.94843950E-02  8.78759948E-02  2.11589759E-01  3.65611554E-01
  3.41246350E-01  1.02162570E-01  2.14249949E-03 -2.21747925E-06 -1.71189708E-04
 -1.27922846E-03 -9.32956265E-03 -3.98910062E-02 -1.05536085E-01  9.36202446E-03
  5.10511140E-01  5.73150737E-01  4.03949245E-06  2.12481765E-04  8.59484452E-04
  4.63248159E-03  4.47343490E-04 -7.38438245E-02 -3.62271994E-01  1.16620337E+00
  1.00000000E+00  1.00000000E+00  1.00000000E+00  2.47206402E-03  1.97550234E-02
  9.09917355E-02  2.63187834E-01  4.49078073E-01  3.60183072E-01  3.03427809E-05
 -1.22475826E-03 -6.01429772E-03 -2.76401323E-02  4.35105612E-04  1.00307272E+00
  1.00000000E+00  1.00000000E+00  1.00000000E+00  1.00000000E+00  1.00000000E+00
  1.00000000E+00  1.00000000E+00  1.00000000E+00  4.93229477E-05  3.83207967E-04
  2.00947816E-03  8.38950124E-03  2.94843950E-02  8.78759948E-02  2.11589759E-01
  3.65611554E-01  3.41246350E-01  1.02162570E-01  2.14249949E-03 -2.21747925E-06
 -1.71189708E-04 -1.27922846E-03 -9.32956265E-03 -3.98910062E-02 -1.05536085E-01
  9.36202446E-03  5.10511140E-01  5.73150737E-01  4.03949245E-06  2.12481765E-04
  8.59484452E-04  4.63248159E-03  4.47343490E-04 -7.38438245E-02 -3.62271994E-01
  1.16620337E+00  1.00000000E+00  1.00000000E+00  1.00000000E+00  2.47206402E-03
  1.97550234E-02  9.09917355E-02  2.63187834E-01  4.49078073E-01  3.60183072E-01
  3.03427809E-05 -1.22475826E-03 -6.01429772E-03 -2.76401323E-02  4.35105612E-04
  1.00307272E+00  1.00000000E+00  1.00000000E+00  1.00000000E+00  1.00000000E+00
  1.00000000E+00  1.00000000E+00  1.00000000E+00  1.00000000E+00  2.54948632E-02
  1.90362766E-01  8.52162022E-01  1.00000000E+00  1.00000000E+00  1.00000000E+00
  1.00000000E+00  1.00000000E+00  1.00000000E+00  1.00000000E+00  1.00000000E+00
Coordinates of each shell                  R   N=         165
  0.00000000E+00  0.00000000E+00  0.00000000E+00  0.00000000E+00  0.00000000E+00
  0.00000000E+00  0.00000000E+00  0.00000000E+00  0.00000000E+00  0.00000000E+00
  0.00000000E+00  0.00000000E+00  0.00000000E+00  0.00000000E+00  0.00000000E+00
  0.00000000E+00  0.00000000E+00  0.00000000E+00  0.00000000E+00  0.00000000E+00
  0.00000000E+00  0.00000000E+00  0.00000000E+00  0.00000000E+00  0.00000000E+00
  0.00000000E+00  0.00000000E+00  0.00000000E+00  0.00000000E+00  0.00000000E+00
  0.00000000E+00  0.00000000E+00  0.00000000E+00  0.00000000E+00  0.00000000E+00
  0.00000000E+00  0.00000000E+00  0.00000000E+00  0.00000000E+00  0.00000000E+00
  0.00000000E+00  0.00000000E+00  5.48904212E+00  0.00000000E+00  0.00000000E+00
  5.48904212E+00  0.00000000E+00  0.00000000E+00  5.48904212E+00  0.00000000E+00
  0.00000000E+00  5.48904212E+00  0.00000000E+00  0.00000000E+00  5.48904212E+00
  0.00000000E+00  0.00000000E+00  5.48904212E+00  0.00000000E+00  0.00000000E+00
  5.48904212E+00  0.00000000E+00  0.00000000E+00  5.48904212E+00  0.00000000E+00
  0.00000000E+00  5.48904212E+00  0.00000000E+00  0.00000000E+00  5.48904212E+00
  0.00000000E+00  0.00000000E+00  5.48904212E+00  0.00000000E+00  0.00000000E+00
  5.48904212E+00  0.00000000E+00  0.00000000E+00  5.48904212E+00  0.00000000E+00
  0.00000000E+00  5.48904212E+00  0.00000000E+00  0.00000000E+00  5.48904212E+00
  0.00000000E+00  0.00000000E+00  5.48904212E+00  0.00000000E+00  0.00000000E+00
 -7.43959853E-01  3.09168378E+00  0.00000000E+00 -7.43959853E-01  3.09168378E+00
  0.00000000E+00 -7.43959853E-01  3.09168378E+00  0.00000000E+00 -7.43959853E-01
  3.09168378E+00  0.00000000E+00 -7.43959853E-01  3.09168378E+00  0.00000000E+00
 -7.43959853E-01  3.09168378E+00  0.00000000E+00 -7.43959853E-01  3.09168378E+00
  0.00000000E+00 -7.43959853E-01  3.09168378E+00  0.00000000E+00 -7.43959853E-01
  3.09168378E+00  0.00000000E+00 -7.43959853E-01  3.09168378E+00  0.00000000E+00
 -7.43959853E-01  3.09168378E+00  0.00000000E+00 -7.43959853E-01  3.09168378E+00
  0.00000000E+00 -7.43959853E-01  3.09168378E+00  0.00000000E+00 -7.43959853E-01
  3.09168378E+00  0.00000000E+00 -7.43959853E-01  3.09168378E+00  0.00000000E+00
 -7.43959853E-01  3.09168378E+00  0.00000000E+00  1.42833198E+00  0.00000000E+00
  1.19851283E+00  1.42833198E+00  0.00000000E+00  1.19851283E+00  1.42833198E+00
  0.00000000E+00  1.19851283E+00  1.42833198E+00  0.00000000E+00  1.19851283E+00
  1.42833198E+00  0.00000000E+00  1.19851283E+00  1.42833198E+00  0.00000000E+00
  1.19851283E+00  1.42833198E+00  0.00000000E+00  1.19851283E+00  1.42833198E+00
  0.00000000E+00  1.19851283E+00  1.42833198E+00  0.00000000E+00  1.19851283E+00
Num ILSW                                   I              100
ILSW                                       I   N=         100
           0           0           0           0           2           0
           0           0           0           0           0          -1
           5           0           0           0           0           0
           0           0           0           0           0           0
           1           1           0           0           0           0
           0           0      100000           0          -1           0
           0           0           0           0           0           0
           0           0           0           1           0           0
           0 -2000000000           1           0           0           0
           0           0           4          52           0           0
           0           0           0           0           0           0
           0           0           0           4           0           1
           0           0           0           0           0           0
           0           0           0           0           0           0
           0           0           0           0           0           0
           0           0           0           0           0           0
           0           0           0           0
Num RLSW                                   I               52
RLSW                                       R   N=          52
  1.00000000E+00  1.00000000E+00  1.00000000E+00  1.00000000E+00  1.00000000E+00
  0.00000000E+00  0.00000000E+00  1.00000000E+00  0.00000000E+00  0.00000000E+00
  0.00000000E+00  0.00000000E+00  1.00000000E+00  0.00000000E+00  0.00000000E+00
  0.00000000E+00  0.00000000E+00  1.00000000E+00  0.00000000E+00  0.00000000E+00
  0.00000000E+00  0.00000000E+00  1.00000000E+00  0.00000000E+00  0.00000000E+00
  0.00000000E+00  0.00000000E+00  1.00000000E+00  0.00000000E+00  0.00000000E+00
  0.00000000E+00  0.00000000E+00  1.00000000E+00  0.00000000E+00  0.00000000E+00
  0.00000000E+00  0.00000000E+00  0.00000000E+00  1.00000000E+00  1.00000000E+00
  0.00000000E+00  1.00000000E+00  0.00000000E+00  0.00000000E+00  0.00000000E+00
  0.00000000E+00  0.00000000E+00  0.00000000E+00  0.00000000E+00  0.00000000E+00
  0.00000000E+00  0.00000000E+00
MxBond                                     I                2
NBond                                      I   N=           4
           2           0           1           1
IBond                                      I   N=           8
           3           4           0           0           1           0
           1           0
RBond                                      R   N=           8
  1.00000000E+00  1.00000000E+00  0.00000000E+00  0.00000000E+00  1.00000000E+00
  0.00000000E+00  1.00000000E+00  0.00000000E+00
Virial Ratio                               R      2.000129828911280E+00
SCF Energy                                 R     -9.945094247666910E+02
MP2 Energy                                 R     -9.951740036932747E+02
Total Energy                               R     -9.951740036932747E+02
Post-SCF wavefunction norm                 R      1.103436253785501E+00
RMS Density                                R      5.930473078351158E-09
Job Status                                 I                1
Nuclear derivative order                   I                0
External E-field                           R   N=          35
  0.00000000E+00  0.00000000E+00  0.00000000E+00  0.00000000E+00  0.00000000E+00
  0.00000000E+00  0.00000000E+00  0.00000000E+00  0.00000000E+00  0.00000000E+00
  0.00000000E+00  0.00000000E+00  0.00000000E+00  0.00000000E+00  0.00000000E+00
  0.00000000E+00  0.00000000E+00  0.00000000E+00  0.00000000E+00  0.00000000E+00
  0.00000000E+00  0.00000000E+00  0.00000000E+00  0.00000000E+00  0.00000000E+00
  0.00000000E+00  0.00000000E+00  0.00000000E+00  0.00000000E+00  0.00000000E+00
  0.00000000E+00  0.00000000E+00  0.00000000E+00  0.00000000E+00  0.00000000E+00
IOpCl                                      I                0
IROHF                                      I                0
Alpha Orbital Energies                     R   N=         169
 -1.04734499E+02 -1.04529019E+02 -2.04711318E+01 -1.04541614E+01 -1.02535648E+01
 -7.92135158E+00 -7.91865765E+00 -7.91850316E+00 -7.71967539E+00 -7.71957083E+00
 -7.71955497E+00 -1.24247292E+00 -9.00224766E-01 -7.63658015E-01 -5.50058376E-01
 -4.49587077E-01 -4.40684880E-01 -3.12174528E-01 -2.85306721E-01 -1.81130702E-01
 -1.76689336E-01 -1.75108951E-01  1.55058917E-01  1.81003467E-01  2.23355704E-01
  2.32029270E-01  2.62901804E-01  2.75024287E-01  2.81345548E-01  2.87930715E-01
  3.00753111E-01  3.18988678E-01  3.32516175E-01  3.50148623E-01  4.07498198E-01
  4.12853210E-01  4.61236638E-01  4.83451102E-01  5.26430008E-01  5.40744182E-01
  5.56466974E-01  5.80325966E-01  5.85397720E-01  5.95331078E-01  6.11316073E-01
  6.23514814E-01  6.55028329E-01  6.64548395E-01  6.76472724E-01  6.82831265E-01
  7.60507593E-01  7.96874895E-01  8.50668941E-01  8.72497922E-01  8.84588369E-01
  8.97437535E-01  9.05759038E-01  9.26980872E-01  9.56884503E-01  9.80979385E-01
  1.00185006E+00  1.05957256E+00  1.08200628E+00  1.09260619E+00  1.10439272E+00
  1.11163592E+00  1.12684362E+00  1.15193807E+00  1.19467260E+00  1.20065362E+00
  1.20607998E+00  1.21965842E+00  1.22397964E+00  1.23419200E+00  1.26784135E+00
  1.28388234E+00  1.30981494E+00  1.33516792E+00  1.35324233E+00  1.39166284E+00
  1.42325154E+00  1.43515334E+00  1.44675287E+00  1.48842471E+00  1.49288007E+00
  1.53526924E+00  1.57389380E+00  1.59820047E+00  1.65437267E+00  1.68147648E+00
  1.70829899E+00  1.72236873E+00  1.75830686E+00  1.81955685E+00  1.85366310E+00
  1.87040508E+00  1.96922230E+00  1.98105615E+00  2.13846149E+00  2.36327780E+00
  2.42620397E+00  2.50141613E+00  2.50400423E+00  2.53563257E+00  2.60276046E+00
  2.61622135E+00  2.64507231E+00  2.67978107E+00  2.69229824E+00  2.70402614E+00
  2.72180932E+00  2.74855808E+00  2.77590067E+00  2.80892349E+00  2.82194276E+00
  2.82485075E+00  2.88785777E+00  2.89964646E+00  2.94097377E+00  2.94571081E+00
  2.98432146E+00  3.00736705E+00  3.03756519E+00  3.10922025E+00  3.16607575E+00
  3.20476225E+00  3.21902018E+00  3.23860217E+00  3.27052006E+00  3.29585397E+00
  3.32565410E+00  3.35328611E+00  3.35627001E+00  3.39880162E+00  3.43097056E+00
  3.47614409E+00  3.50322530E+00  3.52286467E+00  3.56086234E+00  3.58926735E+00
  3.62612653E+00  3.91267431E+00  4.08789127E+00  4.36846989E+00  4.48767295E+00
  4.56744976E+00  4.64414444E+00  4.73407161E+00  4.94035011E+00  5.01664213E+00
  5.37501244E+00  5.44664705E+00  5.68936051E+00  6.16499323E+00  6.41426032E+00
  6.67288302E+00  6.87008310E+00  6.90437891E+00  6.91829100E+00  6.98851102E+00
  7.34033472E+00  7.36186447E+00  7.36734646E+00  7.46455512E+00  7.50769598E+00
  7.73096868E+00  7.74405348E+00  8.39082644E+00  1.45397642E+01
Alpha MO coefficients                      R   N=       28561
  6.39141320E-06  3.48538269E-05  1.10270321E-06 -1.31211909E-04 -7.48539789E-05
 -1.19547110E-07  3.23552495E-06  5.12309514E-07  2.41745615E-07 -9.88485201E-06
 -1.87004827E-06  5.28996758E-05 -1.48933879E-04  5.57588670E-06  1.52427857E-05
 -2.94274625E-05  4.69177696E-06 -1.90468669E-06  1.87748824E-07  1.74387607E-07
 -2.80829874E-06 -1.41662389E-06  1.32986857E-05  1.85548749E-07 -1.05753121E-06
  2.05606796E-05  9.68367938E-06  2.61388419E-05  9.84062011E-06 -9.57629515E-06
  5.64896549E-05  1.52070851E-05  1.65407555E-08 -8.53676272E-08  7.44137786E-07
 -8.34950277E-07  8.19230858E-07 -1.21085834E-06  5.36550135E-07 -3.25537020E-07
 -2.21094066E-06  1.00594207E-05  3.87281510E-06 -3.35048437E-06 -6.63831618E-06
  1.07343484E-05  1.96716472E-07  2.91745475E-06  7.50946126E-06 -1.78824691E-06
 -1.17130368E-05 -1.51275937E-05  4.74503864E-08 -6.02841872E-08  2.16365638E-08
 -1.34205167E-06 -5.45999512E-07  3.11580173E-07 -4.15344259E-07  2.12406206E-07
 -4.73386718E-08  1.72996770E-05  6.08340139E-07 -3.78144645E-06  4.31828570E-06
 -1.66054290E-07 -6.69788178E-08 -3.14601528E-07 -6.73307549E-08 -1.29808511E-07
  7.32711167E-07  4.80942144E-08  1.04580226E-06  5.63754545E-07  5.31512956E-07
 -2.26831197E-06  1.56316202E-07  3.23399366E-06  2.11544419E-06 -1.12318899E-06
 -6.34329296E-06 -9.25562995E-07  1.08395478E-07 -3.39967112E-08  3.63231968E-07
 -1.66915310E-07 -4.53715831E-07 -8.28883048E-07 -9.30927815E-07  9.35180620E-08
 -9.25002798E-07 -6.56961831E-07 -1.25890235E-07  7.63538060E-07  3.08535756E-06
  1.78659292E-06  9.99534831E-01  1.95421306E-03  1.85020923E-04 -4.17850698E-04
  6.96288882E-05  6.64143105E-05  1.61236515E-05 -7.61012945E-05  2.44568863E-06
  3.52940837E-05 -1.34987837E-04  3.97972372E-06 -1.69137669E-05  7.21291067E-05
 -2.26964531E-06  7.20708677E-06 -5.14585210E-05 -2.07339179E-06  1.12925926E-06
 -1.09729522E-05 -1.24694122E-06 -3.65370703E-06  1.48944666E-07 -1.41743371E-07
 -5.50017308E-06 -3.32498944E-06 -2.79767058E-05  6.69802437E-07 -1.48653680E-06
 -4.26913426E-05 -2.35131489E-05 -2.38032508E-06 -3.31079811E-06  3.02112643E-07
 -6.68867697E-06  4.92306787E-07 -5.40402289E-07 -1.37326065E-06  5.68603642E-06
  2.71203784E-07 -1.25383661E-06 -5.26233132E-06  4.62119776E-06  6.94862863E-07
 -1.10932656E-06  3.61413890E-06 -1.13266812E-06  2.28379280E-06 -2.89299571E-06
  5.78166887E-06 -7.37849712E-07 -2.49709838E-05  1.55612581E-05 -4.54629308E-06
  7.14092775E-07 -2.09187345E-06  5.47864992E-07 -5.73792303E-06  1.65979911E-05
  1.21178536E-06  9.37367026E-06  1.26011437E-05 -3.76509603E-06 -8.19039594E-07
 -1.88107599E-07 -1.66624090E-07 -1.75544233E-06 -8.09774618E-07 -5.37778503E-06
  8.62557267E-07 -5.18061720E-07  5.32937571E-06 -4.21982491E-06 -7.39505835E-08
 -3.61742768E-07 -3.99179759E-07 -5.34635633E-06 -1.98235766E-06  1.82261424E-07
  6.37622104E-08  2.61379271E-07  1.81134409E-07 -3.27390956E-07 -8.76913933E-07
  2.49222621E-05  3.75719365E-06  7.79750934E-06 -7.08906037E-06  3.94690112E-06
  7.07984078E-06  3.22146212E-07 -4.94910098E-07 -6.92471432E-08  1.74590424E-07
  2.13619142E-07 -1.34755561E-06  2.88468541E-06  3.00954458E-07 -2.49721175E-07
 -7.34909087E-07 -6.21297695E-06  9.75713365E-06  1.84057923E-06  1.13118138E-05
  3.44757035E-06  4.17521503E-07  2.90398572E-07 -3.43563651E-08 -2.01698512E-08
 -1.40593618E-07 -4.63672692E-07  4.53352776E-08 -2.79793966E-06 -3.36338222E-07
  3.34442996E-08  1.54042944E-06  7.45400607E-07  1.74636948E-06 -9.24750737E-08
  9.99531760E-01  1.97992570E-03  2.06696440E-04 -4.20830757E-04 -1.53171563E-04
 -2.10447196E-06 -3.33719829E-06 -3.35025536E-07  4.78468817E-06 -1.43856510E-05
  3.89753573E-07  4.44148102E-06  4.83406641E-06  9.21779025E-08 -3.28102396E-06
  6.47726833E-05 -2.46291711E-06 -1.55458256E-05 -1.94536994E-06  5.01298231E-07
 -8.92641357E-07 -4.55382301E-07 -1.15699007E-06 -1.12850299E-07  1.34613509E-06
 -1.94079116E-07  1.31869005E-06  1.78775240E-06  3.40717581E-07 -3.08628266E-06
  5.35423200E-07  1.09352337E-05  1.04863350E-05 -8.33713931E-07 -2.17287975E-05
  9.99347048E-07 -9.94403034E-07  1.46627656E-06  4.86203136E-08  1.37905670E-06
 -6.80875131E-08 -2.82117024E-06  3.16251771E-07  3.37170332E-06 -4.02191149E-06
 -1.82309764E-08 -4.71434986E-06  1.42447180E-07  8.14202672E-06 -8.07459816E-07
  1.89461486E-07  2.87774443E-06  7.38525747E-06 -1.52853426E-06 -1.67700795E-05
 -1.71434544E-05 -1.82150152E-07 -3.24878610E-08  2.19480026E-09 -1.08596873E-06
 -3.25642561E-07 -1.08836889E-07  7.87569239E-07 -8.36793161E-08  2.13818457E-08
 -1.28110383E-05  1.02703711E-05 -4.63462884E-06 -1.56035996E-06  2.05184432E-06
 -1.80390021E-06 -1.34969942E-07 -1.67695326E-07 -1.18101992E-07  2.99041899E-07
 -5.76909993E-07  1.06588481E-06  2.00636609E-07  1.04855622E-06 -1.01761599E-07
  2.56727009E-06  2.61112756E-06 -2.88794428E-06  1.39128479E-06 -2.71990004E-06
  2.92497873E-06  8.91599078E-08  3.96890111E-07 -1.25524509E-07  1.15364872E-07
 -3.94471005E-08  3.20972176E-07 -6.36710072E-07  2.29771292E-07 -1.57079513E-07
 -5.13613446E-07  3.18746867E-07  6.76610515E-07 -2.52416351E-07  1.27163237E-06
 -9.13802917E-07 -4.08749731E-05  1.15930064E-04  1.32345250E-07 -2.60102330E-07
 -1.16792185E-07  1.10571416E-06  4.28540993E-06 -1.63292456E-06  4.42873448E-06
  2.66481034E-05  1.33822272E-05 -3.41711771E-05 -2.84898305E-07 -6.09234170E-07
  5.13170152E-07  2.51018931E-07  1.26423660E-07 -9.46304821E-06 -1.63814717E-06
 -2.65113362E-06  1.66597553E-05 -1.08626360E-06  9.76837007E-01 -9.06507077E-03
  4.33771823E-02  2.31534711E-03  3.72757426E-04  5.47410150E-04  1.54169305E-03
  9.89834589E-04 -6.32108024E-04 -1.20374713E-03 -9.02873877E-04 -2.75055962E-04
  8.00294910E-04 -2.21560354E-04 -1.11225639E-04  1.29174575E-04 -1.00387784E-04
  5.66777842E-05  3.11406443E-05  1.73020465E-06  1.00800564E-04  4.39460243E-05
  1.29519613E-04 -4.58528187E-04 -2.27229073E-05  1.46753856E-04  1.82934227E-04
 -1.81895733E-04 -5.13716739E-05  4.23362689E-05 -2.39256275E-04 -1.92950810E-04
  1.59381264E-06 -1.51703247E-05  9.70751891E-06  2.17705048E-06 -1.41239039E-05
 -1.08802556E-05  1.22468053E-05  2.64250472E-05 -8.52614452E-05 -1.32687216E-05
 -1.13887099E-04 -2.92688543E-05 -3.41551853E-05 -4.42054941E-05 -3.03721978E-06
 -3.41563590E-05 -1.03814322E-04  8.82471182E-06  2.85940724E-04  2.77831866E-04
 -5.54391793E-06  2.19929657E-07  1.40222444E-06 -1.64329260E-05 -2.04728664E-07
  1.92550848E-05  2.09007609E-05 -9.34145393E-07 -3.50727546E-06 -3.14390950E-04
  2.69172096E-05 -6.49808108E-05 -5.90533049E-05 -1.03271354E-05  9.57942003E-07
  6.72508952E-06 -2.82748248E-06  1.75580076E-06 -5.98334476E-06  4.06641989E-06
 -2.95117291E-05  6.31184577E-06 -6.40860874E-06  4.30320841E-05 -1.31878148E-05
 -1.03185937E-04  7.81301578E-05  1.41716383E-05  6.58627181E-05  6.17713766E-06
  1.91964084E-06 -1.27239848E-05 -5.04384203E-06  1.82321625E-05  2.25198396E-06
 -2.41472374E-05  2.88318206E-06  3.73752368E-06  6.84620763E-05  8.64794970E-06
 -5.20805643E-05 -2.95124360E-06  2.40518497E-05 -4.31240608E-06  4.04601580E-06
  6.47940974E-05  6.92710523E-05 -2.64108401E-04 -1.62316207E-04 -4.00774685E-04
 -5.67527244E-06 -2.06589243E-06 -3.90459328E-06  2.23395220E-05 -4.80443885E-04
 -6.18378206E-05 -3.01738831E-05  2.33443767E-04  1.76861869E-05  2.20325674E-04
  4.70549535E-04  1.09709346E-04 -2.06620985E-05  9.24648889E-05  2.64732755E-05
  1.30188852E-05 -1.12182023E-06 -7.81062551E-07  1.04635293E-05  1.12603203E-05
 -2.84600332E-04 -5.37827352E-06  3.94133635E-05 -4.29994109E-04 -1.94957627E-04
  1.36886348E-04  6.91396791E-05 -5.95563618E-05  3.53628354E-04 -2.97127242E-05
  1.10316051E-05 -3.48051828E-05  1.61533223E-04  1.17179296E-06  9.75856457E-06
 -1.29381055E-04  1.87345034E-04 -1.14651890E-05 -2.45670096E-05  9.07264096E-05
  2.22152150E-05 -2.18616945E-05 -7.67661543E-05  3.98156198E-05  4.22831787E-04
  1.60820699E-03 -8.22231511E-04 -3.21884354E-05 -2.08637059E-04  5.69658252E-05
 -1.65830700E-04 -8.14914953E-04 -3.55668686E-05 -5.81385387E-04 -2.87168126E-04
 -2.60086593E-04  4.32460540E-04 -3.02872512E-05 -4.14124327E-05 -4.88203531E-05
  1.19407158E-05 -5.18771293E-05 -4.64763241E-06  5.17029456E-04  2.28606369E-05
  2.91120926E-04  5.36102785E-05 -8.08395547E-05 -1.21417184E-04 -1.01057454E-04
  2.36234477E-03  1.68553443E-03 -2.06786769E-05  3.72825606E-05 -9.52663267E-06
 -1.08149485E-04  5.91262393E-04  3.65201703E-05 -7.25386058E-04  2.42479900E-03
  3.20036013E-06 -3.45124193E-04  7.25870159E-04 -1.15245156E-04 -3.09305327E-05
 -4.98116247E-06 -9.13000499E-06 -4.74469909E-05 -3.28521677E-05 -1.59070379E-04
  2.60707191E-05  6.84663034E-05 -2.56157370E-04 -6.18497432E-05 -2.70544946E-04
 -1.30303862E-04  2.17843382E-04 -7.35432468E-04 -3.24149978E-05 -5.22029932E-06
  1.16514002E-05 -3.18146967E-05  1.74368333E-05 -1.13709563E-05  3.97304312E-05
 -3.23492800E-05  1.70708656E-05  1.28436427E-05  3.67560052E-05 -4.43924897E-05
  1.27754560E-04 -4.16748925E-05  6.83980666E-05 -3.34869201E-06 -4.65116813E-05
 -1.25108389E-04  2.50787458E-05  1.75766825E-04  3.61395321E-04  9.31636577E-07
  1.40339714E-06 -4.38566348E-07  4.14616211E-05  4.56817889E-06 -7.14738271E-06
  1.01385004E-06 -3.99808180E-06  9.13717986E-07 -3.53843433E-04  1.17707683E-05
  7.56267529E-05 -1.45866760E-04  5.98786482E-05 -2.65171578E-05  1.89793731E-06
  4.75327454E-06  3.53403603E-06 -1.15976353E-05 -2.83764296E-06 -3.87374442E-06
 -2.00519480E-05 -1.43866401E-05  3.56058868E-05  6.58517839E-06 -1.00025119E-04
 -2.83812260E-05  3.14804890E-05  1.30704122E-04 -2.91434957E-05 -4.98703857E-07