 Entering Gaussian System, Link 0=g16
 Input=clhocl_15_sp.gjf
 Output=clhocl_15_sp.log
 Initial command:
 /sw/contrib/gaussian/g16/B01/g16/l1.exe "/scr/Gau-18581.inp" -scrdir="/scr/"
 Entering Link 1 = /sw/contrib/gaussian/g16/B01/g16/l1.exe PID=     18582.
  
 Copyright (c) 1988-2017, Gaussian, Inc.  All Rights Reserved.
  
 This is part of the Gaussian(R) 16 program.  It is based on
 the Gaussian(R) 09 system (copyright 2009, Gaussian, Inc.),
 the Gaussian(R) 03 system (copyright 2003, Gaussian, Inc.),
 the Gaussian(R) 98 system (copyright 1998, Gaussian, Inc.),
 the Gaussian(R) 94 system (copyright 1995, Gaussian, Inc.),
 the Gaussian 92(TM) system (copyright 1992, Gaussian, Inc.),
 the Gaussian 90(TM) system (copyright 1990, Gaussian, Inc.),
 the Gaussian 88(TM) system (copyright 1988, Gaussian, Inc.),
 the Gaussian 86(TM) system (copyright 1986, Carnegie Mellon
 University), and the Gaussian 82(TM) system (copyright 1983,
 Carnegie Mellon University). Gaussian is a federally registered
 trademark of Gaussian, Inc.
  
 This software contains proprietary and confidential information,
 including trade secrets, belonging to Gaussian, Inc.
  
 This software is provided under written license and may be
 used, copied, transmitted, or stored only in accord with that
 written license.
  
 The following legend is applicable only to US Government
 contracts under FAR:
  
                    RESTRICTED RIGHTS LEGEND
  
 Use, reproduction and disclosure by the US Government is
 subject to restrictions as set forth in subparagraphs (a)
 and (c) of the Commercial Computer Software - Restricted
 Rights clause in FAR 52.227-19.
  
 Gaussian, Inc.
 340 Quinnipiac St., Bldg. 40, Wallingford CT 06492
  
  
 ---------------------------------------------------------------
 Warning -- This program may not be used in any manner that
 competes with the business of Gaussian, Inc. or will provide
 assistance to any competitor of Gaussian, Inc.  The licensee
 of this program is prohibited from giving any competitor of
 Gaussian, Inc. access to this program.  By using this program,
 the user acknowledges that Gaussian, Inc. is engaged in the
 business of creating and licensing software in the field of
 computational chemistry and represents and warrants to the
 licensee that it is not a competitor of Gaussian, Inc. and that
 it will not use this program in any manner prohibited above.
 ---------------------------------------------------------------
  

 Cite this work as:
 Gaussian 16, Revision B.01,
 M. J. Frisch, G. W. Trucks, H. B. Schlegel, G. E. Scuseria, 
 M. A. Robb, J. R. Cheeseman, G. Scalmani, V. Barone, 
 G. A. Petersson, H. Nakatsuji, X. Li, M. Caricato, A. V. Marenich, 
 J. Bloino, B. G. Janesko, R. Gomperts, B. Mennucci, H. P. Hratchian, 
 J. V. Ortiz, A. F. Izmaylov, J. L. Sonnenberg, D. Williams-Young, 
 F. Ding, F. Lipparini, F. Egidi, J. Goings, B. Peng, A. Petrone, 
 T. Henderson, D. Ranasinghe, V. G. Zakrzewski, J. Gao, N. Rega, 
 G. Zheng, W. Liang, M. Hada, M. Ehara, K. Toyota, R. Fukuda, 
 J. Hasegawa, M. Ishida, T. Nakajima, Y. Honda, O. Kitao, H. Nakai, 
 T. Vreven, K. Throssell, J. A. Montgomery, Jr., J. E. Peralta, 
 F. Ogliaro, M. J. Bearpark, J. J. Heyd, E. N. Brothers, K. N. Kudin, 
 V. N. Staroverov, T. A. Keith, R. Kobayashi, J. Normand, 
 K. Raghavachari, A. P. Rendell, J. C. Burant, S. S. Iyengar, 
 J. Tomasi, M. Cossi, J. M. Millam, M. Klene, C. Adamo, R. Cammi, 
 J. W. Ochterski, R. L. Martin, K. Morokuma, O. Farkas, 
 J. B. Foresman, and D. J. Fox, Gaussian, Inc., Wallingford CT, 2016.
 
 ******************************************
 Gaussian 16:  ES64L-G16RevB.01 20-Dec-2017
                15-Sep-2021 
 ******************************************
 %nproc=28
 Will use up to   28 processors via shared memory.
 %mem=120GB
 %chk=/gscratch/ilahie/mccoygrp/coire_hocl/clhocl_15_sp.chk
 -------------------------------------
 #p SP mp2/aug-cc-pvtz density=current
 -------------------------------------
 1/30=1,38=1,172=1/1;
 2/12=2,17=6,18=5,40=1/2;
 3/5=16,6=1,7=10,11=9,25=1,30=1,71=1/1,2,3;
 4//1;
 5/5=2,38=5/2;
 8/6=4,10=1/1;
 9/15=1,16=-3/6;
 10/5=1,13=10/2;
 6/7=2,8=2,9=2,10=2,22=-1/1;
 99/5=1,9=1/99;
 Leave Link    1 at Wed Sep 15 14:23:29 2021, MaxMem= 16106127360 cpu:               2.4 elap:               0.1
 (Enter /sw/contrib/gaussian/g16/B01/g16/l101.exe)
 -----
 title
 -----
 Symbolic Z-matrix:
 Charge = -1 Multiplicity = 1
 O                     0.        0.        0. 
 Cl                    2.90468   0.        0. 
 Cl                   -0.39369   1.63605   0. 
 H                     0.99338   0.        0.26618 
 
 ITRead=  0  0  0  0
 MicOpt= -1 -1 -1 -1
 NAtoms=      4 NQM=        4 NQMF=       0 NMMI=      0 NMMIF=      0
                NMic=       0 NMicF=      0.
                    Isotopes and Nuclear Properties:
 (Nuclear quadrupole moments (NQMom) in fm**2, nuclear magnetic moments (NMagM)
  in nuclear magnetons)

  Atom         1           2           3           4
 IAtWgt=          16          35          35           1
 AtmWgt=  15.9949146  34.9688527  34.9688527   1.0078250
 NucSpn=           0           3           3           1
 AtZEff=  -0.0000000  -0.0000000  -0.0000000  -0.0000000
 NQMom=    0.0000000  -8.1650000  -8.1650000   0.0000000
 NMagM=    0.0000000   0.8218740   0.8218740   2.7928460
 AtZNuc=   8.0000000  17.0000000  17.0000000   1.0000000
 Leave Link  101 at Wed Sep 15 14:23:29 2021, MaxMem= 16106127360 cpu:               3.3 elap:               0.1
 (Enter /sw/contrib/gaussian/g16/B01/g16/l202.exe)
                          Input orientation:                          
 ---------------------------------------------------------------------
 Center     Atomic      Atomic             Coordinates (Angstroms)
 Number     Number       Type             X           Y           Z
 ---------------------------------------------------------------------
      1          8           0        0.000000    0.000000    0.000000
      2         17           0        2.904676    0.000000    0.000000
      3         17           0       -0.393687    1.636049    0.000000
      4          1           0        0.993383    0.000000    0.266176
 ---------------------------------------------------------------------
                    Distance matrix (angstroms):
                    1          2          3          4
     1  O    0.000000
     2  Cl   2.904676   0.000000
     3  Cl   1.682749   3.681827   0.000000
     4  H    1.028426   1.929738   2.161358   0.000000
 Stoichiometry    Cl2HO(1-)
 Framework group  C1[X(Cl2HO)]
 Deg. of freedom     6
 Full point group                 C1      NOp   1
 Largest Abelian subgroup         C1      NOp   1
 Largest concise Abelian subgroup C1      NOp   1
                         Standard orientation:                         
 ---------------------------------------------------------------------
 Center     Atomic      Atomic             Coordinates (Angstroms)
 Number     Number       Type             X           Y           Z
 ---------------------------------------------------------------------
      1          8           0        0.680544    0.993337   -0.020724
      2         17           0       -1.991166   -0.146338   -0.005033
      3         17           0        1.684634   -0.356854    0.000034
      4          1           0       -0.233305    0.607563    0.250788
 ---------------------------------------------------------------------
 Rotational constants (GHZ):          23.6015868           2.0592753           1.8950032
 Leave Link  202 at Wed Sep 15 14:23:29 2021, MaxMem= 16106127360 cpu:               0.2 elap:               0.0
 (Enter /sw/contrib/gaussian/g16/B01/g16/l301.exe)
 Standard basis: Aug-CC-pVTZ (5D, 7F)
 Ernie: Thresh=  0.10000D-02 Tol=  0.10000D-05 Strict=F.
 Ernie:  29 primitive shells out of 169 were deleted.
 There are   198 symmetry adapted cartesian basis functions of A   symmetry.
 There are   169 symmetry adapted basis functions of A   symmetry.
   169 basis functions,   327 primitive gaussians,   198 cartesian basis functions
    22 alpha electrons       22 beta electrons
       nuclear repulsion energy       122.0222412307 Hartrees.
 IExCor=    0 DFT=F Ex=HF Corr=None ExCW=0 ScaHFX=  1.000000
 ScaDFX=  1.000000  1.000000  1.000000  1.000000 ScalE2=  1.000000  1.000000
 IRadAn=      5 IRanWt=     -1 IRanGd=            0 ICorTp=0 IEmpDi=  4
 NAtoms=    4 NActive=    4 NUniq=    4 SFac= 1.00D+00 NAtFMM=   60 NAOKFM=F Big=F
 Integral buffers will be    131072 words long.
 Raffenetti 1 integral format.
 Two-electron integral symmetry is turned on.
 Leave Link  301 at Wed Sep 15 14:23:29 2021, MaxMem= 16106127360 cpu:               1.8 elap:               0.1
 (Enter /sw/contrib/gaussian/g16/B01/g16/l302.exe)
 NPDir=0 NMtPBC=     1 NCelOv=     1 NCel=       1 NClECP=     1 NCelD=      1
         NCelK=      1 NCelE2=     1 NClLst=     1 CellRange=     0.0.
 One-electron integrals computed using PRISM.
 One-electron integral symmetry used in STVInt
 NBasis=   169 RedAO= T EigKep=  2.56D-04  NBF=   169
 NBsUse=   169 1.00D-06 EigRej= -1.00D+00 NBFU=   169
 Leave Link  302 at Wed Sep 15 14:23:30 2021, MaxMem= 16106127360 cpu:               5.2 elap:               0.2
 (Enter /sw/contrib/gaussian/g16/B01/g16/l303.exe)
 DipDrv:  MaxL=1.
 Leave Link  303 at Wed Sep 15 14:23:30 2021, MaxMem= 16106127360 cpu:               2.5 elap:               0.1
 (Enter /sw/contrib/gaussian/g16/B01/g16/l401.exe)
 ExpMin= 2.53D-02 ExpMax= 4.56D+05 ExpMxC= 1.44D+03 IAcc=3 IRadAn=         5 AccDes= 0.00D+00
 Harris functional with IExCor=  205 and IRadAn=       5 diagonalized for initial guess.
 HarFok:  IExCor=  205 AccDes= 0.00D+00 IRadAn=         5 IDoV= 1 UseB2=F ITyADJ=14
 ICtDFT=  3500011 ScaDFX=  1.000000  1.000000  1.000000  1.000000
 FoFCou: FMM=F IPFlag=           0 FMFlag=      100000 FMFlg1=           0
         NFxFlg=           0 DoJE=T BraDBF=F KetDBF=T FulRan=T
         wScrn=  0.000000 ICntrl=       500 IOpCl=  0 I1Cent=   200000004 NGrid=           0
         NMat0=    1 NMatS0=      1 NMatT0=    0 NMatD0=    1 NMtDS0=    0 NMtDT0=    0
 Petite list used in FoFCou.
 Harris En= -993.819810686936    
 JPrj=0 DoOrth=F DoCkMO=F.
 Leave Link  401 at Wed Sep 15 14:23:30 2021, MaxMem= 16106127360 cpu:               7.6 elap:               0.3
 (Enter /sw/contrib/gaussian/g16/B01/g16/l502.exe)
 Keep R1 ints in memory in canonical form, NReq=117119683.
 FoFCou: FMM=F IPFlag=           0 FMFlag=           0 FMFlg1=           0
         NFxFlg=           0 DoJE=F BraDBF=F KetDBF=F FulRan=T
         wScrn=  0.000000 ICntrl=       600 IOpCl=  0 I1Cent=           0 NGrid=           0
         NMat0=    1 NMatS0=  14365 NMatT0=    0 NMatD0=    1 NMtDS0=    0 NMtDT0=    0
 Symmetry not used in FoFCou.
 Two-electron integral symmetry not used.
 Closed shell SCF:
 Using DIIS extrapolation, IDIIS=  1040.
 NGot= 16106127360 LenX= 16002857927 LenY= 16002818282
 Requested convergence on RMS density matrix=1.00D-08 within 128 cycles.
 Requested convergence on MAX density matrix=1.00D-06.
 Requested convergence on             energy=1.00D-06.
 No special actions if energy rises.

 Cycle   1  Pass 1  IDiag  1:
 E= -994.393783488597    
 DIIS: error= 3.37D-02 at cycle   1 NSaved=   1.
 NSaved= 1 IEnMin= 1 EnMin= -994.393783488597     IErMin= 1 ErrMin= 3.37D-02
 ErrMax= 3.37D-02  0.00D+00 EMaxC= 1.00D-01 BMatC= 4.22D-01 BMatP= 4.22D-01
 IDIUse=3 WtCom= 6.63D-01 WtEn= 3.37D-01
 Coeff-Com:  0.100D+01
 Coeff-En:   0.100D+01
 Coeff:      0.100D+01
 Gap=     0.554 Goal=   None    Shift=    0.000
 GapD=    0.554 DampG=2.000 DampE=0.500 DampFc=1.0000 IDamp=-1.
 RMSDP=2.13D-03 MaxDP=7.07D-02              OVMax= 1.23D-01

 Cycle   2  Pass 1  IDiag  1:
 E= -994.486247119915     Delta-E=       -0.092463631318 Rises=F Damp=F
 DIIS: error= 2.06D-02 at cycle   2 NSaved=   2.
 NSaved= 2 IEnMin= 2 EnMin= -994.486247119915     IErMin= 2 ErrMin= 2.06D-02
 ErrMax= 2.06D-02  0.00D+00 EMaxC= 1.00D-01 BMatC= 4.93D-02 BMatP= 4.22D-01
 IDIUse=3 WtCom= 7.94D-01 WtEn= 2.06D-01
 Coeff-Com:  0.167D+00 0.833D+00
 Coeff-En:   0.000D+00 0.100D+01
 Coeff:      0.133D+00 0.867D+00
 Gap=     0.378 Goal=   None    Shift=    0.000
 RMSDP=9.80D-04 MaxDP=3.92D-02 DE=-9.25D-02 OVMax= 7.99D-02

 Cycle   3  Pass 1  IDiag  1:
 E= -994.510391070303     Delta-E=       -0.024143950388 Rises=F Damp=F
 DIIS: error= 9.39D-03 at cycle   3 NSaved=   3.
 NSaved= 3 IEnMin= 3 EnMin= -994.510391070303     IErMin= 3 ErrMin= 9.39D-03
 ErrMax= 9.39D-03  0.00D+00 EMaxC= 1.00D-01 BMatC= 1.50D-02 BMatP= 4.93D-02
 IDIUse=3 WtCom= 9.06D-01 WtEn= 9.39D-02
 Coeff-Com: -0.156D-01 0.346D+00 0.670D+00
 Coeff-En:   0.000D+00 0.144D+00 0.856D+00
 Coeff:     -0.141D-01 0.327D+00 0.687D+00
 Gap=     0.360 Goal=   None    Shift=    0.000
 RMSDP=3.71D-04 MaxDP=1.25D-02 DE=-2.41D-02 OVMax= 3.66D-02

 Cycle   4  Pass 1  IDiag  1:
 E= -994.520590192117     Delta-E=       -0.010199121815 Rises=F Damp=F
 DIIS: error= 1.36D-03 at cycle   4 NSaved=   4.
 NSaved= 4 IEnMin= 4 EnMin= -994.520590192117     IErMin= 4 ErrMin= 1.36D-03
 ErrMax= 1.36D-03  0.00D+00 EMaxC= 1.00D-01 BMatC= 1.78D-04 BMatP= 1.50D-02
 IDIUse=3 WtCom= 9.86D-01 WtEn= 1.36D-02
 Coeff-Com: -0.405D-02 0.199D-01 0.106D+00 0.878D+00
 Coeff-En:   0.000D+00 0.000D+00 0.000D+00 0.100D+01
 Coeff:     -0.399D-02 0.197D-01 0.104D+00 0.880D+00
 Gap=     0.352 Goal=   None    Shift=    0.000
 RMSDP=5.59D-05 MaxDP=1.47D-03 DE=-1.02D-02 OVMax= 3.06D-03

 Cycle   5  Pass 1  IDiag  1:
 E= -994.520777499467     Delta-E=       -0.000187307350 Rises=F Damp=F
 DIIS: error= 2.62D-04 at cycle   5 NSaved=   5.
 NSaved= 5 IEnMin= 5 EnMin= -994.520777499467     IErMin= 5 ErrMin= 2.62D-04
 ErrMax= 2.62D-04  0.00D+00 EMaxC= 1.00D-01 BMatC= 1.59D-05 BMatP= 1.78D-04
 IDIUse=3 WtCom= 9.97D-01 WtEn= 2.62D-03
 Coeff-Com:  0.103D-02-0.399D-01-0.694D-01 0.188D-01 0.109D+01
 Coeff-En:   0.000D+00 0.000D+00 0.000D+00 0.000D+00 0.100D+01
 Coeff:      0.103D-02-0.398D-01-0.692D-01 0.187D-01 0.109D+01
 Gap=     0.354 Goal=   None    Shift=    0.000
 RMSDP=3.23D-05 MaxDP=7.57D-04 DE=-1.87D-04 OVMax= 3.08D-03

 Cycle   6  Pass 1  IDiag  1:
 E= -994.520817320007     Delta-E=       -0.000039820540 Rises=F Damp=F
 DIIS: error= 1.35D-04 at cycle   6 NSaved=   6.
 NSaved= 6 IEnMin= 6 EnMin= -994.520817320007     IErMin= 6 ErrMin= 1.35D-04
 ErrMax= 1.35D-04  0.00D+00 EMaxC= 1.00D-01 BMatC= 2.05D-06 BMatP= 1.59D-05
 IDIUse=3 WtCom= 9.99D-01 WtEn= 1.35D-03
 Coeff-Com:  0.225D-03 0.909D-02 0.161D-01-0.782D-01-0.416D+00 0.147D+01
 Coeff-En:   0.000D+00 0.000D+00 0.000D+00 0.000D+00 0.000D+00 0.100D+01
 Coeff:      0.225D-03 0.908D-02 0.161D-01-0.781D-01-0.415D+00 0.147D+01
 Gap=     0.354 Goal=   None    Shift=    0.000
 RMSDP=1.68D-05 MaxDP=4.14D-04 DE=-3.98D-05 OVMax= 1.64D-03

 Cycle   7  Pass 1  IDiag  1:
 E= -994.520824720347     Delta-E=       -0.000007400339 Rises=F Damp=F
 DIIS: error= 3.40D-05 at cycle   7 NSaved=   7.
 NSaved= 7 IEnMin= 7 EnMin= -994.520824720347     IErMin= 7 ErrMin= 3.40D-05
 ErrMax= 3.40D-05  0.00D+00 EMaxC= 1.00D-01 BMatC= 1.28D-07 BMatP= 2.05D-06
 IDIUse=1 WtCom= 1.00D+00 WtEn= 0.00D+00
 Coeff-Com: -0.158D-03-0.114D-02-0.136D-02 0.302D-01 0.948D-01-0.623D+00
 Coeff-Com:  0.150D+01
 Coeff:     -0.158D-03-0.114D-02-0.136D-02 0.302D-01 0.948D-01-0.623D+00
 Coeff:      0.150D+01
 Gap=     0.354 Goal=   None    Shift=    0.000
 RMSDP=5.20D-06 MaxDP=1.43D-04 DE=-7.40D-06 OVMax= 5.06D-04

 Cycle   8  Pass 1  IDiag  1:
 E= -994.520825306781     Delta-E=       -0.000000586434 Rises=F Damp=F
 DIIS: error= 6.94D-06 at cycle   8 NSaved=   8.
 NSaved= 8 IEnMin= 8 EnMin= -994.520825306781     IErMin= 8 ErrMin= 6.94D-06
 ErrMax= 6.94D-06  0.00D+00 EMaxC= 1.00D-01 BMatC= 8.59D-09 BMatP= 1.28D-07
 IDIUse=1 WtCom= 1.00D+00 WtEn= 0.00D+00
 Coeff-Com:  0.132D-04-0.477D-03-0.661D-03-0.563D-03 0.786D-02 0.228D-01
 Coeff-Com: -0.276D+00 0.125D+01
 Coeff:      0.132D-04-0.477D-03-0.661D-03-0.563D-03 0.786D-02 0.228D-01
 Coeff:     -0.276D+00 0.125D+01
 Gap=     0.354 Goal=   None    Shift=    0.000
 RMSDP=1.18D-06 MaxDP=3.05D-05 DE=-5.86D-07 OVMax= 1.32D-04

 Cycle   9  Pass 1  IDiag  1:
 E= -994.520825340741     Delta-E=       -0.000000033960 Rises=F Damp=F
 DIIS: error= 3.30D-06 at cycle   9 NSaved=   9.
 NSaved= 9 IEnMin= 9 EnMin= -994.520825340741     IErMin= 9 ErrMin= 3.30D-06
 ErrMax= 3.30D-06  0.00D+00 EMaxC= 1.00D-01 BMatC= 1.16D-09 BMatP= 8.59D-09
 IDIUse=1 WtCom= 1.00D+00 WtEn= 0.00D+00
 Coeff-Com:  0.162D-04 0.224D-03 0.292D-03-0.329D-02-0.126D-01 0.655D-01
 Coeff-Com: -0.956D-01-0.355D+00 0.140D+01
 Coeff:      0.162D-04 0.224D-03 0.292D-03-0.329D-02-0.126D-01 0.655D-01
 Coeff:     -0.956D-01-0.355D+00 0.140D+01
 Gap=     0.354 Goal=   None    Shift=    0.000
 RMSDP=5.69D-07 MaxDP=1.28D-05 DE=-3.40D-08 OVMax= 6.56D-05

 Cycle  10  Pass 1  IDiag  1:
 E= -994.520825346882     Delta-E=       -0.000000006142 Rises=F Damp=F
 DIIS: error= 1.49D-06 at cycle  10 NSaved=  10.
 NSaved=10 IEnMin=10 EnMin= -994.520825346882     IErMin=10 ErrMin= 1.49D-06
 ErrMax= 1.49D-06  0.00D+00 EMaxC= 1.00D-01 BMatC= 1.75D-10 BMatP= 1.16D-09
 IDIUse=1 WtCom= 1.00D+00 WtEn= 0.00D+00
 Coeff-Com: -0.472D-05 0.214D-04-0.335D-05 0.872D-03 0.192D-02-0.185D-01
 Coeff-Com:  0.645D-01-0.139D+00-0.214D+00 0.130D+01
 Coeff:     -0.472D-05 0.214D-04-0.335D-05 0.872D-03 0.192D-02-0.185D-01
 Coeff:      0.645D-01-0.139D+00-0.214D+00 0.130D+01
 Gap=     0.354 Goal=   None    Shift=    0.000
 RMSDP=2.26D-07 MaxDP=5.78D-06 DE=-6.14D-09 OVMax= 2.53D-05

 Cycle  11  Pass 1  IDiag  1:
 E= -994.520825347712     Delta-E=       -0.000000000830 Rises=F Damp=F
 DIIS: error= 4.60D-07 at cycle  11 NSaved=  11.
 NSaved=11 IEnMin=11 EnMin= -994.520825347712     IErMin=11 ErrMin= 4.60D-07
 ErrMax= 4.60D-07  0.00D+00 EMaxC= 1.00D-01 BMatC= 1.30D-11 BMatP= 1.75D-10
 IDIUse=1 WtCom= 1.00D+00 WtEn= 0.00D+00
 Coeff-Com: -0.230D-05-0.235D-04-0.239D-04 0.383D-03 0.129D-02-0.689D-02
 Coeff-Com:  0.851D-02 0.483D-01-0.135D+00-0.162D+00 0.125D+01
 Coeff:     -0.230D-05-0.235D-04-0.239D-04 0.383D-03 0.129D-02-0.689D-02
 Coeff:      0.851D-02 0.483D-01-0.135D+00-0.162D+00 0.125D+01
 Gap=     0.354 Goal=   None    Shift=    0.000
 RMSDP=6.68D-08 MaxDP=1.81D-06 DE=-8.30D-10 OVMax= 7.06D-06

 Cycle  12  Pass 1  IDiag  1:
 E= -994.520825347780     Delta-E=       -0.000000000068 Rises=F Damp=F
 DIIS: error= 9.87D-08 at cycle  12 NSaved=  12.
 NSaved=12 IEnMin=12 EnMin= -994.520825347780     IErMin=12 ErrMin= 9.87D-08
 ErrMax= 9.87D-08  0.00D+00 EMaxC= 1.00D-01 BMatC= 7.99D-13 BMatP= 1.30D-11
 IDIUse=1 WtCom= 1.00D+00 WtEn= 0.00D+00
 Coeff-Com:  0.735D-06 0.218D-05 0.295D-05-0.121D-03-0.342D-03 0.225D-02
 Coeff-Com: -0.493D-02-0.220D-02 0.398D-01-0.564D-01-0.204D+00 0.123D+01
 Coeff:      0.735D-06 0.218D-05 0.295D-05-0.121D-03-0.342D-03 0.225D-02
 Coeff:     -0.493D-02-0.220D-02 0.398D-01-0.564D-01-0.204D+00 0.123D+01
 Gap=     0.354 Goal=   None    Shift=    0.000
 RMSDP=1.42D-08 MaxDP=2.85D-07 DE=-6.78D-11 OVMax= 1.12D-06

 Cycle  13  Pass 1  IDiag  1:
 E= -994.520825347786     Delta-E=       -0.000000000006 Rises=F Damp=F
 DIIS: error= 2.23D-08 at cycle  13 NSaved=  13.
 NSaved=13 IEnMin=13 EnMin= -994.520825347786     IErMin=13 ErrMin= 2.23D-08
 ErrMax= 2.23D-08  0.00D+00 EMaxC= 1.00D-01 BMatC= 9.04D-14 BMatP= 7.99D-13
 IDIUse=1 WtCom= 1.00D+00 WtEn= 0.00D+00
 Coeff-Com:  0.162D-06 0.170D-05 0.113D-05-0.235D-04-0.803D-04 0.446D-03
 Coeff-Com: -0.450D-03-0.445D-02 0.117D-01 0.147D-01-0.104D+00-0.624D-01
 Coeff-Com:  0.114D+01
 Coeff:      0.162D-06 0.170D-05 0.113D-05-0.235D-04-0.803D-04 0.446D-03
 Coeff:     -0.450D-03-0.445D-02 0.117D-01 0.147D-01-0.104D+00-0.624D-01
 Coeff:      0.114D+01
 Gap=     0.354 Goal=   None    Shift=    0.000
 RMSDP=4.09D-09 MaxDP=6.88D-08 DE=-6.14D-12 OVMax= 3.37D-07

 SCF Done:  E(RHF) =  -994.520825348     A.U. after   13 cycles
            NFock= 13  Conv=0.41D-08     -V/T= 2.0002
 KE= 9.943529469829D+02 PE=-2.621798351417D+03 EE= 5.109023378554D+02
 Leave Link  502 at Wed Sep 15 14:23:33 2021, MaxMem= 16106127360 cpu:              27.5 elap:               3.3
 (Enter /sw/contrib/gaussian/g16/B01/g16/l801.exe)
 ExpMin= 2.53D-02 ExpMax= 4.56D+05 ExpMxC= 1.44D+03 IAcc=3 IRadAn=         5 AccDes= 0.00D+00
 HarFok:  IExCor=  205 AccDes= 0.00D+00 IRadAn=         5 IDoV=-2 UseB2=F ITyADJ=14
 ICtDFT= 12500011 ScaDFX=  1.000000  1.000000  1.000000  1.000000
 Largest valence mixing into a core orbital is  4.47D-04
 Largest core mixing into a valence orbital is  1.73D-04
 Range of M.O.s used for correlation:    12   169
 NBasis=   169 NAE=    22 NBE=    22 NFC=    11 NFV=     0
 NROrb=    158 NOA=    11 NOB=    11 NVA=   147 NVB=   147

 **** Warning!!: The largest alpha MO coefficient is  0.13839565D+02

 Leave Link  801 at Wed Sep 15 14:23:34 2021, MaxMem= 16106127360 cpu:               2.9 elap:               0.2
 (Enter /sw/contrib/gaussian/g16/B01/g16/l906.exe)
 Frozen-core derivative calculation, NFC=  11 NFV=   0.
 FulOut=F Deriv=T AODrv=F NAtomX=     4
   MMem=         144  MDisk=          11 MDiskD=          11
  W3Min=      736164 MinDsk=     1250177 NBas6D=         198
 NBas2D=       20187    NTT=       19701    LW2=     3500000
    MDV= 16105751214 MDiskM=      406660 NBas2p=       19980
 Fully in-core method, ICMem=   420417501.
 IMap=   1   2   3   4   5   6   7   8   9  10  11  12  13  14  15  16  17  18  19  20
 IMap=  21  22
 JobTyp=1 Pass  1 fully in-core, NPsUse= 28.
 Compute canonical integrals.
 FoFCou: FMM=F IPFlag=           0 FMFlag=           0 FMFlg1=           0
         NFxFlg=           0 DoJE=F BraDBF=F KetDBF=F FulRan=T
         wScrn=  0.000000 ICntrl=       600 IOpCl=  1 I1Cent=           0 NGrid=           0
         NMat0=    1 NMatS0=  20187 NMatT0=    0 NMatD0=    1 NMtDS0=    0 NMtDT0=    0
 Symmetry not used in FoFCou.
 Spin components of T(2) and E(2):
     alpha-alpha T2 =       0.2940658685D-01 E2=     -0.8437376650D-01
     alpha-beta  T2 =       0.1599228972D+00 E2=     -0.4992447842D+00
     beta-beta   T2 =       0.2940658685D-01 E2=     -0.8437376650D-01
 The integrals were generated   1 times.
 ANorm=    0.1103963800D+01
 E2 =    -0.6679923172D+00 EUMP2 =    -0.99518881766496D+03
 Leave Link  906 at Wed Sep 15 14:23:38 2021, MaxMem= 16106127360 cpu:             114.8 elap:               4.1
 (Enter /sw/contrib/gaussian/g16/B01/g16/l1002.exe)
 Minotr:  Closed shell wavefunction.
          Computing MP2/KS-MP2 derivatives.
          Using Z-Vector for PSCF gradient.
          Skipping F1 and S1 gradient terms here.
          Frozen-core window.
          Direct CPHF calculation.
          Differentiating once with respect to electric field.
                with respect to dipole field.
          Electric field/nuclear overlap derivatives assumed to be zero.
          Requested convergence is 1.0D-10 RMS, and 1.0D-09 maximum.
          NewPWx=F KeepS1=T KeepF1=T KeepIn=T MapXYZ=F SortEE=F KeepMc=T.
 Keep R1 ints in memory in canonical form, NReq=117123839.
 FoFCou: FMM=F IPFlag=           0 FMFlag=           0 FMFlg1=           0
         NFxFlg=           0 DoJE=F BraDBF=F KetDBF=F FulRan=T
         wScrn=  0.000000 ICntrl=       600 IOpCl=  0 I1Cent=           0 NGrid=           0
         NMat0=    1 NMatS0=  14365 NMatT0=    0 NMatD0=    1 NMtDS0=    0 NMtDT0=    0
 Symmetry not used in FoFCou.
 Two-electron integral symmetry not used.
          MDV=   16106127360 using IRadAn=       5.
          Solving linear equations separately, MaxMat=       0.
          There are     1 degrees of freedom in the 1st order CPHF.  IDoFFX=0 NUNeed=     1.
 LinEq1:  Iter=  0 NonCon=     1 RMS=3.11D-03 Max=3.84D-02 NDo=     1
 AX will form     1 AO Fock derivatives at one time.
 LinEq1:  Iter=  1 NonCon=     1 RMS=3.90D-04 Max=5.17D-03 NDo=     1
 LinEq1:  Iter=  2 NonCon=     1 RMS=1.63D-04 Max=3.25D-03 NDo=     1
 LinEq1:  Iter=  3 NonCon=     1 RMS=6.32D-05 Max=8.81D-04 NDo=     1
 LinEq1:  Iter=  4 NonCon=     1 RMS=2.68D-05 Max=6.66D-04 NDo=     1
 LinEq1:  Iter=  5 NonCon=     1 RMS=6.38D-06 Max=1.04D-04 NDo=     1
 LinEq1:  Iter=  6 NonCon=     1 RMS=1.97D-06 Max=4.20D-05 NDo=     1
 LinEq1:  Iter=  7 NonCon=     1 RMS=6.11D-07 Max=1.43D-05 NDo=     1
 LinEq1:  Iter=  8 NonCon=     1 RMS=1.30D-07 Max=1.63D-06 NDo=     1
 LinEq1:  Iter=  9 NonCon=     1 RMS=2.90D-08 Max=3.93D-07 NDo=     1
 LinEq1:  Iter= 10 NonCon=     1 RMS=7.91D-09 Max=7.84D-08 NDo=     1
 LinEq1:  Iter= 11 NonCon=     1 RMS=2.01D-09 Max=3.21D-08 NDo=     1
 LinEq1:  Iter= 12 NonCon=     1 RMS=4.48D-10 Max=9.24D-09 NDo=     1
 LinEq1:  Iter= 13 NonCon=     1 RMS=1.32D-10 Max=2.66D-09 NDo=     1
 LinEq1:  Iter= 14 NonCon=     0 RMS=4.13D-11 Max=6.52D-10 NDo=     1
 Linear equations converged to 1.000D-10 1.000D-09 after    14 iterations.
 End of Minotr F.D. properties file   721 does not exist.
 End of Minotr F.D. properties file   722 does not exist.
 End of Minotr F.D. properties file   788 does not exist.
 Leave Link 1002 at Wed Sep 15 14:23:42 2021, MaxMem= 16106127360 cpu:              28.5 elap:               3.8
 (Enter /sw/contrib/gaussian/g16/B01/g16/l601.exe)
 Copying SCF densities to generalized density rwf, IOpCl= 0 IROHF=0.

 **********************************************************************

            Population analysis using the MP2 Density.

 **********************************************************************

 Orbital symmetries:
       Occupied  (A) (A) (A) (A) (A) (A) (A) (A) (A) (A) (A) (A)
                 (A) (A) (A) (A) (A) (A) (A) (A) (A) (A)
       Virtual   (A) (A) (A) (A) (A) (A) (A) (A) (A) (A) (A) (A)
                 (A) (A) (A) (A) (A) (A) (A) (A) (A) (A) (A) (A)
                 (A) (A) (A) (A) (A) (A) (A) (A) (A) (A) (A) (A)
                 (A) (A) (A) (A) (A) (A) (A) (A) (A) (A) (A) (A)
                 (A) (A) (A) (A) (A) (A) (A) (A) (A) (A) (A) (A)
                 (A) (A) (A) (A) (A) (A) (A) (A) (A) (A) (A) (A)
                 (A) (A) (A) (A) (A) (A) (A) (A) (A) (A) (A) (A)
                 (A) (A) (A) (A) (A) (A) (A) (A) (A) (A) (A) (A)
                 (A) (A) (A) (A) (A) (A) (A) (A) (A) (A) (A) (A)
                 (A) (A) (A) (A) (A) (A) (A) (A) (A) (A) (A) (A)
                 (A) (A) (A) (A) (A) (A) (A) (A) (A) (A) (A) (A)
                 (A) (A) (A) (A) (A) (A) (A) (A) (A) (A) (A) (A)
                 (A) (A) (A)
 The electronic state is 1-A.
 Alpha  occ. eigenvalues -- -104.72391-104.54665 -20.45241 -10.44347 -10.27147
 Alpha  occ. eigenvalues --   -7.91064  -7.90804  -7.90794  -7.73763  -7.73746
 Alpha  occ. eigenvalues --   -7.73745  -1.21810  -0.88705  -0.78552  -0.52869
 Alpha  occ. eigenvalues --   -0.43394  -0.42567  -0.30123  -0.27289  -0.20191
 Alpha  occ. eigenvalues --   -0.19441  -0.19388
 Alpha virt. eigenvalues --    0.16056   0.18581   0.22578   0.23443   0.25885
 Alpha virt. eigenvalues --    0.27302   0.27689   0.29539   0.31334   0.31757
 Alpha virt. eigenvalues --    0.33969   0.34931   0.39664   0.43898   0.46471
 Alpha virt. eigenvalues --    0.50768   0.52237   0.54268   0.55865   0.57762
 Alpha virt. eigenvalues --    0.58686   0.60257   0.60878   0.65537   0.66074
 Alpha virt. eigenvalues --    0.67019   0.68054   0.73550   0.77555   0.78806
 Alpha virt. eigenvalues --    0.83680   0.86669   0.89595   0.90142   0.91287
 Alpha virt. eigenvalues --    0.91543   0.96695   0.99978   1.02655   1.06366
 Alpha virt. eigenvalues --    1.07586   1.09249   1.10144   1.10295   1.14184
 Alpha virt. eigenvalues --    1.15852   1.18372   1.18814   1.19464   1.21274
 Alpha virt. eigenvalues --    1.22619   1.24703   1.28450   1.30292   1.33247
 Alpha virt. eigenvalues --    1.36973   1.40311   1.42702   1.43262   1.44412
 Alpha virt. eigenvalues --    1.48966   1.51622   1.53880   1.59853   1.64000
 Alpha virt. eigenvalues --    1.65959   1.68758   1.69324   1.72747   1.74657
 Alpha virt. eigenvalues --    1.82598   1.85774   1.86314   1.89772   1.94232
 Alpha virt. eigenvalues --    1.98899   2.26187   2.41222   2.47270   2.51908
 Alpha virt. eigenvalues --    2.52902   2.56626   2.61563   2.64011   2.65893
 Alpha virt. eigenvalues --    2.68840   2.71340   2.72455   2.73310   2.76251
 Alpha virt. eigenvalues --    2.78339   2.79629   2.80145   2.82304   2.91025
 Alpha virt. eigenvalues --    2.92461   2.93971   2.97556   3.05223   3.10110
 Alpha virt. eigenvalues --    3.10860   3.13417   3.21366   3.22461   3.23034
 Alpha virt. eigenvalues --    3.27382   3.30088   3.33116   3.33622   3.36082
 Alpha virt. eigenvalues --    3.39054   3.39840   3.41560   3.50046   3.51496
 Alpha virt. eigenvalues --    3.54077   3.56896   3.59557   3.66192   3.93356
 Alpha virt. eigenvalues --    4.25829   4.32395   4.47760   4.54579   4.57679
 Alpha virt. eigenvalues --    4.76990   4.98235   5.09944   5.31919   5.44757
 Alpha virt. eigenvalues --    5.65318   6.30603   6.55048   6.60017   6.88395
 Alpha virt. eigenvalues --    6.91098   6.93275   7.00847   7.30080   7.31719
 Alpha virt. eigenvalues --    7.35916   7.45342   7.56581   7.78143   7.80194
 Alpha virt. eigenvalues --    8.34545  14.26649
          Condensed to atoms (all electrons):
               1          2          3          4
     1  O    8.640283  -0.093453  -0.120465   0.057667
     2  Cl  -0.093453  17.858645   0.003758   0.073661
     3  Cl  -0.120465   0.003758  17.075461  -0.001501
     4  H    0.057667   0.073661  -0.001501   0.586279
 Mulliken charges:
               1
     1  O   -0.484031
     2  Cl  -0.842611
     3  Cl   0.042747
     4  H    0.283895
 Sum of Mulliken charges =  -1.00000
 Mulliken charges with hydrogens summed into heavy atoms:
               1
     1  O   -0.200136
     2  Cl  -0.842611
     3  Cl   0.042747
 Electronic spatial extent (au):  <R**2>=            560.8883
 Charge=             -1.0000 electrons
 Dipole moment (field-independent basis, Debye):
    X=              5.3904    Y=             -0.2487    Z=              0.2378  Tot=              5.4013
 Quadrupole moment (field-independent basis, Debye-Ang):
   XX=            -54.7874   YY=            -37.3727   ZZ=            -36.5662
   XY=             -2.7202   XZ=             -0.0241   YZ=              0.2353
 Traceless Quadrupole moment (field-independent basis, Debye-Ang):
   XX=            -11.8786   YY=              5.5361   ZZ=              6.3425
   XY=             -2.7202   XZ=             -0.0241   YZ=              0.2353
 Octapole moment (field-independent basis, Debye-Ang**2):
  XXX=             45.8471  YYY=              0.1495  ZZZ=             -0.2821  XYY=              6.1022
  XXY=              0.4960  XXZ=             -1.0284  XZZ=              5.6923  YZZ=              1.0502
  YYZ=             -0.0584  XYZ=             -0.2812
 Hexadecapole moment (field-independent basis, Debye-Ang**3):
 XXXX=           -748.5338 YYYY=            -97.6661 ZZZZ=            -50.0418 XXXY=             -9.7078
 XXXZ=              1.1807 YYYX=             -6.9081 YYYZ=             -0.1382 ZZZX=              0.1930
 ZZZY=              0.0539 XXYY=           -126.7272 XXZZ=           -124.4681 YYZZ=            -25.1798
 XXYZ=              0.0481 YYXZ=             -0.1132 ZZXY=             -0.1538
 N-N= 1.220222412307D+02 E-N=-2.621851405512D+03  KE= 9.950118020705D+02
 No NMR shielding tensors so no spin-rotation constants.
 Leave Link  601 at Wed Sep 15 14:23:42 2021, MaxMem= 16106127360 cpu:               4.3 elap:               0.2
 (Enter /sw/contrib/gaussian/g16/B01/g16/l9999.exe)
 1\1\GINC-N2207\SP\RMP2-FC\Aug-CC-pVTZ\Cl2H1O1(1-)\CGAVINH\15-Sep-2021\
 0\\#p SP mp2/aug-cc-pvtz density=current\\title\\-1,1\O,0,0.,0.,0.\Cl,
 0,2.904676,0.,0.\Cl,0,-0.3936866,1.6360486,0.\H,0,0.9933832,0.,0.26617
 623\\Version=ES64L-G16RevB.01\State=1-A\HF=-994.5208253\MP2=-995.18881
 77\RMSD=4.087e-09\Dipole=-1.9117503,0.9234658,0.090976\Quadrupole=-8.2
 981891,3.5775079,4.7206812,3.2720022,-0.0276038,-0.1697215\PG=C01 [X(C
 l2H1O1)]\\@


 IF IT HAPPENS, IT MUST BE POSSIBLE.

 -- THE UNNAMED LAW FROM PAUL DICKSON'S 
    "THE OFFICIAL RULES"
 Job cpu time:       0 days  0 hours  3 minutes 22.5 seconds.
 Elapsed time:       0 days  0 hours  0 minutes 12.8 seconds.
 File lengths (MBytes):  RWF=     14 Int=      0 D2E=      0 Chk=      8 Scr=      1
 Normal termination of Gaussian 16 at Wed Sep 15 14:23:42 2021.
