title                                                                   
SP        RMP2-FC                                                     Aug-CC-pVTZ         
Number of atoms                            I                4
Info1-9                                    I   N=           9
          42          13           0           0           0         110
           1           2           1
Full Title                                 C   N=           1
title       
Route                                      C   N=           4
#p SP NoSymm mp2/aug-cc-pvtz density=current    
Charge                                     I               -1
Multiplicity                               I                1
Number of electrons                        I               44
Number of alpha electrons                  I               22
Number of beta electrons                   I               22
Number of basis functions                  I              169
Number of independent functions            I              169
Number of point charges in /Mol/           I                0
Number of translation vectors              I                0
Atomic numbers                             I   N=           4
           8          17          17           1
Nuclear charges                            R   N=           4
  8.00000000E+00  1.70000000E+01  1.70000000E+01  1.00000000E+00
Current cartesian coordinates              R   N=          12
  0.00000000E+00  0.00000000E+00  0.00000000E+00  5.48904212E+00  0.00000000E+00
  0.00000000E+00 -7.43959929E-01  3.09168378E+00  0.00000000E+00  1.63419696E+00
  0.00000000E+00  9.43504066E-01
Number of symbols in /Mol/                 I                0
Force Field                                I                0
Atom Types                                 C   N=           4
                                                
Int Atom Types                             I   N=           4
           0           0           0           0
MM charges                                 R   N=           4
  0.00000000E+00  0.00000000E+00  0.00000000E+00  0.00000000E+00
Integer atomic weights                     I   N=           4
          16          35          35           1
Real atomic weights                        R   N=           4
  1.59949146E+01  3.49688527E+01  3.49688527E+01  1.00782504E+00
Atom fragment info                         I   N=           4
           0           0           0           0
Atom residue num                           I   N=           4
           0           0           0           0
Nuclear spins                              I   N=           4
           0           3           3           1
Nuclear ZEff                               R   N=           4
 -5.60000000E+00 -1.42400000E+01 -1.42400000E+01 -1.00000000E+00
Nuclear ZNuc                               R   N=           4
  8.00000000E+00  1.70000000E+01  1.70000000E+01  1.00000000E+00
Nuclear QMom                               R   N=           4
  0.00000000E+00 -8.16500000E+00 -8.16500000E+00  0.00000000E+00
Nuclear GFac                               R   N=           4
  0.00000000E+00  8.21874000E-01  8.21874000E-01  2.79284600E+00
MicOpt                                     I   N=           4
          -1          -1          -1          -1
Number of residues                         I                0
Number of secondary structures             I                0
Number of contracted shells                I               55
Number of primitive shells                 I              140
Pure/Cartesian d shells                    I                0
Pure/Cartesian f shells                    I                0
Highest angular momentum                   I                3
Largest degree of contraction              I               11
Shell types                                I   N=          55
           0           0           0           0           0           1
           1           1           1          -2          -2          -2
          -3          -3           0           0           0           0
           0           0           1           1           1           1
           1          -2          -2          -2          -3          -3
           0           0           0           0           0           0
           1           1           1           1           1          -2
          -2          -2          -3          -3           0           0
           0           0           1           1           1          -2
          -2
Number of primitives per shell             I   N=          55
           7           6           1           1           1           3
           1           1           1           1           1           1
           1           1          11           9           8           1
           1           1           6           6           1           1
           1           1           1           1           1           1
          11           9           8           1           1           1
           6           6           1           1           1           1
           1           1           1           1           3           1
           1           1           1           1           1           1
           1
Shell to atom map                          I   N=          55
           1           1           1           1           1           1
           1           1           1           1           1           1
           1           1           2           2           2           2
           2           2           2           2           2           2
           2           2           2           2           2           2
           3           3           3           3           3           3
           3           3           3           3           3           3
           3           3           3           3           4           4
           4           4           4           4           4           4
           4
Primitive exponents                        R   N=         140
  1.53300000E+04  2.29900000E+03  5.22400000E+02  1.47300000E+02  4.75500000E+01
  1.67600000E+01  6.20700000E+00  5.22400000E+02  1.47300000E+02  4.75500000E+01
  1.67600000E+01  6.20700000E+00  6.88200000E-01  1.75200000E+00  2.38400000E-01
  7.37600000E-02  3.44600000E+01  7.74900000E+00  2.28000000E+00  7.15600000E-01
  2.14000000E-01  5.97400000E-02  2.31400000E+00  6.45000000E-01  2.14000000E-01
  1.42800000E+00  5.00000000E-01  4.56100000E+05  6.83300000E+04  1.55500000E+04
  4.40500000E+03  1.43900000E+03  5.20400000E+02  2.03100000E+02  8.39600000E+01
  3.62000000E+01  1.58300000E+01  6.33400000E+00  4.40500000E+03  1.43900000E+03
  5.20400000E+02  2.03100000E+02  8.39600000E+01  3.62000000E+01  1.58300000E+01
  6.33400000E+00  2.69400000E+00  1.43900000E+03  2.03100000E+02  8.39600000E+01
  3.62000000E+01  1.58300000E+01  6.33400000E+00  2.69400000E+00  4.31300000E-01
  9.76800000E-01  1.62500000E-01  5.91000000E-02  6.63300000E+02  1.56800000E+02
  4.99800000E+01  1.84200000E+01  7.24000000E+00  2.92200000E+00  1.56800000E+02
  4.99800000E+01  1.84200000E+01  7.24000000E+00  2.92200000E+00  3.81800000E-01
  1.02200000E+00  1.30100000E-01  4.19000000E-02  1.04600000E+00  3.44000000E-01
  1.35000000E-01  7.06000000E-01  3.12000000E-01  4.56100000E+05  6.83300000E+04
  1.55500000E+04  4.40500000E+03  1.43900000E+03  5.20400000E+02  2.03100000E+02
  8.39600000E+01  3.62000000E+01  1.58300000E+01  6.33400000E+00  4.40500000E+03
  1.43900000E+03  5.20400000E+02  2.03100000E+02  8.39600000E+01  3.62000000E+01
  1.58300000E+01  6.33400000E+00  2.69400000E+00  1.43900000E+03  2.03100000E+02
  8.39600000E+01  3.62000000E+01  1.58300000E+01  6.33400000E+00  2.69400000E+00
  4.31300000E-01  9.76800000E-01  1.62500000E-01  5.91000000E-02  6.63300000E+02
  1.56800000E+02  4.99800000E+01  1.84200000E+01  7.24000000E+00  2.92200000E+00
  1.56800000E+02  4.99800000E+01  1.84200000E+01  7.24000000E+00  2.92200000E+00
  3.81800000E-01  1.02200000E+00  1.30100000E-01  4.19000000E-02  1.04600000E+00
  3.44000000E-01  1.35000000E-01  7.06000000E-01  3.12000000E-01  3.38700000E+01
  5.09500000E+00  1.15900000E+00  3.25800000E-01  1.02700000E-01  2.52600000E-02
  1.40700000E+00  3.88000000E-01  1.02000000E-01  1.05700000E+00  2.47000000E-01
Contraction coefficients                   R   N=         140
  5.19808943E-04  4.02025621E-03  2.07128267E-02  8.10105536E-02  2.35962985E-01
  4.42653446E-01  3.57064423E-01 -4.42115008E-05 -1.22591041E-03 -1.05517725E-02
 -6.74452633E-02 -1.71198607E-01  1.07329856E+00  1.00000000E+00  1.00000000E+00
  1.00000000E+00  4.11634896E-02  2.57762836E-01  8.02419274E-01  1.00000000E+00
  1.00000000E+00  1.00000000E+00  1.00000000E+00  1.00000000E+00  1.00000000E+00
  1.00000000E+00  1.00000000E+00  4.93229477E-05  3.83207967E-04  2.00947816E-03
  8.38950124E-03  2.94843950E-02  8.78759948E-02  2.11589759E-01  3.65611554E-01
  3.41246350E-01  1.02162570E-01  2.14249949E-03 -2.21747925E-06 -1.71189708E-04
 -1.27922846E-03 -9.32956265E-03 -3.98910062E-02 -1.05536085E-01  9.36202446E-03
  5.10511140E-01  5.73150737E-01  4.03949245E-06  2.12481765E-04  8.59484452E-04
  4.63248159E-03  4.47343490E-04 -7.38438245E-02 -3.62271994E-01  1.16620337E+00
  1.00000000E+00  1.00000000E+00  1.00000000E+00  2.47206402E-03  1.97550234E-02
  9.09917355E-02  2.63187834E-01  4.49078073E-01  3.60183072E-01  3.03427809E-05
 -1.22475826E-03 -6.01429772E-03 -2.76401323E-02  4.35105612E-04  1.00307272E+00
  1.00000000E+00  1.00000000E+00  1.00000000E+00  1.00000000E+00  1.00000000E+00
  1.00000000E+00  1.00000000E+00  1.00000000E+00  4.93229477E-05  3.83207967E-04
  2.00947816E-03  8.38950124E-03  2.94843950E-02  8.78759948E-02  2.11589759E-01
  3.65611554E-01  3.41246350E-01  1.02162570E-01  2.14249949E-03 -2.21747925E-06
 -1.71189708E-04 -1.27922846E-03 -9.32956265E-03 -3.98910062E-02 -1.05536085E-01
  9.36202446E-03  5.10511140E-01  5.73150737E-01  4.03949245E-06  2.12481765E-04
  8.59484452E-04  4.63248159E-03  4.47343490E-04 -7.38438245E-02 -3.62271994E-01
  1.16620337E+00  1.00000000E+00  1.00000000E+00  1.00000000E+00  2.47206402E-03
  1.97550234E-02  9.09917355E-02  2.63187834E-01  4.49078073E-01  3.60183072E-01
  3.03427809E-05 -1.22475826E-03 -6.01429772E-03 -2.76401323E-02  4.35105612E-04
  1.00307272E+00  1.00000000E+00  1.00000000E+00  1.00000000E+00  1.00000000E+00
  1.00000000E+00  1.00000000E+00  1.00000000E+00  1.00000000E+00  2.54948632E-02
  1.90362766E-01  8.52162022E-01  1.00000000E+00  1.00000000E+00  1.00000000E+00
  1.00000000E+00  1.00000000E+00  1.00000000E+00  1.00000000E+00  1.00000000E+00
Coordinates of each shell                  R   N=         165
  0.00000000E+00  0.00000000E+00  0.00000000E+00  0.00000000E+00  0.00000000E+00
  0.00000000E+00  0.00000000E+00  0.00000000E+00  0.00000000E+00  0.00000000E+00
  0.00000000E+00  0.00000000E+00  0.00000000E+00  0.00000000E+00  0.00000000E+00
  0.00000000E+00  0.00000000E+00  0.00000000E+00  0.00000000E+00  0.00000000E+00
  0.00000000E+00  0.00000000E+00  0.00000000E+00  0.00000000E+00  0.00000000E+00
  0.00000000E+00  0.00000000E+00  0.00000000E+00  0.00000000E+00  0.00000000E+00
  0.00000000E+00  0.00000000E+00  0.00000000E+00  0.00000000E+00  0.00000000E+00
  0.00000000E+00  0.00000000E+00  0.00000000E+00  0.00000000E+00  0.00000000E+00
  0.00000000E+00  0.00000000E+00  5.48904212E+00  0.00000000E+00  0.00000000E+00
  5.48904212E+00  0.00000000E+00  0.00000000E+00  5.48904212E+00  0.00000000E+00
  0.00000000E+00  5.48904212E+00  0.00000000E+00  0.00000000E+00  5.48904212E+00
  0.00000000E+00  0.00000000E+00  5.48904212E+00  0.00000000E+00  0.00000000E+00
  5.48904212E+00  0.00000000E+00  0.00000000E+00  5.48904212E+00  0.00000000E+00
  0.00000000E+00  5.48904212E+00  0.00000000E+00  0.00000000E+00  5.48904212E+00
  0.00000000E+00  0.00000000E+00  5.48904212E+00  0.00000000E+00  0.00000000E+00
  5.48904212E+00  0.00000000E+00  0.00000000E+00  5.48904212E+00  0.00000000E+00
  0.00000000E+00  5.48904212E+00  0.00000000E+00  0.00000000E+00  5.48904212E+00
  0.00000000E+00  0.00000000E+00  5.48904212E+00  0.00000000E+00  0.00000000E+00
 -7.43959929E-01  3.09168378E+00  0.00000000E+00 -7.43959929E-01  3.09168378E+00
  0.00000000E+00 -7.43959929E-01  3.09168378E+00  0.00000000E+00 -7.43959929E-01
  3.09168378E+00  0.00000000E+00 -7.43959929E-01  3.09168378E+00  0.00000000E+00
 -7.43959929E-01  3.09168378E+00  0.00000000E+00 -7.43959929E-01  3.09168378E+00
  0.00000000E+00 -7.43959929E-01  3.09168378E+00  0.00000000E+00 -7.43959929E-01
  3.09168378E+00  0.00000000E+00 -7.43959929E-01  3.09168378E+00  0.00000000E+00
 -7.43959929E-01  3.09168378E+00  0.00000000E+00 -7.43959929E-01  3.09168378E+00
  0.00000000E+00 -7.43959929E-01  3.09168378E+00  0.00000000E+00 -7.43959929E-01
  3.09168378E+00  0.00000000E+00 -7.43959929E-01  3.09168378E+00  0.00000000E+00
 -7.43959929E-01  3.09168378E+00  0.00000000E+00  1.63419696E+00  0.00000000E+00
  9.43504066E-01  1.63419696E+00  0.00000000E+00  9.43504066E-01  1.63419696E+00
  0.00000000E+00  9.43504066E-01  1.63419696E+00  0.00000000E+00  9.43504066E-01
  1.63419696E+00  0.00000000E+00  9.43504066E-01  1.63419696E+00  0.00000000E+00
  9.43504066E-01  1.63419696E+00  0.00000000E+00  9.43504066E-01  1.63419696E+00
  0.00000000E+00  9.43504066E-01  1.63419696E+00  0.00000000E+00  9.43504066E-01
Num ILSW                                   I              100
ILSW                                       I   N=         100
           0           0           0           0           2           0
           0           0           0           0           0          -1
           5           0           0           0           0           0
           0           0           0           0           0           0
           1           1           0           0           0           0
           0           0      100000           0          -1           0
           0           0           0           0           0           0
           0           0           0           1           0           0
           0 -2000000000           1           0           0           0
           0           0           4          52           0           0
           0           0           0           0           0           0
           0           0           0           4           0           1
           0           0           0           0           0           0
           0           0           0           0           0           0
           0           0           0           0           0           0
           0           0           0           0           0           0
           0           0           0           0
Num RLSW                                   I               52
RLSW                                       R   N=          52
  1.00000000E+00  1.00000000E+00  1.00000000E+00  1.00000000E+00  1.00000000E+00
  0.00000000E+00  0.00000000E+00  1.00000000E+00  0.00000000E+00  0.00000000E+00
  0.00000000E+00  0.00000000E+00  1.00000000E+00  0.00000000E+00  0.00000000E+00
  0.00000000E+00  0.00000000E+00  1.00000000E+00  0.00000000E+00  0.00000000E+00
  0.00000000E+00  0.00000000E+00  1.00000000E+00  0.00000000E+00  0.00000000E+00
  0.00000000E+00  0.00000000E+00  1.00000000E+00  0.00000000E+00  0.00000000E+00
  0.00000000E+00  0.00000000E+00  1.00000000E+00  0.00000000E+00  0.00000000E+00
  0.00000000E+00  0.00000000E+00  0.00000000E+00  1.00000000E+00  1.00000000E+00
  0.00000000E+00  1.00000000E+00  0.00000000E+00  0.00000000E+00  0.00000000E+00
  0.00000000E+00  0.00000000E+00  0.00000000E+00  0.00000000E+00  0.00000000E+00
  0.00000000E+00  0.00000000E+00
MxBond                                     I                2
NBond                                      I   N=           4
           2           0           1           1
IBond                                      I   N=           8
           3           4           0           0           1           0
           1           0
RBond                                      R   N=           8
  1.00000000E+00  1.00000000E+00  0.00000000E+00  0.00000000E+00  1.00000000E+00
  0.00000000E+00  1.00000000E+00  0.00000000E+00
Virial Ratio                               R      2.000143407080875E+00
SCF Energy                                 R     -9.945149782121567E+02
MP2 Energy                                 R     -9.951806619105934E+02
Total Energy                               R     -9.951806619105934E+02
Post-SCF wavefunction norm                 R      1.103565551559802E+00
RMS Density                                R      5.507241783323645E-09
Job Status                                 I                1
Nuclear derivative order                   I                0
External E-field                           R   N=          35
  0.00000000E+00  0.00000000E+00  0.00000000E+00  0.00000000E+00  0.00000000E+00
  0.00000000E+00  0.00000000E+00  0.00000000E+00  0.00000000E+00  0.00000000E+00
  0.00000000E+00  0.00000000E+00  0.00000000E+00  0.00000000E+00  0.00000000E+00
  0.00000000E+00  0.00000000E+00  0.00000000E+00  0.00000000E+00  0.00000000E+00
  0.00000000E+00  0.00000000E+00  0.00000000E+00  0.00000000E+00  0.00000000E+00
  0.00000000E+00  0.00000000E+00  0.00000000E+00  0.00000000E+00  0.00000000E+00
  0.00000000E+00  0.00000000E+00  0.00000000E+00  0.00000000E+00  0.00000000E+00
IOpCl                                      I                0
IROHF                                      I                0
Alpha Orbital Energies                     R   N=         169
 -1.04730702E+02 -1.04536000E+02 -2.04638500E+01 -1.04503089E+01 -1.02606523E+01
 -7.91749173E+00 -7.91483156E+00 -7.91469853E+00 -7.72677945E+00 -7.72665068E+00
 -7.72664145E+00 -1.23361758E+00 -8.95701842E-01 -7.72172670E-01 -5.42560643E-01
 -4.43820286E-01 -4.35164921E-01 -3.07953364E-01 -2.80867446E-01 -1.89599977E-01
 -1.83740347E-01 -1.82567326E-01  1.57667275E-01  1.82903939E-01  2.24679728E-01
  2.32465650E-01  2.61201141E-01  2.74314738E-01  2.80696694E-01  2.89920261E-01
  3.04808572E-01  3.18434380E-01  3.38780694E-01  3.47298960E-01  4.07569258E-01
  4.18701077E-01  4.63566134E-01  4.92247195E-01  5.24553426E-01  5.42715709E-01
  5.56456552E-01  5.80852372E-01  5.87247247E-01  6.06272362E-01  6.16552138E-01
  6.25382415E-01  6.59226648E-01  6.67998182E-01  6.74076295E-01  7.01289402E-01
  7.64569691E-01  7.93338744E-01  8.54144559E-01  8.64614418E-01  8.87067739E-01
  8.97752655E-01  9.07318715E-01  9.21945261E-01  9.62026120E-01  9.89663282E-01
  9.98691076E-01  1.06702853E+00  1.08313069E+00  1.09782497E+00  1.09944638E+00
  1.11584018E+00  1.13138377E+00  1.14808891E+00  1.19329851E+00  1.19715051E+00
  1.20284015E+00  1.21583258E+00  1.22394032E+00  1.24596754E+00  1.27025810E+00
  1.29152643E+00  1.31881869E+00  1.34702084E+00  1.39075614E+00  1.41733622E+00
  1.43016079E+00  1.43180415E+00  1.44501141E+00  1.48906646E+00  1.51085907E+00
  1.55874965E+00  1.60926675E+00  1.62882640E+00  1.65588398E+00  1.68735587E+00
  1.71914762E+00  1.74190644E+00  1.77899640E+00  1.85425566E+00  1.85695176E+00
  1.88247381E+00  1.95470872E+00  1.97879714E+00  2.18220809E+00  2.39550545E+00
  2.42634160E+00  2.51273477E+00  2.51994899E+00  2.54270296E+00  2.60494839E+00
  2.63119776E+00  2.64925394E+00  2.68233898E+00  2.70162756E+00  2.71260750E+00
  2.72466308E+00  2.75274085E+00  2.77809468E+00  2.79907157E+00  2.81469125E+00
  2.82559443E+00  2.89139439E+00  2.91402456E+00  2.93094214E+00  2.95618906E+00
  3.00988480E+00  3.02547777E+00  3.07412945E+00  3.11129808E+00  3.18383402E+00
  3.20739659E+00  3.22290696E+00  3.24795585E+00  3.29736142E+00  3.30599490E+00
  3.34074176E+00  3.34865849E+00  3.35907599E+00  3.39582339E+00  3.42808039E+00
  3.48742012E+00  3.50721240E+00  3.52902316E+00  3.56821164E+00  3.59277000E+00
  3.63236773E+00  3.91733347E+00  4.19138325E+00  4.35769709E+00  4.49569802E+00
  4.57532532E+00  4.61889250E+00  4.73974044E+00  4.97877990E+00  5.03461575E+00
  5.36382832E+00  5.44300123E+00  5.68203362E+00  6.21216663E+00  6.45401634E+00
  6.65818555E+00  6.88620998E+00  6.90572055E+00  6.92241117E+00  6.99556354E+00
  7.33810260E+00  7.35005773E+00  7.35858168E+00  7.45163751E+00  7.53587255E+00
  7.75228400E+00  7.76640975E+00  8.37175045E+00  1.44358657E+01
Alpha MO coefficients                      R   N=       28561
  5.97362763E-06  3.27918261E-05  1.51641783E-06 -1.37353570E-04 -8.48064396E-05
 -2.24960545E-09  3.18935414E-06  6.18302147E-07 -9.76570867E-07 -9.73843163E-06
 -2.76204496E-06  5.27769089E-05 -1.51029764E-04  3.07321150E-06  1.41192733E-05
 -3.19606553E-05  3.55661997E-06 -1.96853020E-06  2.28507050E-07  1.17925512E-07
 -2.89657400E-06 -1.37125491E-06  1.33271646E-05 -5.99071384E-07 -7.93129943E-07
  2.06598648E-05  9.40732503E-06  2.53976618E-05  7.84112653E-06 -7.10924342E-06
  5.76921497E-05  1.40450012E-05 -8.55571320E-08 -8.51300696E-08  3.90273256E-07
 -7.35525307E-07  7.34672957E-07 -1.36186912E-06  7.30889799E-07 -9.47766988E-08
 -2.70711507E-06  1.13861329E-05  3.17877268E-06 -3.05249624E-06 -6.10323090E-06
  9.84622024E-06  2.04353377E-07  3.00025535E-06  7.69382496E-06 -1.77230802E-06
 -1.48464860E-05 -1.49283091E-05  7.11826193E-08 -3.10794434E-08 -1.74099338E-08
 -5.30581871E-07 -5.67541081E-08 -1.25229067E-07 -4.79375977E-07  1.00997087E-07
  1.10850508E-07  1.82192295E-05 -8.87985067E-07 -4.21044908E-06  4.38019870E-06
 -2.95476371E-07  8.75281301E-08 -2.20876678E-07 -1.75624598E-07 -1.29766650E-07
  5.47470930E-07 -5.64183700E-08  9.15893896E-07  1.10503423E-06  5.90677302E-07
 -2.08846606E-06  2.09105300E-07  3.29947494E-06  2.13315052E-06 -1.43268697E-06
 -6.24517040E-06  2.21301216E-07  2.11223729E-08 -1.02205585E-07  2.62406699E-07
 -1.57240506E-07 -6.09998939E-07 -6.27587980E-07 -5.70112953E-07  3.58142699E-07
 -5.74148729E-07 -4.22779697E-07 -2.55114298E-07  1.10974917E-06  2.40289347E-06
  8.97264724E-07  9.99534814E-01  1.95401988E-03  1.84491716E-04 -4.17726739E-04
  7.11731741E-05  7.05785989E-05  1.66959893E-05 -7.56046360E-05  2.03584985E-06
  3.58208870E-05 -1.34461805E-04  3.20327218E-06 -1.73194299E-05  7.17397242E-05
 -1.84373389E-06  6.41082990E-06 -5.42764209E-05 -2.49073134E-06  1.71837046E-06
 -1.13673481E-05 -1.13951601E-06 -3.63791877E-06  1.52579930E-07 -1.72212736E-07
 -5.27559187E-06 -3.34069669E-06 -2.81471168E-05  4.97244799E-07 -1.00564925E-06
 -4.30198527E-05 -2.35123285E-05 -2.10217317E-06 -3.31577119E-06  5.25043206E-07
 -8.00405733E-06  3.32192822E-07 -5.59254120E-07 -1.56068406E-06  5.88817911E-06
  3.99151736E-07 -1.10280039E-06 -5.01261432E-06  4.40326583E-06  9.71796519E-07
 -6.54653939E-07  3.36477059E-06 -1.22995999E-06  2.13705814E-06 -3.36365973E-06
  6.40462147E-06 -1.02195331E-06 -2.23816093E-05  2.76540450E-05 -5.34073195E-06
  5.86575293E-07 -2.34654716E-06  3.14972847E-07 -6.08842418E-06  1.64675497E-05
 -3.28846077E-07  8.74799584E-06  1.55927450E-05 -3.74537365E-06 -5.88241823E-07
 -5.70514851E-08 -1.42470927E-07 -1.30530064E-06 -8.99969935E-07 -8.22367225E-06
  1.84670758E-06 -8.41466910E-07  6.41131125E-06 -4.21790248E-06 -4.68871692E-07
 -2.28640699E-06  6.49449987E-08 -1.18394651E-05 -6.88004962E-06  3.16398488E-07
 -4.03220923E-08  4.14516713E-07 -1.40675969E-06  1.42466369E-07 -2.11971790E-06
  1.27670010E-05  7.12108280E-07  1.30714869E-05 -8.76393421E-06  6.63653475E-07
  9.84537588E-06  1.02529287E-07 -4.94827496E-07 -1.02742071E-07  6.13437000E-08
  2.02356643E-07 -9.65462739E-08  2.13422583E-06  3.97486645E-07 -7.17329626E-07
 -7.01058140E-07 -1.18088118E-06  7.64483633E-06  1.43423467E-06  8.55366530E-06
  5.00224331E-06  9.82271915E-08  4.54370746E-07 -3.51316637E-08 -1.01686078E-07
 -2.07952158E-07 -4.93984412E-07 -1.43771055E-08 -1.16189291E-06 -1.42710203E-07
  2.68841910E-08  1.44610933E-06  8.71727955E-07  1.24646461E-06  1.82582007E-07
  9.99531765E-01  1.98129430E-03  2.09209497E-04 -4.21836212E-04 -1.63072382E-04
 -1.13405710E-05 -5.39089800E-06 -3.47127127E-07  4.68239840E-06 -1.57506773E-05
  4.24568995E-07  3.85706788E-06  6.35339550E-06  8.64175392E-08 -3.11946951E-06
  7.36290076E-05 -2.88698328E-06 -1.45447150E-05  1.56937023E-07  4.03035046E-07
 -1.06287535E-06 -5.62824049E-07 -1.11199989E-06 -1.40676988E-07  1.35358405E-06
 -1.82337378E-07  1.34987060E-06  1.78191698E-06  4.27689593E-07 -2.82240524E-06
  4.89797281E-07  1.21034534E-05  9.12172194E-06 -8.49890577E-07 -2.31723571E-05
  1.17153020E-06 -7.88409354E-07  1.41572692E-06  6.60744146E-08  1.01167447E-06
 -1.02713340E-08 -2.54272218E-06  2.77662040E-07  2.91697006E-06 -4.13606090E-06
 -4.68765255E-08 -3.88491989E-06 -3.28118234E-08  7.63211750E-06 -6.89912121E-07
  1.93620640E-07  3.01659594E-06  7.68348417E-06 -1.80527473E-06 -1.22365431E-05
 -1.41951799E-05 -1.02857358E-07 -7.12717573E-08 -3.71979391E-08  2.44934948E-08
 -1.33338145E-06 -3.47656526E-07  5.01763881E-07  5.24793192E-08  1.71240509E-07
 -1.56565751E-05  7.57964885E-06 -3.35640677E-06 -6.84267199E-07  2.08918021E-06
 -2.48753272E-06 -7.55130710E-08 -1.80493872E-08 -2.01100848E-07  2.68012193E-07
 -6.79290373E-07  5.10608739E-07 -2.13308258E-07  1.00844227E-06 -5.01911821E-07
  2.66177490E-06  3.44780185E-06 -2.16936213E-06  1.17497783E-06 -4.38877623E-06
  4.36785862E-06 -9.52999954E-08  3.88188982E-07 -3.18451896E-08  5.01094911E-08
 -3.84837346E-08  2.10667041E-07 -7.76863009E-07  5.33564171E-07 -1.16705620E-07
 -5.27788497E-07  1.64986181E-07  7.71612493E-07  9.44209945E-08  2.00823807E-06
 -1.55787940E-06 -2.49802602E-05  1.30609661E-04  7.11971655E-07 -1.54521857E-07
 -2.15500896E-07  1.14363445E-06  7.87073254E-06 -1.49858695E-06 -5.47190198E-06
  3.96725118E-05  1.54530127E-05 -3.69299161E-05  4.83842620E-07  4.15003201E-07
  4.38725131E-07  3.67192777E-07  2.01316350E-07 -6.55849285E-06  1.71461085E-06
 -2.46113739E-06  1.15246686E-05 -1.52449521E-06  9.76828700E-01 -9.11038116E-03
  4.33781618E-02  2.16864547E-03  4.99652237E-04  6.77127230E-04  1.55992017E-03
  7.69488201E-04 -7.80273964E-04 -1.20844533E-03 -7.30467504E-04 -1.40980959E-04
  7.02448804E-04 -2.35344034E-04 -1.20748676E-04  1.60958916E-04 -9.13493408E-05
  5.03343658E-05  2.43116518E-05 -5.11726446E-07  1.01324053E-04  4.21343208E-05
  2.50506167E-04 -4.03567445E-04 -1.96103356E-05  9.71898405E-05  1.74517931E-04
 -2.02005232E-04 -3.03622249E-05  1.46953555E-05 -1.71595096E-04 -1.70966465E-04
  8.24148039E-06 -8.92063194E-06  1.49264116E-05 -2.75364570E-06 -1.15511020E-05
 -1.05138711E-05  1.05426569E-05  4.06620116E-05 -4.50496869E-05 -6.16540230E-06
 -1.04084109E-04 -2.70637890E-05 -5.58638253E-05 -4.81918577E-05 -9.55983150E-07
 -5.54134206E-06 -2.40324064E-05  5.17819009E-06 -7.56389741E-06  3.28641538E-05
 -3.02745673E-06  8.10208228E-08 -6.46351590E-08  2.62019936E-05 -2.64019540E-06
  7.59344505E-06  8.39449340E-06 -3.34782716E-07  4.08684230E-06 -2.42764171E-05
  3.30590295E-05 -2.44958961E-04 -1.19757431E-05 -1.01488515E-05 -1.83817035E-05
  9.36666928E-06 -1.10714673E-05  1.50436871E-06 -5.26824778E-06  4.42637906E-06
 -2.49684373E-05  5.42816787E-05 -6.26379088E-06  1.08650485E-05 -1.26156820E-05
 -7.96424230E-05  1.96012226E-04  1.51202433E-05 -8.72047617E-06  8.50989240E-07
 -5.04822906E-06 -1.98935236E-05 -4.34238002E-06  2.40176144E-05  4.09459165E-06
 -1.93973844E-05  1.10478254E-06  3.82136510E-05  8.99761411E-05  7.38579062E-06
 -9.24674496E-05 -6.77289552E-06  2.46884977E-05 -5.11656449E-07  4.47995852E-06
  7.18009822E-05  8.50835913E-05 -2.74856282E-04 -9.49344366E-05 -4.95571951E-04
 -4.96427099E-06 -5.10016546E-06 -2.94015802E-06  3.09318587E-05 -5.29584128E-04
 -4.66205522E-05 -3.28355782E-05  2.45029207E-04  1.32358496E-05  1.92991445E-04
  4.45408776E-04  8.92092446E-05 -2.05124494E-05  1.11358006E-04  1.79143454E-05
  1.34127595E-05 -3.35507855E-06 -1.23236062E-06  8.76366668E-06  1.00312705E-05
 -2.95840562E-04  3.98218620E-06  3.24085840E-05 -4.43394910E-04 -1.91691017E-04
  1.25626196E-04  4.12219312E-05 -5.78133128E-05  3.33530808E-04 -2.97957419E-05
  1.14594963E-05 -3.18670077E-05  1.61942372E-04  1.62205533E-06  7.99127617E-06
 -1.29240889E-04  1.88723161E-04 -1.67510812E-05 -3.30177849E-05  9.57497379E-05
  1.86758692E-05 -1.80374372E-05 -7.20491705E-05  4.33002023E-05  3.76473861E-04
  1.40031732E-03 -2.78886575E-04  1.61300928E-05 -2.23029453E-04  5.14472307E-05
 -1.31137489E-04 -9.85348384E-04 -7.33635289E-06 -3.94441976E-04  3.85222665E-05
 -2.25746829E-04  4.09254376E-04 -1.96588611E-05 -2.77623895E-05 -3.75179199E-05
  9.37593763E-06 -5.91764365E-05 -2.20601865E-04  4.85585479E-04  1.09233686E-05
  5.58530252E-04  3.41518254E-05 -7.70192620E-05 -9.93159071E-05 -1.02661942E-04
  2.50352663E-03  1.95749719E-03 -2.16570067E-05  3.77208133E-05 -9.75636100E-06
 -8.85188709E-05  5.86066893E-04  4.81576063E-05 -6.83133876E-04  2.46509810E-03
  4.87982428E-05 -3.12120685E-04  7.99093439E-04 -8.42711351E-05 -2.83584222E-05
 -5.93096205E-06 -7.20415239E-06 -4.60724566E-05 -3.45064541E-05 -1.72297680E-04
  3.71946261E-05  5.52600602E-05 -2.56159214E-04 -4.78491882E-05 -2.65408173E-04
 -9.16635518E-05  1.60786408E-04 -7.50185575E-04  1.85682674E-05 -4.48146094E-06
  7.40966939E-06 -2.64239474E-05  1.59129654E-05 -9.48109321E-06  4.34837195E-05
 -3.53393177E-05  2.68635143E-06  1.54913266E-05 -5.27989239E-06 -3.49850408E-05
  1.15602674E-04 -5.22835520E-05  1.00878875E-04 -3.36403631E-06 -4.60400518E-05
 -1.25016435E-04  2.20773340E-05  2.31059620E-04  2.92863245E-04 -7.46985205E-07
  4.84859925E-07  4.39861182E-07  1.36646732E-05 -1.01239622E-05  3.97571873E-06
  7.58808799E-06 -4.22746611E-07 -2.70229363E-06 -3.39195904E-04  5.94006458E-05
  6.42959104E-05 -1.33850113E-04  6.38761908E-05 -2.98368345E-05  1.40238632E-06
  6.13515833E-06  4.04850973E-06 -9.69942676E-06 -1.05467443E-06 -6.02763519E-06
 -2.86732336E-05 -1.72388223E-05  3.77382104E-05  7.14703961E-06 -9.67637827E-05
 -1.69065420E-05  4.08736199E-05  1.20681373E-04 -6.75461934E-05 -6.57375936E-07