title                                                                   
SP        RMP2-FC                                                     Aug-CC-pVTZ         
Number of atoms                            I                4
Info1-9                                    I   N=           9
          41          13           0           0           0         110
           1           2           1
Full Title                                 C   N=           1
title       
Route                                      C   N=           4
#p SP NoSymm mp2/aug-cc-pvtz density=current    
Charge                                     I               -1
Multiplicity                               I                1
Number of electrons                        I               44
Number of alpha electrons                  I               22
Number of beta electrons                   I               22
Number of basis functions                  I              169
Number of independent functions            I              169
Number of point charges in /Mol/           I                0
Number of translation vectors              I                0
Atomic numbers                             I   N=           4
           8          17          17           1
Nuclear charges                            R   N=           4
  8.00000000E+00  1.70000000E+01  1.70000000E+01  1.00000000E+00
Current cartesian coordinates              R   N=          12
  0.00000000E+00  0.00000000E+00  0.00000000E+00  5.48904212E+00  0.00000000E+00
  0.00000000E+00 -7.43959853E-01  3.09168378E+00  0.00000000E+00  1.87722218E+00
  0.00000000E+00  5.03000176E-01
Number of symbols in /Mol/                 I                0
Force Field                                I                0
Atom Types                                 C   N=           4
                                                
Int Atom Types                             I   N=           4
           0           0           0           0
MM charges                                 R   N=           4
  0.00000000E+00  0.00000000E+00  0.00000000E+00  0.00000000E+00
Integer atomic weights                     I   N=           4
          16          35          35           1
Real atomic weights                        R   N=           4
  1.59949146E+01  3.49688527E+01  3.49688527E+01  1.00782504E+00
Atom fragment info                         I   N=           4
           0           0           0           0
Atom residue num                           I   N=           4
           0           0           0           0
Nuclear spins                              I   N=           4
           0           3           3           1
Nuclear ZEff                               R   N=           4
 -5.60000000E+00 -1.42400000E+01 -1.42400000E+01 -1.00000000E+00
Nuclear ZNuc                               R   N=           4
  8.00000000E+00  1.70000000E+01  1.70000000E+01  1.00000000E+00
Nuclear QMom                               R   N=           4
  0.00000000E+00 -8.16500000E+00 -8.16500000E+00  0.00000000E+00
Nuclear GFac                               R   N=           4
  0.00000000E+00  8.21874000E-01  8.21874000E-01  2.79284600E+00
MicOpt                                     I   N=           4
          -1          -1          -1          -1
Number of residues                         I                0
Number of secondary structures             I                0
SymInf integers                            I   N=          26
           1           1           1           1           1           0
           0           0           0           0           0           0
           0           0           0           0           0           0
           0           0           0           0           0           0
           0           0
RotTr to input orientation                 R   N=          12
 -9.19796308E-01  3.92395822E-01 -5.20075430E-04 -3.92358983E-01 -9.19690093E-01
  1.49853548E-02  5.40188242E-03  1.39875303E-02  9.99887578E-01  1.91961909E+00
  1.22229359E+00  1.16976785E-02
Number of contracted shells                I               55
Number of primitive shells                 I              140
Pure/Cartesian d shells                    I                0
Pure/Cartesian f shells                    I                0
Highest angular momentum                   I                3
Largest degree of contraction              I               11
Shell types                                I   N=          55
           0           0           0           0           0           1
           1           1           1          -2          -2          -2
          -3          -3           0           0           0           0
           0           0           1           1           1           1
           1          -2          -2          -2          -3          -3
           0           0           0           0           0           0
           1           1           1           1           1          -2
          -2          -2          -3          -3           0           0
           0           0           1           1           1          -2
          -2
Number of primitives per shell             I   N=          55
           7           6           1           1           1           3
           1           1           1           1           1           1
           1           1          11           9           8           1
           1           1           6           6           1           1
           1           1           1           1           1           1
          11           9           8           1           1           1
           6           6           1           1           1           1
           1           1           1           1           3           1
           1           1           1           1           1           1
           1
Shell to atom map                          I   N=          55
           1           1           1           1           1           1
           1           1           1           1           1           1
           1           1           2           2           2           2
           2           2           2           2           2           2
           2           2           2           2           2           2
           3           3           3           3           3           3
           3           3           3           3           3           3
           3           3           3           3           4           4
           4           4           4           4           4           4
           4
Primitive exponents                        R   N=         140
  1.53300000E+04  2.29900000E+03  5.22400000E+02  1.47300000E+02  4.75500000E+01
  1.67600000E+01  6.20700000E+00  5.22400000E+02  1.47300000E+02  4.75500000E+01
  1.67600000E+01  6.20700000E+00  6.88200000E-01  1.75200000E+00  2.38400000E-01
  7.37600000E-02  3.44600000E+01  7.74900000E+00  2.28000000E+00  7.15600000E-01
  2.14000000E-01  5.97400000E-02  2.31400000E+00  6.45000000E-01  2.14000000E-01
  1.42800000E+00  5.00000000E-01  4.56100000E+05  6.83300000E+04  1.55500000E+04
  4.40500000E+03  1.43900000E+03  5.20400000E+02  2.03100000E+02  8.39600000E+01
  3.62000000E+01  1.58300000E+01  6.33400000E+00  4.40500000E+03  1.43900000E+03
  5.20400000E+02  2.03100000E+02  8.39600000E+01  3.62000000E+01  1.58300000E+01
  6.33400000E+00  2.69400000E+00  1.43900000E+03  2.03100000E+02  8.39600000E+01
  3.62000000E+01  1.58300000E+01  6.33400000E+00  2.69400000E+00  4.31300000E-01
  9.76800000E-01  1.62500000E-01  5.91000000E-02  6.63300000E+02  1.56800000E+02
  4.99800000E+01  1.84200000E+01  7.24000000E+00  2.92200000E+00  1.56800000E+02
  4.99800000E+01  1.84200000E+01  7.24000000E+00  2.92200000E+00  3.81800000E-01
  1.02200000E+00  1.30100000E-01  4.19000000E-02  1.04600000E+00  3.44000000E-01
  1.35000000E-01  7.06000000E-01  3.12000000E-01  4.56100000E+05  6.83300000E+04
  1.55500000E+04  4.40500000E+03  1.43900000E+03  5.20400000E+02  2.03100000E+02
  8.39600000E+01  3.62000000E+01  1.58300000E+01  6.33400000E+00  4.40500000E+03
  1.43900000E+03  5.20400000E+02  2.03100000E+02  8.39600000E+01  3.62000000E+01
  1.58300000E+01  6.33400000E+00  2.69400000E+00  1.43900000E+03  2.03100000E+02
  8.39600000E+01  3.62000000E+01  1.58300000E+01  6.33400000E+00  2.69400000E+00
  4.31300000E-01  9.76800000E-01  1.62500000E-01  5.91000000E-02  6.63300000E+02
  1.56800000E+02  4.99800000E+01  1.84200000E+01  7.24000000E+00  2.92200000E+00
  1.56800000E+02  4.99800000E+01  1.84200000E+01  7.24000000E+00  2.92200000E+00
  3.81800000E-01  1.02200000E+00  1.30100000E-01  4.19000000E-02  1.04600000E+00
  3.44000000E-01  1.35000000E-01  7.06000000E-01  3.12000000E-01  3.38700000E+01
  5.09500000E+00  1.15900000E+00  3.25800000E-01  1.02700000E-01  2.52600000E-02
  1.40700000E+00  3.88000000E-01  1.02000000E-01  1.05700000E+00  2.47000000E-01
Contraction coefficients                   R   N=         140
  5.19808943E-04  4.02025621E-03  2.07128267E-02  8.10105536E-02  2.35962985E-01
  4.42653446E-01  3.57064423E-01 -4.42115008E-05 -1.22591041E-03 -1.05517725E-02
 -6.74452633E-02 -1.71198607E-01  1.07329856E+00  1.00000000E+00  1.00000000E+00
  1.00000000E+00  4.11634896E-02  2.57762836E-01  8.02419274E-01  1.00000000E+00
  1.00000000E+00  1.00000000E+00  1.00000000E+00  1.00000000E+00  1.00000000E+00
  1.00000000E+00  1.00000000E+00  4.93229477E-05  3.83207967E-04  2.00947816E-03
  8.38950124E-03  2.94843950E-02  8.78759948E-02  2.11589759E-01  3.65611554E-01
  3.41246350E-01  1.02162570E-01  2.14249949E-03 -2.21747925E-06 -1.71189708E-04
 -1.27922846E-03 -9.32956265E-03 -3.98910062E-02 -1.05536085E-01  9.36202446E-03
  5.10511140E-01  5.73150737E-01  4.03949245E-06  2.12481765E-04  8.59484452E-04
  4.63248159E-03  4.47343490E-04 -7.38438245E-02 -3.62271994E-01  1.16620337E+00
  1.00000000E+00  1.00000000E+00  1.00000000E+00  2.47206402E-03  1.97550234E-02
  9.09917355E-02  2.63187834E-01  4.49078073E-01  3.60183072E-01  3.03427809E-05
 -1.22475826E-03 -6.01429772E-03 -2.76401323E-02  4.35105612E-04  1.00307272E+00
  1.00000000E+00  1.00000000E+00  1.00000000E+00  1.00000000E+00  1.00000000E+00
  1.00000000E+00  1.00000000E+00  1.00000000E+00  4.93229477E-05  3.83207967E-04
  2.00947816E-03  8.38950124E-03  2.94843950E-02  8.78759948E-02  2.11589759E-01
  3.65611554E-01  3.41246350E-01  1.02162570E-01  2.14249949E-03 -2.21747925E-06
 -1.71189708E-04 -1.27922846E-03 -9.32956265E-03 -3.98910062E-02 -1.05536085E-01
  9.36202446E-03  5.10511140E-01  5.73150737E-01  4.03949245E-06  2.12481765E-04
  8.59484452E-04  4.63248159E-03  4.47343490E-04 -7.38438245E-02 -3.62271994E-01
  1.16620337E+00  1.00000000E+00  1.00000000E+00  1.00000000E+00  2.47206402E-03
  1.97550234E-02  9.09917355E-02  2.63187834E-01  4.49078073E-01  3.60183072E-01
  3.03427809E-05 -1.22475826E-03 -6.01429772E-03 -2.76401323E-02  4.35105612E-04
  1.00307272E+00  1.00000000E+00  1.00000000E+00  1.00000000E+00  1.00000000E+00
  1.00000000E+00  1.00000000E+00  1.00000000E+00  1.00000000E+00  2.54948632E-02
  1.90362766E-01  8.52162022E-01  1.00000000E+00  1.00000000E+00  1.00000000E+00
  1.00000000E+00  1.00000000E+00  1.00000000E+00  1.00000000E+00  1.00000000E+00
Coordinates of each shell                  R   N=         165
  0.00000000E+00  0.00000000E+00  0.00000000E+00  0.00000000E+00  0.00000000E+00
  0.00000000E+00  0.00000000E+00  0.00000000E+00  0.00000000E+00  0.00000000E+00
  0.00000000E+00  0.00000000E+00  0.00000000E+00  0.00000000E+00  0.00000000E+00
  0.00000000E+00  0.00000000E+00  0.00000000E+00  0.00000000E+00  0.00000000E+00
  0.00000000E+00  0.00000000E+00  0.00000000E+00  0.00000000E+00  0.00000000E+00
  0.00000000E+00  0.00000000E+00  0.00000000E+00  0.00000000E+00  0.00000000E+00
  0.00000000E+00  0.00000000E+00  0.00000000E+00  0.00000000E+00  0.00000000E+00
  0.00000000E+00  0.00000000E+00  0.00000000E+00  0.00000000E+00  0.00000000E+00
  0.00000000E+00  0.00000000E+00  5.48904212E+00  0.00000000E+00  0.00000000E+00
  5.48904212E+00  0.00000000E+00  0.00000000E+00  5.48904212E+00  0.00000000E+00
  0.00000000E+00  5.48904212E+00  0.00000000E+00  0.00000000E+00  5.48904212E+00
  0.00000000E+00  0.00000000E+00  5.48904212E+00  0.00000000E+00  0.00000000E+00
  5.48904212E+00  0.00000000E+00  0.00000000E+00  5.48904212E+00  0.00000000E+00
  0.00000000E+00  5.48904212E+00  0.00000000E+00  0.00000000E+00  5.48904212E+00
  0.00000000E+00  0.00000000E+00  5.48904212E+00  0.00000000E+00  0.00000000E+00
  5.48904212E+00  0.00000000E+00  0.00000000E+00  5.48904212E+00  0.00000000E+00
  0.00000000E+00  5.48904212E+00  0.00000000E+00  0.00000000E+00  5.48904212E+00
  0.00000000E+00  0.00000000E+00  5.48904212E+00  0.00000000E+00  0.00000000E+00
 -7.43959853E-01  3.09168378E+00  0.00000000E+00 -7.43959853E-01  3.09168378E+00
  0.00000000E+00 -7.43959853E-01  3.09168378E+00  0.00000000E+00 -7.43959853E-01
  3.09168378E+00  0.00000000E+00 -7.43959853E-01  3.09168378E+00  0.00000000E+00
 -7.43959853E-01  3.09168378E+00  0.00000000E+00 -7.43959853E-01  3.09168378E+00
  0.00000000E+00 -7.43959853E-01  3.09168378E+00  0.00000000E+00 -7.43959853E-01
  3.09168378E+00  0.00000000E+00 -7.43959853E-01  3.09168378E+00  0.00000000E+00
 -7.43959853E-01  3.09168378E+00  0.00000000E+00 -7.43959853E-01  3.09168378E+00
  0.00000000E+00 -7.43959853E-01  3.09168378E+00  0.00000000E+00 -7.43959853E-01
  3.09168378E+00  0.00000000E+00 -7.43959853E-01  3.09168378E+00  0.00000000E+00
 -7.43959853E-01  3.09168378E+00  0.00000000E+00  1.87722218E+00  0.00000000E+00
  5.03000176E-01  1.87722218E+00  0.00000000E+00  5.03000176E-01  1.87722218E+00
  0.00000000E+00  5.03000176E-01  1.87722218E+00  0.00000000E+00  5.03000176E-01
  1.87722218E+00  0.00000000E+00  5.03000176E-01  1.87722218E+00  0.00000000E+00
  5.03000176E-01  1.87722218E+00  0.00000000E+00  5.03000176E-01  1.87722218E+00
  0.00000000E+00  5.03000176E-01  1.87722218E+00  0.00000000E+00  5.03000176E-01
Num ILSW                                   I              100
ILSW                                       I   N=         100
           0           0           0           0           2           0
           0           0           0           0           0          -1
           5           0           0           0           0           0
           0           0           0           0           0           0
           1           1           0           0           0           0
           0           0      100000           0          -1           0
           0           0           0           0           0           0
           0           0           0           1           0           0
           0 -2000000000           1           0           0           0
           0           0           4          52           0           0
           0           0           0           0           0           0
           0           0           0           4           0           1
           0           0           0           0           0           0
           0           0           0           0           0           0
           0           0           0           0           0           0
           0           0           0           0           0           0
           0           0           0           0
Num RLSW                                   I               52
RLSW                                       R   N=          52
  1.00000000E+00  1.00000000E+00  1.00000000E+00  1.00000000E+00  1.00000000E+00
  0.00000000E+00  0.00000000E+00  1.00000000E+00  0.00000000E+00  0.00000000E+00
  0.00000000E+00  0.00000000E+00  1.00000000E+00  0.00000000E+00  0.00000000E+00
  0.00000000E+00  0.00000000E+00  1.00000000E+00  0.00000000E+00  0.00000000E+00
  0.00000000E+00  0.00000000E+00  1.00000000E+00  0.00000000E+00  0.00000000E+00
  0.00000000E+00  0.00000000E+00  1.00000000E+00  0.00000000E+00  0.00000000E+00
  0.00000000E+00  0.00000000E+00  1.00000000E+00  0.00000000E+00  0.00000000E+00
  0.00000000E+00  0.00000000E+00  0.00000000E+00  1.00000000E+00  1.00000000E+00
  0.00000000E+00  1.00000000E+00  0.00000000E+00  0.00000000E+00  0.00000000E+00
  0.00000000E+00  0.00000000E+00  0.00000000E+00  0.00000000E+00  0.00000000E+00
  0.00000000E+00  0.00000000E+00
MxBond                                     I                2
NBond                                      I   N=           4
           2           0           1           1
IBond                                      I   N=           8
           3           4           0           0           1           0
           1           0
RBond                                      R   N=           8
  1.00000000E+00  1.00000000E+00  0.00000000E+00  0.00000000E+00  1.00000000E+00
  0.00000000E+00  1.00000000E+00  0.00000000E+00
Virial Ratio                               R      2.000168831766809E+00
SCF Energy                                 R     -9.945208253477796E+02
MP2 Energy                                 R     -9.951888176649549E+02
Total Energy                               R     -9.951888176649549E+02
Post-SCF wavefunction norm                 R      1.103963799620758E+00
RMS Density                                R      4.087911948828008E-09
Job Status                                 I                1
Nuclear derivative order                   I                0
External E-field                           R   N=          35
  0.00000000E+00  0.00000000E+00  0.00000000E+00  0.00000000E+00  0.00000000E+00
  0.00000000E+00  0.00000000E+00  0.00000000E+00  0.00000000E+00  0.00000000E+00
  0.00000000E+00  0.00000000E+00  0.00000000E+00  0.00000000E+00  0.00000000E+00
  0.00000000E+00  0.00000000E+00  0.00000000E+00  0.00000000E+00  0.00000000E+00
  0.00000000E+00  0.00000000E+00  0.00000000E+00  0.00000000E+00  0.00000000E+00
  0.00000000E+00  0.00000000E+00  0.00000000E+00  0.00000000E+00  0.00000000E+00
  0.00000000E+00  0.00000000E+00  0.00000000E+00  0.00000000E+00  0.00000000E+00
IOpCl                                      I                0
IROHF                                      I                0
Alpha Orbital Energies                     R   N=         169
 -1.04723911E+02 -1.04546650E+02 -2.04524117E+01 -1.04434716E+01 -1.02714690E+01
 -7.91064151E+00 -7.90804383E+00 -7.90794024E+00 -7.73762855E+00 -7.73745594E+00
 -7.73745426E+00 -1.21809684E+00 -8.87045657E-01 -7.85520491E-01 -5.28686103E-01
 -4.33936548E-01 -4.25674273E-01 -3.01234643E-01 -2.72890657E-01 -2.01911697E-01
 -1.94405368E-01 -1.93884432E-01  1.60558734E-01  1.85805582E-01  2.25775379E-01
  2.34427825E-01  2.58848120E-01  2.73017840E-01  2.76885976E-01  2.95387139E-01
  3.13339260E-01  3.17572621E-01  3.39693861E-01  3.49306368E-01  3.96642347E-01
  4.38983515E-01  4.64705075E-01  5.07679616E-01  5.22369320E-01  5.42678150E-01
  5.58645647E-01  5.77622866E-01  5.86861587E-01  6.02566553E-01  6.08783640E-01
  6.55366471E-01  6.60736804E-01  6.70188427E-01  6.80537488E-01  7.35500831E-01
  7.75552781E-01  7.88062455E-01  8.36799574E-01  8.66688096E-01  8.95952811E-01
  9.01416780E-01  9.12874795E-01  9.15427595E-01  9.66948403E-01  9.99778869E-01
  1.02654616E+00  1.06365693E+00  1.07586187E+00  1.09249037E+00  1.10143536E+00
  1.10295484E+00  1.14183758E+00  1.15851896E+00  1.18371964E+00  1.18814355E+00
  1.19464034E+00  1.21274229E+00  1.22618637E+00  1.24703232E+00  1.28449721E+00
  1.30292144E+00  1.33247234E+00  1.36973130E+00  1.40310698E+00  1.42702052E+00
  1.43262472E+00  1.44411539E+00  1.48966013E+00  1.51621690E+00  1.53879873E+00
  1.59853379E+00  1.63999864E+00  1.65959141E+00  1.68757525E+00  1.69323943E+00
  1.72747022E+00  1.74657004E+00  1.82598219E+00  1.85774241E+00  1.86314090E+00
  1.89771956E+00  1.94232345E+00  1.98899342E+00  2.26187052E+00  2.41221844E+00
  2.47270224E+00  2.51908196E+00  2.52901940E+00  2.56625779E+00  2.61562748E+00
  2.64010505E+00  2.65893230E+00  2.68840200E+00  2.71339953E+00  2.72455371E+00
  2.73309559E+00  2.76250947E+00  2.78338956E+00  2.79628557E+00  2.80144959E+00
  2.82304499E+00  2.91025222E+00  2.92461461E+00  2.93970761E+00  2.97555689E+00
  3.05223304E+00  3.10110274E+00  3.10859793E+00  3.13416962E+00  3.21365559E+00
  3.22461174E+00  3.23033650E+00  3.27382085E+00  3.30088232E+00  3.33115559E+00
  3.33622150E+00  3.36081692E+00  3.39054090E+00  3.39839618E+00  3.41559730E+00
  3.50046289E+00  3.51496009E+00  3.54076754E+00  3.56896256E+00  3.59556915E+00
  3.66191639E+00  3.93356039E+00  4.25829070E+00  4.32395458E+00  4.47760487E+00
  4.54579097E+00  4.57679059E+00  4.76989942E+00  4.98235174E+00  5.09943560E+00
  5.31919076E+00  5.44756669E+00  5.65318415E+00  6.30603216E+00  6.55047900E+00
  6.60017420E+00  6.88395414E+00  6.91097683E+00  6.93275358E+00  7.00847169E+00
  7.30080211E+00  7.31719156E+00  7.35916479E+00  7.45342040E+00  7.56581283E+00
  7.78142887E+00  7.80194180E+00  8.34545354E+00  1.42664948E+01
Alpha MO coefficients                      R   N=       28561
  5.29363815E-06  2.94894674E-05  2.21920650E-06 -1.49527814E-04 -1.01617407E-04
  3.52335834E-07  3.02074183E-06  4.88940801E-07 -3.79226483E-06 -9.04543801E-06
 -2.43304749E-06  4.99032866E-05 -1.51008134E-04  6.75517815E-07  1.16956342E-05
 -3.60522650E-05  1.64671937E-06 -2.11294655E-06  1.87331489E-07  3.05713044E-08
 -3.02269460E-06 -1.42535921E-06  1.41379659E-05 -1.03095138E-06 -2.79649272E-07
  2.04095217E-05  9.68576313E-06  2.50155930E-05  3.80847029E-06 -2.42468624E-06
  5.90018249E-05  1.31189210E-05 -1.47239410E-07 -2.06998018E-07  1.22888381E-09
 -4.02298481E-07  3.29541975E-07 -1.67152832E-06  9.67166980E-07  2.79395151E-07
 -2.80917630E-06  1.28759826E-05  1.56599972E-06 -1.44217099E-06 -5.11948730E-06
  8.90328938E-06  1.74087921E-07  2.45797648E-06  6.36131105E-06 -1.20630961E-06
 -1.94363432E-05 -1.21253574E-05  2.12192380E-07  5.46144955E-09 -9.20117066E-08
  2.26632752E-06  7.68629848E-07 -9.63864752E-07 -9.16874687E-07 -1.19433955E-08
  3.97633828E-07  1.75852517E-05 -5.14188987E-06 -3.67273092E-06  3.89175356E-06
 -3.09982301E-07  2.68966081E-07 -2.05735424E-07 -3.56107084E-07 -8.23553992E-08
  2.65523869E-07 -4.00565908E-07  1.23661015E-06  1.88700326E-06  4.18292867E-07
 -2.02353544E-06  9.35399466E-07  3.18123331E-06  1.74049080E-06 -1.42141187E-06
 -5.09351877E-06  3.19250595E-06 -1.62999024E-07  6.91482064E-09  1.48276715E-08
 -3.62053768E-08 -5.66994412E-07 -1.65384289E-07  2.18490326E-07  9.22484471E-07
 -6.61752124E-07  2.45836149E-07 -6.74292723E-07  1.17635745E-06  8.57056926E-07
 -1.45027246E-06  9.99534796E-01  1.95445554E-03  1.85013951E-04 -4.18196813E-04
  7.10329581E-05  7.45744627E-05  1.73330782E-05 -7.46887477E-05  1.13723895E-06
  3.70894573E-05 -1.33872011E-04  1.90278043E-06 -1.79563035E-05  7.11587377E-05
 -1.06376201E-06  3.43775043E-06 -5.61038697E-05 -2.77703581E-06  2.30175469E-06
 -1.15406504E-05 -8.08563867E-07 -3.59187711E-06  6.86056764E-08 -1.23911594E-07
 -4.91052082E-06 -3.30649101E-06 -2.83603473E-05  3.57370698E-07 -4.57711898E-07
 -4.33935389E-05 -2.37931175E-05 -1.07740443E-06 -2.55567127E-06  1.02957754E-06
 -9.73600101E-06  1.00822846E-06 -4.49300570E-07 -1.94976240E-06  6.13851562E-06
  2.81719230E-07 -6.61601677E-07 -4.68373885E-06  4.02087964E-06  9.04417108E-07
  2.75627120E-07  3.00248138E-06 -7.68615513E-07  1.38340597E-06 -4.13554866E-06
  7.31439573E-06 -1.51018542E-06 -1.81674635E-05  5.11958440E-05 -6.56863051E-06
  6.48195232E-07 -2.57581744E-06  1.02062813E-07 -8.98287101E-06  1.54677193E-05
 -1.05689368E-06  3.18625708E-06  2.22647198E-05 -2.42832365E-06 -5.25270351E-07
  3.88245642E-08 -3.13898380E-08 -5.97364204E-07 -9.59802957E-07 -1.33686242E-05
  3.30578931E-06 -1.27337408E-06  8.99731747E-06 -1.79503205E-06  8.95540285E-07
  5.12893940E-06 -2.01983795E-07  1.54429038E-06  3.23777759E-05  2.19827226E-07
 -1.75111889E-08 -1.04253785E-07  8.62395212E-07  8.87596411E-08  6.41881896E-07
 -2.96907708E-05 -1.12162204E-06  1.96913866E-05 -2.34379408E-06 -1.82341591E-06
  1.24562101E-05 -4.55431721E-07 -4.60587170E-07 -9.41706029E-08  5.17262690E-07
  1.09073059E-07  2.55085324E-06  3.15077996E-06  3.36716342E-07 -2.74793515E-06
 -3.93726445E-07  1.10639668E-05  3.51122634E-06 -5.18401445E-07 -1.20268273E-05
  2.70236771E-06 -5.74269368E-07  9.90888165E-08  7.40304247E-08  4.15264331E-07
 -1.17350421E-07 -1.83190471E-07 -1.20345979E-07  3.49809313E-07  2.84658524E-06
 -2.22590696E-07  7.75997351E-07  3.42207199E-07 -1.40102509E-06  3.36622997E-07
  9.99531788E-01  1.98415973E-03  2.13990049E-04 -4.25410238E-04 -1.69994476E-04
 -3.17556385E-05 -9.53703631E-06 -3.96836509E-07  3.55400897E-06 -2.59839828E-05
  1.66705147E-07  4.76703929E-06  1.14639835E-05  1.90816201E-07 -3.07961831E-06
  8.13757356E-05 -2.42589396E-06 -1.08683050E-05  5.83631875E-06  3.42518235E-07
 -1.14605405E-06 -6.58280075E-07 -3.10749729E-07 -9.01831413E-08  9.04516600E-07
 -1.59892055E-07 -2.60976170E-07 -1.03276650E-06  2.90549073E-07  1.56631932E-06
  4.40552011E-07  1.19355821E-05  6.70274165E-06 -4.65673728E-07 -2.27346345E-05
  7.51078087E-07 -6.27182203E-07  1.24273921E-06  1.12927725E-07  7.18929336E-07
  3.68705838E-10 -1.98961931E-06  8.78554589E-08  1.57727872E-06 -3.62752618E-06
 -1.68610650E-07 -1.86214809E-06 -7.86956116E-08  5.33784382E-06 -2.43549485E-07
  1.14500072E-07  1.94240099E-06  4.79718453E-06 -1.53703909E-06 -4.31855796E-06
 -1.27538910E-05  1.19473361E-07 -4.00021881E-08 -2.67434727E-08  2.66604857E-06
 -8.39701206E-07 -1.52450564E-07 -4.05501353E-07  8.39307414E-08  1.02139297E-07
 -1.37433859E-05  4.89265257E-06  4.25994579E-07 -7.25643689E-07  3.12150368E-06
 -2.68386865E-06 -9.20322108E-08  1.38039245E-07 -6.34942248E-08  1.95878693E-07
 -5.09563698E-07 -4.65319100E-08 -3.94606683E-07  7.73139693E-08 -2.12041671E-07
  1.09457792E-06  3.90084820E-06  1.41211351E-07  1.69449396E-07 -4.36173588E-06
  5.16164565E-06 -4.04295258E-07 -1.69327039E-07  6.68595603E-08  1.25286088E-07
  6.47991603E-08  2.10411980E-08 -7.08935155E-07  8.29716543E-07  1.00186588E-06
 -3.34200343E-07 -4.12217851E-07  7.15896465E-08 -8.18708109E-08  2.12158873E-06
 -2.31327169E-07  3.50092315E-05  7.43287340E-05  7.33075805E-07 -1.18487566E-07
 -3.28147470E-07  1.15781419E-06  5.64041284E-06  2.33391395E-07 -1.66928369E-05
  9.39671896E-05  1.34688939E-05 -2.47978512E-05  1.12172831E-06  2.19871511E-06
  2.37430857E-07 -5.17328918E-07 -1.02630060E-08  5.85534927E-06  6.37426410E-06
 -1.33907292E-06 -1.24096941E-05 -1.38338937E-06  9.76816688E-01 -9.21928475E-03
  4.33782501E-02  1.68597733E-03  5.17492416E-04  7.83985863E-04  1.57661669E-03
  3.94244371E-04 -1.00669322E-03 -1.20537095E-03 -4.13725693E-04 -1.66724310E-04
  5.06243160E-04 -1.45446850E-04 -1.85149863E-04  2.04845266E-04 -5.21072944E-05
  4.48760380E-05  1.02004383E-05 -1.65931594E-06  9.60776753E-05  4.01633848E-05
  4.15741828E-04 -2.43751978E-04 -8.72341451E-06  2.47291868E-05  1.68167243E-04
 -1.75184289E-04 -1.04160939E-05 -1.75770571E-05 -1.17190858E-04 -1.22942769E-04
  9.25116297E-06  8.54575926E-06  1.89824950E-05 -5.68986995E-06 -4.68593425E-06
 -1.42878650E-05  1.00606490E-05  3.54299007E-05  1.07704358E-05  7.06790003E-06
 -6.26030642E-05 -1.76884208E-05 -9.11520942E-05 -4.64210088E-05  8.34894498E-08
  7.53313432E-06  1.82532330E-05  2.46573016E-05 -7.61748181E-04 -4.31243687E-04
  5.44201867E-06  2.93528831E-07 -3.26244809E-06  2.08875185E-04 -3.49337076E-06
 -3.63261263E-05 -2.16433514E-05 -1.37689224E-06  1.62638049E-05  4.94189608E-04
  5.13576575E-05 -3.54025577E-04  6.80239886E-05 -8.06357882E-06 -3.08417820E-05
  1.43244913E-05 -1.58989853E-05  1.11608646E-07 -1.31546590E-05  6.91268535E-06
  9.18794200E-07  1.00253731E-04 -1.81969560E-06 -4.41203760E-05 -1.86264955E-05
 -8.91329920E-06  2.38666232E-04  1.14497876E-05 -7.20080194E-05 -1.91370745E-05
 -1.06050231E-05 -2.17413747E-05 -1.37411842E-06  2.05941549E-05  4.79002681E-06
  1.17398115E-06 -4.16198308E-06  6.18884063E-05  9.18402384E-05  1.83792638E-07
 -9.77036201E-05 -1.07769496E-05 -2.42460291E-05  1.76820489E-05  4.76377137E-06
  7.68465052E-05  9.43870934E-05 -2.89850792E-04  9.46156364E-05 -6.47436548E-04
 -2.57651721E-06 -1.03232436E-05 -1.53874864E-06  6.08541699E-05 -6.16367238E-04
 -2.44106981E-05 -4.18937882E-05  2.65080001E-04  6.83942955E-06  1.20874164E-04
  3.60515810E-04  6.17042507E-05 -1.45007616E-05  1.41147173E-04  3.20945979E-06
  1.54207027E-05 -4.24304598E-06 -1.03399754E-06  4.88317590E-06  6.25293951E-06
 -3.22295334E-04  9.89751456E-06  1.77363924E-05 -4.66852193E-04 -1.84189901E-04
  1.23286235E-04  1.12102105E-05 -4.60829127E-05  2.66721984E-04 -2.82608470E-05
  8.65738926E-06 -2.72700560E-05  1.63456967E-04  1.96357373E-06  5.36283851E-06
 -1.28063920E-04  1.90986922E-04 -1.57493745E-05 -4.55871993E-05  1.02652314E-04
  9.00040104E-06 -1.17245760E-05 -6.64854693E-05  5.72836372E-05  2.77379900E-04
  1.23253711E-03  1.09373730E-03  1.32835930E-04 -2.46332060E-04  4.11956708E-05
 -7.20942921E-05 -1.25108969E-03  1.40266231E-05 -2.04152904E-04  7.58334566E-04
 -1.72186046E-04  2.19736047E-04 -2.35336097E-05  1.11763450E-05 -1.75343172E-05
  3.40593870E-05 -6.11122318E-05 -4.77984705E-04  3.71737213E-04  4.13472978E-06
  9.74637543E-04 -1.99220117E-05 -7.07135560E-05 -6.46174548E-05 -1.05793818E-04
  2.75664295E-03  2.39314797E-03 -2.48982349E-05  4.09064686E-05 -6.88771298E-06
 -4.78028139E-05  5.64759542E-04  3.94937322E-05 -5.53387162E-04  2.40558631E-03
  6.81426533E-05 -2.43377100E-04  9.06984351E-04 -3.79943571E-05 -2.36258313E-05
 -4.89009392E-06 -3.28628799E-06 -4.42949641E-05 -3.35816482E-05 -2.01396467E-04
  3.46045433E-05  2.53561895E-05 -2.49869111E-04 -5.35475699E-05 -2.68485810E-04
 -2.83219552E-05  4.84259287E-05 -7.52687295E-04  7.14709566E-05 -1.53122543E-06
  4.80813328E-06 -2.13024016E-05  8.61694489E-06 -3.26385278E-06  4.99538548E-05
 -4.02160042E-05 -9.94590353E-06  2.45588055E-06 -5.19785017E-05 -1.36531577E-05