title                                                                   
SP        RMP2-FC                                                     Aug-CC-pVTZ         
Number of atoms                            I                4
Info1-9                                    I   N=           9
          40          13           0           0           0         110
           1           2           1
Full Title                                 C   N=           1
title       
Route                                      C   N=           5
#p pop=NBO SP NoSymm mp2/aug-cc-pvtz density=current        
Charge                                     I               -1
Multiplicity                               I                1
Number of electrons                        I               44
Number of alpha electrons                  I               22
Number of beta electrons                   I               22
Number of basis functions                  I              169
Number of independent functions            I              169
Number of point charges in /Mol/           I                0
Number of translation vectors              I                0
Atomic numbers                             I   N=           4
           8          17          17           1
Nuclear charges                            R   N=           4
  8.00000000E+00  1.70000000E+01  1.70000000E+01  1.00000000E+00
Current cartesian coordinates              R   N=          12
  0.00000000E+00  0.00000000E+00  0.00000000E+00  5.48904212E+00  0.00000000E+00
  0.00000000E+00 -7.43959853E-01  3.09168378E+00  0.00000000E+00  1.31250657E+00
  0.00000000E+00  1.31250657E+00
Number of symbols in /Mol/                 I                0
Force Field                                I                0
Atom Types                                 C   N=           4
                                                
Int Atom Types                             I   N=           4
           0           0           0           0
MM charges                                 R   N=           4
  0.00000000E+00  0.00000000E+00  0.00000000E+00  0.00000000E+00
Integer atomic weights                     I   N=           4
          16          35          35           1
Real atomic weights                        R   N=           4
  1.59949146E+01  3.49688527E+01  3.49688527E+01  1.00782504E+00
Atom fragment info                         I   N=           4
           0           0           0           0
Atom residue num                           I   N=           4
           0           0           0           0
Nuclear spins                              I   N=           4
           0           3           3           1
Nuclear ZEff                               R   N=           4
 -5.60000000E+00 -1.42400000E+01 -1.42400000E+01 -1.00000000E+00
Nuclear ZNuc                               R   N=           4
  8.00000000E+00  1.70000000E+01  1.70000000E+01  1.00000000E+00
Nuclear QMom                               R   N=           4
  0.00000000E+00 -8.16500000E+00 -8.16500000E+00  0.00000000E+00
Nuclear GFac                               R   N=           4
  0.00000000E+00  8.21874000E-01  8.21874000E-01  2.79284600E+00
MicOpt                                     I   N=           4
          -1          -1          -1          -1
Number of residues                         I                0
Number of secondary structures             I                0
Number of contracted shells                I               55
Number of primitive shells                 I              140
Pure/Cartesian d shells                    I                0
Pure/Cartesian f shells                    I                0
Highest angular momentum                   I                3
Largest degree of contraction              I               11
Shell types                                I   N=          55
           0           0           0           0           0           1
           1           1           1          -2          -2          -2
          -3          -3           0           0           0           0
           0           0           1           1           1           1
           1          -2          -2          -2          -3          -3
           0           0           0           0           0           0
           1           1           1           1           1          -2
          -2          -2          -3          -3           0           0
           0           0           1           1           1          -2
          -2
Number of primitives per shell             I   N=          55
           7           6           1           1           1           3
           1           1           1           1           1           1
           1           1          11           9           8           1
           1           1           6           6           1           1
           1           1           1           1           1           1
          11           9           8           1           1           1
           6           6           1           1           1           1
           1           1           1           1           3           1
           1           1           1           1           1           1
           1
Shell to atom map                          I   N=          55
           1           1           1           1           1           1
           1           1           1           1           1           1
           1           1           2           2           2           2
           2           2           2           2           2           2
           2           2           2           2           2           2
           3           3           3           3           3           3
           3           3           3           3           3           3
           3           3           3           3           4           4
           4           4           4           4           4           4
           4
Primitive exponents                        R   N=         140
  1.53300000E+04  2.29900000E+03  5.22400000E+02  1.47300000E+02  4.75500000E+01
  1.67600000E+01  6.20700000E+00  5.22400000E+02  1.47300000E+02  4.75500000E+01
  1.67600000E+01  6.20700000E+00  6.88200000E-01  1.75200000E+00  2.38400000E-01
  7.37600000E-02  3.44600000E+01  7.74900000E+00  2.28000000E+00  7.15600000E-01
  2.14000000E-01  5.97400000E-02  2.31400000E+00  6.45000000E-01  2.14000000E-01
  1.42800000E+00  5.00000000E-01  4.56100000E+05  6.83300000E+04  1.55500000E+04
  4.40500000E+03  1.43900000E+03  5.20400000E+02  2.03100000E+02  8.39600000E+01
  3.62000000E+01  1.58300000E+01  6.33400000E+00  4.40500000E+03  1.43900000E+03
  5.20400000E+02  2.03100000E+02  8.39600000E+01  3.62000000E+01  1.58300000E+01
  6.33400000E+00  2.69400000E+00  1.43900000E+03  2.03100000E+02  8.39600000E+01
  3.62000000E+01  1.58300000E+01  6.33400000E+00  2.69400000E+00  4.31300000E-01
  9.76800000E-01  1.62500000E-01  5.91000000E-02  6.63300000E+02  1.56800000E+02
  4.99800000E+01  1.84200000E+01  7.24000000E+00  2.92200000E+00  1.56800000E+02
  4.99800000E+01  1.84200000E+01  7.24000000E+00  2.92200000E+00  3.81800000E-01
  1.02200000E+00  1.30100000E-01  4.19000000E-02  1.04600000E+00  3.44000000E-01
  1.35000000E-01  7.06000000E-01  3.12000000E-01  4.56100000E+05  6.83300000E+04
  1.55500000E+04  4.40500000E+03  1.43900000E+03  5.20400000E+02  2.03100000E+02
  8.39600000E+01  3.62000000E+01  1.58300000E+01  6.33400000E+00  4.40500000E+03
  1.43900000E+03  5.20400000E+02  2.03100000E+02  8.39600000E+01  3.62000000E+01
  1.58300000E+01  6.33400000E+00  2.69400000E+00  1.43900000E+03  2.03100000E+02
  8.39600000E+01  3.62000000E+01  1.58300000E+01  6.33400000E+00  2.69400000E+00
  4.31300000E-01  9.76800000E-01  1.62500000E-01  5.91000000E-02  6.63300000E+02
  1.56800000E+02  4.99800000E+01  1.84200000E+01  7.24000000E+00  2.92200000E+00
  1.56800000E+02  4.99800000E+01  1.84200000E+01  7.24000000E+00  2.92200000E+00
  3.81800000E-01  1.02200000E+00  1.30100000E-01  4.19000000E-02  1.04600000E+00
  3.44000000E-01  1.35000000E-01  7.06000000E-01  3.12000000E-01  3.38700000E+01
  5.09500000E+00  1.15900000E+00  3.25800000E-01  1.02700000E-01  2.52600000E-02
  1.40700000E+00  3.88000000E-01  1.02000000E-01  1.05700000E+00  2.47000000E-01
Contraction coefficients                   R   N=         140
  5.19808943E-04  4.02025621E-03  2.07128267E-02  8.10105536E-02  2.35962985E-01
  4.42653446E-01  3.57064423E-01 -4.42115008E-05 -1.22591041E-03 -1.05517725E-02
 -6.74452633E-02 -1.71198607E-01  1.07329856E+00  1.00000000E+00  1.00000000E+00
  1.00000000E+00  4.11634896E-02  2.57762836E-01  8.02419274E-01  1.00000000E+00
  1.00000000E+00  1.00000000E+00  1.00000000E+00  1.00000000E+00  1.00000000E+00
  1.00000000E+00  1.00000000E+00  4.93229477E-05  3.83207967E-04  2.00947816E-03
  8.38950124E-03  2.94843950E-02  8.78759948E-02  2.11589759E-01  3.65611554E-01
  3.41246350E-01  1.02162570E-01  2.14249949E-03 -2.21747925E-06 -1.71189708E-04
 -1.27922846E-03 -9.32956265E-03 -3.98910062E-02 -1.05536085E-01  9.36202446E-03
  5.10511140E-01  5.73150737E-01  4.03949245E-06  2.12481765E-04  8.59484452E-04
  4.63248159E-03  4.47343490E-04 -7.38438245E-02 -3.62271994E-01  1.16620337E+00
  1.00000000E+00  1.00000000E+00  1.00000000E+00  2.47206402E-03  1.97550234E-02
  9.09917355E-02  2.63187834E-01  4.49078073E-01  3.60183072E-01  3.03427809E-05
 -1.22475826E-03 -6.01429772E-03 -2.76401323E-02  4.35105612E-04  1.00307272E+00
  1.00000000E+00  1.00000000E+00  1.00000000E+00  1.00000000E+00  1.00000000E+00
  1.00000000E+00  1.00000000E+00  1.00000000E+00  4.93229477E-05  3.83207967E-04
  2.00947816E-03  8.38950124E-03  2.94843950E-02  8.78759948E-02  2.11589759E-01
  3.65611554E-01  3.41246350E-01  1.02162570E-01  2.14249949E-03 -2.21747925E-06
 -1.71189708E-04 -1.27922846E-03 -9.32956265E-03 -3.98910062E-02 -1.05536085E-01
  9.36202446E-03  5.10511140E-01  5.73150737E-01  4.03949245E-06  2.12481765E-04
  8.59484452E-04  4.63248159E-03  4.47343490E-04 -7.38438245E-02 -3.62271994E-01
  1.16620337E+00  1.00000000E+00  1.00000000E+00  1.00000000E+00  2.47206402E-03
  1.97550234E-02  9.09917355E-02  2.63187834E-01  4.49078073E-01  3.60183072E-01
  3.03427809E-05 -1.22475826E-03 -6.01429772E-03 -2.76401323E-02  4.35105612E-04
  1.00307272E+00  1.00000000E+00  1.00000000E+00  1.00000000E+00  1.00000000E+00
  1.00000000E+00  1.00000000E+00  1.00000000E+00  1.00000000E+00  2.54948632E-02
  1.90362766E-01  8.52162022E-01  1.00000000E+00  1.00000000E+00  1.00000000E+00
  1.00000000E+00  1.00000000E+00  1.00000000E+00  1.00000000E+00  1.00000000E+00
Coordinates of each shell                  R   N=         165
  0.00000000E+00  0.00000000E+00  0.00000000E+00  0.00000000E+00  0.00000000E+00
  0.00000000E+00  0.00000000E+00  0.00000000E+00  0.00000000E+00  0.00000000E+00
  0.00000000E+00  0.00000000E+00  0.00000000E+00  0.00000000E+00  0.00000000E+00
  0.00000000E+00  0.00000000E+00  0.00000000E+00  0.00000000E+00  0.00000000E+00
  0.00000000E+00  0.00000000E+00  0.00000000E+00  0.00000000E+00  0.00000000E+00
  0.00000000E+00  0.00000000E+00  0.00000000E+00  0.00000000E+00  0.00000000E+00
  0.00000000E+00  0.00000000E+00  0.00000000E+00  0.00000000E+00  0.00000000E+00
  0.00000000E+00  0.00000000E+00  0.00000000E+00  0.00000000E+00  0.00000000E+00
  0.00000000E+00  0.00000000E+00  5.48904212E+00  0.00000000E+00  0.00000000E+00
  5.48904212E+00  0.00000000E+00  0.00000000E+00  5.48904212E+00  0.00000000E+00
  0.00000000E+00  5.48904212E+00  0.00000000E+00  0.00000000E+00  5.48904212E+00
  0.00000000E+00  0.00000000E+00  5.48904212E+00  0.00000000E+00  0.00000000E+00
  5.48904212E+00  0.00000000E+00  0.00000000E+00  5.48904212E+00  0.00000000E+00
  0.00000000E+00  5.48904212E+00  0.00000000E+00  0.00000000E+00  5.48904212E+00
  0.00000000E+00  0.00000000E+00  5.48904212E+00  0.00000000E+00  0.00000000E+00
  5.48904212E+00  0.00000000E+00  0.00000000E+00  5.48904212E+00  0.00000000E+00
  0.00000000E+00  5.48904212E+00  0.00000000E+00  0.00000000E+00  5.48904212E+00
  0.00000000E+00  0.00000000E+00  5.48904212E+00  0.00000000E+00  0.00000000E+00
 -7.43959853E-01  3.09168378E+00  0.00000000E+00 -7.43959853E-01  3.09168378E+00
  0.00000000E+00 -7.43959853E-01  3.09168378E+00  0.00000000E+00 -7.43959853E-01
  3.09168378E+00  0.00000000E+00 -7.43959853E-01  3.09168378E+00  0.00000000E+00
 -7.43959853E-01  3.09168378E+00  0.00000000E+00 -7.43959853E-01  3.09168378E+00
  0.00000000E+00 -7.43959853E-01  3.09168378E+00  0.00000000E+00 -7.43959853E-01
  3.09168378E+00  0.00000000E+00 -7.43959853E-01  3.09168378E+00  0.00000000E+00
 -7.43959853E-01  3.09168378E+00  0.00000000E+00 -7.43959853E-01  3.09168378E+00
  0.00000000E+00 -7.43959853E-01  3.09168378E+00  0.00000000E+00 -7.43959853E-01
  3.09168378E+00  0.00000000E+00 -7.43959853E-01  3.09168378E+00  0.00000000E+00
 -7.43959853E-01  3.09168378E+00  0.00000000E+00  1.31250657E+00  0.00000000E+00
  1.31250657E+00  1.31250657E+00  0.00000000E+00  1.31250657E+00  1.31250657E+00
  0.00000000E+00  1.31250657E+00  1.31250657E+00  0.00000000E+00  1.31250657E+00
  1.31250657E+00  0.00000000E+00  1.31250657E+00  1.31250657E+00  0.00000000E+00
  1.31250657E+00  1.31250657E+00  0.00000000E+00  1.31250657E+00  1.31250657E+00
  0.00000000E+00  1.31250657E+00  1.31250657E+00  0.00000000E+00  1.31250657E+00
Num ILSW                                   I              100
ILSW                                       I   N=         100
           0           0           0           0           2           0
           0           0           0           0           0          -1
           5           0           0           0           0           0
           0           0           0           0           0           0
           1           1           0           0           0           0
           0           0      100000           0          -1           0
           0           0           0           0           0           0
           0           0           0           1           0           0
           0 -2000000000           1           0           0           0
           0           0           4          52           0           0
           0           0           0           0           0           0
           0           0           0           4           0           1
           0           0           0           0           0           0
           0           0           0           0           0           0
           0           0           0           0           0           0
           0           0           0           0           0           0
           0           0           0           0
Num RLSW                                   I               52
RLSW                                       R   N=          52
  1.00000000E+00  1.00000000E+00  1.00000000E+00  1.00000000E+00  1.00000000E+00
  0.00000000E+00  0.00000000E+00  1.00000000E+00  0.00000000E+00  0.00000000E+00
  0.00000000E+00  0.00000000E+00  1.00000000E+00  0.00000000E+00  0.00000000E+00
  0.00000000E+00  0.00000000E+00  1.00000000E+00  0.00000000E+00  0.00000000E+00
  0.00000000E+00  0.00000000E+00  1.00000000E+00  0.00000000E+00  0.00000000E+00
  0.00000000E+00  0.00000000E+00  1.00000000E+00  0.00000000E+00  0.00000000E+00
  0.00000000E+00  0.00000000E+00  1.00000000E+00  0.00000000E+00  0.00000000E+00
  0.00000000E+00  0.00000000E+00  0.00000000E+00  1.00000000E+00  1.00000000E+00
  0.00000000E+00  1.00000000E+00  0.00000000E+00  0.00000000E+00  0.00000000E+00
  0.00000000E+00  0.00000000E+00  0.00000000E+00  0.00000000E+00  0.00000000E+00
  0.00000000E+00  0.00000000E+00
MxBond                                     I                2
NBond                                      I   N=           4
           2           0           1           1
IBond                                      I   N=           8
           3           4           0           0           1           0
           1           0
RBond                                      R   N=           8
  1.00000000E+00  1.00000000E+00  0.00000000E+00  0.00000000E+00  1.00000000E+00
  0.00000000E+00  1.00000000E+00  0.00000000E+00
Virial Ratio                               R      2.000122947895243E+00
SCF Energy                                 R     -9.945064673305275E+02
MP2 Energy                                 R     -9.951706268454984E+02
Total Energy                               R     -9.951706268454984E+02
Post-SCF wavefunction norm                 R      1.103398220329282E+00
RMS Density                                R      5.955049170377694E-09
Job Status                                 I                1
Nuclear derivative order                   I                0
External E-field                           R   N=          35
  0.00000000E+00  0.00000000E+00  0.00000000E+00  0.00000000E+00  0.00000000E+00
  0.00000000E+00  0.00000000E+00  0.00000000E+00  0.00000000E+00  0.00000000E+00
  0.00000000E+00  0.00000000E+00  0.00000000E+00  0.00000000E+00  0.00000000E+00
  0.00000000E+00  0.00000000E+00  0.00000000E+00  0.00000000E+00  0.00000000E+00
  0.00000000E+00  0.00000000E+00  0.00000000E+00  0.00000000E+00  0.00000000E+00
  0.00000000E+00  0.00000000E+00  0.00000000E+00  0.00000000E+00  0.00000000E+00
  0.00000000E+00  0.00000000E+00  0.00000000E+00  0.00000000E+00  0.00000000E+00
IOpCl                                      I                0
IROHF                                      I                0
Alpha Orbital Energies                     R   N=         169
 -1.04736147E+02 -1.04525702E+02 -2.04744755E+01 -1.04558426E+01 -1.02502016E+01
 -7.92303591E+00 -7.92032753E+00 -7.92016259E+00 -7.71630414E+00 -7.71621087E+00
 -7.71619190E+00 -1.24647073E+00 -9.02115045E-01 -7.59713629E-01 -5.53363337E-01
 -4.52153274E-01 -4.43138544E-01 -3.14119393E-01 -2.87221096E-01 -1.77113571E-01
 -1.73340869E-01 -1.71567847E-01  1.53608733E-01  1.80103653E-01  2.22647309E-01
  2.31996949E-01  2.63646780E-01  2.75379609E-01  2.80550028E-01  2.88101168E-01
  2.99551282E-01  3.18590735E-01  3.28972491E-01  3.51459752E-01  4.04414890E-01
  4.13994884E-01  4.59407775E-01  4.79685918E-01  5.27234318E-01  5.39558900E-01
  5.56682014E-01  5.77481340E-01  5.84077230E-01  5.88758072E-01  6.10914137E-01
  6.23741455E-01  6.51968704E-01  6.63582192E-01  6.73160447E-01  6.81212443E-01
  7.59246352E-01  7.98290980E-01  8.49418739E-01  8.71058978E-01  8.85842725E-01
  8.96935474E-01  9.05060512E-01  9.27352919E-01  9.54957917E-01  9.76151045E-01
  1.01130909E+00  1.05614823E+00  1.07977778E+00  1.08816176E+00  1.10331155E+00
  1.11609459E+00  1.12479382E+00  1.15784372E+00  1.19419390E+00  1.20127160E+00
  1.20540301E+00  1.22081616E+00  1.22345804E+00  1.23230348E+00  1.26391812E+00
  1.27742775E+00  1.30151452E+00  1.33111924E+00  1.33380854E+00  1.39069961E+00
  1.41850328E+00  1.43672812E+00  1.44503551E+00  1.48440814E+00  1.49483679E+00
  1.52646999E+00  1.55960764E+00  1.58032091E+00  1.65230222E+00  1.67716513E+00
  1.69539383E+00  1.71346305E+00  1.75969750E+00  1.79918804E+00  1.84368717E+00
  1.86828827E+00  1.96402108E+00  1.98246627E+00  2.12580432E+00  2.35604804E+00
  2.42636629E+00  2.49054140E+00  2.49805697E+00  2.53280494E+00  2.60110274E+00
  2.60976818E+00  2.64270934E+00  2.67804001E+00  2.69037396E+00  2.70097736E+00
  2.72000492E+00  2.74595160E+00  2.77511737E+00  2.81122989E+00  2.82232305E+00
  2.82458987E+00  2.88550192E+00  2.89874578E+00  2.93305908E+00  2.96130274E+00
  2.98320861E+00  3.00410333E+00  3.01840779E+00  3.10371193E+00  3.16091956E+00
  3.20462016E+00  3.21539632E+00  3.23388075E+00  3.25864570E+00  3.29452269E+00
  3.31887453E+00  3.35594658E+00  3.35819654E+00  3.40042831E+00  3.43085872E+00
  3.47130649E+00  3.49442435E+00  3.52232364E+00  3.56159552E+00  3.58344338E+00
  3.62682824E+00  3.91231846E+00  4.04983103E+00  4.37026802E+00  4.48207524E+00
  4.55435299E+00  4.64292464E+00  4.73666371E+00  4.92314903E+00  5.01713405E+00
  5.37520351E+00  5.46076288E+00  5.69038746E+00  6.11293852E+00  6.40020916E+00
  6.66471250E+00  6.86000338E+00  6.90507726E+00  6.91981224E+00  6.98620944E+00
  7.34093432E+00  7.36696826E+00  7.37491575E+00  7.46789869E+00  7.49242918E+00
  7.72013197E+00  7.73087498E+00  8.39970500E+00  1.46032243E+01
Alpha MO coefficients                      R   N=       28561
  6.55980550E-06  3.57004157E-05  9.36259441E-07 -1.29073521E-04 -7.09840674E-05
 -1.44813633E-07  3.23948829E-06  4.41241773E-07  6.24817359E-07 -9.86437565E-06
 -1.28092627E-06  5.27068569E-05 -1.47734931E-04  6.74690476E-06  1.56570418E-05
 -2.84830190E-05  5.15369277E-06 -1.87877698E-06  1.66964140E-07  1.94431137E-07
 -2.77771885E-06 -1.45752886E-06  1.34067952E-05  5.91290504E-07 -1.12436168E-06
  2.05149766E-05  9.92037911E-06  2.66641094E-05  1.04454522E-05 -1.03655923E-05
  5.59323115E-05  1.59199817E-05  4.96318857E-08 -1.00136970E-07  9.07843188E-07
 -8.37812845E-07  7.98558988E-07 -1.14571937E-06  4.47379216E-07 -3.60280317E-07
 -1.92352155E-06  9.45943020E-06  4.08319624E-06 -3.22965578E-06 -6.87666924E-06
  1.11661519E-05  1.87635805E-07  2.79454860E-06  7.20840177E-06 -1.73921291E-06
 -1.01690463E-05 -1.47042340E-05  4.53839820E-08 -7.21617530E-08  3.27995817E-08
 -1.55805486E-06 -7.19795514E-07  4.44701732E-07 -4.09322565E-07  2.60685730E-07
 -9.48715247E-08  1.64260760E-05  1.03750968E-06 -3.44689005E-06  4.19167048E-06
 -8.28699106E-08 -1.09686238E-07 -3.61020141E-07 -4.09453003E-08 -1.20887082E-07
  8.08227174E-07  6.81975489E-08  1.11261835E-06  3.81058355E-07  4.70267495E-07
 -2.32780323E-06  1.95575435E-07  3.15298537E-06  2.05069200E-06 -9.60846698E-07
 -6.21025493E-06 -1.26929659E-06  1.13687488E-07  2.03895290E-08  3.90073792E-07
 -1.37263272E-07 -3.65100799E-07 -9.11715918E-07 -1.04533029E-06  6.06327218E-08
 -1.11219180E-06 -7.14344466E-07 -1.49530482E-07  5.99191922E-07  3.32552300E-06
  2.02598892E-06  9.99534836E-01  1.95436987E-03  1.85354474E-04 -4.17983844E-04
  6.90054349E-05  6.46409991E-05  1.58077322E-05 -7.63123819E-05  2.58375167E-06
  3.50349033E-05 -1.35328104E-04  4.34803587E-06 -1.66903903E-05  7.23227462E-05
 -2.44839886E-06  7.51211382E-06 -5.02029715E-05 -2.01219320E-06  8.47907363E-07
 -1.07728476E-05 -1.28099735E-06 -3.66322134E-06  1.35147389E-07 -1.14881533E-07
 -5.59091241E-06 -3.31491559E-06 -2.78975810E-05  7.58567073E-07 -1.73288794E-06
 -4.26226632E-05 -2.35211405E-05 -2.50035135E-06 -3.24107679E-06  3.37166281E-07
 -6.08507297E-06  6.06654004E-07 -5.35140607E-07 -1.30844765E-06  5.58963470E-06
  1.58497074E-07 -1.29476568E-06 -5.37278081E-06  4.73052431E-06  5.52255242E-07
 -1.25218649E-06  3.74512292E-06 -9.95499597E-07  2.29189838E-06 -2.70425182E-06
  5.50960797E-06 -5.97562476E-07 -2.56967619E-05  1.03437381E-05 -4.31006176E-06
  8.34144232E-07 -1.92738822E-06  7.01949639E-07 -6.15374020E-06  1.63985633E-05
  2.14277093E-06  8.79218793E-06  1.14495505E-05 -3.32810009E-06 -1.03113345E-06
 -2.66417653E-07 -1.54165187E-07 -1.90937960E-06 -7.58629834E-07 -4.27023770E-06
  6.74921210E-07 -3.66167000E-07  4.83963620E-06 -3.80751700E-06  1.98998186E-07
  1.05195834E-06 -5.59614455E-07 -2.39022552E-06  2.47092904E-06  2.25958172E-07
  1.18655868E-07  6.84392245E-08  3.94671457E-07 -5.57875393E-07  3.38792756E-07
  2.51077375E-05  4.98645850E-06  5.50051736E-06 -5.99296564E-06  5.13909593E-06
  5.95502716E-06  3.40673490E-07 -4.70705953E-07 -4.06143528E-08  2.60642313E-07
  1.96396013E-07 -1.22596098E-06  3.16540305E-06  2.11622112E-07 -4.94023877E-07
 -6.70217831E-07 -7.24180309E-06  9.74290552E-06  1.66112282E-06  1.04507271E-05
  2.24915626E-06  4.99460445E-07  2.26177635E-07 -5.16662495E-09  7.88685714E-08
 -9.46419214E-08 -5.05239576E-07  4.44111631E-08 -3.10756021E-06  4.58153018E-08
 -4.10923383E-08  1.29195829E-06  6.01167898E-07  1.84767593E-06 -1.42032409E-07
  9.99531717E-01  1.97870951E-03  2.04018469E-04 -4.20048284E-04 -1.46042500E-04
  3.54857492E-06 -2.46257328E-06 -3.30104443E-07  4.70097753E-06 -1.38335366E-05
  3.40207165E-07  4.79204294E-06  4.29889850E-06  9.96835459E-08 -3.37107600E-06
  5.74019299E-05 -2.10389047E-06 -1.48013450E-05 -3.00848657E-06  5.82138570E-07
 -7.12042554E-07 -4.08995311E-07 -1.03067967E-06 -9.18785163E-08  1.23163053E-06
 -1.85123089E-07  1.20203886E-06  1.30286463E-06  2.78094181E-07 -2.70288083E-06
  5.23152595E-07  9.68224293E-06  1.03915741E-05 -7.48505855E-07 -1.97603785E-05
  7.89431572E-07 -1.04817412E-06  1.43464969E-06  4.92910370E-08  1.48168368E-06
 -9.37952361E-08 -2.80925098E-06  2.95804601E-07  3.33910298E-06 -3.83416160E-06
 -3.12890925E-08 -4.72697364E-06  2.10860543E-07  7.87858363E-06 -7.55278774E-07
  1.73543219E-07  2.60839098E-06  6.70539633E-06 -1.31987282E-06 -1.75789566E-05
 -1.79894462E-05 -2.01078562E-07 -1.83073818E-08  3.48608821E-08 -1.38055769E-06
  1.43934358E-07  1.77352245E-07  8.41477762E-07 -1.08906008E-07 -1.12109141E-07
 -1.05425851E-05  1.11749503E-05 -4.70078854E-06 -2.08737842E-06  2.10017616E-06
 -1.38881212E-06 -1.58018093E-07 -2.05263947E-07 -3.90794676E-08  3.11493920E-07
 -5.01902946E-07  1.26303369E-06  3.67236234E-07  7.96548117E-07  9.84814293E-08
  2.24455315E-06  2.24208489E-06 -2.81689659E-06  1.38391264E-06 -1.69725662E-06
  2.07806882E-06  1.01958817E-07  3.61743597E-07 -1.61700277E-07  1.49593604E-07
 -2.73899932E-08  3.24420930E-07 -5.34753874E-07  1.58094793E-07 -1.07863651E-07
 -5.20800620E-07  2.55592811E-07  5.08910289E-07 -4.65352963E-07  8.56330550E-07
 -4.19663798E-07 -4.02536722E-05  9.91994696E-05 -5.83400358E-07 -3.06314418E-07
 -5.55167654E-08  1.03788164E-06  1.68057039E-06 -1.49051690E-06  7.18486228E-06
  2.20778942E-05  1.16181077E-05 -3.03204774E-05 -5.46674758E-07 -7.10863346E-07
  5.10082356E-07  5.51091961E-08  5.84824520E-08 -9.38826430E-06 -2.44061299E-06
 -2.49694898E-06  1.63354487E-05 -8.04415850E-07  9.76839237E-01 -9.05827684E-03
  4.33766117E-02  2.32184361E-03  2.74054216E-04  4.65963510E-04  1.53063672E-03
  1.08876820E-03 -5.54409695E-04 -1.19807337E-03 -9.87425610E-04 -3.24577958E-04
  8.23482844E-04 -2.11723423E-04 -1.16376620E-04  1.15377208E-04 -1.04366156E-04
  6.12019993E-05  3.30670481E-05  3.23939578E-06  9.88587880E-05  4.49898681E-05
  6.34026851E-05 -4.69145213E-04 -2.22293917E-05  1.77278677E-04  1.87137862E-04
 -1.69655792E-04 -5.85943798E-05  5.44048063E-05 -2.57029212E-04 -1.95717876E-04
 -2.28737036E-06 -1.58487612E-05  6.54777173E-06  4.65603209E-06 -1.44656473E-05
 -1.12141957E-05  1.33160771E-05  1.18888302E-05 -1.04336938E-04 -1.50077283E-05
 -1.10995527E-04 -2.91998011E-05 -2.41344948E-05 -4.09024696E-05 -3.84447255E-06
 -4.57510485E-05 -1.34754062E-04  1.36820365E-05  3.38574794E-04  3.53684354E-04
 -5.43844515E-06  2.90601927E-07  1.35029548E-06 -1.36000333E-05  6.92789835E-07
  1.38423928E-05  2.18037126E-05 -1.25919225E-06 -4.26090646E-06 -3.96429986E-04
  2.50700434E-05  1.26536744E-05 -7.59853909E-05 -1.02526308E-05  9.08559476E-06
  5.80698456E-06  9.73895401E-07  1.60410506E-06 -6.99187138E-06  4.03934643E-06
 -2.83997079E-05 -9.26738466E-06 -5.69674465E-06  5.00874554E-05 -1.36227739E-05
 -1.02507722E-04  1.99337496E-05  1.34380032E-05  9.54058702E-05  6.62912153E-06
  5.51109567E-06 -8.00644262E-06 -5.12497792E-06  1.32502374E-05  1.63937750E-06
 -2.34251221E-05  3.16048101E-06 -1.20766393E-05  5.36031222E-05  8.73093471E-06
 -2.88558901E-05 -2.18330018E-06  1.77666971E-05 -4.30026116E-06  3.80425564E-06
  6.10793909E-05  6.03576761E-05 -2.59872290E-04 -1.63901913E-04 -3.56192505E-04
 -5.70717049E-06 -1.16026876E-06 -4.48316504E-06  2.22490312E-05 -4.66112177E-04
 -7.07815548E-05 -3.01134286E-05  2.29934064E-04  2.03352929E-05  2.25013494E-04
  4.62036177E-04  1.24262403E-04 -1.82441919E-05  8.39636758E-05  2.97564988E-05
  1.31229436E-05 -1.94375283E-07 -7.05293475E-07  1.10766797E-05  1.14976648E-05
 -2.82399227E-04 -9.87211073E-06  4.36167295E-05 -4.26487740E-04 -1.96265789E-04
  1.43419584E-04  8.18565021E-05 -6.35772813E-05  3.51767458E-04 -2.98647408E-05
  1.10093010E-05 -3.60639810E-05  1.61794058E-04  1.16057068E-06  1.08854034E-05
 -1.29239889E-04  1.86506243E-04 -8.96274237E-06 -2.12983574E-05  8.82396847E-05
  2.32797443E-05 -2.37606189E-05 -7.91940208E-05  4.03030543E-05  4.40257173E-04
  1.67544550E-03 -9.07268469E-04 -4.44099966E-05 -1.99070162E-04  5.90598081E-05
 -1.82373987E-04 -7.27841152E-04 -5.14421875E-05 -6.74280039E-04 -3.87365341E-04
 -2.75868793E-04  4.06086067E-04 -3.68949924E-05 -4.38043194E-05 -5.35156883E-05
  1.51136282E-05 -4.67194740E-05  9.39924156E-05  5.20324985E-04  3.03832098E-05
  1.95115653E-04  5.70052849E-05 -8.23203647E-05 -1.30478059E-04 -1.00594005E-04
  2.31076770E-03  1.57610041E-03 -2.05533577E-05  3.74985759E-05 -9.24273427E-06
 -1.14641403E-04  5.91455936E-04  2.81248274E-05 -7.32637626E-04  2.39005835E-03
 -1.97235146E-05 -3.56423015E-04  6.95102963E-04 -1.28792579E-04 -3.19630055E-05
 -4.39713213E-06 -9.68495938E-06 -4.80360967E-05 -3.15385435E-05 -1.54748437E-04
  1.92801674E-05  7.14307735E-05 -2.55741564E-04 -7.25032813E-05 -2.75914123E-04
 -1.42449441E-04  2.33407952E-04 -7.24742096E-04 -5.95944271E-05 -4.59676152E-06
  1.38581166E-05 -3.44478671E-05  1.68755977E-05 -1.14512899E-05  3.80842226E-05
 -3.11814917E-05  2.37406820E-05  8.85244057E-06  5.57697943E-05 -4.61946448E-05
  1.24437676E-04 -3.71282654E-05  5.23662398E-05 -3.16507734E-06 -4.42789958E-05
 -1.18626213E-04  2.50140663E-05  1.40461858E-04  3.75884430E-04  1.57037457E-06
  1.73151021E-06 -7.93813822E-07  5.10791843E-05  9.53838097E-06 -1.14811542E-05
 -1.67120465E-06 -5.34798768E-06  2.42889358E-06 -3.44691461E-04 -2.20297424E-06
  7.54174479E-05 -1.47838362E-04  5.76547438E-05 -2.48210173E-05  2.13323985E-06
  4.03623773E-06  3.14541171E-06 -1.20522609E-05 -3.18253165E-06 -3.04673467E-06
 -1.57207292E-05 -1.24174466E-05  3.36455792E-05  5.28959284E-06 -9.91228909E-05
 -3.17853881E-05  2.66714499E-05  1.30297687E-04 -1.73416457E-05 -4.13404182E-09