title                                                                   
SP        RMP2-FC                                                     Aug-CC-pVTZ         
Number of atoms                            I                4
Info1-9                                    I   N=           9
          40          13           0           0           0         110
           1           2           1
Full Title                                 C   N=           1
title       
Route                                      C   N=           5
#p pop=NBO SP NoSymm mp2/aug-cc-pvtz density=current        
Charge                                     I               -1
Multiplicity                               I                1
Number of electrons                        I               44
Number of alpha electrons                  I               22
Number of beta electrons                   I               22
Number of basis functions                  I              169
Number of independent functions            I              169
Number of point charges in /Mol/           I                0
Number of translation vectors              I                0
Atomic numbers                             I   N=           4
           8          17          17           1
Nuclear charges                            R   N=           4
  8.00000000E+00  1.70000000E+01  1.70000000E+01  1.00000000E+00
Current cartesian coordinates              R   N=          12
  0.00000000E+00  0.00000000E+00  0.00000000E+00  5.48904212E+00  0.00000000E+00
  0.00000000E+00 -7.43959853E-01  3.09168378E+00  0.00000000E+00  1.79628950E+00
  0.00000000E+00  6.53795910E-01
Number of symbols in /Mol/                 I                0
Force Field                                I                0
Atom Types                                 C   N=           4
                                                
Int Atom Types                             I   N=           4
           0           0           0           0
MM charges                                 R   N=           4
  0.00000000E+00  0.00000000E+00  0.00000000E+00  0.00000000E+00
Integer atomic weights                     I   N=           4
          16          35          35           1
Real atomic weights                        R   N=           4
  1.59949146E+01  3.49688527E+01  3.49688527E+01  1.00782504E+00
Atom fragment info                         I   N=           4
           0           0           0           0
Atom residue num                           I   N=           4
           0           0           0           0
Nuclear spins                              I   N=           4
           0           3           3           1
Nuclear ZEff                               R   N=           4
 -5.60000000E+00 -1.42400000E+01 -1.42400000E+01 -1.00000000E+00
Nuclear ZNuc                               R   N=           4
  8.00000000E+00  1.70000000E+01  1.70000000E+01  1.00000000E+00
Nuclear QMom                               R   N=           4
  0.00000000E+00 -8.16500000E+00 -8.16500000E+00  0.00000000E+00
Nuclear GFac                               R   N=           4
  0.00000000E+00  8.21874000E-01  8.21874000E-01  2.79284600E+00
MicOpt                                     I   N=           4
          -1          -1          -1          -1
Number of residues                         I                0
Number of secondary structures             I                0
Number of contracted shells                I               55
Number of primitive shells                 I              140
Pure/Cartesian d shells                    I                0
Pure/Cartesian f shells                    I                0
Highest angular momentum                   I                3
Largest degree of contraction              I               11
Shell types                                I   N=          55
           0           0           0           0           0           1
           1           1           1          -2          -2          -2
          -3          -3           0           0           0           0
           0           0           1           1           1           1
           1          -2          -2          -2          -3          -3
           0           0           0           0           0           0
           1           1           1           1           1          -2
          -2          -2          -3          -3           0           0
           0           0           1           1           1          -2
          -2
Number of primitives per shell             I   N=          55
           7           6           1           1           1           3
           1           1           1           1           1           1
           1           1          11           9           8           1
           1           1           6           6           1           1
           1           1           1           1           1           1
          11           9           8           1           1           1
           6           6           1           1           1           1
           1           1           1           1           3           1
           1           1           1           1           1           1
           1
Shell to atom map                          I   N=          55
           1           1           1           1           1           1
           1           1           1           1           1           1
           1           1           2           2           2           2
           2           2           2           2           2           2
           2           2           2           2           2           2
           3           3           3           3           3           3
           3           3           3           3           3           3
           3           3           3           3           4           4
           4           4           4           4           4           4
           4
Primitive exponents                        R   N=         140
  1.53300000E+04  2.29900000E+03  5.22400000E+02  1.47300000E+02  4.75500000E+01
  1.67600000E+01  6.20700000E+00  5.22400000E+02  1.47300000E+02  4.75500000E+01
  1.67600000E+01  6.20700000E+00  6.88200000E-01  1.75200000E+00  2.38400000E-01
  7.37600000E-02  3.44600000E+01  7.74900000E+00  2.28000000E+00  7.15600000E-01
  2.14000000E-01  5.97400000E-02  2.31400000E+00  6.45000000E-01  2.14000000E-01
  1.42800000E+00  5.00000000E-01  4.56100000E+05  6.83300000E+04  1.55500000E+04
  4.40500000E+03  1.43900000E+03  5.20400000E+02  2.03100000E+02  8.39600000E+01
  3.62000000E+01  1.58300000E+01  6.33400000E+00  4.40500000E+03  1.43900000E+03
  5.20400000E+02  2.03100000E+02  8.39600000E+01  3.62000000E+01  1.58300000E+01
  6.33400000E+00  2.69400000E+00  1.43900000E+03  2.03100000E+02  8.39600000E+01
  3.62000000E+01  1.58300000E+01  6.33400000E+00  2.69400000E+00  4.31300000E-01
  9.76800000E-01  1.62500000E-01  5.91000000E-02  6.63300000E+02  1.56800000E+02
  4.99800000E+01  1.84200000E+01  7.24000000E+00  2.92200000E+00  1.56800000E+02
  4.99800000E+01  1.84200000E+01  7.24000000E+00  2.92200000E+00  3.81800000E-01
  1.02200000E+00  1.30100000E-01  4.19000000E-02  1.04600000E+00  3.44000000E-01
  1.35000000E-01  7.06000000E-01  3.12000000E-01  4.56100000E+05  6.83300000E+04
  1.55500000E+04  4.40500000E+03  1.43900000E+03  5.20400000E+02  2.03100000E+02
  8.39600000E+01  3.62000000E+01  1.58300000E+01  6.33400000E+00  4.40500000E+03
  1.43900000E+03  5.20400000E+02  2.03100000E+02  8.39600000E+01  3.62000000E+01
  1.58300000E+01  6.33400000E+00  2.69400000E+00  1.43900000E+03  2.03100000E+02
  8.39600000E+01  3.62000000E+01  1.58300000E+01  6.33400000E+00  2.69400000E+00
  4.31300000E-01  9.76800000E-01  1.62500000E-01  5.91000000E-02  6.63300000E+02
  1.56800000E+02  4.99800000E+01  1.84200000E+01  7.24000000E+00  2.92200000E+00
  1.56800000E+02  4.99800000E+01  1.84200000E+01  7.24000000E+00  2.92200000E+00
  3.81800000E-01  1.02200000E+00  1.30100000E-01  4.19000000E-02  1.04600000E+00
  3.44000000E-01  1.35000000E-01  7.06000000E-01  3.12000000E-01  3.38700000E+01
  5.09500000E+00  1.15900000E+00  3.25800000E-01  1.02700000E-01  2.52600000E-02
  1.40700000E+00  3.88000000E-01  1.02000000E-01  1.05700000E+00  2.47000000E-01
Contraction coefficients                   R   N=         140
  5.19808943E-04  4.02025621E-03  2.07128267E-02  8.10105536E-02  2.35962985E-01
  4.42653446E-01  3.57064423E-01 -4.42115008E-05 -1.22591041E-03 -1.05517725E-02
 -6.74452633E-02 -1.71198607E-01  1.07329856E+00  1.00000000E+00  1.00000000E+00
  1.00000000E+00  4.11634896E-02  2.57762836E-01  8.02419274E-01  1.00000000E+00
  1.00000000E+00  1.00000000E+00  1.00000000E+00  1.00000000E+00  1.00000000E+00
  1.00000000E+00  1.00000000E+00  4.93229477E-05  3.83207967E-04  2.00947816E-03
  8.38950124E-03  2.94843950E-02  8.78759948E-02  2.11589759E-01  3.65611554E-01
  3.41246350E-01  1.02162570E-01  2.14249949E-03 -2.21747925E-06 -1.71189708E-04
 -1.27922846E-03 -9.32956265E-03 -3.98910062E-02 -1.05536085E-01  9.36202446E-03
  5.10511140E-01  5.73150737E-01  4.03949245E-06  2.12481765E-04  8.59484452E-04
  4.63248159E-03  4.47343490E-04 -7.38438245E-02 -3.62271994E-01  1.16620337E+00
  1.00000000E+00  1.00000000E+00  1.00000000E+00  2.47206402E-03  1.97550234E-02
  9.09917355E-02  2.63187834E-01  4.49078073E-01  3.60183072E-01  3.03427809E-05
 -1.22475826E-03 -6.01429772E-03 -2.76401323E-02  4.35105612E-04  1.00307272E+00
  1.00000000E+00  1.00000000E+00  1.00000000E+00  1.00000000E+00  1.00000000E+00
  1.00000000E+00  1.00000000E+00  1.00000000E+00  4.93229477E-05  3.83207967E-04
  2.00947816E-03  8.38950124E-03  2.94843950E-02  8.78759948E-02  2.11589759E-01
  3.65611554E-01  3.41246350E-01  1.02162570E-01  2.14249949E-03 -2.21747925E-06
 -1.71189708E-04 -1.27922846E-03 -9.32956265E-03 -3.98910062E-02 -1.05536085E-01
  9.36202446E-03  5.10511140E-01  5.73150737E-01  4.03949245E-06  2.12481765E-04
  8.59484452E-04  4.63248159E-03  4.47343490E-04 -7.38438245E-02 -3.62271994E-01
  1.16620337E+00  1.00000000E+00  1.00000000E+00  1.00000000E+00  2.47206402E-03
  1.97550234E-02  9.09917355E-02  2.63187834E-01  4.49078073E-01  3.60183072E-01
  3.03427809E-05 -1.22475826E-03 -6.01429772E-03 -2.76401323E-02  4.35105612E-04
  1.00307272E+00  1.00000000E+00  1.00000000E+00  1.00000000E+00  1.00000000E+00
  1.00000000E+00  1.00000000E+00  1.00000000E+00  1.00000000E+00  2.54948632E-02
  1.90362766E-01  8.52162022E-01  1.00000000E+00  1.00000000E+00  1.00000000E+00
  1.00000000E+00  1.00000000E+00  1.00000000E+00  1.00000000E+00  1.00000000E+00
Coordinates of each shell                  R   N=         165
  0.00000000E+00  0.00000000E+00  0.00000000E+00  0.00000000E+00  0.00000000E+00
  0.00000000E+00  0.00000000E+00  0.00000000E+00  0.00000000E+00  0.00000000E+00
  0.00000000E+00  0.00000000E+00  0.00000000E+00  0.00000000E+00  0.00000000E+00
  0.00000000E+00  0.00000000E+00  0.00000000E+00  0.00000000E+00  0.00000000E+00
  0.00000000E+00  0.00000000E+00  0.00000000E+00  0.00000000E+00  0.00000000E+00
  0.00000000E+00  0.00000000E+00  0.00000000E+00  0.00000000E+00  0.00000000E+00
  0.00000000E+00  0.00000000E+00  0.00000000E+00  0.00000000E+00  0.00000000E+00
  0.00000000E+00  0.00000000E+00  0.00000000E+00  0.00000000E+00  0.00000000E+00
  0.00000000E+00  0.00000000E+00  5.48904212E+00  0.00000000E+00  0.00000000E+00
  5.48904212E+00  0.00000000E+00  0.00000000E+00  5.48904212E+00  0.00000000E+00
  0.00000000E+00  5.48904212E+00  0.00000000E+00  0.00000000E+00  5.48904212E+00
  0.00000000E+00  0.00000000E+00  5.48904212E+00  0.00000000E+00  0.00000000E+00
  5.48904212E+00  0.00000000E+00  0.00000000E+00  5.48904212E+00  0.00000000E+00
  0.00000000E+00  5.48904212E+00  0.00000000E+00  0.00000000E+00  5.48904212E+00
  0.00000000E+00  0.00000000E+00  5.48904212E+00  0.00000000E+00  0.00000000E+00
  5.48904212E+00  0.00000000E+00  0.00000000E+00  5.48904212E+00  0.00000000E+00
  0.00000000E+00  5.48904212E+00  0.00000000E+00  0.00000000E+00  5.48904212E+00
  0.00000000E+00  0.00000000E+00  5.48904212E+00  0.00000000E+00  0.00000000E+00
 -7.43959853E-01  3.09168378E+00  0.00000000E+00 -7.43959853E-01  3.09168378E+00
  0.00000000E+00 -7.43959853E-01  3.09168378E+00  0.00000000E+00 -7.43959853E-01
  3.09168378E+00  0.00000000E+00 -7.43959853E-01  3.09168378E+00  0.00000000E+00
 -7.43959853E-01  3.09168378E+00  0.00000000E+00 -7.43959853E-01  3.09168378E+00
  0.00000000E+00 -7.43959853E-01  3.09168378E+00  0.00000000E+00 -7.43959853E-01
  3.09168378E+00  0.00000000E+00 -7.43959853E-01  3.09168378E+00  0.00000000E+00
 -7.43959853E-01  3.09168378E+00  0.00000000E+00 -7.43959853E-01  3.09168378E+00
  0.00000000E+00 -7.43959853E-01  3.09168378E+00  0.00000000E+00 -7.43959853E-01
  3.09168378E+00  0.00000000E+00 -7.43959853E-01  3.09168378E+00  0.00000000E+00
 -7.43959853E-01  3.09168378E+00  0.00000000E+00  1.79628950E+00  0.00000000E+00
  6.53795910E-01  1.79628950E+00  0.00000000E+00  6.53795910E-01  1.79628950E+00
  0.00000000E+00  6.53795910E-01  1.79628950E+00  0.00000000E+00  6.53795910E-01
  1.79628950E+00  0.00000000E+00  6.53795910E-01  1.79628950E+00  0.00000000E+00
  6.53795910E-01  1.79628950E+00  0.00000000E+00  6.53795910E-01  1.79628950E+00
  0.00000000E+00  6.53795910E-01  1.79628950E+00  0.00000000E+00  6.53795910E-01
Num ILSW                                   I              100
ILSW                                       I   N=         100
           0           0           0           0           2           0
           0           0           0           0           0          -1
           5           0           0           0           0           0
           0           0           0           0           0           0
           1           1           0           0           0           0
           0           0      100000           0          -1           0
           0           0           0           0           0           0
           0           0           0           1           0           0
           0 -2000000000           1           0           0           0
           0           0           4          52           0           0
           0           0           0           0           0           0
           0           0           0           4           0           1
           0           0           0           0           0           0
           0           0           0           0           0           0
           0           0           0           0           0           0
           0           0           0           0           0           0
           0           0           0           0
Num RLSW                                   I               52
RLSW                                       R   N=          52
  1.00000000E+00  1.00000000E+00  1.00000000E+00  1.00000000E+00  1.00000000E+00
  0.00000000E+00  0.00000000E+00  1.00000000E+00  0.00000000E+00  0.00000000E+00
  0.00000000E+00  0.00000000E+00  1.00000000E+00  0.00000000E+00  0.00000000E+00
  0.00000000E+00  0.00000000E+00  1.00000000E+00  0.00000000E+00  0.00000000E+00
  0.00000000E+00  0.00000000E+00  1.00000000E+00  0.00000000E+00  0.00000000E+00
  0.00000000E+00  0.00000000E+00  1.00000000E+00  0.00000000E+00  0.00000000E+00
  0.00000000E+00  0.00000000E+00  1.00000000E+00  0.00000000E+00  0.00000000E+00
  0.00000000E+00  0.00000000E+00  0.00000000E+00  1.00000000E+00  1.00000000E+00
  0.00000000E+00  1.00000000E+00  0.00000000E+00  0.00000000E+00  0.00000000E+00
  0.00000000E+00  0.00000000E+00  0.00000000E+00  0.00000000E+00  0.00000000E+00
  0.00000000E+00  0.00000000E+00
MxBond                                     I                2
NBond                                      I   N=           4
           2           0           1           1
IBond                                      I   N=           8
           3           4           0           0           1           0
           1           0
RBond                                      R   N=           8
  1.00000000E+00  1.00000000E+00  0.00000000E+00  0.00000000E+00  1.00000000E+00
  0.00000000E+00  1.00000000E+00  0.00000000E+00
Virial Ratio                               R      2.000152873877853E+00
SCF Energy                                 R     -9.945196689182484E+02
MP2 Energy                                 R     -9.951865325530495E+02
Total Energy                               R     -9.951865325530495E+02
Post-SCF wavefunction norm                 R      1.103703205470092E+00
RMS Density                                R      4.463944455776634E-09
Job Status                                 I                1
Nuclear derivative order                   I                0
External E-field                           R   N=          35
  0.00000000E+00  0.00000000E+00  0.00000000E+00  0.00000000E+00  0.00000000E+00
  0.00000000E+00  0.00000000E+00  0.00000000E+00  0.00000000E+00  0.00000000E+00
  0.00000000E+00  0.00000000E+00  0.00000000E+00  0.00000000E+00  0.00000000E+00
  0.00000000E+00  0.00000000E+00  0.00000000E+00  0.00000000E+00  0.00000000E+00
  0.00000000E+00  0.00000000E+00  0.00000000E+00  0.00000000E+00  0.00000000E+00
  0.00000000E+00  0.00000000E+00  0.00000000E+00  0.00000000E+00  0.00000000E+00
  0.00000000E+00  0.00000000E+00  0.00000000E+00  0.00000000E+00  0.00000000E+00
IOpCl                                      I                0
IROHF                                      I                0
Alpha Orbital Energies                     R   N=         169
 -1.04726719E+02 -1.04542702E+02 -2.04564869E+01 -1.04462850E+01 -1.02674685E+01
 -7.91346005E+00 -7.91083597E+00 -7.91072302E+00 -7.73361416E+00 -7.73346071E+00
 -7.73345767E+00 -1.22487202E+00 -8.90924762E-01 -7.80633582E-01 -5.35141635E-01
 -4.37905017E-01 -4.29533460E-01 -3.03942290E-01 -2.76155153E-01 -1.97646047E-01
 -1.90521763E-01 -1.89801255E-01  1.59695472E-01  1.84722705E-01  2.25527125E-01
  2.33534131E-01  2.59589844E-01  2.73585253E-01  2.78358785E-01  2.93201762E-01
  3.11381109E-01  3.16142680E-01  3.40170627E-01  3.47911139E-01  4.01558559E-01
  4.31735624E-01  4.64287102E-01  5.02647138E-01  5.22850699E-01  5.43213081E-01
  5.57587010E-01  5.79263251E-01  5.88374391E-01  6.04816099E-01  6.10661069E-01
  6.49368711E-01  6.60775939E-01  6.67031418E-01  6.77364524E-01  7.24637831E-01
  7.71700456E-01  7.89220060E-01  8.43818839E-01  8.62930871E-01  8.96192664E-01
  8.99271561E-01  9.10516948E-01  9.15825645E-01  9.68053544E-01  9.94797347E-01
  1.01364944E+00  1.07194867E+00  1.07373885E+00  1.09310408E+00  1.10111886E+00
  1.10996457E+00  1.14064411E+00  1.15647977E+00  1.18879866E+00  1.19063218E+00
  1.19892677E+00  1.21225681E+00  1.22354249E+00  1.25018508E+00  1.27746089E+00
  1.29506112E+00  1.32888435E+00  1.36244111E+00  1.39924187E+00  1.42879435E+00
  1.43106517E+00  1.44020978E+00  1.48860251E+00  1.50199696E+00  1.52190799E+00
  1.58627540E+00  1.63567225E+00  1.65297159E+00  1.66893480E+00  1.69527885E+00
  1.71857186E+00  1.74807979E+00  1.83073237E+00  1.83547250E+00  1.86215690E+00
  1.90618766E+00  1.93609125E+00  1.98089916E+00  2.23592102E+00  2.41689684E+00
  2.45437155E+00  2.51889817E+00  2.52507773E+00  2.55794230E+00  2.61167389E+00
  2.64027461E+00  2.65504551E+00  2.68636852E+00  2.71194685E+00  2.72106095E+00
  2.72981770E+00  2.75494728E+00  2.77947274E+00  2.79230661E+00  2.80409439E+00
  2.82441788E+00  2.91347618E+00  2.92390398E+00  2.92712374E+00  2.96854773E+00
  3.04588422E+00  3.07430183E+00  3.10368873E+00  3.11984689E+00  3.20041080E+00
  3.22014286E+00  3.22543711E+00  3.26125878E+00  3.29983680E+00  3.33012866E+00
  3.33940538E+00  3.35352297E+00  3.38885263E+00  3.39227614E+00  3.42083086E+00
  3.49894329E+00  3.51333980E+00  3.53679452E+00  3.57113775E+00  3.59505809E+00
  3.64720202E+00  3.92690722E+00  4.25733065E+00  4.33940583E+00  4.49030333E+00
  4.56071392E+00  4.58760612E+00  4.76118525E+00  4.98748006E+00  5.09332978E+00
  5.34239075E+00  5.47188660E+00  5.67421172E+00  6.24829086E+00  6.50627863E+00
  6.61304839E+00  6.88905617E+00  6.90963380E+00  6.93145618E+00  7.00337507E+00
  7.32961917E+00  7.34185488E+00  7.36031095E+00  7.45098566E+00  7.55418273E+00
  7.78016731E+00  7.78752530E+00  8.36150938E+00  1.44207594E+01
Alpha MO coefficients                      R   N=       28561
  5.48442607E-06  3.04076143E-05  2.00309648E-06 -1.45780921E-04 -9.65216739E-05
  2.19615794E-07  3.08425713E-06  5.91022108E-07 -2.81160627E-06 -9.31254606E-06
 -2.86874891E-06  5.16933200E-05 -1.51751548E-04  1.11414243E-06  1.25609360E-05
 -3.48850189E-05  2.25211509E-06 -2.06616250E-06  2.24639564E-07  5.31714688E-08
 -2.99888195E-06 -1.39932405E-06  1.37913385E-05 -1.05560761E-06 -4.36604662E-07
  2.06456120E-05  9.52452075E-06  2.51003336E-05  5.19341214E-06 -3.88038581E-06
  5.89248302E-05  1.34164162E-05 -1.58427672E-07 -1.65400601E-07  8.78450952E-08
 -5.26274622E-07  4.80234255E-07 -1.55334679E-06  9.03985219E-07  2.15934396E-07
 -2.86696866E-06  1.25456429E-05  2.15174516E-06 -2.04696051E-06 -5.43914510E-06
  9.15949431E-06  1.92797665E-07  2.77543668E-06  7.14354221E-06 -1.48886667E-06
 -1.81486908E-05 -1.34111005E-05  1.53263525E-07 -5.62587350E-09 -7.22269759E-08
  1.13649888E-06  5.02820258E-07 -7.25796903E-07 -7.37669638E-07  1.91913833E-08
  3.25641779E-07  1.82394153E-05 -3.53191940E-06 -4.14389955E-06  4.14245741E-06
 -3.11670823E-07  2.33056061E-07 -1.88020651E-07 -3.23786932E-07 -9.86811211E-08
  3.61974058E-07 -2.78303973E-07  1.04445815E-06  1.75327069E-06  4.97773224E-07
 -2.04380655E-06  6.41749300E-07  3.29193016E-06  2.01026155E-06 -1.55004787E-06
 -5.67884006E-06  2.10881870E-06 -1.22738477E-07 -5.97071966E-08  1.00113000E-07
 -7.07941854E-08 -6.49148399E-07 -3.44249552E-07 -4.03599173E-08  8.08888242E-07
 -5.27352008E-07  2.99792047E-09 -5.92903812E-07  1.30229786E-06  1.45710883E-06
 -6.34644178E-07  9.99534805E-01  1.95415334E-03  1.84581782E-04 -4.17939502E-04
  7.20280251E-05  7.40719305E-05  1.71670392E-05 -7.50879637E-05  1.47001929E-06
  3.66195786E-05 -1.34252872E-04  2.37632128E-06 -1.77473898E-05  7.14352528E-05
 -1.34798120E-06  4.80708301E-06 -5.63167007E-05 -2.88074639E-06  2.20417417E-06
 -1.15889540E-05 -9.46877462E-07 -3.62031293E-06  1.04336130E-07 -1.53677745E-07
 -5.03063448E-06 -3.33383970E-06 -2.83422594E-05  4.02267841E-07 -6.17205893E-07
 -4.34151913E-05 -2.36934070E-05 -1.57352119E-06 -2.96497792E-06  9.24784850E-07
 -9.28740833E-06  5.70081138E-07 -5.21062748E-07 -1.82226882E-06  6.07670079E-06
  3.57171354E-07 -8.35715277E-07 -4.78095414E-06  4.16090043E-06  1.02347061E-06
 -2.90261112E-08  3.13189927E-06 -9.99026662E-07  1.71028992E-06 -3.91521898E-06
  7.04981549E-06 -1.35378895E-06 -1.96040171E-05  4.32038525E-05 -6.25418440E-06
  6.27358931E-07 -2.49862655E-06  1.59383000E-07 -8.03338627E-06  1.57635672E-05
 -1.01865564E-06  5.59771415E-06  1.97490944E-05 -2.92002016E-06 -5.31102024E-07
  7.36548238E-09 -6.97242909E-08 -8.32123224E-07 -9.59236201E-07 -1.18206997E-05
  3.05520019E-06 -1.16247770E-06  8.19335065E-06 -2.60695896E-06  1.26776160E-07
  1.03570700E-06  1.06433117E-07 -7.65422386E-06  1.11500138E-05  3.82808436E-07
 -5.47362008E-08  9.82558258E-08 -1.13721994E-06  2.40683952E-07 -4.77911978E-07
 -1.40017158E-05 -1.26104991E-06  1.87013045E-05 -6.29316629E-06 -1.75782732E-06
  1.24546014E-05 -2.73331349E-07 -4.80735021E-07 -1.03751295E-07  2.68766250E-07
  1.46964199E-07  2.04588159E-06  2.71061600E-06  3.77546010E-07 -2.16792394E-06
 -5.20336992E-07  6.86596700E-06  4.62021659E-06  1.02015895E-07 -3.09319972E-06
  4.14079388E-06 -3.88001449E-07  3.95106040E-07  3.57960027E-08  2.13614469E-07
 -1.70632043E-07 -4.18755745E-07 -1.01012909E-07  1.96001488E-07  1.72168838E-06
 -1.46561630E-07  9.63081353E-07  5.78818448E-07 -2.31009882E-07  3.89417550E-07
  9.99531746E-01  1.98262004E-03  2.11078129E-04 -4.23555526E-04 -1.67162462E-04
 -2.24517956E-05 -7.90121493E-06 -3.72467831E-07  4.06000622E-06 -2.08307228E-05
  2.99871040E-07  4.36276307E-06  9.21784082E-06  1.33475856E-07 -3.13509718E-06
  7.77334579E-05 -2.68971812E-06 -1.20493869E-05  3.35145844E-06  3.58045126E-07
 -1.15375502E-06 -6.50978097E-07 -6.02752884E-07 -1.18727824E-07  1.07397042E-06
 -1.57306095E-07  6.30884330E-07  1.85662030E-08  3.72475635E-07 -4.55516654E-07
  4.21389537E-07  1.19113481E-05  7.39754336E-06 -6.24956163E-07 -2.26856265E-05
  9.45533762E-07 -6.56056071E-07  1.27299709E-06  1.01123970E-07  7.66200667E-07
  8.88505679E-09 -2.12115213E-06  1.54079854E-07  2.04378552E-06 -3.89651083E-06
 -1.36998490E-07 -2.51532338E-06 -1.05561052E-07  6.16873940E-06 -3.73043765E-07
  1.50897470E-07  2.45317079E-06  6.14711885E-06 -1.72716163E-06 -6.48196388E-06
 -1.22838314E-05  3.45533909E-08 -7.21111539E-08 -3.60895078E-08  1.71655876E-06
 -1.41614944E-06 -2.40751573E-07 -5.11788867E-08  1.35668239E-07  1.47660628E-07
 -1.51603222E-05  5.30875110E-06 -7.77149237E-07 -4.70196759E-07  2.63406903E-06
 -2.81153208E-06 -6.22644817E-08  1.15250268E-07 -1.29870286E-07  2.30961954E-07
 -6.15462420E-07  5.16594340E-08 -4.21790297E-07  3.95982370E-07 -4.97603392E-07
  1.79417803E-06  3.94710175E-06 -5.94134995E-07  5.33608257E-07 -4.75673224E-06
  5.09745106E-06 -3.45419011E-07  1.06018105E-07  4.76585580E-08  8.58403509E-08
  2.59453897E-08  5.63905011E-08 -7.73833116E-07  8.17185103E-07  4.57952582E-07
 -4.63767545E-07 -2.51479038E-07  3.59937324E-07  8.12370799E-08  2.25840538E-06
 -1.02724116E-06  1.20325594E-05  1.02568258E-04  5.11621872E-07 -1.49206463E-07
 -2.90998908E-07  1.15809223E-06  7.61858273E-06 -5.07131509E-07 -1.50854314E-05
  6.95224103E-05  1.48106895E-05 -3.07035816E-05  1.04434005E-06  1.85354746E-06
  3.04373743E-07 -7.43002880E-08  9.68436207E-08  7.36286738E-07  5.36053076E-06
 -1.76546890E-06 -2.53350547E-06 -1.59404095E-06  9.76815360E-01 -9.18677541E-03
  4.33826586E-02  1.89093687E-03  5.40250545E-04  7.64498473E-04  1.57241338E-03
  5.25434641E-04 -9.20470226E-04 -1.20633720E-03 -5.28345188E-04 -5.15361920E-05
  5.37446199E-04 -1.82048898E-04 -1.54479450E-04  1.89183393E-04 -6.84800594E-05
  4.53933621E-05  1.66664515E-05 -1.44833736E-06  9.96309363E-05  4.10480800E-05
  3.59805972E-04 -3.03130589E-04 -1.36242548E-05  6.02276907E-05  1.66206075E-04
 -1.92966012E-04 -9.99069536E-06 -1.20821297E-05 -1.00846415E-04 -1.34205624E-04
  8.83189202E-06  1.32390355E-06  1.80792054E-05 -3.55547051E-06 -7.20042019E-06
 -9.31884989E-06  9.37546589E-06  4.09246482E-05 -7.16314246E-06  4.09383041E-06
 -7.95236956E-05 -2.29164949E-05 -8.05018884E-05 -4.85226504E-05  2.35153719E-07
  9.79618532E-06  2.28170056E-05  1.64710802E-05 -5.02100979E-04 -2.83379013E-04
  2.61029984E-06  1.70330842E-07 -2.49533847E-06  1.41413739E-04 -3.86901813E-06
 -2.39861252E-05 -1.31356594E-05 -8.12131548E-07  1.39628010E-05  3.41388284E-04
  4.66030554E-05 -3.59781875E-04  4.40727513E-05 -9.12785155E-06 -3.08938720E-05
  1.28170051E-05 -1.60289801E-05  5.36223043E-07 -9.49764485E-06  6.06725940E-06
 -8.32221802E-06  9.63197797E-05 -3.42455955E-06 -3.09486797E-05 -1.63414544E-05
 -3.10911750E-05  2.53401283E-04  1.42513317E-05 -6.56083403E-05 -1.31131967E-05
 -9.98914864E-06 -2.24225232E-05 -2.51363619E-06  2.33379048E-05  5.46642343E-06
 -6.42594779E-06 -2.64828076E-06  6.17814959E-05  9.42986175E-05  3.05402591E-06
 -1.06663766E-04 -1.14804381E-05 -1.26099196E-06  1.17168620E-05  4.61777969E-06
  7.46903629E-05  8.94696753E-05 -2.85659739E-04  6.44785118E-05 -5.84132252E-04
 -3.46464010E-06 -9.29694415E-06 -2.08230861E-06  4.93719923E-05 -5.98465045E-04
 -3.29097386E-05 -3.85281626E-05  2.61107625E-04  9.27529624E-06  1.53009338E-04
  3.62798699E-04  7.38970956E-05 -1.56405719E-05  1.30971270E-04  7.93062246E-06
  1.48207655E-05 -4.53435610E-06 -1.36447299E-06  6.37434293E-06  7.72891848E-06
 -3.15490755E-04  9.47328497E-06  2.41609326E-05 -4.63886170E-04 -1.86813538E-04
  1.17331061E-04  1.88726186E-05 -5.42479662E-05  2.84566586E-04 -3.29417370E-05
  1.04911067E-05 -2.84471140E-05  1.63041318E-04  2.03371818E-06  6.36958121E-06
 -1.28684056E-04  1.90372675E-04 -1.82176231E-05 -4.27613410E-05  1.01360750E-04
  1.29186209E-05 -1.39776910E-05 -6.76610784E-05  5.27567350E-05  3.24744550E-04
  1.17522858E-03  5.90828552E-04  8.90164799E-05 -2.30663168E-04  4.55337342E-05
 -9.04107172E-05 -1.13537034E-03  1.65180736E-05 -2.45175584E-04  5.14624349E-04
 -1.93202923E-04  2.99769533E-04 -1.32006995E-05 -1.04529885E-05 -2.49403834E-05
  9.22145044E-06 -6.28903324E-05 -4.13525276E-04  4.23854380E-04  4.89549463E-06
  8.59131591E-04 -6.76761601E-06 -7.23582232E-05 -7.32821927E-05 -1.04931840E-04
  2.68288435E-03  2.26813251E-03 -2.38275813E-05  3.94408155E-05 -8.56904492E-06
 -6.07760213E-05  5.74661621E-04  4.75563573E-05 -6.08938721E-04  2.44460989E-03
  7.32997695E-05 -2.67078977E-04  8.78085438E-04 -5.20051851E-05 -2.52468387E-05
 -5.69185405E-06 -4.57729485E-06 -4.47325972E-05 -3.43140740E-05 -1.91199068E-04
  3.95796409E-05  3.60404869E-05 -2.53208312E-04 -4.69038881E-05 -2.66099451E-04
 -4.73891630E-05  8.27055991E-05 -7.57155655E-04  5.78228102E-05 -2.52124840E-06
  5.19427038E-06 -2.23559326E-05  1.15817197E-05 -5.15274928E-06  4.79139650E-05
 -3.84062624E-05 -8.05316859E-06  8.59757134E-06 -4.08721807E-05 -2.07986467E-05
  7.97097628E-05 -6.59839820E-05  1.26748688E-04 -2.90848829E-06 -3.90564566E-05
 -1.07681505E-04  1.49901964E-05  2.56726078E-04  1.79560736E-04 -2.99177253E-06
 -6.23980665E-07  1.33183541E-06 -2.49342648E-05 -2.90056964E-05  1.54687901E-05
  1.58882866E-05  3.56492981E-06 -6.21229200E-06 -2.88907768E-04  1.40082000E-04
  4.12911574E-05 -1.11859201E-04  6.58892116E-05 -2.92205364E-05  1.67677560E-06
  7.05043198E-06  3.78050158E-06 -7.21370766E-06  2.52232392E-06 -1.18502677E-05
 -3.47888942E-05 -1.63096053E-05  3.97220279E-05  1.46414618E-06 -8.80986113E-05
 -4.76023143E-06  4.44867468E-05  1.01504040E-04 -1.28768679E-04  2.70393341E-07