title                                                                   
SP        RMP2-FC                                                     Aug-CC-pVTZ         
Number of atoms                            I                4
Info1-9                                    I   N=           9
          40          13           0           0           0         110
           1           2           1
Full Title                                 C   N=           1
title       
Route                                      C   N=           5
#p pop=NBO SP NoSymm mp2/aug-cc-pvtz density=current        
Charge                                     I               -1
Multiplicity                               I                1
Number of electrons                        I               44
Number of alpha electrons                  I               22
Number of beta electrons                   I               22
Number of basis functions                  I              169
Number of independent functions            I              169
Number of point charges in /Mol/           I                0
Number of translation vectors              I                0
Atomic numbers                             I   N=           4
           8          17          17           1
Nuclear charges                            R   N=           4
  8.00000000E+00  1.70000000E+01  1.70000000E+01  1.00000000E+00
Current cartesian coordinates              R   N=          12
  0.00000000E+00  0.00000000E+00  0.00000000E+00  5.48904212E+00  0.00000000E+00
  0.00000000E+00 -7.43959853E-01  3.09168378E+00  0.00000000E+00  1.63421056E+00
  0.00000000E+00  9.43511908E-01
Number of symbols in /Mol/                 I                0
Force Field                                I                0
Atom Types                                 C   N=           4
                                                
Int Atom Types                             I   N=           4
           0           0           0           0
MM charges                                 R   N=           4
  0.00000000E+00  0.00000000E+00  0.00000000E+00  0.00000000E+00
Integer atomic weights                     I   N=           4
          16          35          35           1
Real atomic weights                        R   N=           4
  1.59949146E+01  3.49688527E+01  3.49688527E+01  1.00782504E+00
Atom fragment info                         I   N=           4
           0           0           0           0
Atom residue num                           I   N=           4
           0           0           0           0
Nuclear spins                              I   N=           4
           0           3           3           1
Nuclear ZEff                               R   N=           4
 -5.60000000E+00 -1.42400000E+01 -1.42400000E+01 -1.00000000E+00
Nuclear ZNuc                               R   N=           4
  8.00000000E+00  1.70000000E+01  1.70000000E+01  1.00000000E+00
Nuclear QMom                               R   N=           4
  0.00000000E+00 -8.16500000E+00 -8.16500000E+00  0.00000000E+00
Nuclear GFac                               R   N=           4
  0.00000000E+00  8.21874000E-01  8.21874000E-01  2.79284600E+00
MicOpt                                     I   N=           4
          -1          -1          -1          -1
Number of residues                         I                0
Number of secondary structures             I                0
Number of contracted shells                I               55
Number of primitive shells                 I              140
Pure/Cartesian d shells                    I                0
Pure/Cartesian f shells                    I                0
Highest angular momentum                   I                3
Largest degree of contraction              I               11
Shell types                                I   N=          55
           0           0           0           0           0           1
           1           1           1          -2          -2          -2
          -3          -3           0           0           0           0
           0           0           1           1           1           1
           1          -2          -2          -2          -3          -3
           0           0           0           0           0           0
           1           1           1           1           1          -2
          -2          -2          -3          -3           0           0
           0           0           1           1           1          -2
          -2
Number of primitives per shell             I   N=          55
           7           6           1           1           1           3
           1           1           1           1           1           1
           1           1          11           9           8           1
           1           1           6           6           1           1
           1           1           1           1           1           1
          11           9           8           1           1           1
           6           6           1           1           1           1
           1           1           1           1           3           1
           1           1           1           1           1           1
           1
Shell to atom map                          I   N=          55
           1           1           1           1           1           1
           1           1           1           1           1           1
           1           1           2           2           2           2
           2           2           2           2           2           2
           2           2           2           2           2           2
           3           3           3           3           3           3
           3           3           3           3           3           3
           3           3           3           3           4           4
           4           4           4           4           4           4
           4
Primitive exponents                        R   N=         140
  1.53300000E+04  2.29900000E+03  5.22400000E+02  1.47300000E+02  4.75500000E+01
  1.67600000E+01  6.20700000E+00  5.22400000E+02  1.47300000E+02  4.75500000E+01
  1.67600000E+01  6.20700000E+00  6.88200000E-01  1.75200000E+00  2.38400000E-01
  7.37600000E-02  3.44600000E+01  7.74900000E+00  2.28000000E+00  7.15600000E-01
  2.14000000E-01  5.97400000E-02  2.31400000E+00  6.45000000E-01  2.14000000E-01
  1.42800000E+00  5.00000000E-01  4.56100000E+05  6.83300000E+04  1.55500000E+04
  4.40500000E+03  1.43900000E+03  5.20400000E+02  2.03100000E+02  8.39600000E+01
  3.62000000E+01  1.58300000E+01  6.33400000E+00  4.40500000E+03  1.43900000E+03
  5.20400000E+02  2.03100000E+02  8.39600000E+01  3.62000000E+01  1.58300000E+01
  6.33400000E+00  2.69400000E+00  1.43900000E+03  2.03100000E+02  8.39600000E+01
  3.62000000E+01  1.58300000E+01  6.33400000E+00  2.69400000E+00  4.31300000E-01
  9.76800000E-01  1.62500000E-01  5.91000000E-02  6.63300000E+02  1.56800000E+02
  4.99800000E+01  1.84200000E+01  7.24000000E+00  2.92200000E+00  1.56800000E+02
  4.99800000E+01  1.84200000E+01  7.24000000E+00  2.92200000E+00  3.81800000E-01
  1.02200000E+00  1.30100000E-01  4.19000000E-02  1.04600000E+00  3.44000000E-01
  1.35000000E-01  7.06000000E-01  3.12000000E-01  4.56100000E+05  6.83300000E+04
  1.55500000E+04  4.40500000E+03  1.43900000E+03  5.20400000E+02  2.03100000E+02
  8.39600000E+01  3.62000000E+01  1.58300000E+01  6.33400000E+00  4.40500000E+03
  1.43900000E+03  5.20400000E+02  2.03100000E+02  8.39600000E+01  3.62000000E+01
  1.58300000E+01  6.33400000E+00  2.69400000E+00  1.43900000E+03  2.03100000E+02
  8.39600000E+01  3.62000000E+01  1.58300000E+01  6.33400000E+00  2.69400000E+00
  4.31300000E-01  9.76800000E-01  1.62500000E-01  5.91000000E-02  6.63300000E+02
  1.56800000E+02  4.99800000E+01  1.84200000E+01  7.24000000E+00  2.92200000E+00
  1.56800000E+02  4.99800000E+01  1.84200000E+01  7.24000000E+00  2.92200000E+00
  3.81800000E-01  1.02200000E+00  1.30100000E-01  4.19000000E-02  1.04600000E+00
  3.44000000E-01  1.35000000E-01  7.06000000E-01  3.12000000E-01  3.38700000E+01
  5.09500000E+00  1.15900000E+00  3.25800000E-01  1.02700000E-01  2.52600000E-02
  1.40700000E+00  3.88000000E-01  1.02000000E-01  1.05700000E+00  2.47000000E-01
Contraction coefficients                   R   N=         140
  5.19808943E-04  4.02025621E-03  2.07128267E-02  8.10105536E-02  2.35962985E-01
  4.42653446E-01  3.57064423E-01 -4.42115008E-05 -1.22591041E-03 -1.05517725E-02
 -6.74452633E-02 -1.71198607E-01  1.07329856E+00  1.00000000E+00  1.00000000E+00
  1.00000000E+00  4.11634896E-02  2.57762836E-01  8.02419274E-01  1.00000000E+00
  1.00000000E+00  1.00000000E+00  1.00000000E+00  1.00000000E+00  1.00000000E+00
  1.00000000E+00  1.00000000E+00  4.93229477E-05  3.83207967E-04  2.00947816E-03
  8.38950124E-03  2.94843950E-02  8.78759948E-02  2.11589759E-01  3.65611554E-01
  3.41246350E-01  1.02162570E-01  2.14249949E-03 -2.21747925E-06 -1.71189708E-04
 -1.27922846E-03 -9.32956265E-03 -3.98910062E-02 -1.05536085E-01  9.36202446E-03
  5.10511140E-01  5.73150737E-01  4.03949245E-06  2.12481765E-04  8.59484452E-04
  4.63248159E-03  4.47343490E-04 -7.38438245E-02 -3.62271994E-01  1.16620337E+00
  1.00000000E+00  1.00000000E+00  1.00000000E+00  2.47206402E-03  1.97550234E-02
  9.09917355E-02  2.63187834E-01  4.49078073E-01  3.60183072E-01  3.03427809E-05
 -1.22475826E-03 -6.01429772E-03 -2.76401323E-02  4.35105612E-04  1.00307272E+00
  1.00000000E+00  1.00000000E+00  1.00000000E+00  1.00000000E+00  1.00000000E+00
  1.00000000E+00  1.00000000E+00  1.00000000E+00  4.93229477E-05  3.83207967E-04
  2.00947816E-03  8.38950124E-03  2.94843950E-02  8.78759948E-02  2.11589759E-01
  3.65611554E-01  3.41246350E-01  1.02162570E-01  2.14249949E-03 -2.21747925E-06
 -1.71189708E-04 -1.27922846E-03 -9.32956265E-03 -3.98910062E-02 -1.05536085E-01
  9.36202446E-03  5.10511140E-01  5.73150737E-01  4.03949245E-06  2.12481765E-04
  8.59484452E-04  4.63248159E-03  4.47343490E-04 -7.38438245E-02 -3.62271994E-01
  1.16620337E+00  1.00000000E+00  1.00000000E+00  1.00000000E+00  2.47206402E-03
  1.97550234E-02  9.09917355E-02  2.63187834E-01  4.49078073E-01  3.60183072E-01
  3.03427809E-05 -1.22475826E-03 -6.01429772E-03 -2.76401323E-02  4.35105612E-04
  1.00307272E+00  1.00000000E+00  1.00000000E+00  1.00000000E+00  1.00000000E+00
  1.00000000E+00  1.00000000E+00  1.00000000E+00  1.00000000E+00  2.54948632E-02
  1.90362766E-01  8.52162022E-01  1.00000000E+00  1.00000000E+00  1.00000000E+00
  1.00000000E+00  1.00000000E+00  1.00000000E+00  1.00000000E+00  1.00000000E+00
Coordinates of each shell                  R   N=         165
  0.00000000E+00  0.00000000E+00  0.00000000E+00  0.00000000E+00  0.00000000E+00
  0.00000000E+00  0.00000000E+00  0.00000000E+00  0.00000000E+00  0.00000000E+00
  0.00000000E+00  0.00000000E+00  0.00000000E+00  0.00000000E+00  0.00000000E+00
  0.00000000E+00  0.00000000E+00  0.00000000E+00  0.00000000E+00  0.00000000E+00
  0.00000000E+00  0.00000000E+00  0.00000000E+00  0.00000000E+00  0.00000000E+00
  0.00000000E+00  0.00000000E+00  0.00000000E+00  0.00000000E+00  0.00000000E+00
  0.00000000E+00  0.00000000E+00  0.00000000E+00  0.00000000E+00  0.00000000E+00
  0.00000000E+00  0.00000000E+00  0.00000000E+00  0.00000000E+00  0.00000000E+00
  0.00000000E+00  0.00000000E+00  5.48904212E+00  0.00000000E+00  0.00000000E+00
  5.48904212E+00  0.00000000E+00  0.00000000E+00  5.48904212E+00  0.00000000E+00
  0.00000000E+00  5.48904212E+00  0.00000000E+00  0.00000000E+00  5.48904212E+00
  0.00000000E+00  0.00000000E+00  5.48904212E+00  0.00000000E+00  0.00000000E+00
  5.48904212E+00  0.00000000E+00  0.00000000E+00  5.48904212E+00  0.00000000E+00
  0.00000000E+00  5.48904212E+00  0.00000000E+00  0.00000000E+00  5.48904212E+00
  0.00000000E+00  0.00000000E+00  5.48904212E+00  0.00000000E+00  0.00000000E+00
  5.48904212E+00  0.00000000E+00  0.00000000E+00  5.48904212E+00  0.00000000E+00
  0.00000000E+00  5.48904212E+00  0.00000000E+00  0.00000000E+00  5.48904212E+00
  0.00000000E+00  0.00000000E+00  5.48904212E+00  0.00000000E+00  0.00000000E+00
 -7.43959853E-01  3.09168378E+00  0.00000000E+00 -7.43959853E-01  3.09168378E+00
  0.00000000E+00 -7.43959853E-01  3.09168378E+00  0.00000000E+00 -7.43959853E-01
  3.09168378E+00  0.00000000E+00 -7.43959853E-01  3.09168378E+00  0.00000000E+00
 -7.43959853E-01  3.09168378E+00  0.00000000E+00 -7.43959853E-01  3.09168378E+00
  0.00000000E+00 -7.43959853E-01  3.09168378E+00  0.00000000E+00 -7.43959853E-01
  3.09168378E+00  0.00000000E+00 -7.43959853E-01  3.09168378E+00  0.00000000E+00
 -7.43959853E-01  3.09168378E+00  0.00000000E+00 -7.43959853E-01  3.09168378E+00
  0.00000000E+00 -7.43959853E-01  3.09168378E+00  0.00000000E+00 -7.43959853E-01
  3.09168378E+00  0.00000000E+00 -7.43959853E-01  3.09168378E+00  0.00000000E+00
 -7.43959853E-01  3.09168378E+00  0.00000000E+00  1.63421056E+00  0.00000000E+00
  9.43511908E-01  1.63421056E+00  0.00000000E+00  9.43511908E-01  1.63421056E+00
  0.00000000E+00  9.43511908E-01  1.63421056E+00  0.00000000E+00  9.43511908E-01
  1.63421056E+00  0.00000000E+00  9.43511908E-01  1.63421056E+00  0.00000000E+00
  9.43511908E-01  1.63421056E+00  0.00000000E+00  9.43511908E-01  1.63421056E+00
  0.00000000E+00  9.43511908E-01  1.63421056E+00  0.00000000E+00  9.43511908E-01
Num ILSW                                   I              100
ILSW                                       I   N=         100
           0           0           0           0           2           0
           0           0           0           0           0          -1
           5           0           0           0           0           0
           0           0           0           0           0           0
           1           1           0           0           0           0
           0           0      100000           0          -1           0
           0           0           0           0           0           0
           0           0           0           1           0           0
           0 -2000000000           1           0           0           0
           0           0           4          52           0           0
           0           0           0           0           0           0
           0           0           0           4           0           1
           0           0           0           0           0           0
           0           0           0           0           0           0
           0           0           0           0           0           0
           0           0           0           0           0           0
           0           0           0           0
Num RLSW                                   I               52
RLSW                                       R   N=          52
  1.00000000E+00  1.00000000E+00  1.00000000E+00  1.00000000E+00  1.00000000E+00
  0.00000000E+00  0.00000000E+00  1.00000000E+00  0.00000000E+00  0.00000000E+00
  0.00000000E+00  0.00000000E+00  1.00000000E+00  0.00000000E+00  0.00000000E+00
  0.00000000E+00  0.00000000E+00  1.00000000E+00  0.00000000E+00  0.00000000E+00
  0.00000000E+00  0.00000000E+00  1.00000000E+00  0.00000000E+00  0.00000000E+00
  0.00000000E+00  0.00000000E+00  1.00000000E+00  0.00000000E+00  0.00000000E+00
  0.00000000E+00  0.00000000E+00  1.00000000E+00  0.00000000E+00  0.00000000E+00
  0.00000000E+00  0.00000000E+00  0.00000000E+00  1.00000000E+00  1.00000000E+00
  0.00000000E+00  1.00000000E+00  0.00000000E+00  0.00000000E+00  0.00000000E+00
  0.00000000E+00  0.00000000E+00  0.00000000E+00  0.00000000E+00  0.00000000E+00
  0.00000000E+00  0.00000000E+00
MxBond                                     I                2
NBond                                      I   N=           4
           2           0           1           1
IBond                                      I   N=           8
           3           4           0           0           1           0
           1           0
RBond                                      R   N=           8
  1.00000000E+00  1.00000000E+00  0.00000000E+00  0.00000000E+00  1.00000000E+00
  0.00000000E+00  1.00000000E+00  0.00000000E+00
Virial Ratio                               R      2.000143419329271E+00
SCF Energy                                 R     -9.945149777493730E+02
MP2 Energy                                 R     -9.951806619106326E+02
Total Energy                               R     -9.951806619106326E+02
Post-SCF wavefunction norm                 R      1.103565712401052E+00
RMS Density                                R      5.507255765928498E-09
Job Status                                 I                1
Nuclear derivative order                   I                0
External E-field                           R   N=          35
  0.00000000E+00  0.00000000E+00  0.00000000E+00  0.00000000E+00  0.00000000E+00
  0.00000000E+00  0.00000000E+00  0.00000000E+00  0.00000000E+00  0.00000000E+00
  0.00000000E+00  0.00000000E+00  0.00000000E+00  0.00000000E+00  0.00000000E+00
  0.00000000E+00  0.00000000E+00  0.00000000E+00  0.00000000E+00  0.00000000E+00
  0.00000000E+00  0.00000000E+00  0.00000000E+00  0.00000000E+00  0.00000000E+00
  0.00000000E+00  0.00000000E+00  0.00000000E+00  0.00000000E+00  0.00000000E+00
  0.00000000E+00  0.00000000E+00  0.00000000E+00  0.00000000E+00  0.00000000E+00
IOpCl                                      I                0
IROHF                                      I                0
Alpha Orbital Energies                     R   N=         169
 -1.04730702E+02 -1.04536000E+02 -2.04638498E+01 -1.04503083E+01 -1.02606528E+01
 -7.91749114E+00 -7.91483098E+00 -7.91469795E+00 -7.72678001E+00 -7.72665123E+00
 -7.72664200E+00 -1.23361541E+00 -8.95700659E-01 -7.72173256E-01 -5.42558238E-01
 -4.43819499E-01 -4.35164101E-01 -3.07952632E-01 -2.80866796E-01 -1.89600463E-01
 -1.83740849E-01 -1.82567793E-01  1.57667362E-01  1.82904119E-01  2.24679788E-01
  2.32465744E-01  2.61201056E-01  2.74314618E-01  2.80696647E-01  2.89920651E-01
  3.04808653E-01  3.18434690E-01  3.38780801E-01  3.47299076E-01  4.07569182E-01
  4.18700657E-01  4.63566314E-01  4.92246859E-01  5.24553458E-01  5.42715817E-01
  5.56456596E-01  5.80852421E-01  5.87246574E-01  6.06272358E-01  6.16551788E-01
  6.25382261E-01  6.59226913E-01  6.67998034E-01  6.74076112E-01  7.01288753E-01
  7.64569398E-01  7.93338862E-01  8.54144966E-01  8.64614177E-01  8.87067788E-01
  8.97752881E-01  9.07318527E-01  9.21945787E-01  9.62026445E-01  9.89663335E-01
  9.98691169E-01  1.06702842E+00  1.08313073E+00  1.09782520E+00  1.09944649E+00
  1.11584037E+00  1.13138412E+00  1.14808740E+00  1.19329869E+00  1.19715036E+00
  1.20283993E+00  1.21583311E+00  1.22394036E+00  1.24596783E+00  1.27025824E+00
  1.29152640E+00  1.31881862E+00  1.34702111E+00  1.39075568E+00  1.41733590E+00
  1.43016071E+00  1.43180370E+00  1.44501128E+00  1.48906605E+00  1.51085893E+00
  1.55875004E+00  1.60926610E+00  1.62882609E+00  1.65588400E+00  1.68735570E+00
  1.71914799E+00  1.74190612E+00  1.77899586E+00  1.85425275E+00  1.85695222E+00
  1.88247228E+00  1.95470844E+00  1.97879809E+00  2.18220986E+00  2.39550017E+00
  2.42634169E+00  2.51273437E+00  2.51994920E+00  2.54270312E+00  2.60495013E+00
  2.63119628E+00  2.64925372E+00  2.68233861E+00  2.70162775E+00  2.71260827E+00
  2.72466324E+00  2.75274202E+00  2.77809508E+00  2.79907452E+00  2.81469124E+00
  2.82559424E+00  2.89139466E+00  2.91402412E+00  2.93094166E+00  2.95618705E+00
  3.00988336E+00  3.02547737E+00  3.07413012E+00  3.11129810E+00  3.18383499E+00
  3.20739690E+00  3.22290746E+00  3.24795683E+00  3.29736185E+00  3.30599417E+00
  3.34074096E+00  3.34865812E+00  3.35907521E+00  3.39582325E+00  3.42808060E+00
  3.48741966E+00  3.50721179E+00  3.52902366E+00  3.56821139E+00  3.59276972E+00
  3.63236669E+00  3.91733229E+00  4.19137705E+00  4.35769153E+00  4.49569185E+00
  4.57531954E+00  4.61889174E+00  4.73973676E+00  4.97877519E+00  5.03459978E+00
  5.36381187E+00  5.44298113E+00  5.68201908E+00  6.21216717E+00  6.45402263E+00
  6.65818488E+00  6.88620875E+00  6.90572032E+00  6.92241113E+00  6.99556323E+00
  7.33809262E+00  7.35004115E+00  7.35857667E+00  7.45163639E+00  7.53587305E+00
  7.75228008E+00  7.76640287E+00  8.37173562E+00  1.44357329E+01
Alpha MO coefficients                      R   N=       28561
  5.97363127E-06  3.27918344E-05  1.51641326E-06 -1.37353452E-04 -8.48064552E-05
 -2.24754875E-09  3.18935388E-06  6.18291164E-07 -9.76628839E-07 -9.73842273E-06
 -2.76202368E-06  5.27764878E-05 -1.51029721E-04  3.07322080E-06  1.41192629E-05
 -3.19606108E-05  3.55661143E-06 -1.96852645E-06  2.28501039E-07  1.17931225E-07
 -2.89656939E-06 -1.37124362E-06  1.33271562E-05 -5.99099221E-07 -7.93143935E-07
  2.06597889E-05  9.40728745E-06  2.53976497E-05  7.84107539E-06 -7.10929686E-06
  5.76919971E-05  1.40448427E-05 -8.55545937E-08 -8.51306740E-08  3.90277950E-07
 -7.35532872E-07  7.34677254E-07 -1.36187987E-06  7.30892698E-07 -9.47812967E-08
 -2.70712803E-06  1.13861054E-05  3.17875832E-06 -3.05253375E-06 -6.10322213E-06
  9.84616278E-06  2.04352139E-07  3.00023005E-06  7.69375271E-06 -1.77230213E-06
 -1.48463751E-05 -1.49282241E-05  7.11789680E-08 -3.10782038E-08 -1.74096672E-08
 -5.30598843E-07 -5.67456509E-08 -1.25232401E-07 -4.79357098E-07  1.00991406E-07
  1.10848946E-07  1.82190504E-05 -8.87959012E-07 -4.21045080E-06  4.38017880E-06
 -2.95496069E-07  8.75355289E-08 -2.20870426E-07 -1.75621472E-07 -1.29772895E-07
  5.47459642E-07 -5.64105969E-08  9.15863432E-07  1.10502778E-06  5.90696396E-07
 -2.08841593E-06  2.09075789E-07  3.29942374E-06  2.13313401E-06 -1.43268156E-06
 -6.24509004E-06  2.21274606E-07  2.11247112E-08 -1.02208462E-07  2.62405296E-07
 -1.57246004E-07 -6.09984207E-07 -6.27582119E-07 -5.70127036E-07  3.58128718E-07
 -5.74116547E-07 -4.22778186E-07 -2.55092309E-07  1.10970684E-06  2.40284938E-06
  8.97309469E-07  9.99534814E-01  1.95401995E-03  1.84491786E-04 -4.17726764E-04
  7.11727558E-05  7.05783842E-05  1.66959751E-05 -7.56045389E-05  2.03585136E-06
  3.58208574E-05 -1.34461622E-04  3.20328268E-06 -1.73194146E-05  7.17396329E-05
 -1.84373570E-06  6.41070474E-06 -5.42761493E-05 -2.49079631E-06  1.71834462E-06
 -1.13673289E-05 -1.13952752E-06 -3.63790926E-06  1.52582462E-07 -1.72214929E-07
 -5.27557759E-06 -3.34069249E-06 -2.81470720E-05  4.97238045E-07 -1.00564431E-06
 -4.30197867E-05 -2.35122795E-05 -2.10212553E-06 -3.31580065E-06  5.25082383E-07
 -8.00402009E-06  3.32246591E-07 -5.59257482E-07 -1.56068040E-06  5.88816883E-06
  3.99152628E-07 -1.10280908E-06 -5.01260554E-06  4.40325422E-06  9.71811155E-07
 -6.54650876E-07  3.36476100E-06 -1.22995729E-06  2.13707641E-06 -3.36364176E-06
  6.40462337E-06 -1.02194193E-06 -2.23813580E-05  2.76541971E-05 -5.34068438E-06
  5.86549629E-07 -2.34657802E-06  3.14966776E-07 -6.08824686E-06  1.64677057E-05
 -3.28864500E-07  8.74781597E-06  1.55929123E-05 -3.74543638E-06 -5.88244811E-07
 -5.70355691E-08 -1.42480243E-07 -1.30525990E-06 -8.99974318E-07 -8.22357510E-06
  1.84675107E-06 -8.41611476E-07  6.41115177E-06 -4.21823070E-06 -4.68861914E-07
 -2.28635272E-06  6.49372251E-08 -1.18393472E-05 -6.87965668E-06  3.16409065E-07
 -4.03214391E-08  4.14509479E-07 -1.40676725E-06  1.42459115E-07 -2.11967114E-06
  1.27667943E-05  7.12183682E-07  1.30716112E-05 -8.76376469E-06  6.63736507E-07
  9.84538602E-06  1.02527852E-07 -4.94823076E-07 -1.02739688E-07  6.13464539E-08
  2.02355521E-07 -9.65485674E-08  2.13423770E-06  3.97475998E-07 -7.17312484E-07
 -7.01060242E-07 -1.18079066E-06  7.64481760E-06  1.43427709E-06  8.55364930E-06
  5.00224363E-06  9.82217199E-08  4.54376648E-07 -3.51319669E-08 -1.01680662E-07
 -2.07952418E-07 -4.93988482E-07 -1.43778828E-08 -1.16188346E-06 -1.42719288E-07
  2.68847623E-08  1.44611786E-06  8.71729682E-07  1.24650494E-06  1.82578883E-07
  9.99531765E-01  1.98129430E-03  2.09209515E-04 -4.21836221E-04 -1.63072532E-04
 -1.13409295E-05 -5.39102397E-06 -3.47129192E-07  4.68249995E-06 -1.57508103E-05
  4.24574764E-07  3.85714509E-06  6.35350619E-06  8.64171733E-08 -3.11954053E-06
  7.36291627E-05 -2.88701343E-06 -1.45449155E-05  1.57000765E-07  4.03033254E-07
 -1.06287817E-06 -5.62813781E-07 -1.11201584E-06 -1.40678963E-07  1.35358310E-06
 -1.82339084E-07  1.34982339E-06  1.78191954E-06  4.27696833E-07 -2.82235189E-06
  4.89799483E-07  1.21034243E-05  9.12181099E-06 -8.49904426E-07 -2.31723332E-05
  1.17154234E-06 -7.88410184E-07  1.41570939E-06  6.60739776E-08  1.01167742E-06
 -1.02719158E-08 -2.54270981E-06  2.77663074E-07  2.91697805E-06 -4.13599270E-06
 -4.68743195E-08 -3.88493903E-06 -3.28122581E-08  7.63207239E-06 -6.89915734E-07
  1.93620988E-07  3.01661055E-06  7.68352413E-06 -1.80527872E-06 -1.22365989E-05
 -1.41952810E-05 -1.02858326E-07 -7.12708370E-08 -3.71983830E-08  2.44917038E-08
 -1.33337410E-06 -3.47656131E-07  5.01768931E-07  5.24746780E-08  1.71242632E-07
 -1.56566097E-05  7.57970829E-06 -3.35647374E-06 -6.84285776E-07  2.08916658E-06
 -2.48753753E-06 -7.55144166E-08 -1.80444502E-08 -2.01104996E-07  2.68013157E-07
 -6.79299058E-07  5.10619040E-07 -2.13325057E-07  1.00845233E-06 -5.01907941E-07
  2.66180185E-06  3.44781815E-06 -2.16938027E-06  1.17501567E-06 -4.38878561E-06
  4.36785927E-06 -9.53089233E-08  3.88184694E-07 -3.18455869E-08  5.01075463E-08
 -3.84873508E-08  2.10666538E-07 -7.76867961E-07  5.33586316E-07 -1.16693885E-07
 -5.27791588E-07  1.64983452E-07  7.71629725E-07  9.44221842E-08  2.00825325E-06
 -1.55786101E-06 -2.49801246E-05  1.30609568E-04  7.12081790E-07 -1.54470307E-07
 -2.15499137E-07  1.14367163E-06  7.87098235E-06 -1.49859842E-06 -5.47188908E-06
  3.96724689E-05  1.54529937E-05 -3.69301256E-05  4.83833488E-07  4.14975925E-07
  4.38733471E-07  3.67165590E-07  2.01324421E-07 -6.55830468E-06  1.71474135E-06
 -2.46115168E-06  1.15243932E-05 -1.52449129E-06  9.76828705E-01 -9.11039039E-03
  4.33781551E-02  2.16855804E-03  4.99590255E-04  6.77122580E-04  1.55992028E-03
  7.69485768E-04 -7.80304076E-04 -1.20844502E-03 -7.30483067E-04 -1.41060807E-04
  7.02480500E-04 -2.35380190E-04 -1.20760849E-04  1.60957997E-04 -9.13549577E-05
  5.03349884E-05  2.43075230E-05 -5.11999292E-07  1.01321019E-04  4.21339738E-05
  2.50509565E-04 -4.03581823E-04 -1.96082837E-05  9.71756556E-05  1.74521556E-04
 -2.02005301E-04 -3.03759823E-05  1.46979622E-05 -1.71611466E-04 -1.70967360E-04
  8.24423396E-06 -8.92116735E-06  1.49265527E-05 -2.75855429E-06 -1.15507174E-05
 -1.05181045E-05  1.05431917E-05  4.06626444E-05 -4.50491531E-05 -6.16603046E-06
 -1.04083542E-04 -2.70614629E-05 -5.58614217E-05 -4.81902850E-05 -9.56056333E-07
 -5.54210379E-06 -2.40350192E-05  5.17776450E-06 -7.55617473E-06  3.28740724E-05
 -3.02765159E-06  8.09940142E-08 -6.46009111E-08  2.62004416E-05 -2.64036918E-06
  7.59326086E-06  8.39552221E-06 -3.34655613E-07  4.08664910E-06 -2.42856868E-05
  3.30580286E-05 -2.44957865E-04 -1.19789226E-05 -1.01486174E-05 -1.83817084E-05
  9.36685169E-06 -1.10711519E-05  1.50442794E-06 -5.26843468E-06  4.42622536E-06
 -2.49700871E-05  5.42806465E-05 -6.26394280E-06  1.08672915E-05 -1.26150625E-05
 -7.96446422E-05  1.96011815E-04  1.51196132E-05 -8.71764754E-06  8.51707565E-07
 -5.04817495E-06 -1.98935304E-05 -4.34229330E-06  2.40178394E-05  4.09423146E-06
 -1.93977299E-05  1.10497076E-06  3.82124623E-05  8.99773788E-05  7.38565709E-06
 -9.24666464E-05 -6.77190340E-06  2.46876250E-05 -5.12403978E-07  4.48010729E-06
  7.18028598E-05  8.50890689E-05 -2.74856451E-04 -9.49680357E-05 -4.95578165E-04
 -4.96433592E-06 -5.09962657E-06 -2.94010358E-06  3.09320499E-05 -5.29576655E-04
 -4.66192499E-05 -3.28352352E-05  2.45026957E-04  1.32356533E-05  1.92983832E-04
  4.45433529E-04  8.92066191E-05 -2.05120873E-05  1.11357065E-04  1.79147415E-05
  1.34125790E-05 -3.35487844E-06 -1.23247609E-06  8.76360180E-06  1.00309167E-05
 -2.95838595E-04  3.98192012E-06  3.24078355E-05 -4.43391521E-04 -1.91690669E-04
  1.25630849E-04  4.12212695E-05 -5.78117675E-05  3.33536627E-04 -2.97915070E-05
  1.14592687E-05 -3.18669719E-05  1.61942213E-04  1.62192766E-06  7.99133891E-06
 -1.29240858E-04  1.88722904E-04 -1.67503430E-05 -3.30176167E-05  9.57488792E-05
  1.86753758E-05 -1.80370546E-05 -7.20489500E-05  4.32999033E-05  3.76455082E-04
  1.40044152E-03 -2.78804065E-04  1.61329714E-05 -2.23042042E-04  5.14455294E-05
 -1.31145861E-04 -9.85395655E-04 -7.34507762E-06 -3.94472313E-04  3.84936964E-05
 -2.25744397E-04  4.09244052E-04 -1.96617647E-05 -2.77413293E-05 -3.75167386E-05
  9.39359533E-06 -5.91745988E-05 -2.20600440E-04  4.85588623E-04  1.09257329E-05
  5.58524846E-04  3.41578788E-05 -7.70195354E-05 -9.93175047E-05 -1.02661583E-04
  2.50352241E-03  1.95748707E-03 -2.16568213E-05  3.77210533E-05 -9.75606696E-06
 -8.85192623E-05  5.86064531E-04  4.81562748E-05 -6.83127217E-04  2.46509805E-03
  4.87980213E-05 -3.12120803E-04  7.99089695E-04 -8.42714067E-05 -2.83583336E-05
 -5.93101507E-06 -7.20423852E-06 -4.60724384E-05 -3.45065162E-05 -1.72298044E-04
  3.71941699E-05  5.52593194E-05 -2.56159325E-04 -4.78506371E-05 -2.65408865E-04
 -9.16624279E-05  1.60788243E-04 -7.50183992E-04  1.85703641E-05 -4.48131284E-06
  7.40951645E-06 -2.64240125E-05  1.59127340E-05 -9.48164799E-06  4.34835752E-05
 -3.53397473E-05  2.68609599E-06  1.54914847E-05 -5.27988230E-06 -3.49849955E-05
  1.15603050E-04 -5.22835683E-05  1.00878634E-04 -3.36400761E-06 -4.60396346E-05
 -1.25015306E-04  2.20771297E-05  2.31059067E-04  2.92863638E-04 -7.46965012E-07
  4.84866062E-07  4.39856006E-07  1.36644644E-05 -1.01238193E-05  3.97577945E-06
  7.58795769E-06 -4.22758402E-07 -2.70227116E-06 -3.39194040E-04  5.93995931E-05
  6.42963563E-05 -1.33850488E-04  6.38766134E-05 -2.98369218E-05  1.40229229E-06
  6.13510715E-06  4.04858325E-06 -9.69926587E-06 -1.05476721E-06 -6.02728292E-06
 -2.86731733E-05 -1.72390472E-05  3.77376574E-05  7.14734908E-06 -9.67630263E-05
 -1.69064654E-05  4.08733489E-05  1.20680178E-04 -6.75451985E-05 -6.57437452E-07