title                                                                   
SP        RMP2-FC                                                     Aug-CC-pVTZ         
Number of atoms                            I                4
Info1-9                                    I   N=           9
          40          13           0           0           0         110
           1           2           1
Full Title                                 C   N=           1
title       
Route                                      C   N=           5
#p pop=NBO SP NoSymm mp2/aug-cc-pvtz density=current        
Charge                                     I               -1
Multiplicity                               I                1
Number of electrons                        I               44
Number of alpha electrons                  I               22
Number of beta electrons                   I               22
Number of basis functions                  I              169
Number of independent functions            I              169
Number of point charges in /Mol/           I                0
Number of translation vectors              I                0
Atomic numbers                             I   N=           4
           8          17          17           1
Nuclear charges                            R   N=           4
  8.00000000E+00  1.70000000E+01  1.70000000E+01  1.00000000E+00
Current cartesian coordinates              R   N=          12
  0.00000000E+00  0.00000000E+00  0.00000000E+00  5.48904212E+00  0.00000000E+00
  0.00000000E+00 -7.43959853E-01  3.09168378E+00  0.00000000E+00  1.72163078E+00
  0.00000000E+00  8.02809619E-01
Number of symbols in /Mol/                 I                0
Force Field                                I                0
Atom Types                                 C   N=           4
                                                
Int Atom Types                             I   N=           4
           0           0           0           0
MM charges                                 R   N=           4
  0.00000000E+00  0.00000000E+00  0.00000000E+00  0.00000000E+00
Integer atomic weights                     I   N=           4
          16          35          35           1
Real atomic weights                        R   N=           4
  1.59949146E+01  3.49688527E+01  3.49688527E+01  1.00782504E+00
Atom fragment info                         I   N=           4
           0           0           0           0
Atom residue num                           I   N=           4
           0           0           0           0
Nuclear spins                              I   N=           4
           0           3           3           1
Nuclear ZEff                               R   N=           4
 -5.60000000E+00 -1.42400000E+01 -1.42400000E+01 -1.00000000E+00
Nuclear ZNuc                               R   N=           4
  8.00000000E+00  1.70000000E+01  1.70000000E+01  1.00000000E+00
Nuclear QMom                               R   N=           4
  0.00000000E+00 -8.16500000E+00 -8.16500000E+00  0.00000000E+00
Nuclear GFac                               R   N=           4
  0.00000000E+00  8.21874000E-01  8.21874000E-01  2.79284600E+00
MicOpt                                     I   N=           4
          -1          -1          -1          -1
Number of residues                         I                0
Number of secondary structures             I                0
Number of contracted shells                I               55
Number of primitive shells                 I              140
Pure/Cartesian d shells                    I                0
Pure/Cartesian f shells                    I                0
Highest angular momentum                   I                3
Largest degree of contraction              I               11
Shell types                                I   N=          55
           0           0           0           0           0           1
           1           1           1          -2          -2          -2
          -3          -3           0           0           0           0
           0           0           1           1           1           1
           1          -2          -2          -2          -3          -3
           0           0           0           0           0           0
           1           1           1           1           1          -2
          -2          -2          -3          -3           0           0
           0           0           1           1           1          -2
          -2
Number of primitives per shell             I   N=          55
           7           6           1           1           1           3
           1           1           1           1           1           1
           1           1          11           9           8           1
           1           1           6           6           1           1
           1           1           1           1           1           1
          11           9           8           1           1           1
           6           6           1           1           1           1
           1           1           1           1           3           1
           1           1           1           1           1           1
           1
Shell to atom map                          I   N=          55
           1           1           1           1           1           1
           1           1           1           1           1           1
           1           1           2           2           2           2
           2           2           2           2           2           2
           2           2           2           2           2           2
           3           3           3           3           3           3
           3           3           3           3           3           3
           3           3           3           3           4           4
           4           4           4           4           4           4
           4
Primitive exponents                        R   N=         140
  1.53300000E+04  2.29900000E+03  5.22400000E+02  1.47300000E+02  4.75500000E+01
  1.67600000E+01  6.20700000E+00  5.22400000E+02  1.47300000E+02  4.75500000E+01
  1.67600000E+01  6.20700000E+00  6.88200000E-01  1.75200000E+00  2.38400000E-01
  7.37600000E-02  3.44600000E+01  7.74900000E+00  2.28000000E+00  7.15600000E-01
  2.14000000E-01  5.97400000E-02  2.31400000E+00  6.45000000E-01  2.14000000E-01
  1.42800000E+00  5.00000000E-01  4.56100000E+05  6.83300000E+04  1.55500000E+04
  4.40500000E+03  1.43900000E+03  5.20400000E+02  2.03100000E+02  8.39600000E+01
  3.62000000E+01  1.58300000E+01  6.33400000E+00  4.40500000E+03  1.43900000E+03
  5.20400000E+02  2.03100000E+02  8.39600000E+01  3.62000000E+01  1.58300000E+01
  6.33400000E+00  2.69400000E+00  1.43900000E+03  2.03100000E+02  8.39600000E+01
  3.62000000E+01  1.58300000E+01  6.33400000E+00  2.69400000E+00  4.31300000E-01
  9.76800000E-01  1.62500000E-01  5.91000000E-02  6.63300000E+02  1.56800000E+02
  4.99800000E+01  1.84200000E+01  7.24000000E+00  2.92200000E+00  1.56800000E+02
  4.99800000E+01  1.84200000E+01  7.24000000E+00  2.92200000E+00  3.81800000E-01
  1.02200000E+00  1.30100000E-01  4.19000000E-02  1.04600000E+00  3.44000000E-01
  1.35000000E-01  7.06000000E-01  3.12000000E-01  4.56100000E+05  6.83300000E+04
  1.55500000E+04  4.40500000E+03  1.43900000E+03  5.20400000E+02  2.03100000E+02
  8.39600000E+01  3.62000000E+01  1.58300000E+01  6.33400000E+00  4.40500000E+03
  1.43900000E+03  5.20400000E+02  2.03100000E+02  8.39600000E+01  3.62000000E+01
  1.58300000E+01  6.33400000E+00  2.69400000E+00  1.43900000E+03  2.03100000E+02
  8.39600000E+01  3.62000000E+01  1.58300000E+01  6.33400000E+00  2.69400000E+00
  4.31300000E-01  9.76800000E-01  1.62500000E-01  5.91000000E-02  6.63300000E+02
  1.56800000E+02  4.99800000E+01  1.84200000E+01  7.24000000E+00  2.92200000E+00
  1.56800000E+02  4.99800000E+01  1.84200000E+01  7.24000000E+00  2.92200000E+00
  3.81800000E-01  1.02200000E+00  1.30100000E-01  4.19000000E-02  1.04600000E+00
  3.44000000E-01  1.35000000E-01  7.06000000E-01  3.12000000E-01  3.38700000E+01
  5.09500000E+00  1.15900000E+00  3.25800000E-01  1.02700000E-01  2.52600000E-02
  1.40700000E+00  3.88000000E-01  1.02000000E-01  1.05700000E+00  2.47000000E-01
Contraction coefficients                   R   N=         140
  5.19808943E-04  4.02025621E-03  2.07128267E-02  8.10105536E-02  2.35962985E-01
  4.42653446E-01  3.57064423E-01 -4.42115008E-05 -1.22591041E-03 -1.05517725E-02
 -6.74452633E-02 -1.71198607E-01  1.07329856E+00  1.00000000E+00  1.00000000E+00
  1.00000000E+00  4.11634896E-02  2.57762836E-01  8.02419274E-01  1.00000000E+00
  1.00000000E+00  1.00000000E+00  1.00000000E+00  1.00000000E+00  1.00000000E+00
  1.00000000E+00  1.00000000E+00  4.93229477E-05  3.83207967E-04  2.00947816E-03
  8.38950124E-03  2.94843950E-02  8.78759948E-02  2.11589759E-01  3.65611554E-01
  3.41246350E-01  1.02162570E-01  2.14249949E-03 -2.21747925E-06 -1.71189708E-04
 -1.27922846E-03 -9.32956265E-03 -3.98910062E-02 -1.05536085E-01  9.36202446E-03
  5.10511140E-01  5.73150737E-01  4.03949245E-06  2.12481765E-04  8.59484452E-04
  4.63248159E-03  4.47343490E-04 -7.38438245E-02 -3.62271994E-01  1.16620337E+00
  1.00000000E+00  1.00000000E+00  1.00000000E+00  2.47206402E-03  1.97550234E-02
  9.09917355E-02  2.63187834E-01  4.49078073E-01  3.60183072E-01  3.03427809E-05
 -1.22475826E-03 -6.01429772E-03 -2.76401323E-02  4.35105612E-04  1.00307272E+00
  1.00000000E+00  1.00000000E+00  1.00000000E+00  1.00000000E+00  1.00000000E+00
  1.00000000E+00  1.00000000E+00  1.00000000E+00  4.93229477E-05  3.83207967E-04
  2.00947816E-03  8.38950124E-03  2.94843950E-02  8.78759948E-02  2.11589759E-01
  3.65611554E-01  3.41246350E-01  1.02162570E-01  2.14249949E-03 -2.21747925E-06
 -1.71189708E-04 -1.27922846E-03 -9.32956265E-03 -3.98910062E-02 -1.05536085E-01
  9.36202446E-03  5.10511140E-01  5.73150737E-01  4.03949245E-06  2.12481765E-04
  8.59484452E-04  4.63248159E-03  4.47343490E-04 -7.38438245E-02 -3.62271994E-01
  1.16620337E+00  1.00000000E+00  1.00000000E+00  1.00000000E+00  2.47206402E-03
  1.97550234E-02  9.09917355E-02  2.63187834E-01  4.49078073E-01  3.60183072E-01
  3.03427809E-05 -1.22475826E-03 -6.01429772E-03 -2.76401323E-02  4.35105612E-04
  1.00307272E+00  1.00000000E+00  1.00000000E+00  1.00000000E+00  1.00000000E+00
  1.00000000E+00  1.00000000E+00  1.00000000E+00  1.00000000E+00  2.54948632E-02
  1.90362766E-01  8.52162022E-01  1.00000000E+00  1.00000000E+00  1.00000000E+00
  1.00000000E+00  1.00000000E+00  1.00000000E+00  1.00000000E+00  1.00000000E+00
Coordinates of each shell                  R   N=         165
  0.00000000E+00  0.00000000E+00  0.00000000E+00  0.00000000E+00  0.00000000E+00
  0.00000000E+00  0.00000000E+00  0.00000000E+00  0.00000000E+00  0.00000000E+00
  0.00000000E+00  0.00000000E+00  0.00000000E+00  0.00000000E+00  0.00000000E+00
  0.00000000E+00  0.00000000E+00  0.00000000E+00  0.00000000E+00  0.00000000E+00
  0.00000000E+00  0.00000000E+00  0.00000000E+00  0.00000000E+00  0.00000000E+00
  0.00000000E+00  0.00000000E+00  0.00000000E+00  0.00000000E+00  0.00000000E+00
  0.00000000E+00  0.00000000E+00  0.00000000E+00  0.00000000E+00  0.00000000E+00
  0.00000000E+00  0.00000000E+00  0.00000000E+00  0.00000000E+00  0.00000000E+00
  0.00000000E+00  0.00000000E+00  5.48904212E+00  0.00000000E+00  0.00000000E+00
  5.48904212E+00  0.00000000E+00  0.00000000E+00  5.48904212E+00  0.00000000E+00
  0.00000000E+00  5.48904212E+00  0.00000000E+00  0.00000000E+00  5.48904212E+00
  0.00000000E+00  0.00000000E+00  5.48904212E+00  0.00000000E+00  0.00000000E+00
  5.48904212E+00  0.00000000E+00  0.00000000E+00  5.48904212E+00  0.00000000E+00
  0.00000000E+00  5.48904212E+00  0.00000000E+00  0.00000000E+00  5.48904212E+00
  0.00000000E+00  0.00000000E+00  5.48904212E+00  0.00000000E+00  0.00000000E+00
  5.48904212E+00  0.00000000E+00  0.00000000E+00  5.48904212E+00  0.00000000E+00
  0.00000000E+00  5.48904212E+00  0.00000000E+00  0.00000000E+00  5.48904212E+00
  0.00000000E+00  0.00000000E+00  5.48904212E+00  0.00000000E+00  0.00000000E+00
 -7.43959853E-01  3.09168378E+00  0.00000000E+00 -7.43959853E-01  3.09168378E+00
  0.00000000E+00 -7.43959853E-01  3.09168378E+00  0.00000000E+00 -7.43959853E-01
  3.09168378E+00  0.00000000E+00 -7.43959853E-01  3.09168378E+00  0.00000000E+00
 -7.43959853E-01  3.09168378E+00  0.00000000E+00 -7.43959853E-01  3.09168378E+00
  0.00000000E+00 -7.43959853E-01  3.09168378E+00  0.00000000E+00 -7.43959853E-01
  3.09168378E+00  0.00000000E+00 -7.43959853E-01  3.09168378E+00  0.00000000E+00
 -7.43959853E-01  3.09168378E+00  0.00000000E+00 -7.43959853E-01  3.09168378E+00
  0.00000000E+00 -7.43959853E-01  3.09168378E+00  0.00000000E+00 -7.43959853E-01
  3.09168378E+00  0.00000000E+00 -7.43959853E-01  3.09168378E+00  0.00000000E+00
 -7.43959853E-01  3.09168378E+00  0.00000000E+00  1.72163078E+00  0.00000000E+00
  8.02809619E-01  1.72163078E+00  0.00000000E+00  8.02809619E-01  1.72163078E+00
  0.00000000E+00  8.02809619E-01  1.72163078E+00  0.00000000E+00  8.02809619E-01
  1.72163078E+00  0.00000000E+00  8.02809619E-01  1.72163078E+00  0.00000000E+00
  8.02809619E-01  1.72163078E+00  0.00000000E+00  8.02809619E-01  1.72163078E+00
  0.00000000E+00  8.02809619E-01  1.72163078E+00  0.00000000E+00  8.02809619E-01
Num ILSW                                   I              100
ILSW                                       I   N=         100
           0           0           0           0           2           0
           0           0           0           0           0          -1
           5           0           0           0           0           0
           0           0           0           0           0           0
           1           1           0           0           0           0
           0           0      100000           0          -1           0
           0           0           0           0           0           0
           0           0           0           1           0           0
           0 -2000000000           1           0           0           0
           0           0           4          52           0           0
           0           0           0           0           0           0
           0           0           0           4           0           1
           0           0           0           0           0           0
           0           0           0           0           0           0
           0           0           0           0           0           0
           0           0           0           0           0           0
           0           0           0           0
Num RLSW                                   I               52
RLSW                                       R   N=          52
  1.00000000E+00  1.00000000E+00  1.00000000E+00  1.00000000E+00  1.00000000E+00
  0.00000000E+00  0.00000000E+00  1.00000000E+00  0.00000000E+00  0.00000000E+00
  0.00000000E+00  0.00000000E+00  1.00000000E+00  0.00000000E+00  0.00000000E+00
  0.00000000E+00  0.00000000E+00  1.00000000E+00  0.00000000E+00  0.00000000E+00
  0.00000000E+00  0.00000000E+00  1.00000000E+00  0.00000000E+00  0.00000000E+00
  0.00000000E+00  0.00000000E+00  1.00000000E+00  0.00000000E+00  0.00000000E+00
  0.00000000E+00  0.00000000E+00  1.00000000E+00  0.00000000E+00  0.00000000E+00
  0.00000000E+00  0.00000000E+00  0.00000000E+00  1.00000000E+00  1.00000000E+00
  0.00000000E+00  1.00000000E+00  0.00000000E+00  0.00000000E+00  0.00000000E+00
  0.00000000E+00  0.00000000E+00  0.00000000E+00  0.00000000E+00  0.00000000E+00
  0.00000000E+00  0.00000000E+00
MxBond                                     I                2
NBond                                      I   N=           4
           2           0           1           1
IBond                                      I   N=           8
           3           4           0           0           1           0
           1           0
RBond                                      R   N=           8
  1.00000000E+00  1.00000000E+00  0.00000000E+00  0.00000000E+00  1.00000000E+00
  0.00000000E+00  1.00000000E+00  0.00000000E+00
Virial Ratio                               R      2.000148962308801E+00
SCF Energy                                 R     -9.945174629980363E+02
MP2 Energy                                 R     -9.951837542973339E+02
Total Energy                               R     -9.951837542973339E+02
Post-SCF wavefunction norm                 R      1.103639000199489E+00
RMS Density                                R      5.054286750635533E-09
Job Status                                 I                1
Nuclear derivative order                   I                0
External E-field                           R   N=          35
  0.00000000E+00  0.00000000E+00  0.00000000E+00  0.00000000E+00  0.00000000E+00
  0.00000000E+00  0.00000000E+00  0.00000000E+00  0.00000000E+00  0.00000000E+00
  0.00000000E+00  0.00000000E+00  0.00000000E+00  0.00000000E+00  0.00000000E+00
  0.00000000E+00  0.00000000E+00  0.00000000E+00  0.00000000E+00  0.00000000E+00
  0.00000000E+00  0.00000000E+00  0.00000000E+00  0.00000000E+00  0.00000000E+00
  0.00000000E+00  0.00000000E+00  0.00000000E+00  0.00000000E+00  0.00000000E+00
  0.00000000E+00  0.00000000E+00  0.00000000E+00  0.00000000E+00  0.00000000E+00
IOpCl                                      I                0
IROHF                                      I                0
Alpha Orbital Energies                     R   N=         169
 -1.04728675E+02 -1.04539467E+02 -2.04600908E+01 -1.04482599E+01 -1.02641773E+01
 -7.91543878E+00 -7.91279692E+00 -7.91267430E+00 -7.73031338E+00 -7.73017218E+00
 -7.73016618E+00 -1.22909699E+00 -8.93262356E-01 -7.76512359E-01 -5.38710733E-01
 -4.40798470E-01 -4.32282134E-01 -3.05856308E-01 -2.78477855E-01 -1.93780075E-01
 -1.87245871E-01 -1.86294118E-01  1.58772946E-01  1.83846376E-01  2.25183326E-01
  2.32926346E-01  2.60349709E-01  2.73951035E-01  2.79607378E-01  2.91574740E-01
  3.07828640E-01  3.17414234E-01  3.40307271E-01  3.46940402E-01  4.05099837E-01
  4.24801058E-01  4.64087331E-01  4.97294148E-01  5.23613327E-01  5.43227085E-01
  5.56828781E-01  5.80251299E-01  5.88007905E-01  6.06117383E-01  6.13862086E-01
  6.37355243E-01  6.60135853E-01  6.68249652E-01  6.74493094E-01  7.12982462E-01
  7.67658928E-01  7.91237804E-01  8.51579487E-01  8.60757577E-01  8.91274640E-01
  8.99308724E-01  9.08088439E-01  9.18917587E-01  9.65770300E-01  9.92704688E-01
  1.00386503E+00  1.07060675E+00  1.07931896E+00  1.09458834E+00  1.09997419E+00
  1.11454526E+00  1.13678879E+00  1.15204236E+00  1.19124386E+00  1.19426241E+00
  1.20096561E+00  1.21466634E+00  1.22283491E+00  1.25063075E+00  1.27214248E+00
  1.29215821E+00  1.32411325E+00  1.35469788E+00  1.39501812E+00  1.42688005E+00
  1.43013604E+00  1.44126164E+00  1.46219504E+00  1.48900760E+00  1.51954718E+00
  1.57230354E+00  1.62622028E+00  1.64160004E+00  1.65843592E+00  1.69284458E+00
  1.71547629E+00  1.74762627E+00  1.80590546E+00  1.84392185E+00  1.86116945E+00
  1.89984754E+00  1.93995036E+00  1.97872518E+00  2.20931628E+00  2.41640836E+00
  2.43022586E+00  2.51734924E+00  2.52217939E+00  2.54974878E+00  2.60823918E+00
  2.63695876E+00  2.65152345E+00  2.68412905E+00  2.70739666E+00  2.71731359E+00
  2.72659846E+00  2.75370714E+00  2.77881973E+00  2.79439766E+00  2.80868771E+00
  2.82517030E+00  2.90121207E+00  2.92160325E+00  2.92798341E+00  2.96133590E+00
  3.03387841E+00  3.04257168E+00  3.09568508E+00  3.10890061E+00  3.19121870E+00
  3.21319000E+00  3.22421160E+00  3.25342892E+00  3.29898288E+00  3.32169399E+00
  3.34167291E+00  3.34817621E+00  3.37319413E+00  3.39410153E+00  3.42508877E+00
  3.49365533E+00  3.50862260E+00  3.53283295E+00  3.57155572E+00  3.59366016E+00
  3.63781677E+00  3.92101137E+00  4.23463657E+00  4.34883629E+00  4.49443967E+00
  4.56803165E+00  4.60233226E+00  4.74900179E+00  4.98505357E+00  5.06238835E+00
  5.35088110E+00  5.46040783E+00  5.67743737E+00  6.22342363E+00  6.47766991E+00
  6.63527948E+00  6.88952989E+00  6.90765502E+00  6.92777436E+00  6.99915186E+00
  7.33621759E+00  7.34406858E+00  7.35976442E+00  7.44927707E+00  7.54549900E+00
  7.76777615E+00  7.77503283E+00  8.36445833E+00  1.44150380E+01
Alpha MO coefficients                      R   N=       28561
  5.73043179E-06  3.16037345E-05  1.75718367E-06 -1.41379397E-04 -9.06271071E-05
  9.79366775E-08  3.14367077E-06  6.28058712E-07 -1.84085158E-06 -9.55645913E-06
 -2.94848986E-06  5.24042792E-05 -1.51670662E-04  1.96077846E-06  1.33941563E-05
 -3.34363897E-05  2.90574966E-06 -2.01292422E-06  2.35895255E-07  8.53746193E-08
 -2.94920547E-06 -1.37455294E-06  1.35033233E-05 -8.99180623E-07 -6.19192693E-07
  2.06788503E-05  9.40903027E-06  2.52036077E-05  6.55821369E-06 -5.52795814E-06
  5.83411178E-05  1.36510201E-05 -1.32463240E-07 -1.16126634E-07  2.24070398E-07
 -6.42194768E-07  6.24726080E-07 -1.45303985E-06  8.23942471E-07  7.08290760E-08
 -2.84426863E-06  1.20188468E-05  2.69743737E-06 -2.62283555E-06 -5.78123517E-06
  9.45753365E-06  2.01439092E-07  2.93405298E-06  7.52559148E-06 -1.67414119E-06
 -1.64663909E-05 -1.43023089E-05  1.02565790E-07 -1.67522976E-08 -4.47478918E-08
  1.69881625E-07  2.29889280E-07 -4.22685383E-07 -5.74603427E-07  5.17985188E-08
  2.19045881E-07  1.83103715E-05 -2.06475190E-06 -4.27695425E-06  4.29836533E-06
 -3.21601716E-07  1.71108649E-07 -1.91371055E-07 -2.53019446E-07 -1.18024622E-07
  4.50729164E-07 -1.52502921E-07  9.23150166E-07  1.44842154E-06  5.66335450E-07
 -2.02908786E-06  3.66010443E-07  3.29771254E-06  2.10721359E-06 -1.53636078E-06
 -6.01382564E-06  1.07786398E-06 -5.23811575E-08 -9.81739736E-08  1.87428454E-07
 -1.18529334E-07 -6.53137500E-07 -4.98022171E-07 -3.21453658E-07  5.85137850E-07
 -4.87023233E-07 -2.32932745E-07 -4.17713656E-07  1.24712232E-06  1.95639723E-06
  2.05102949E-07  9.99534808E-01  1.95403750E-03  1.84432855E-04 -4.17785800E-04
  7.18022276E-05  7.25600992E-05  1.69452256E-05 -7.53406982E-05  1.77062903E-06
  3.61714103E-05 -1.34323668E-04  2.80286781E-06 -1.75247452E-05  7.15722734E-05
 -1.60535650E-06  5.74919900E-06 -5.55141400E-05 -2.74730687E-06  1.98687736E-06
 -1.15153610E-05 -1.05683477E-06 -3.63026468E-06  1.35049260E-07 -1.70207080E-07
 -5.15018170E-06 -3.34174490E-06 -2.82422389E-05  4.40102490E-07 -7.96681493E-07
 -4.32341025E-05 -2.35705826E-05 -1.88591865E-06 -3.20825530E-06  7.34555610E-07
 -8.67190377E-06  3.76591904E-07 -5.54582057E-07 -1.68599151E-06  5.98690460E-06
  4.00235937E-07 -9.85666225E-07 -4.88961503E-06  4.28524436E-06  1.04400384E-06
 -3.49497814E-07  3.24581824E-06 -1.15875368E-06  1.96642707E-06 -3.63740510E-06
  6.73607857E-06 -1.18100214E-06 -2.09355700E-05  3.49822840E-05 -5.81625365E-06
  5.92947451E-07 -2.43605797E-06  2.29022544E-07 -6.90749216E-06  1.61781333E-05
 -7.87274312E-07  7.44230151E-06  1.75370240E-05 -3.38465991E-06 -5.46663329E-07
 -1.85474262E-08 -1.10300239E-07 -1.05711555E-06 -9.36340407E-07 -9.97192829E-06
  2.50975889E-06 -1.02207873E-06  7.19373822E-06 -3.63391897E-06 -3.35437136E-07
 -1.48467675E-06  1.76823234E-07 -1.16869731E-05 -1.75503738E-06  3.92329116E-07
 -6.31821025E-08  2.98519963E-07 -1.76471960E-06  2.60253805E-07 -1.57605386E-06
  8.62417146E-07 -5.59199344E-07  1.62238952E-05 -8.25936411E-06 -8.23023391E-07
  1.13641193E-05 -7.95813345E-08 -4.89586310E-07 -1.06026794E-07  1.14084001E-07
  1.78487967E-07  1.03840658E-06  2.25695656E-06  3.97128402E-07 -1.39338894E-06
 -6.22524517E-07  2.65870943E-06  6.12216163E-06  8.32333939E-07  3.92631753E-06
  4.92079898E-06 -1.40223295E-07  4.86453799E-07 -4.89488657E-09  1.22580395E-08
 -2.03750134E-07 -4.99752561E-07 -6.12974817E-08 -3.26957946E-07  6.52740927E-07
 -5.22244562E-08  1.21003448E-06  7.74577276E-07  6.66398376E-07  3.24524197E-07
  9.99531747E-01  1.98178775E-03  2.09802549E-04 -4.22460268E-04 -1.65386282E-04
 -1.61194548E-05 -6.60231913E-06 -3.57396147E-07  4.45784958E-06 -1.76058700E-05
  3.87487018E-07  3.98935762E-06  7.59036181E-06  9.98089299E-08 -3.13000988E-06
  7.56643622E-05 -2.86814135E-06 -1.33245882E-05  1.51766529E-06  3.76980177E-07
 -1.10780361E-06 -6.14344272E-07 -8.99744314E-07 -1.37114492E-07  1.23800861E-06
 -1.67716447E-07  1.12247062E-06  1.06366647E-06  4.22304008E-07 -1.90863345E-06
  4.46598220E-07  1.20605110E-05  8.19672989E-06 -7.63040169E-07 -2.29590434E-05
  1.10260649E-06 -7.03865913E-07  1.33981944E-06  8.32043820E-08  8.58115150E-07
  6.51014198E-09 -2.31993095E-06  2.21824583E-07  2.50553481E-06 -4.05163575E-06
 -8.92546887E-08 -3.21851063E-06 -9.21467601E-08  6.95798294E-06 -5.38260231E-07
  1.78050706E-07  2.82463322E-06  7.14643972E-06 -1.81887367E-06 -9.27121308E-06
 -1.28592365E-05 -4.08629845E-08 -8.05280665E-08 -4.09505458E-08  8.17290362E-07
 -1.55826821E-06 -3.20083754E-07  2.56860917E-07  1.15918811E-07  1.76970721E-07
 -1.58289397E-05  6.26247060E-06 -2.15206907E-06 -4.71363311E-07  2.27140301E-06
 -2.71732033E-06 -5.91104592E-08  6.09160949E-08 -1.82835095E-07  2.52759078E-07
 -6.73740802E-07  2.49888271E-07 -3.64712275E-07  7.39507438E-07 -5.78849602E-07
  2.34128784E-06  3.77456828E-06 -1.42544247E-06  9.01961739E-07 -4.76930903E-06
  4.83203851E-06 -2.30937906E-07  2.88570916E-07  1.23779130E-08  5.30581030E-08
 -1.41039628E-08  1.26443045E-07 -7.97736805E-07  7.04179354E-07  9.02414062E-08
 -5.20139261E-07 -3.37064471E-08  6.23124362E-07  1.43104454E-07  2.21655372E-06
 -1.46702316E-06 -8.78598713E-06  1.22128328E-04  6.28590931E-07 -1.23031609E-07
 -2.54587011E-07  1.16119815E-06  8.32540300E-06 -1.10898516E-06 -1.09076103E-05
  5.15528786E-05  1.54742771E-05 -3.49318252E-05  8.29440339E-07  1.17108233E-06
  3.74937464E-07  2.08912387E-07  1.74583251E-07 -3.38300409E-06  3.75310560E-06
 -2.15802580E-06  5.50742970E-06 -1.62532765E-06  9.76822302E-01 -9.14754183E-03
  4.33798473E-02  2.03742907E-03  5.23889382E-04  7.25820343E-04  1.56684772E-03
  6.50009791E-04 -8.52607010E-04 -1.20776509E-03 -6.35351378E-04 -8.28982623E-05
  6.25430658E-04 -2.19741168E-04 -1.35900026E-04  1.75504236E-04 -8.25886632E-05
  4.78857762E-05  2.05129679E-05 -1.15601288E-06  1.00431732E-04  4.14729582E-05
  3.06890191E-04 -3.59435893E-04 -1.67801855E-05  7.76296558E-05  1.70411960E-04
 -2.01497985E-04 -1.98282143E-05  5.63392147E-07 -1.31639667E-04 -1.52644946E-04
  9.42565007E-06 -3.83776557E-06  1.67812959E-05 -3.84892599E-06 -9.52070360E-06
 -1.01832562E-05  9.88165565E-06  4.26002709E-05 -2.57332357E-05 -1.24988133E-06
 -9.32983195E-05 -2.51424755E-05 -6.75526242E-05 -4.85658633E-05 -1.66005351E-07
  4.85227704E-06  6.64456430E-06  9.06358463E-06 -2.38193177E-04 -1.21473459E-04
 -4.65328954E-07  7.94759966E-08 -1.33113607E-06  7.63660344E-05 -3.62478510E-06
 -7.87673938E-06 -1.93034157E-06 -3.63489912E-07  9.48727191E-06  1.57651662E-04
  3.88173501E-05 -3.19038736E-04  1.56883845E-05 -9.69433765E-06 -2.64295072E-05
  1.11095452E-05 -1.42983896E-05  1.07625334E-06 -6.71211060E-06  5.04480091E-06
 -1.83341057E-05  7.90814030E-05 -5.13378287E-06 -1.01520178E-05 -1.36663737E-05
 -5.74185796E-05  2.36991092E-04  1.50781693E-05 -4.18299476E-05 -5.12615301E-06
 -7.94216456E-06 -2.18654115E-05 -3.57295938E-06  2.45011509E-05  4.99403571E-06
 -1.37341055E-05 -5.62896451E-07  5.26732278E-05  9.47792317E-05  5.67627858E-06
 -1.04119857E-04 -9.39428615E-06  1.51084307E-05  4.50475189E-06  4.59885275E-06
  7.39719165E-05  8.91856364E-05 -2.80552653E-04 -2.31043728E-05 -5.40439926E-04
 -4.30034690E-06 -7.15986843E-06 -2.52379065E-06  3.91622801E-05 -5.63329696E-04
 -3.98752800E-05 -3.53502758E-05  2.52893449E-04  1.13020461E-05  1.73481893E-04
  4.08789014E-04  8.15563406E-05 -1.82802301E-05  1.21122544E-04  1.29900448E-05
  1.40190322E-05 -4.16703108E-06 -1.42752935E-06  7.66041588E-06  8.95181613E-06
 -3.05035624E-04  7.40562045E-06  2.87742346E-05 -4.53369057E-04 -1.89359934E-04
  1.20947918E-04  2.87759917E-05 -5.71164122E-05  3.11484542E-04 -3.09393094E-05
  1.12891762E-05 -3.01450154E-05  1.62450760E-04  1.84729336E-06  7.21521194E-06
 -1.29048000E-04  1.89479054E-04 -1.82433867E-05 -3.79851940E-05  9.85318485E-05
  1.60957178E-05 -1.59947907E-05 -6.96959845E-05  4.75159404E-05  3.50050501E-04
  1.28024958E-03  1.40426629E-04  5.05601388E-05 -2.27555796E-04  4.84118778E-05
 -1.11647321E-04 -1.06317307E-03  4.89265566E-06 -3.13010350E-04  2.59497818E-04
 -2.09016322E-04  3.63058218E-04 -1.60480982E-05 -1.89580921E-05 -3.13116742E-05
  9.36751994E-06 -6.13476000E-05 -3.24038633E-04  4.60116188E-04  7.29123720E-06
  7.11498385E-04  1.62956194E-05 -7.47388455E-05 -8.65153989E-05 -1.03743730E-04
  2.59047266E-03  2.11159054E-03 -2.26103853E-05  3.84319486E-05 -9.40951326E-06
 -7.53392583E-05  5.80986803E-04  4.97870170E-05 -6.49710376E-04  2.46401654E-03
  6.53362690E-05 -2.90905598E-04  8.39023089E-04 -6.79188465E-05 -2.68358753E-05
 -6.02513334E-06 -5.93974266E-06 -4.53655848E-05 -3.46660889E-05 -1.81176510E-04
  3.99642304E-05  4.60684916E-05 -2.55207993E-04 -4.56469558E-05 -2.65310723E-04
 -6.90598897E-05  1.22510063E-04 -7.54779217E-04  4.03146384E-05 -3.51863476E-06
  6.00470705E-06 -2.40731078E-05  1.40051251E-05 -7.54733516E-06  4.56209849E-05
 -3.69606257E-05 -3.58395265E-06  1.32725157E-05 -2.48609859E-05 -2.81510776E-05
  1.00056885E-04 -5.88000731E-05  1.15233212E-04 -3.19406712E-06 -4.33440613E-05
 -1.18439694E-04  1.90537275E-05  2.47974695E-04  2.40354088E-04 -1.79262158E-06
 -6.90294074E-08  9.14800713E-07 -4.32513065E-06 -1.94039352E-05  1.00599157E-05
  1.14944765E-05  1.61251075E-06 -4.60009288E-06 -3.17339706E-04  9.57957383E-05
  5.38954889E-05 -1.23884466E-04  6.52256772E-05 -3.03753179E-05  1.37116780E-06
  6.73624146E-06  4.04525669E-06 -8.45224899E-06  5.22752926E-07 -8.18905139E-06
 -3.24749202E-05 -1.74155294E-05  3.84991189E-05  5.28711545E-06 -9.29451062E-05
 -1.06077718E-05  4.40441091E-05  1.11711407E-04 -9.56058052E-05 -2.54033283E-07