title                                                                   
SP        RMP2-FC                                                     Aug-CC-pVTZ         
Number of atoms                            I                4
Info1-9                                    I   N=           9
          40          13           0           0           0         110
           1           2           1
Full Title                                 C   N=           1
title       
Route                                      C   N=           4
#p SP mp2/aug-cc-pvtz density=current           
Charge                                     I               -1
Multiplicity                               I                1
Number of electrons                        I               44
Number of alpha electrons                  I               22
Number of beta electrons                   I               22
Number of basis functions                  I              169
Number of independent functions            I              169
Number of point charges in /Mol/           I                0
Number of translation vectors              I                0
Atomic numbers                             I   N=           4
           8          17          17           1
Nuclear charges                            R   N=           4
  8.00000000E+00  1.70000000E+01  1.70000000E+01  1.00000000E+00
Current cartesian coordinates              R   N=          12
 -1.94312057E+00  1.18707052E+00 -4.93038066E-32  3.54500953E+00  1.28712789E+00
  9.86076132E-32 -2.63059985E+00 -1.91766088E+00 -9.86076132E-32 -1.49057341E-16
  1.22249671E+00  1.23259516E-32
Number of symbols in /Mol/                 I                0
Force Field                                I                0
Atom Types                                 C   N=           4
                                                
Int Atom Types                             I   N=           4
           0           0           0           0
MM charges                                 R   N=           4
  0.00000000E+00  0.00000000E+00  0.00000000E+00  0.00000000E+00
Integer atomic weights                     I   N=           4
          16          35          35           1
Real atomic weights                        R   N=           4
  1.59949146E+01  3.49688527E+01  3.49688527E+01  1.00782504E+00
Atom fragment info                         I   N=           4
           0           0           0           0
Atom residue num                           I   N=           4
           0           0           0           0
Nuclear spins                              I   N=           4
           0           3           3           1
Nuclear ZEff                               R   N=           4
 -5.60000000E+00 -1.42400000E+01 -1.42400000E+01 -1.00000000E+00
Nuclear ZNuc                               R   N=           4
  8.00000000E+00  1.70000000E+01  1.70000000E+01  1.00000000E+00
Nuclear QMom                               R   N=           4
  0.00000000E+00 -8.16500000E+00 -8.16500000E+00  0.00000000E+00
Nuclear GFac                               R   N=           4
  0.00000000E+00  8.21874000E-01  8.21874000E-01  2.79284600E+00
MicOpt                                     I   N=           4
          -1          -1          -1          -1
Number of residues                         I                0
Number of secondary structures             I                0
SymInf integers                            I   N=          26
           1           2           1           1           1           1
           1          -1           0           0           0           0
           0           0           0           0           0           0
           0           0           0           0           0           0
           0           0
RotTr to input orientation                 R   N=          12
  9.99833846E-01  1.82285664E-02 -1.11740635E-16  1.82285664E-02 -9.99833846E-01
 -5.01161489E-17 -1.12635614E-16  4.80709503E-17 -1.00000000E+00  1.92115912E+00
  1.22229359E+00  0.00000000E+00
Number of contracted shells                I               55
Number of primitive shells                 I              140
Pure/Cartesian d shells                    I                0
Pure/Cartesian f shells                    I                0
Highest angular momentum                   I                3
Largest degree of contraction              I               11
Shell types                                I   N=          55
           0           0           0           0           0           1
           1           1           1          -2          -2          -2
          -3          -3           0           0           0           0
           0           0           1           1           1           1
           1          -2          -2          -2          -3          -3
           0           0           0           0           0           0
           1           1           1           1           1          -2
          -2          -2          -3          -3           0           0
           0           0           1           1           1          -2
          -2
Number of primitives per shell             I   N=          55
           7           6           1           1           1           3
           1           1           1           1           1           1
           1           1          11           9           8           1
           1           1           6           6           1           1
           1           1           1           1           1           1
          11           9           8           1           1           1
           6           6           1           1           1           1
           1           1           1           1           3           1
           1           1           1           1           1           1
           1
Shell to atom map                          I   N=          55
           1           1           1           1           1           1
           1           1           1           1           1           1
           1           1           2           2           2           2
           2           2           2           2           2           2
           2           2           2           2           2           2
           3           3           3           3           3           3
           3           3           3           3           3           3
           3           3           3           3           4           4
           4           4           4           4           4           4
           4
Primitive exponents                        R   N=         140
  1.53300000E+04  2.29900000E+03  5.22400000E+02  1.47300000E+02  4.75500000E+01
  1.67600000E+01  6.20700000E+00  5.22400000E+02  1.47300000E+02  4.75500000E+01
  1.67600000E+01  6.20700000E+00  6.88200000E-01  1.75200000E+00  2.38400000E-01
  7.37600000E-02  3.44600000E+01  7.74900000E+00  2.28000000E+00  7.15600000E-01
  2.14000000E-01  5.97400000E-02  2.31400000E+00  6.45000000E-01  2.14000000E-01
  1.42800000E+00  5.00000000E-01  4.56100000E+05  6.83300000E+04  1.55500000E+04
  4.40500000E+03  1.43900000E+03  5.20400000E+02  2.03100000E+02  8.39600000E+01
  3.62000000E+01  1.58300000E+01  6.33400000E+00  4.40500000E+03  1.43900000E+03
  5.20400000E+02  2.03100000E+02  8.39600000E+01  3.62000000E+01  1.58300000E+01
  6.33400000E+00  2.69400000E+00  1.43900000E+03  2.03100000E+02  8.39600000E+01
  3.62000000E+01  1.58300000E+01  6.33400000E+00  2.69400000E+00  4.31300000E-01
  9.76800000E-01  1.62500000E-01  5.91000000E-02  6.63300000E+02  1.56800000E+02
  4.99800000E+01  1.84200000E+01  7.24000000E+00  2.92200000E+00  1.56800000E+02
  4.99800000E+01  1.84200000E+01  7.24000000E+00  2.92200000E+00  3.81800000E-01
  1.02200000E+00  1.30100000E-01  4.19000000E-02  1.04600000E+00  3.44000000E-01
  1.35000000E-01  7.06000000E-01  3.12000000E-01  4.56100000E+05  6.83300000E+04
  1.55500000E+04  4.40500000E+03  1.43900000E+03  5.20400000E+02  2.03100000E+02
  8.39600000E+01  3.62000000E+01  1.58300000E+01  6.33400000E+00  4.40500000E+03
  1.43900000E+03  5.20400000E+02  2.03100000E+02  8.39600000E+01  3.62000000E+01
  1.58300000E+01  6.33400000E+00  2.69400000E+00  1.43900000E+03  2.03100000E+02
  8.39600000E+01  3.62000000E+01  1.58300000E+01  6.33400000E+00  2.69400000E+00
  4.31300000E-01  9.76800000E-01  1.62500000E-01  5.91000000E-02  6.63300000E+02
  1.56800000E+02  4.99800000E+01  1.84200000E+01  7.24000000E+00  2.92200000E+00
  1.56800000E+02  4.99800000E+01  1.84200000E+01  7.24000000E+00  2.92200000E+00
  3.81800000E-01  1.02200000E+00  1.30100000E-01  4.19000000E-02  1.04600000E+00
  3.44000000E-01  1.35000000E-01  7.06000000E-01  3.12000000E-01  3.38700000E+01
  5.09500000E+00  1.15900000E+00  3.25800000E-01  1.02700000E-01  2.52600000E-02
  1.40700000E+00  3.88000000E-01  1.02000000E-01  1.05700000E+00  2.47000000E-01
Contraction coefficients                   R   N=         140
  5.19808943E-04  4.02025621E-03  2.07128267E-02  8.10105536E-02  2.35962985E-01
  4.42653446E-01  3.57064423E-01 -4.42115008E-05 -1.22591041E-03 -1.05517725E-02
 -6.74452633E-02 -1.71198607E-01  1.07329856E+00  1.00000000E+00  1.00000000E+00
  1.00000000E+00  4.11634896E-02  2.57762836E-01  8.02419274E-01  1.00000000E+00
  1.00000000E+00  1.00000000E+00  1.00000000E+00  1.00000000E+00  1.00000000E+00
  1.00000000E+00  1.00000000E+00  4.93229477E-05  3.83207967E-04  2.00947816E-03
  8.38950124E-03  2.94843950E-02  8.78759948E-02  2.11589759E-01  3.65611554E-01
  3.41246350E-01  1.02162570E-01  2.14249949E-03 -2.21747925E-06 -1.71189708E-04
 -1.27922846E-03 -9.32956265E-03 -3.98910062E-02 -1.05536085E-01  9.36202446E-03
  5.10511140E-01  5.73150737E-01  4.03949245E-06  2.12481765E-04  8.59484452E-04
  4.63248159E-03  4.47343490E-04 -7.38438245E-02 -3.62271994E-01  1.16620337E+00
  1.00000000E+00  1.00000000E+00  1.00000000E+00  2.47206402E-03  1.97550234E-02
  9.09917355E-02  2.63187834E-01  4.49078073E-01  3.60183072E-01  3.03427809E-05
 -1.22475826E-03 -6.01429772E-03 -2.76401323E-02  4.35105612E-04  1.00307272E+00
  1.00000000E+00  1.00000000E+00  1.00000000E+00  1.00000000E+00  1.00000000E+00
  1.00000000E+00  1.00000000E+00  1.00000000E+00  4.93229477E-05  3.83207967E-04
  2.00947816E-03  8.38950124E-03  2.94843950E-02  8.78759948E-02  2.11589759E-01
  3.65611554E-01  3.41246350E-01  1.02162570E-01  2.14249949E-03 -2.21747925E-06
 -1.71189708E-04 -1.27922846E-03 -9.32956265E-03 -3.98910062E-02 -1.05536085E-01
  9.36202446E-03  5.10511140E-01  5.73150737E-01  4.03949245E-06  2.12481765E-04
  8.59484452E-04  4.63248159E-03  4.47343490E-04 -7.38438245E-02 -3.62271994E-01
  1.16620337E+00  1.00000000E+00  1.00000000E+00  1.00000000E+00  2.47206402E-03
  1.97550234E-02  9.09917355E-02  2.63187834E-01  4.49078073E-01  3.60183072E-01
  3.03427809E-05 -1.22475826E-03 -6.01429772E-03 -2.76401323E-02  4.35105612E-04
  1.00307272E+00  1.00000000E+00  1.00000000E+00  1.00000000E+00  1.00000000E+00
  1.00000000E+00  1.00000000E+00  1.00000000E+00  1.00000000E+00  2.54948632E-02
  1.90362766E-01  8.52162022E-01  1.00000000E+00  1.00000000E+00  1.00000000E+00
  1.00000000E+00  1.00000000E+00  1.00000000E+00  1.00000000E+00  1.00000000E+00
Coordinates of each shell                  R   N=         165
 -1.94312057E+00  1.18707052E+00 -6.08786001E-32 -1.94312057E+00  1.18707052E+00
 -6.08786001E-32 -1.94312057E+00  1.18707052E+00 -6.08786001E-32 -1.94312057E+00
  1.18707052E+00 -6.08786001E-32 -1.94312057E+00  1.18707052E+00 -6.08786001E-32
 -1.94312057E+00  1.18707052E+00 -6.08786001E-32 -1.94312057E+00  1.18707052E+00
 -6.08786001E-32 -1.94312057E+00  1.18707052E+00 -6.08786001E-32 -1.94312057E+00
  1.18707052E+00 -6.08786001E-32 -1.94312057E+00  1.18707052E+00 -6.08786001E-32
 -1.94312057E+00  1.18707052E+00 -6.08786001E-32 -1.94312057E+00  1.18707052E+00
 -6.08786001E-32 -1.94312057E+00  1.18707052E+00 -6.08786001E-32 -1.94312057E+00
  1.18707052E+00 -6.08786001E-32  3.54500953E+00  1.28712789E+00  1.42985655E-31
  3.54500953E+00  1.28712789E+00  1.42985655E-31  3.54500953E+00  1.28712789E+00
  1.42985655E-31  3.54500953E+00  1.28712789E+00  1.42985655E-31  3.54500953E+00
  1.28712789E+00  1.42985655E-31  3.54500953E+00  1.28712789E+00  1.42985655E-31
  3.54500953E+00  1.28712789E+00  1.42985655E-31  3.54500953E+00  1.28712789E+00
  1.42985655E-31  3.54500953E+00  1.28712789E+00  1.42985655E-31  3.54500953E+00
  1.28712789E+00  1.42985655E-31  3.54500953E+00  1.28712789E+00  1.42985655E-31
  3.54500953E+00  1.28712789E+00  1.42985655E-31  3.54500953E+00  1.28712789E+00
  1.42985655E-31  3.54500953E+00  1.28712789E+00  1.42985655E-31  3.54500953E+00
  1.28712789E+00  1.42985655E-31  3.54500953E+00  1.28712789E+00  1.42985655E-31
 -2.63059985E+00 -1.91766088E+00 -1.15001686E-31 -2.63059985E+00 -1.91766088E+00
 -1.15001686E-31 -2.63059985E+00 -1.91766088E+00 -1.15001686E-31 -2.63059985E+00
 -1.91766088E+00 -1.15001686E-31 -2.63059985E+00 -1.91766088E+00 -1.15001686E-31
 -2.63059985E+00 -1.91766088E+00 -1.15001686E-31 -2.63059985E+00 -1.91766088E+00
 -1.15001686E-31 -2.63059985E+00 -1.91766088E+00 -1.15001686E-31 -2.63059985E+00
 -1.91766088E+00 -1.15001686E-31 -2.63059985E+00 -1.91766088E+00 -1.15001686E-31
 -2.63059985E+00 -1.91766088E+00 -1.15001686E-31 -2.63059985E+00 -1.91766088E+00
 -1.15001686E-31 -2.63059985E+00 -1.91766088E+00 -1.15001686E-31 -2.63059985E+00
 -1.91766088E+00 -1.15001686E-31 -2.63059985E+00 -1.91766088E+00 -1.15001686E-31
 -2.63059985E+00 -1.91766088E+00 -1.15001686E-31 -9.22382355E-17  1.22249671E+00
  1.13013265E-32 -9.22382355E-17  1.22249671E+00  1.13013265E-32 -9.22382355E-17
  1.22249671E+00  1.13013265E-32 -9.22382355E-17  1.22249671E+00  1.13013265E-32
 -9.22382355E-17  1.22249671E+00  1.13013265E-32 -9.22382355E-17  1.22249671E+00
  1.13013265E-32 -9.22382355E-17  1.22249671E+00  1.13013265E-32 -9.22382355E-17
  1.22249671E+00  1.13013265E-32 -9.22382355E-17  1.22249671E+00  1.13013265E-32
Num ILSW                                   I              100
ILSW                                       I   N=         100
           0           0           0           0           2           0
           0           0           0           0           0          -1
           5           0           0           0           0           0
           0           0           0           0           0           0
           1           0           0           0           0           0
           0           0      100000           0          -1           0
           0           0           0           0           0           0
           0           0           0           1           0           0
           0 -2000000000           1           0           0           0
           0           0           4          52           0           0
           0           0           0           0           0           0
           0           0           0           4           0           1
           0           0           0           0           0           0
           0           0           0           0           0           0
           0           0           0           0           0           0
           0           0           0           0           0           0
           0           0           0           0
Num RLSW                                   I               52
RLSW                                       R   N=          52
  1.00000000E+00  1.00000000E+00  1.00000000E+00  1.00000000E+00  1.00000000E+00
  0.00000000E+00  0.00000000E+00  1.00000000E+00  0.00000000E+00  0.00000000E+00
  0.00000000E+00  0.00000000E+00  1.00000000E+00  0.00000000E+00  0.00000000E+00
  0.00000000E+00  0.00000000E+00  1.00000000E+00  0.00000000E+00  0.00000000E+00
  0.00000000E+00  0.00000000E+00  1.00000000E+00  0.00000000E+00  0.00000000E+00
  0.00000000E+00  0.00000000E+00  1.00000000E+00  0.00000000E+00  0.00000000E+00
  0.00000000E+00  0.00000000E+00  1.00000000E+00  0.00000000E+00  0.00000000E+00
  0.00000000E+00  0.00000000E+00  0.00000000E+00  1.00000000E+00  1.00000000E+00
  0.00000000E+00  1.00000000E+00  0.00000000E+00  0.00000000E+00  0.00000000E+00
  0.00000000E+00  0.00000000E+00  0.00000000E+00  0.00000000E+00  0.00000000E+00
  0.00000000E+00  0.00000000E+00
MxBond                                     I                2
NBond                                      I   N=           4
           2           0           1           1
IBond                                      I   N=           8
           3           4           0           0           1           0
           1           0
RBond                                      R   N=           8
  1.00000000E+00  1.00000000E+00  0.00000000E+00  0.00000000E+00  1.00000000E+00
  0.00000000E+00  1.00000000E+00  0.00000000E+00
Virial Ratio                               R      2.000160091573834E+00
SCF Energy                                 R     -9.945238813915438E+02
MP2 Energy                                 R     -9.951921257351044E+02
Total Energy                               R     -9.951921257351044E+02
Post-SCF wavefunction norm                 R      1.103873145446678E+00
RMS Density                                R      3.889995147682645E-09
Job Status                                 I                1
Nuclear derivative order                   I                0
External E-field                           R   N=          35
  0.00000000E+00  0.00000000E+00  0.00000000E+00  0.00000000E+00  0.00000000E+00
  0.00000000E+00  0.00000000E+00  0.00000000E+00  0.00000000E+00  0.00000000E+00
  0.00000000E+00  0.00000000E+00  0.00000000E+00  0.00000000E+00  0.00000000E+00
  0.00000000E+00  0.00000000E+00  0.00000000E+00  0.00000000E+00  0.00000000E+00
  0.00000000E+00  0.00000000E+00  0.00000000E+00  0.00000000E+00  0.00000000E+00
  0.00000000E+00  0.00000000E+00  0.00000000E+00  0.00000000E+00  0.00000000E+00
  0.00000000E+00  0.00000000E+00  0.00000000E+00  0.00000000E+00  0.00000000E+00
IOpCl                                      I                0
IROHF                                      I                0
Alpha Orbital Energies                     R   N=         169
 -1.04722042E+02 -1.04549931E+02 -2.04482138E+01 -1.04415762E+01 -1.02748381E+01
 -7.90874247E+00 -7.90616107E+00 -7.90606921E+00 -7.74101290E+00 -7.74083079E+00
 -7.74082434E+00 -1.21496645E+00 -8.85281796E-01 -7.90054733E-01 -5.26724925E-01
 -4.31101971E-01 -4.23084217E-01 -2.99794201E-01 -2.70565590E-01 -2.05950270E-01
 -1.97816204E-01 -1.97776737E-01  1.61277994E-01  1.86695046E-01  2.25822926E-01
  2.35566315E-01  2.58188278E-01  2.72658923E-01  2.74858292E-01  2.96414543E-01
  3.10772836E-01  3.27443479E-01  3.37453258E-01  3.50255312E-01  3.85806945E-01
  4.53085800E-01  4.62880762E-01  5.15989940E-01  5.25212270E-01  5.38696538E-01
  5.65265526E-01  5.68927096E-01  5.85873814E-01  6.00271214E-01  6.05886638E-01
  6.52258116E-01  6.60833594E-01  6.84084463E-01  6.85361448E-01  7.53154583E-01
  7.85221866E-01  7.89870799E-01  8.30674188E-01  8.75053027E-01  8.84168228E-01
  9.00324200E-01  9.10878905E-01  9.22757127E-01  9.67130195E-01  1.00845585E+00
  1.04893088E+00  1.05747480E+00  1.06369352E+00  1.08965230E+00  1.09414827E+00
  1.10277381E+00  1.14232459E+00  1.15038680E+00  1.17086589E+00  1.18581245E+00
  1.18823154E+00  1.21511530E+00  1.22866917E+00  1.24606095E+00  1.29564884E+00
  1.32554396E+00  1.33074433E+00  1.37705042E+00  1.40877437E+00  1.42545788E+00
  1.42948181E+00  1.47654466E+00  1.48529597E+00  1.50176210E+00  1.54397627E+00
  1.61901422E+00  1.65748629E+00  1.67608038E+00  1.68678200E+00  1.72644971E+00
  1.74566163E+00  1.79763054E+00  1.80847510E+00  1.84345666E+00  1.86444308E+00
  1.91489812E+00  1.94480736E+00  2.01018459E+00  2.29645661E+00  2.39646695E+00
  2.50947338E+00  2.51922588E+00  2.53901182E+00  2.59742488E+00  2.60286104E+00
  2.62704000E+00  2.66933782E+00  2.69044241E+00  2.71320603E+00  2.72648533E+00
  2.74043498E+00  2.77398538E+00  2.78126781E+00  2.80167024E+00  2.80211928E+00
  2.82216543E+00  2.89346567E+00  2.92071164E+00  2.99266004E+00  2.99307004E+00
  3.04483606E+00  3.09602174E+00  3.15217860E+00  3.16476750E+00  3.20496102E+00
  3.22630181E+00  3.24319606E+00  3.28556266E+00  3.30594373E+00  3.32456767E+00
  3.33850438E+00  3.34082426E+00  3.39969601E+00  3.40572922E+00  3.41725674E+00
  3.47394655E+00  3.51333006E+00  3.54491089E+00  3.56414294E+00  3.59736876E+00
  3.70573595E+00  3.95723867E+00  4.26423296E+00  4.31295820E+00  4.47260297E+00
  4.54784478E+00  4.59851298E+00  4.79571904E+00  4.99272933E+00  5.17497770E+00
  5.37541309E+00  5.37962051E+00  5.66075972E+00  6.39209649E+00  6.58979900E+00
  6.69461577E+00  6.86610531E+00  6.91228220E+00  6.92792970E+00  7.01989950E+00
  7.26423382E+00  7.31846395E+00  7.35593966E+00  7.45997528E+00  7.57683470E+00
  7.77499148E+00  7.84714198E+00  8.37810219E+00  1.44433728E+01
Alpha MO coefficients                      R   N=       28561
  4.99208964E-06  2.80473938E-05  2.54796641E-06 -1.56358028E-04 -1.09123638E-04
  6.00362287E-07 -2.88765449E-06  0.00000000E+00 -5.33022435E-06  8.46989256E-06
  0.00000000E+00  4.42884821E-05  1.49109154E-04  0.00000000E+00  9.43717175E-06
  3.79503577E-05  0.00000000E+00 -2.21684928E-06  0.00000000E+00  0.00000000E+00
 -3.11769821E-06  1.44075273E-06  1.48233847E-05  0.00000000E+00  0.00000000E+00
  2.05434403E-05 -9.55463817E-06  2.49478204E-05  0.00000000E+00  0.00000000E+00
  5.95282118E-05 -1.11623554E-05  0.00000000E+00 -3.11931088E-07  5.19563773E-08
  0.00000000E+00  0.00000000E+00 -1.77199095E-06 -1.12406959E-06  0.00000000E+00
 -2.25195867E-06 -1.31900046E-05  0.00000000E+00  0.00000000E+00 -4.15714480E-06
 -9.12750527E-06  1.37886871E-07  1.85425895E-06  4.95054851E-06 -5.75773105E-07
 -2.21617728E-05 -1.02822543E-05  3.62401051E-07  5.90960616E-09  0.00000000E+00
  4.76125372E-06 -8.89837912E-07  0.00000000E+00 -1.43219320E-06 -6.12402529E-08
  0.00000000E+00  1.70583778E-05  8.56281003E-06  0.00000000E+00  3.47132380E-06
  2.15336194E-07  0.00000000E+00 -3.30953817E-07  0.00000000E+00  0.00000000E+00
  1.52015052E-07  6.91503883E-07  2.04832830E-06  0.00000000E+00  0.00000000E+00
 -2.36569441E-06 -1.91726739E-06  3.21134668E-06  0.00000000E+00  0.00000000E+00
 -4.16624405E-06 -5.41768052E-06  0.00000000E+00  1.73272075E-07  1.46849197E-07
  0.00000000E+00  0.00000000E+00  1.82274756E-07 -7.08964065E-07  0.00000000E+00
 -1.34792880E-06 -7.66293479E-07  0.00000000E+00  0.00000000E+00 -1.26909995E-07
  3.14823003E-06  9.99534815E-01  1.95487128E-03  1.85875468E-04 -4.18669044E-04
  6.93476861E-05  7.45454237E-05  1.62710680E-05  7.47725243E-05  0.00000000E+00
  3.57417596E-05  1.34525253E-04  0.00000000E+00 -1.71320849E-05 -7.14240105E-05
  0.00000000E+00  3.82461306E-08  5.51781438E-05  0.00000000E+00  2.20149322E-06
  1.13599015E-05  0.00000000E+00 -3.56610147E-06  0.00000000E+00  0.00000000E+00
 -4.92333953E-06  3.06963536E-06 -2.85528941E-05  0.00000000E+00  0.00000000E+00
 -4.42071639E-05  2.26994886E-05 -2.07092444E-07  0.00000000E+00  0.00000000E+00
 -1.02290230E-05 -2.27095624E-06  0.00000000E+00 -2.03276554E-06 -6.27751586E-06
  0.00000000E+00  0.00000000E+00 -4.37768041E-06 -4.07972194E-06  0.00000000E+00
  7.03980932E-07 -2.84246978E-06  0.00000000E+00  0.00000000E+00 -4.10044050E-06
 -7.85409014E-06 -1.81062569E-06 -1.57421538E-05  6.54111454E-05 -6.98348460E-06
  6.01966786E-07  2.57245688E-06  0.00000000E+00 -1.11320796E-05 -1.45511630E-05
  0.00000000E+00  1.28612852E-07 -2.61488631E-05  0.00000000E+00 -5.58526396E-07
  0.00000000E+00  0.00000000E+00 -4.24510485E-07  9.10050719E-07 -1.60663931E-05
  0.00000000E+00  0.00000000E+00  1.10837951E-05 -1.16017857E-06  2.66579167E-06
  1.45452241E-05 -8.61502265E-07  1.76599142E-05  7.87484302E-05 -1.81031496E-07
 -9.80810151E-08  0.00000000E+00  5.44081904E-06  5.00985917E-07  0.00000000E+00
 -6.32862152E-05 -1.94332309E-06  0.00000000E+00  5.59024036E-06  1.00588914E-06
  0.00000000E+00 -6.94419513E-07  0.00000000E+00  0.00000000E+00  1.06954897E-06
  1.69130303E-08  2.58931703E-06  0.00000000E+00  0.00000000E+00 -3.93672019E-06
 -6.70875172E-08  1.77956676E-05  0.00000000E+00  0.00000000E+00 -3.16400471E-05
 -6.26671074E-07  0.00000000E+00 -7.20605176E-07 -1.42802593E-07  0.00000000E+00
  0.00000000E+00  4.29405574E-07  1.28087729E-07  0.00000000E+00  4.26456343E-06
  3.70030979E-07  0.00000000E+00  0.00000000E+00 -4.10049766E-06 -2.68713516E-07
  9.99531947E-01  1.98835399E-03  2.22630943E-04 -4.29902953E-04 -1.80201776E-04
 -5.22226128E-05 -1.15282707E-05  2.34367385E-07  0.00000000E+00 -3.62431990E-05
 -4.41807961E-07  0.00000000E+00  1.50597192E-05 -8.43965466E-08  0.00000000E+00
  9.24405981E-05  3.65092486E-06  0.00000000E+00  1.10416756E-05 -1.41229057E-07
  0.00000000E+00 -6.27985177E-07  0.00000000E+00  0.00000000E+00  6.49087705E-07
  2.44625011E-07 -2.24522909E-06  0.00000000E+00  0.00000000E+00  5.29665627E-06
 -5.17603323E-07  1.30911314E-05  0.00000000E+00  0.00000000E+00 -2.41186931E-05
 -1.35692960E-06  0.00000000E+00  1.41427406E-06 -8.66019002E-08  0.00000000E+00
  0.00000000E+00 -1.93461658E-06 -1.27167070E-07  0.00000000E+00 -3.26512167E-06
  8.99995887E-08  0.00000000E+00  0.00000000E+00  4.06923764E-06  4.83635664E-07
  3.89400161E-08  8.22402690E-07  1.85915289E-06 -1.07088199E-06 -1.75567078E-06
 -1.60442037E-05  2.96734236E-07 -4.79980808E-08  0.00000000E+00  4.52256562E-06
 -7.64631393E-07  0.00000000E+00 -1.14881959E-06  9.56345713E-08  0.00000000E+00
 -1.08305119E-05 -5.53736808E-06  0.00000000E+00 -1.32569737E-06 -4.53642825E-06
  0.00000000E+00 -1.68725922E-07  0.00000000E+00  0.00000000E+00  8.30629065E-08
  2.25058289E-07 -1.77202558E-07  0.00000000E+00  0.00000000E+00  5.72160024E-07
  4.19591076E-07  3.54353992E-06  0.00000000E+00  0.00000000E+00 -2.97544899E-06
 -5.34404679E-06  0.00000000E+00 -7.47740301E-07 -8.88365230E-08  0.00000000E+00
  0.00000000E+00  3.97156000E-08  4.88603081E-07  0.00000000E+00  2.11949743E-06
 -6.84830459E-08  0.00000000E+00  0.00000000E+00 -4.47741707E-07 -1.59129121E-06
  1.36034168E-06  8.56178845E-05  2.08705797E-05  1.52841166E-06 -6.10772796E-07
  3.67208001E-07  0.00000000E+00 -1.59739381E-06 -1.53976728E-06  0.00000000E+00
  1.49898794E-04 -8.27275271E-06  0.00000000E+00  6.83077512E-07  0.00000000E+00
  0.00000000E+00 -8.99617322E-07  2.37385080E-07  1.40174681E-05  0.00000000E+00
  0.00000000E+00 -2.96414570E-05 -7.66973050E-07  9.76805608E-01 -9.24926807E-03
  4.33898292E-02  1.54546163E-03  6.77062570E-04  8.54151433E-04 -1.56759317E-03
  0.00000000E+00 -1.08354973E-03  1.18804092E-03  0.00000000E+00 -2.09920483E-04
 -3.62263102E-04  0.00000000E+00 -1.94149831E-04 -2.37328243E-04  0.00000000E+00
  3.90525839E-05  0.00000000E+00  0.00000000E+00  1.01689959E-04 -3.68764244E-05
  4.76939123E-04  0.00000000E+00  0.00000000E+00  1.43982198E-05 -1.56872555E-04
 -1.55692626E-04  0.00000000E+00  0.00000000E+00 -1.48615824E-04  1.14007324E-04
  0.00000000E+00  1.23671088E-05 -1.92952746E-05  0.00000000E+00  0.00000000E+00
 -4.75795857E-06 -1.00585361E-05  0.00000000E+00  3.38326429E-05 -1.61952144E-05
  0.00000000E+00  0.00000000E+00 -1.27068902E-04  4.55845581E-05 -2.91890707E-07
  2.11232170E-06  6.18450797E-06  3.98383126E-05 -1.23534906E-03 -7.01281177E-04
  1.06494074E-05 -7.13183124E-07  0.00000000E+00  3.32499274E-04  4.89327087E-06
  0.00000000E+00 -3.76126143E-05  3.41110826E-06  0.00000000E+00  7.67521184E-04
 -5.18554844E-05  0.00000000E+00  1.15836212E-04  1.08027536E-05  0.00000000E+00
  1.50323067E-05  0.00000000E+00  0.00000000E+00 -1.99617955E-05 -1.07044751E-05
  3.16004337E-05  0.00000000E+00  0.00000000E+00 -7.26897406E-05  2.73258877E-05
  4.32563219E-05  0.00000000E+00  0.00000000E+00 -8.22059656E-05  2.94979952E-05
  0.00000000E+00 -1.70901357E-05 -1.11486487E-06  0.00000000E+00  0.00000000E+00
  1.48661109E-05  8.57850155E-06  0.00000000E+00  6.78485144E-05  7.59644790E-06
  0.00000000E+00  0.00000000E+00 -6.19656033E-05 -3.69862059E-05  4.31407148E-06
  7.10199339E-05  7.68753158E-05 -2.93328889E-04  2.37900532E-04 -7.31855817E-04
 -8.12190997E-07  1.27996721E-05  0.00000000E+00  6.99350947E-05  6.58136320E-04
  0.00000000E+00 -4.46997623E-05 -2.76080855E-04  0.00000000E+00  1.02301671E-04
 -2.83820432E-04  0.00000000E+00 -1.12633124E-05 -1.60849692E-04  0.00000000E+00
  1.70943026E-05  0.00000000E+00  0.00000000E+00  1.73918724E-06 -5.72605286E-06
 -3.39403336E-04  0.00000000E+00  0.00000000E+00 -4.82880687E-04  1.65128979E-04
  1.19265659E-04  0.00000000E+00  0.00000000E+00  2.19437397E-04  4.32029372E-05
  0.00000000E+00 -2.23379474E-05 -1.64891821E-04  0.00000000E+00  0.00000000E+00
 -1.14757245E-04 -2.00218874E-04  0.00000000E+00 -4.93269185E-05 -1.09121392E-04
  0.00000000E+00  0.00000000E+00 -6.25362964E-05 -6.71740390E-05  2.65755252E-04
  1.16243104E-03  1.63031604E-03  1.96101078E-04 -2.43243459E-04 -4.35274924E-05
  0.00000000E+00 -1.34204355E-03 -6.69283795E-05  0.00000000E+00  1.31781594E-03
  1.67889839E-04  0.00000000E+00 -1.46016743E-05  0.00000000E+00  0.00000000E+00
  1.44140479E-05  6.57879289E-05 -5.56040592E-04  0.00000000E+00  0.00000000E+00
  1.14671238E-03  1.14091132E-04 -6.70577990E-05 -4.42778822E-05 -1.07922909E-04
  2.90144787E-03  2.62827630E-03 -2.64828789E-05 -4.34734322E-05  0.00000000E+00
 -1.46756056E-05 -5.55213791E-04  0.00000000E+00 -4.25801758E-04 -2.32001006E-03
  0.00000000E+00 -1.82202582E-04 -9.65706138E-04  0.00000000E+00 -2.12939083E-05
  0.00000000E+00  0.00000000E+00 -4.49169928E-05  2.98034115E-05 -2.18942905E-04
  0.00000000E+00  0.00000000E+00 -2.44922304E-04  5.48865439E-05 -2.70390742E-04
  0.00000000E+00  0.00000000E+00 -7.42780144E-04 -1.09585368E-04  0.00000000E+00
  4.48437001E-06  2.18922858E-05  0.00000000E+00  0.00000000E+00  5.18160711E-05
  4.35121878E-05  0.00000000E+00 -1.27422802E-05  6.02810232E-05  0.00000000E+00