 Entering Gaussian System, Link 0=g16
 Input=clhocl-_tz.gjf
 Output=clhocl-_tz.log
 Initial command:
 /sw/contrib/gaussian/g16/B01/g16/l1.exe "/scr/Gau-13248.inp" -scrdir="/scr/"
 Entering Link 1 = /sw/contrib/gaussian/g16/B01/g16/l1.exe PID=     13249.
  
 Copyright (c) 1988-2017, Gaussian, Inc.  All Rights Reserved.
  
 This is part of the Gaussian(R) 16 program.  It is based on
 the Gaussian(R) 09 system (copyright 2009, Gaussian, Inc.),
 the Gaussian(R) 03 system (copyright 2003, Gaussian, Inc.),
 the Gaussian(R) 98 system (copyright 1998, Gaussian, Inc.),
 the Gaussian(R) 94 system (copyright 1995, Gaussian, Inc.),
 the Gaussian 92(TM) system (copyright 1992, Gaussian, Inc.),
 the Gaussian 90(TM) system (copyright 1990, Gaussian, Inc.),
 the Gaussian 88(TM) system (copyright 1988, Gaussian, Inc.),
 the Gaussian 86(TM) system (copyright 1986, Carnegie Mellon
 University), and the Gaussian 82(TM) system (copyright 1983,
 Carnegie Mellon University). Gaussian is a federally registered
 trademark of Gaussian, Inc.
  
 This software contains proprietary and confidential information,
 including trade secrets, belonging to Gaussian, Inc.
  
 This software is provided under written license and may be
 used, copied, transmitted, or stored only in accord with that
 written license.
  
 The following legend is applicable only to US Government
 contracts under FAR:
  
                    RESTRICTED RIGHTS LEGEND
  
 Use, reproduction and disclosure by the US Government is
 subject to restrictions as set forth in subparagraphs (a)
 and (c) of the Commercial Computer Software - Restricted
 Rights clause in FAR 52.227-19.
  
 Gaussian, Inc.
 340 Quinnipiac St., Bldg. 40, Wallingford CT 06492
  
  
 ---------------------------------------------------------------
 Warning -- This program may not be used in any manner that
 competes with the business of Gaussian, Inc. or will provide
 assistance to any competitor of Gaussian, Inc.  The licensee
 of this program is prohibited from giving any competitor of
 Gaussian, Inc. access to this program.  By using this program,
 the user acknowledges that Gaussian, Inc. is engaged in the
 business of creating and licensing software in the field of
 computational chemistry and represents and warrants to the
 licensee that it is not a competitor of Gaussian, Inc. and that
 it will not use this program in any manner prohibited above.
 ---------------------------------------------------------------
  

 Cite this work as:
 Gaussian 16, Revision B.01,
 M. J. Frisch, G. W. Trucks, H. B. Schlegel, G. E. Scuseria, 
 M. A. Robb, J. R. Cheeseman, G. Scalmani, V. Barone, 
 G. A. Petersson, H. Nakatsuji, X. Li, M. Caricato, A. V. Marenich, 
 J. Bloino, B. G. Janesko, R. Gomperts, B. Mennucci, H. P. Hratchian, 
 J. V. Ortiz, A. F. Izmaylov, J. L. Sonnenberg, D. Williams-Young, 
 F. Ding, F. Lipparini, F. Egidi, J. Goings, B. Peng, A. Petrone, 
 T. Henderson, D. Ranasinghe, V. G. Zakrzewski, J. Gao, N. Rega, 
 G. Zheng, W. Liang, M. Hada, M. Ehara, K. Toyota, R. Fukuda, 
 J. Hasegawa, M. Ishida, T. Nakajima, Y. Honda, O. Kitao, H. Nakai, 
 T. Vreven, K. Throssell, J. A. Montgomery, Jr., J. E. Peralta, 
 F. Ogliaro, M. J. Bearpark, J. J. Heyd, E. N. Brothers, K. N. Kudin, 
 V. N. Staroverov, T. A. Keith, R. Kobayashi, J. Normand, 
 K. Raghavachari, A. P. Rendell, J. C. Burant, S. S. Iyengar, 
 J. Tomasi, M. Cossi, J. M. Millam, M. Klene, C. Adamo, R. Cammi, 
 J. W. Ochterski, R. L. Martin, K. Morokuma, O. Farkas, 
 J. B. Foresman, and D. J. Fox, Gaussian, Inc., Wallingford CT, 2016.
 
 ******************************************
 Gaussian 16:  ES64L-G16RevB.01 20-Dec-2017
                13-Sep-2021 
 ******************************************
 %nproc=28
 Will use up to   28 processors via shared memory.
 %mem=120GB
 %chk=/gscratch/ilahie/mccoygrp/coire_hocl/clhocl_tz.chk
 ------------------------------------------------------
 # opt=(z-matrix,tight) mp2/aug-cc-pvtz density=current
 ------------------------------------------------------
 1/7=10,10=7,18=40,38=1/1,3;
 2/12=2,17=6,18=5,29=3,40=1/2;
 3/5=16,6=1,7=10,11=9,25=1,30=1,71=1/1,2,3;
 4//1;
 5/5=2,38=5/2;
 8/6=4,10=1/1;
 9/15=2,16=-3/6;
 10/5=1/2;
 6/7=2,8=2,9=2,10=2,22=-1/1;
 7/12=2,29=1/1,2,3,16;
 1/7=10,10=7,18=40/3(2);
 2/29=3/2;
 99//99;
 2/29=3/2;
 3/5=16,6=1,7=10,11=9,25=1,30=1,71=1/1,2,3;
 4/5=5,16=3,69=1/1;
 5/5=2,38=5/2;
 8/6=4,10=1/1;
 9/15=2,16=-3/6;
 10/5=1/2;
 7/12=2/1,2,3,16;
 1/7=10,18=40/3(-8);
 2/29=3/2;
 6/7=2,8=2,9=2,10=2,22=-1/1;
 99/9=10/99;
 -----
 title
 -----
 Symbolic Z-matrix:
 Charge = -1 Multiplicity = 1
 O
 X                    1     10. 
 Cl                   1    r2       2     90. 
 Cl                   1    r3       2     90.      3    a2       0
 H                    1    r1       2    oop      3    a1       0
       Variables:
  r1                    1.01773                  
  r2                    1.685   -1        0.     
  r3                    3.07067 -1        0.     
  a1                  103.50791 -1        0.     
  a2                  106.18684 -1        0.     
  OOP                  90.      -1        0.     
 

 GradGradGradGradGradGradGradGradGradGradGradGradGradGradGradGradGradGrad
 Berny optimization.
 Initialization pass.
                       ----------------------------
                       !    Initial Parameters    !
                       ! (Angstroms and Degrees)  !
 ----------------------                            ----------------------
 !      Name          Value   Derivative information (Atomic Units)     !
 ------------------------------------------------------------------------
 !       r1          1.0177   estimate D2E/DX2                          !
 !       r2          1.685    Frozen                                    !
 !       r3          3.0707   Frozen                                    !
 !       a1        103.5079   Frozen                                    !
 !       a2        106.1868   Frozen                                    !
 !       OOP        90.0      Frozen                                    !
 ------------------------------------------------------------------------
 Trust Radius=3.00D-01 FncErr=1.00D-07 GrdErr=1.00D-07 EigMax=2.50D+02 EigMin=1.00D-04
 Number of steps in this run=     20 maximum allowed number of steps=    100.
 GradGradGradGradGradGradGradGradGradGradGradGradGradGradGradGradGradGrad

 ---------------------------------------------------------------------------------------------------
                            Z-MATRIX (ANGSTROMS AND DEGREES)
   CD    Cent   Atom    N1       Length/X        N2       Alpha/Y        N3        Beta/Z          J
 ---------------------------------------------------------------------------------------------------
      1      1  O 
      2         X        1  10.000000(     1)
      3      2  Cl       1   1.685000(     2)      2   90.000(     5)
      4      3  Cl       1   3.070672(     3)      2   90.000(     6)      3  106.187(     8)      0
      5      4  H        1   1.017728(     4)      2   90.000(     7)      3  103.508(     9)      0
 ---------------------------------------------------------------------------------------------------
                         Z-Matrix orientation:                         
 ---------------------------------------------------------------------
 Center     Atomic      Atomic             Coordinates (Angstroms)
 Number     Number       Type             X           Y           Z
 ---------------------------------------------------------------------
      1          8           0        0.000000    0.000000    0.000000
      2         -1           0        0.000000    0.000000   10.000000
      3         17           0        1.685000    0.000000    0.000000
      4         17           0       -0.856013   -2.948944    0.000000
      5          1           0       -0.237720   -0.989575    0.000000
 ---------------------------------------------------------------------
                    Distance matrix (angstroms):
                    1          2          3          4          5
     1  O    0.000000
     2  X   10.000000   0.000000
     3  Cl   1.685000  10.140968   0.000000
     4  Cl   3.070672  10.460833   3.892688   0.000000
     5  H    1.017728  10.051655   2.162432   2.054608   0.000000
 Stoichiometry    Cl2HO(1-)
 Framework group  CS[SG(Cl2HO)]
 Deg. of freedom     5
 Full point group                 CS      NOp   2
 Largest Abelian subgroup         CS      NOp   2
 Largest concise Abelian subgroup C1      NOp   1
                         Standard orientation:                         
 ---------------------------------------------------------------------
 Center     Atomic      Atomic             Coordinates (Angstroms)
 Number     Number       Type             X           Y           Z
 ---------------------------------------------------------------------
      1          8           0       -1.011994    0.702219    0.000000
      2         17           0       -1.577023   -0.885222   -0.000000
      3         17           0        2.053255    0.519804    0.000000
      4          1           0       -0.000000    0.594343    0.000000
 ---------------------------------------------------------------------
 Rotational constants (GHZ):          24.3300266           1.8371977           1.7082082
 Standard basis: Aug-CC-pVTZ (5D, 7F)
 There are   135 symmetry adapted cartesian basis functions of A'  symmetry.
 There are    63 symmetry adapted cartesian basis functions of A"  symmetry.
 There are   112 symmetry adapted basis functions of A'  symmetry.
 There are    57 symmetry adapted basis functions of A"  symmetry.
   169 basis functions,   327 primitive gaussians,   198 cartesian basis functions
    22 alpha electrons       22 beta electrons
       nuclear repulsion energy       118.1336085778 Hartrees.
 NAtoms=    4 NActive=    4 NUniq=    4 SFac= 1.00D+00 NAtFMM=   60 NAOKFM=F Big=F
 Integral buffers will be    131072 words long.
 Raffenetti 1 integral format.
 Two-electron integral symmetry is turned on.
 One-electron integrals computed using PRISM.
 NBasis=   169 RedAO= T EigKep=  2.49D-04  NBF=   112    57
 NBsUse=   169 1.00D-06 EigRej= -1.00D+00 NBFU=   112    57
 ExpMin= 2.53D-02 ExpMax= 4.56D+05 ExpMxC= 1.44D+03 IAcc=3 IRadAn=         5 AccDes= 0.00D+00
 Harris functional with IExCor=  205 and IRadAn=       5 diagonalized for initial guess.
 HarFok:  IExCor=  205 AccDes= 0.00D+00 IRadAn=         5 IDoV= 1 UseB2=F ITyADJ=14
 ICtDFT=  3500011 ScaDFX=  1.000000  1.000000  1.000000  1.000000
 FoFCou: FMM=F IPFlag=           0 FMFlag=      100000 FMFlg1=           0
         NFxFlg=           0 DoJE=T BraDBF=F KetDBF=T FulRan=T
         wScrn=  0.000000 ICntrl=       500 IOpCl=  0 I1Cent=   200000004 NGrid=           0
         NMat0=    1 NMatS0=      1 NMatT0=    0 NMatD0=    1 NMtDS0=    0 NMtDT0=    0
 Petite list used in FoFCou.
 Initial guess orbital symmetries:
       Occupied  (A') (A') (A') (A') (A') (A') (A') (A") (A') (A')
                 (A") (A') (A') (A') (A') (A') (A") (A') (A') (A")
                 (A') (A")
       Virtual   (A') (A') (A') (A') (A") (A') (A') (A") (A') (A')
                 (A') (A") (A') (A") (A') (A') (A') (A") (A') (A")
                 (A') (A") (A') (A') (A') (A") (A') (A') (A') (A")
                 (A") (A') (A') (A") (A') (A') (A') (A") (A") (A')
                 (A") (A') (A') (A') (A") (A') (A') (A") (A') (A')
                 (A") (A') (A') (A") (A") (A') (A") (A') (A') (A")
                 (A') (A") (A') (A') (A') (A') (A') (A") (A") (A")
                 (A') (A") (A') (A') (A') (A') (A') (A") (A') (A')
                 (A") (A') (A") (A') (A') (A") (A') (A") (A') (A')
                 (A") (A") (A') (A") (A') (A') (A") (A') (A') (A")
                 (A') (A") (A') (A') (A") (A') (A") (A") (A') (A')
                 (A') (A') (A") (A") (A') (A') (A') (A") (A') (A')
                 (A') (A") (A") (A') (A") (A') (A') (A') (A') (A")
                 (A') (A') (A') (A') (A") (A') (A") (A') (A") (A")
                 (A') (A') (A") (A') (A') (A') (A')
 The electronic state of the initial guess is 1-A'.
 Keep R1 ints in memory in symmetry-blocked form, NReq=155449223.
 Requested convergence on RMS density matrix=1.00D-08 within 128 cycles.
 Requested convergence on MAX density matrix=1.00D-06.
 Requested convergence on             energy=1.00D-06.
 No special actions if energy rises.
 SCF Done:  E(RHF) =  -994.525297287     A.U. after   13 cycles
            NFock= 13  Conv=0.38D-08     -V/T= 2.0002
 ExpMin= 2.53D-02 ExpMax= 4.56D+05 ExpMxC= 1.44D+03 IAcc=3 IRadAn=         5 AccDes= 0.00D+00
 HarFok:  IExCor=  205 AccDes= 0.00D+00 IRadAn=         5 IDoV=-2 UseB2=F ITyADJ=14
 ICtDFT= 12500011 ScaDFX=  1.000000  1.000000  1.000000  1.000000
 Range of M.O.s used for correlation:    12   169
 NBasis=   169 NAE=    22 NBE=    22 NFC=    11 NFV=     0
 NROrb=    158 NOA=    11 NOB=    11 NVA=   147 NVB=   147

 **** Warning!!: The largest alpha MO coefficient is  0.16139775D+02

 Fully direct method using O(ONN) memory.
 JobTyp=1 Pass  1:  I=  12 to  22 NPSUse= 28 ParTrn=T ParDer=T DoDerP=T.
 Spin components of T(2) and E(2):
     alpha-alpha T2 =       0.2917956308D-01 E2=     -0.8376710117D-01
     alpha-beta  T2 =       0.1596116002D+00 E2=     -0.4979808382D+00
     beta-beta   T2 =       0.2917956308D-01 E2=     -0.8376710117D-01
 ANorm=    0.1103617110D+01
 E2 =    -0.6655150406D+00 EUMP2 =    -0.99519081232731D+03
          IDoAtm=1111
          Differentiating once with respect to electric field.
                with respect to dipole field.
          Differentiating once with respect to nuclear coordinates.
 Keep R1 ints in memory in symmetry-blocked form, NReq=155450263.
          There are     1 degrees of freedom in the 1st order CPHF.  IDoFFX=0 NUNeed=     1.
 LinEq1:  Iter=  0 NonCon=     1 RMS=3.06D-03 Max=4.36D-02 NDo=     1
 AX will form     1 AO Fock derivatives at one time.
 LinEq1:  Iter=  1 NonCon=     1 RMS=3.82D-04 Max=4.86D-03 NDo=     1
 LinEq1:  Iter=  2 NonCon=     1 RMS=1.60D-04 Max=3.22D-03 NDo=     1
 LinEq1:  Iter=  3 NonCon=     1 RMS=6.25D-05 Max=9.91D-04 NDo=     1
 LinEq1:  Iter=  4 NonCon=     1 RMS=2.57D-05 Max=6.42D-04 NDo=     1
 LinEq1:  Iter=  5 NonCon=     1 RMS=5.64D-06 Max=7.38D-05 NDo=     1
 LinEq1:  Iter=  6 NonCon=     1 RMS=1.52D-06 Max=1.94D-05 NDo=     1
 LinEq1:  Iter=  7 NonCon=     1 RMS=3.53D-07 Max=7.59D-06 NDo=     1
 LinEq1:  Iter=  8 NonCon=     1 RMS=6.76D-08 Max=1.44D-06 NDo=     1
 LinEq1:  Iter=  9 NonCon=     1 RMS=1.65D-08 Max=3.31D-07 NDo=     1
 LinEq1:  Iter= 10 NonCon=     1 RMS=3.95D-09 Max=4.60D-08 NDo=     1
 LinEq1:  Iter= 11 NonCon=     1 RMS=9.44D-10 Max=8.75D-09 NDo=     1
 LinEq1:  Iter= 12 NonCon=     1 RMS=2.35D-10 Max=3.29D-09 NDo=     1
 LinEq1:  Iter= 13 NonCon=     0 RMS=4.20D-11 Max=6.54D-10 NDo=     1
 Linear equations converged to 1.000D-10 1.000D-09 after    13 iterations.
 End of Minotr F.D. properties file   721 does not exist.
 End of Minotr F.D. properties file   722 does not exist.
 End of Minotr F.D. properties file   788 does not exist.

 **********************************************************************

            Population analysis using the MP2 Density.

 **********************************************************************

 Orbital symmetries:
       Occupied  (A') (A') (A') (A') (A') (A') (A') (A") (A') (A")
                 (A') (A') (A') (A') (A') (A") (A') (A') (A") (A')
                 (A') (A")
       Virtual   (A') (A') (A') (A") (A') (A') (A") (A') (A') (A")
                 (A') (A') (A') (A') (A") (A') (A') (A") (A") (A')
                 (A') (A") (A') (A') (A') (A") (A') (A') (A') (A")
                 (A') (A") (A') (A') (A") (A') (A") (A') (A') (A")
                 (A') (A") (A') (A') (A") (A') (A') (A') (A") (A")
                 (A') (A') (A') (A") (A") (A') (A') (A") (A') (A")
                 (A') (A") (A') (A') (A') (A') (A") (A") (A') (A')
                 (A") (A') (A') (A") (A') (A') (A') (A") (A') (A')
                 (A") (A") (A') (A') (A') (A") (A') (A") (A') (A')
                 (A") (A') (A") (A') (A") (A') (A") (A') (A') (A")
                 (A") (A') (A') (A") (A') (A') (A") (A') (A") (A')
                 (A") (A') (A') (A') (A") (A') (A") (A') (A') (A')
                 (A') (A") (A") (A') (A") (A') (A') (A') (A') (A")
                 (A') (A') (A') (A') (A") (A') (A") (A') (A") (A')
                 (A") (A') (A") (A') (A') (A') (A')
 The electronic state is 1-A'.
 Alpha  occ. eigenvalues -- -104.73298-104.54568 -20.46445 -10.45248 -10.27004
 Alpha  occ. eigenvalues --   -7.91966  -7.91701  -7.91692  -7.73617  -7.73606
 Alpha  occ. eigenvalues --   -7.73605  -1.22887  -0.89669  -0.78088  -0.53878
 Alpha  occ. eigenvalues --   -0.44347  -0.43486  -0.30936  -0.28234  -0.20009
 Alpha  occ. eigenvalues --   -0.19188  -0.19184
 Alpha virt. eigenvalues --    0.15928   0.18319   0.22592   0.23115   0.25784
 Alpha virt. eigenvalues --    0.27247   0.27589   0.28759   0.30877   0.32454
 Alpha virt. eigenvalues --    0.33234   0.34866   0.38506   0.44685   0.45320
 Alpha virt. eigenvalues --    0.49928   0.51768   0.53990   0.55889   0.56071
 Alpha virt. eigenvalues --    0.57658   0.59141   0.59875   0.64551   0.66119
 Alpha virt. eigenvalues --    0.68149   0.68567   0.74542   0.77526   0.77823
 Alpha virt. eigenvalues --    0.83491   0.87953   0.88337   0.90378   0.90588
 Alpha virt. eigenvalues --    0.91365   0.95922   0.98621   1.05029   1.05985
 Alpha virt. eigenvalues --    1.06069   1.08286   1.09186   1.09848   1.12259
 Alpha virt. eigenvalues --    1.12837   1.15994   1.18775   1.18995   1.20704
 Alpha virt. eigenvalues --    1.20899   1.22384   1.27992   1.30929   1.31319
 Alpha virt. eigenvalues --    1.35429   1.39004   1.42247   1.43133   1.43467
 Alpha virt. eigenvalues --    1.46113   1.47954   1.53746   1.57595   1.63202
 Alpha virt. eigenvalues --    1.65537   1.66519   1.69631   1.69922   1.77100
 Alpha virt. eigenvalues --    1.77819   1.82702   1.84761   1.88155   1.94608
 Alpha virt. eigenvalues --    1.98205   2.26840   2.38162   2.47865   2.50751
 Alpha virt. eigenvalues --    2.52528   2.57712   2.58406   2.61032   2.65649
 Alpha virt. eigenvalues --    2.67699   2.69931   2.71639   2.72158   2.75866
 Alpha virt. eigenvalues --    2.76320   2.78908   2.79816   2.81315   2.91157
 Alpha virt. eigenvalues --    2.91654   2.92968   2.96742   3.02724   3.07903
 Alpha virt. eigenvalues --    3.12026   3.12290   3.19214   3.21447   3.22121
 Alpha virt. eigenvalues --    3.27379   3.29449   3.31422   3.33325   3.33337
 Alpha virt. eigenvalues --    3.39867   3.39903   3.40316   3.48903   3.49121
 Alpha virt. eigenvalues --    3.54449   3.55058   3.56533   3.64817   3.93304
 Alpha virt. eigenvalues --    4.22581   4.30725   4.43675   4.53743   4.58268
 Alpha virt. eigenvalues --    4.78111   4.98726   5.09287   5.33124   5.37506
 Alpha virt. eigenvalues --    5.65626   6.28702   6.51789   6.66462   6.84418
 Alpha virt. eigenvalues --    6.90056   6.91388   6.98786   7.26773   7.32174
 Alpha virt. eigenvalues --    7.34082   7.44279   7.54433   7.73595   7.80849
 Alpha virt. eigenvalues --    8.34529  14.49821
          Condensed to atoms (all electrons):
               1          2          3          4
     1  O    8.621815  -0.116925  -0.075101   0.053655
     2  Cl  -0.116925  17.066330   0.006773  -0.002709
     3  Cl  -0.075101   0.006773  17.868413   0.070115
     4  H    0.053655  -0.002709   0.070115   0.571827
 Mulliken charges:
               1
     1  O   -0.483443
     2  Cl   0.046531
     3  Cl  -0.870200
     4  H    0.307112
 Sum of Mulliken charges =  -1.00000
 Mulliken charges with hydrogens summed into heavy atoms:
               1
     1  O   -0.176331
     2  Cl   0.046531
     3  Cl  -0.870200
 Electronic spatial extent (au):  <R**2>=            612.9605
 Charge=             -1.0000 electrons
 Dipole moment (field-independent basis, Debye):
    X=             -5.7014    Y=             -2.1255    Z=             -0.0000  Tot=              6.0847
 Quadrupole moment (field-independent basis, Debye-Ang):
   XX=            -56.7052   YY=            -37.6107   ZZ=            -36.7723
   XY=             -3.5129   XZ=             -0.0000   YZ=              0.0000
 Traceless Quadrupole moment (field-independent basis, Debye-Ang):
   XX=            -13.0091   YY=              6.0854   ZZ=              6.9238
   XY=             -3.5129   XZ=             -0.0000   YZ=              0.0000
 Octapole moment (field-independent basis, Debye-Ang**2):
  XXX=            -49.1876  YYY=             -7.0490  ZZZ=             -0.0000  XYY=             -9.5741
  XXY=            -11.1066  XXZ=             -0.0000  XZZ=             -6.4223  YZZ=             -1.0936
  YYZ=             -0.0000  XYZ=              0.0000
 Hexadecapole moment (field-independent basis, Debye-Ang**3):
 XXXX=           -773.6122 YYYY=           -149.7672 ZZZZ=            -50.1163 XXXY=           -113.2828
 XXXZ=             -0.0000 YYYX=            -90.6349 YYYZ=              0.0000 ZZZX=             -0.0000
 ZZZY=             -0.0000 XXYY=           -145.7551 XXZZ=           -126.9920 YYZZ=            -35.6164
 XXYZ=              0.0000 YYXZ=              0.0000 ZZXY=            -32.8879
 N-N= 1.181336085778D+02 E-N=-2.613856254453D+03  KE= 9.949780674411D+02
 Symmetry A'   KE= 8.989650038719D+02
 Symmetry A"   KE= 9.601306356914D+01
 Calling FoFJK, ICntrl=  10002127 FMM=F ISym2X=1 I1Cent= 0 IOpClX= 0 NMat=1 NMatS=1 NMatT=0.
 ***** Axes restored to original set *****
 -------------------------------------------------------------------
 Center     Atomic                   Forces (Hartrees/Bohr)
 Number     Number              X              Y              Z
 -------------------------------------------------------------------
      1        8          -0.001938756   -0.006823180   -0.000000000
      2       17           0.000130317   -0.000155996   -0.000000000
      3       17           0.002359709    0.007263896    0.000000000
      4        1          -0.000551270   -0.000284720   -0.000000000
 -------------------------------------------------------------------
 Cartesian Forces:  Max     0.007263896 RMS     0.003014869
 -----------------------------------------------------------------------------------------------
                       Internal Coordinate Forces (Hartree/Bohr or radian)
  Cent   Atom   N1       Length/X         N2         Alpha/Y        N3         Beta/Z          J
 -----------------------------------------------------------------------------------------------
      1  O 
         X        1   0.000000(     1)
      2  Cl       1   0.000130(     2)      2   0.000000(     5)
      3  Cl       1  -0.007634(     3)      2  -0.000000(     6)      3  -0.001400(     8)     0
      4  H        1   0.000406(     4)      2   0.000000(     7)      3   0.000903(     9)     0
 -----------------------------------------------------------------------------------------------
 Internal  Forces:  Max     0.007633756 RMS     0.002608323

 GradGradGradGradGradGradGradGradGradGradGradGradGradGradGradGradGradGrad
 Berny optimization.
 Search for a local minimum.
 Step number   1 out of a maximum of   20
 All quantities printed in internal units (Hartrees-Bohrs-Radians)
 Second derivative matrix not updated -- first step.
 The second derivative matrix:
                          r1        r2        r3        a1        a2
           r1           0.44703
           r2          -0.00000   0.37758
           r3           0.00000  -0.00000   0.02211
           a1           0.00000   0.00000  -0.00000   0.32000
           a2          -0.00000   0.00000   0.00000  -0.16000   0.41000
           OOP          0.00000   0.00000  -0.00000   0.00000  -0.00000
                          OOP
           OOP          0.04500
 ITU=  0
     Eigenvalues ---    0.447031000.000001000.000001000.000001000.00000
     Eigenvalues --- 1000.00000
 RFO step:  Lambda=-3.68029264D-07 EMin= 4.47026108D-01
 Linear search not attempted -- first point.
 Variable       Old X    -DE/DX   Delta X   Delta X   Delta X     New X
                                 (Linear)    (Quad)   (Total)
    r1        1.92323   0.00041   0.00000   0.00091   0.00091   1.92413
    r2        3.18419   0.00013   0.00000   0.00000   0.00000   3.18419
    r3        5.80273  -0.00763   0.00000   0.00000   0.00000   5.80273
    a1        1.80655   0.00090   0.00000   0.00000   0.00000   1.80655
    a2        1.85331  -0.00140   0.00000   0.00000   0.00000   1.85331
   OOP        1.57080   0.00000   0.00000   0.00000   0.00000   1.57080
         Item               Value     Threshold  Converged?
 Maximum Force            0.000406     0.000015     NO 
 RMS     Force            0.000406     0.000010     NO 
 Maximum Displacement     0.000907     0.000060     NO 
 RMS     Displacement     0.000370     0.000040     NO 
 Predicted change in Energy=-1.840146D-07
 GradGradGradGradGradGradGradGradGradGradGradGradGradGradGradGradGradGrad

 ---------------------------------------------------------------------------------------------------
                            Z-MATRIX (ANGSTROMS AND DEGREES)
   CD    Cent   Atom    N1       Length/X        N2       Alpha/Y        N3        Beta/Z          J
 ---------------------------------------------------------------------------------------------------
      1      1  O 
      2         X        1  10.000000(     1)
      3      2  Cl       1   1.685000(     2)      2   90.000(     5)
      4      3  Cl       1   3.070672(     3)      2   90.000(     6)      3  106.187(     8)      0
      5      4  H        1   1.018208(     4)      2   90.000(     7)      3  103.508(     9)      0
 ---------------------------------------------------------------------------------------------------
                         Z-Matrix orientation:                         
 ---------------------------------------------------------------------
 Center     Atomic      Atomic             Coordinates (Angstroms)
 Number     Number       Type             X           Y           Z
 ---------------------------------------------------------------------
      1          8           0        0.000000    0.000000    0.000000
      2         -1           0        0.000000    0.000000   10.000000
      3         17           0        1.685000    0.000000    0.000000
      4         17           0       -0.856013   -2.948944    0.000000
      5          1           0       -0.237832   -0.990042    0.000000
 ---------------------------------------------------------------------
                    Distance matrix (angstroms):
                    1          2          3          4          5
     1  O    0.000000
     2  X   10.000000   0.000000
     3  Cl   1.685000  10.140968   0.000000
     4  Cl   3.070672  10.460833   3.892688   0.000000
     5  H    1.018208  10.051704   2.162745   2.054129   0.000000
 Stoichiometry    Cl2HO(1-)
 Framework group  CS[SG(Cl2HO)]
 Deg. of freedom     5
 Full point group                 CS      NOp   2
 Largest Abelian subgroup         CS      NOp   2
 Largest concise Abelian subgroup C1      NOp   1
                         Standard orientation:                         
 ---------------------------------------------------------------------
 Center     Atomic      Atomic             Coordinates (Angstroms)
 Number     Number       Type             X           Y           Z
 ---------------------------------------------------------------------
      1          8           0       -1.012556    0.701426   -0.000000
      2         17           0       -1.576339   -0.886458   -0.000000
      3         17           0        2.052836    0.521416    0.000000
      4          1           0       -0.000000    0.594293    0.000000
 ---------------------------------------------------------------------
 Rotational constants (GHZ):          24.3302938           1.8371966           1.7082086
 Standard basis: Aug-CC-pVTZ (5D, 7F)
 There are   135 symmetry adapted cartesian basis functions of A'  symmetry.
 There are    63 symmetry adapted cartesian basis functions of A"  symmetry.
 There are   112 symmetry adapted basis functions of A'  symmetry.
 There are    57 symmetry adapted basis functions of A"  symmetry.
   169 basis functions,   327 primitive gaussians,   198 cartesian basis functions
    22 alpha electrons       22 beta electrons
       nuclear repulsion energy       118.1320651485 Hartrees.
 NAtoms=    4 NActive=    4 NUniq=    4 SFac= 1.00D+00 NAtFMM=   60 NAOKFM=F Big=F
 Integral buffers will be    131072 words long.
 Raffenetti 1 integral format.
 Two-electron integral symmetry is turned on.
 One-electron integrals computed using PRISM.
 NBasis=   169 RedAO= T EigKep=  2.50D-04  NBF=   112    57
 NBsUse=   169 1.00D-06 EigRej= -1.00D+00 NBFU=   112    57
 Initial guess from the checkpoint file:  "/gscratch/ilahie/mccoygrp/coire_hocl/clhocl_tz.chk"
 B after Tr=     0.000000    0.000000    0.000000
         Rot=    1.000000   -0.000000   -0.000000   -0.000391 Ang=  -0.04 deg.
 Initial guess orbital symmetries:
       Occupied  (A') (A') (A') (A') (A') (A') (A') (A") (A') (A")
                 (A') (A') (A') (A') (A') (A") (A') (A') (A") (A')
                 (A') (A")
       Virtual   (A') (A') (A') (A") (A') (A') (A") (A') (A') (A")
                 (A') (A') (A') (A') (A") (A') (A') (A") (A") (A')
                 (A') (A") (A') (A') (A') (A") (A') (A') (A') (A")
                 (A') (A") (A') (A') (A") (A') (A") (A') (A') (A")
                 (A') (A") (A') (A') (A") (A') (A') (A') (A") (A")
                 (A') (A') (A') (A") (A") (A') (A') (A") (A') (A")
                 (A') (A") (A') (A') (A') (A') (A") (A") (A') (A')
                 (A") (A') (A') (A") (A') (A') (A') (A") (A') (A')
                 (A") (A") (A') (A') (A') (A") (A') (A") (A') (A')
                 (A") (A') (A") (A') (A") (A') (A") (A') (A') (A")
                 (A") (A') (A') (A") (A') (A') (A") (A') (A") (A')
                 (A") (A') (A') (A') (A") (A') (A") (A') (A') (A')
                 (A') (A") (A") (A') (A") (A') (A') (A') (A') (A")
                 (A') (A') (A') (A') (A") (A') (A") (A') (A") (A')
                 (A") (A') (A") (A') (A') (A') (A')
 Keep R1 ints in memory in symmetry-blocked form, NReq=155449223.
 Requested convergence on RMS density matrix=1.00D-08 within 128 cycles.
 Requested convergence on MAX density matrix=1.00D-06.
 Requested convergence on             energy=1.00D-06.
 No special actions if energy rises.
 SCF Done:  E(RHF) =  -994.525270863     A.U. after    7 cycles
            NFock=  7  Conv=0.31D-08     -V/T= 2.0002
 ExpMin= 2.53D-02 ExpMax= 4.56D+05 ExpMxC= 1.44D+03 IAcc=3 IRadAn=         5 AccDes= 0.00D+00
 HarFok:  IExCor=  205 AccDes= 0.00D+00 IRadAn=         5 IDoV=-2 UseB2=F ITyADJ=14
 ICtDFT= 12500011 ScaDFX=  1.000000  1.000000  1.000000  1.000000
 Range of M.O.s used for correlation:    12   169
 NBasis=   169 NAE=    22 NBE=    22 NFC=    11 NFV=     0
 NROrb=    158 NOA=    11 NOB=    11 NVA=   147 NVB=   147

 **** Warning!!: The largest alpha MO coefficient is  0.16130780D+02

 Fully direct method using O(ONN) memory.
 JobTyp=1 Pass  1:  I=  12 to  22 NPSUse= 28 ParTrn=T ParDer=T DoDerP=T.
 Spin components of T(2) and E(2):
     alpha-alpha T2 =       0.2918271123D-01 E2=     -0.8377188019D-01
     alpha-beta  T2 =       0.1596251262D+00 E2=     -0.4979979498D+00
     beta-beta   T2 =       0.2918271123D-01 E2=     -0.8377188019D-01
 ANorm=    0.1103626091D+01
 E2 =    -0.6655417101D+00 EUMP2 =    -0.99519081257283D+03
          IDoAtm=1111
          Differentiating once with respect to electric field.
                with respect to dipole field.
          Differentiating once with respect to nuclear coordinates.
 Keep R1 ints in memory in symmetry-blocked form, NReq=155450263.
          There are     1 degrees of freedom in the 1st order CPHF.  IDoFFX=0 NUNeed=     1.
 LinEq1:  Iter=  0 NonCon=     1 RMS=3.06D-03 Max=4.36D-02 NDo=     1
 AX will form     1 AO Fock derivatives at one time.
 LinEq1:  Iter=  1 NonCon=     1 RMS=3.82D-04 Max=4.86D-03 NDo=     1
 LinEq1:  Iter=  2 NonCon=     1 RMS=1.60D-04 Max=3.22D-03 NDo=     1
 LinEq1:  Iter=  3 NonCon=     1 RMS=6.26D-05 Max=9.92D-04 NDo=     1
 LinEq1:  Iter=  4 NonCon=     1 RMS=2.57D-05 Max=6.42D-04 NDo=     1
 LinEq1:  Iter=  5 NonCon=     1 RMS=5.65D-06 Max=7.38D-05 NDo=     1
 LinEq1:  Iter=  6 NonCon=     1 RMS=1.52D-06 Max=1.95D-05 NDo=     1
 LinEq1:  Iter=  7 NonCon=     1 RMS=3.53D-07 Max=7.61D-06 NDo=     1
 LinEq1:  Iter=  8 NonCon=     1 RMS=6.77D-08 Max=1.45D-06 NDo=     1
 LinEq1:  Iter=  9 NonCon=     1 RMS=1.66D-08 Max=3.31D-07 NDo=     1
 LinEq1:  Iter= 10 NonCon=     1 RMS=3.97D-09 Max=4.61D-08 NDo=     1
 LinEq1:  Iter= 11 NonCon=     1 RMS=9.51D-10 Max=8.94D-09 NDo=     1
 LinEq1:  Iter= 12 NonCon=     1 RMS=2.36D-10 Max=3.32D-09 NDo=     1
 LinEq1:  Iter= 13 NonCon=     0 RMS=4.22D-11 Max=6.55D-10 NDo=     1
 Linear equations converged to 1.000D-10 1.000D-09 after    13 iterations.
 End of Minotr F.D. properties file   721 does not exist.
 End of Minotr F.D. properties file   722 does not exist.
 End of Minotr F.D. properties file   788 does not exist.
 Calling FoFJK, ICntrl=  10002127 FMM=F ISym2X=1 I1Cent= 0 IOpClX= 0 NMat=1 NMatS=1 NMatT=0.
 ***** Axes restored to original set *****
 -------------------------------------------------------------------
 Center     Atomic                   Forces (Hartrees/Bohr)
 Number     Number              X              Y              Z
 -------------------------------------------------------------------
      1        8          -0.002010835   -0.007102842   -0.000000000
      2       17           0.000135040   -0.000156529   -0.000000000
      3       17           0.002364955    0.007278733    0.000000000
      4        1          -0.000489161   -0.000019362   -0.000000000
 -------------------------------------------------------------------
 Cartesian Forces:  Max     0.007278733 RMS     0.003073396
 -----------------------------------------------------------------------------------------------
                       Internal Coordinate Forces (Hartree/Bohr or radian)
  Cent   Atom   N1       Length/X         N2         Alpha/Y        N3         Beta/Z          J
 -----------------------------------------------------------------------------------------------
      1  O 
         X        1   0.000000(     1)
      2  Cl       1   0.000135(     2)      2   0.000000(     5)
      3  Cl       1  -0.007649(     3)      2  -0.000000(     6)      3  -0.001405(     8)     0
      4  H        1   0.000133(     4)      2   0.000000(     7)      3   0.000906(     9)     0
 -----------------------------------------------------------------------------------------------
 Internal  Forces:  Max     0.007649467 RMS     0.002610783

 GradGradGradGradGradGradGradGradGradGradGradGradGradGradGradGradGradGrad
 Berny optimization.
 Search for a local minimum.
 Step number   2 out of a maximum of   20
 All quantities printed in internal units (Hartrees-Bohrs-Radians)
 Update second derivatives using D2CorN and points    1    2
 DE= -2.46D-07 DEPred=-1.84D-07 R= 1.33D+00
 Trust test= 1.33D+00 RLast= 9.07D-04 DXMaxT set to 3.00D-01
 The second derivative matrix:
                          r1        r2        r3        a1        a2
           r1           0.30035
           r2          -0.00260   0.37758
           r3           0.00866  -0.00000   0.02211
           a1          -0.00192   0.00000  -0.00000   0.32000
           a2           0.00289   0.00000   0.00000  -0.16000   0.41000
           OOP          0.00000   0.00000  -0.00000   0.00000  -0.00000
                          OOP
           OOP          0.04500
 ITU=  0  0
     Eigenvalues ---    0.300351000.000001000.000001000.000001000.00000
     Eigenvalues --- 1000.00000
 RFO step:  Lambda= 0.00000000D+00 EMin= 3.00352744D-01
 Quartic linear search produced a step of  0.46930.
 Variable       Old X    -DE/DX   Delta X   Delta X   Delta X     New X
                                 (Linear)    (Quad)   (Total)
    r1        1.92413   0.00013   0.00043  -0.00000   0.00043   1.92456
    r2        3.18419   0.00014   0.00000   0.00000   0.00000   3.18419
    r3        5.80273  -0.00765   0.00000   0.00000   0.00000   5.80273
    a1        1.80655   0.00091   0.00000   0.00000   0.00000   1.80655
    a2        1.85331  -0.00140   0.00000   0.00000   0.00000   1.85331
   OOP        1.57080   0.00000   0.00000   0.00000   0.00000   1.57080
         Item               Value     Threshold  Converged?
 Maximum Force            0.000133     0.000015     NO 
 RMS     Force            0.000133     0.000010     NO 
 Maximum Displacement     0.000426     0.000060     NO 
 RMS     Displacement     0.000174     0.000040     NO 
 Predicted change in Energy=-2.943955D-08
 GradGradGradGradGradGradGradGradGradGradGradGradGradGradGradGradGradGrad

 ---------------------------------------------------------------------------------------------------
                            Z-MATRIX (ANGSTROMS AND DEGREES)
   CD    Cent   Atom    N1       Length/X        N2       Alpha/Y        N3        Beta/Z          J
 ---------------------------------------------------------------------------------------------------
      1      1  O 
      2         X        1  10.000000(     1)
      3      2  Cl       1   1.685000(     2)      2   90.000(     5)
      4      3  Cl       1   3.070672(     3)      2   90.000(     6)      3  106.187(     8)      0
      5      4  H        1   1.018433(     4)      2   90.000(     7)      3  103.508(     9)      0
 ---------------------------------------------------------------------------------------------------
                         Z-Matrix orientation:                         
 ---------------------------------------------------------------------
 Center     Atomic      Atomic             Coordinates (Angstroms)
 Number     Number       Type             X           Y           Z
 ---------------------------------------------------------------------
      1          8           0        0.000000    0.000000    0.000000
      2         -1           0        0.000000    0.000000   10.000000
      3         17           0        1.685000    0.000000    0.000000
      4         17           0       -0.856013   -2.948944    0.000000
      5          1           0       -0.237885   -0.990261    0.000000
 ---------------------------------------------------------------------
                    Distance matrix (angstroms):
                    1          2          3          4          5
     1  O    0.000000
     2  X   10.000000   0.000000
     3  Cl   1.685000  10.140968   0.000000
     4  Cl   3.070672  10.460833   3.892688   0.000000
     5  H    1.018433  10.051727   2.162892   2.053904   0.000000
 Stoichiometry    Cl2HO(1-)
 Framework group  CS[SG(Cl2HO)]
 Deg. of freedom     5
 Full point group                 CS      NOp   2
 Largest Abelian subgroup         CS      NOp   2
 Largest concise Abelian subgroup C1      NOp   1
                         Standard orientation:                         
 ---------------------------------------------------------------------
 Center     Atomic      Atomic             Coordinates (Angstroms)
 Number     Number       Type             X           Y           Z
 ---------------------------------------------------------------------
      1          8           0       -1.012819    0.701053   -0.000000
      2         17           0       -1.576017   -0.887038   -0.000000
      3         17           0        2.052638    0.522173    0.000000
      4          1           0       -0.000000    0.594270    0.000000
 ---------------------------------------------------------------------
 Rotational constants (GHZ):          24.3304191           1.8371961           1.7082088
 Standard basis: Aug-CC-pVTZ (5D, 7F)
 There are   135 symmetry adapted cartesian basis functions of A'  symmetry.
 There are    63 symmetry adapted cartesian basis functions of A"  symmetry.
 There are   112 symmetry adapted basis functions of A'  symmetry.
 There are    57 symmetry adapted basis functions of A"  symmetry.
   169 basis functions,   327 primitive gaussians,   198 cartesian basis functions
    22 alpha electrons       22 beta electrons
       nuclear repulsion energy       118.1313416417 Hartrees.
 NAtoms=    4 NActive=    4 NUniq=    4 SFac= 1.00D+00 NAtFMM=   60 NAOKFM=F Big=F
 Integral buffers will be    131072 words long.
 Raffenetti 1 integral format.
 Two-electron integral symmetry is turned on.
 One-electron integrals computed using PRISM.
 NBasis=   169 RedAO= T EigKep=  2.50D-04  NBF=   112    57
 NBsUse=   169 1.00D-06 EigRej= -1.00D+00 NBFU=   112    57
 Initial guess from the checkpoint file:  "/gscratch/ilahie/mccoygrp/coire_hocl/clhocl_tz.chk"
 B after Tr=    -0.000000    0.000000   -0.000000
         Rot=    1.000000   -0.000000   -0.000000   -0.000184 Ang=  -0.02 deg.
 Initial guess orbital symmetries:
       Occupied  (A') (A') (A') (A') (A') (A') (A') (A") (A') (A")
                 (A') (A') (A') (A') (A') (A") (A') (A') (A") (A')
                 (A') (A")
       Virtual   (A') (A') (A') (A") (A') (A') (A") (A') (A') (A")
                 (A') (A') (A') (A') (A") (A') (A') (A") (A") (A')
                 (A') (A") (A') (A') (A') (A") (A') (A') (A') (A")
                 (A') (A") (A') (A') (A") (A') (A") (A') (A') (A")
                 (A') (A") (A') (A') (A") (A') (A') (A') (A") (A")
                 (A') (A') (A') (A") (A") (A') (A') (A") (A') (A")
                 (A') (A") (A') (A') (A') (A') (A") (A") (A') (A')
                 (A") (A') (A') (A") (A') (A') (A') (A") (A') (A')
                 (A") (A") (A') (A') (A') (A") (A') (A") (A') (A')
                 (A") (A') (A") (A') (A") (A') (A") (A') (A') (A")
                 (A") (A') (A') (A") (A') (A') (A") (A') (A") (A')
                 (A") (A') (A') (A') (A") (A') (A") (A') (A') (A')
                 (A') (A") (A") (A') (A") (A') (A') (A') (A') (A")
                 (A') (A') (A') (A') (A") (A') (A") (A') (A") (A')
                 (A") (A') (A") (A') (A') (A') (A')
 Keep R1 ints in memory in symmetry-blocked form, NReq=155449223.
 Requested convergence on RMS density matrix=1.00D-08 within 128 cycles.
 Requested convergence on MAX density matrix=1.00D-06.
 Requested convergence on             energy=1.00D-06.
 No special actions if energy rises.
 SCF Done:  E(RHF) =  -994.525258377     A.U. after    6 cycles
            NFock=  6  Conv=0.49D-08     -V/T= 2.0002
 ExpMin= 2.53D-02 ExpMax= 4.56D+05 ExpMxC= 1.44D+03 IAcc=3 IRadAn=         5 AccDes= 0.00D+00
 HarFok:  IExCor=  205 AccDes= 0.00D+00 IRadAn=         5 IDoV=-2 UseB2=F ITyADJ=14
 ICtDFT= 12500011 ScaDFX=  1.000000  1.000000  1.000000  1.000000
 Range of M.O.s used for correlation:    12   169
 NBasis=   169 NAE=    22 NBE=    22 NFC=    11 NFV=     0
 NROrb=    158 NOA=    11 NOB=    11 NVA=   147 NVB=   147

 **** Warning!!: The largest alpha MO coefficient is  0.16126562D+02

 Fully direct method using O(ONN) memory.
 JobTyp=1 Pass  1:  I=  12 to  22 NPSUse= 28 ParTrn=T ParDer=T DoDerP=T.
 Spin components of T(2) and E(2):
     alpha-alpha T2 =       0.2918418880D-01 E2=     -0.8377412327D-01
     alpha-beta  T2 =       0.1596314750D+00 E2=     -0.4980059810D+00
     beta-beta   T2 =       0.2918418880D-01 E2=     -0.8377412327D-01
 ANorm=    0.1103630306D+01
 E2 =    -0.6655542275D+00 EUMP2 =    -0.99519081260482D+03
          IDoAtm=1111
          Differentiating once with respect to electric field.
                with respect to dipole field.
          Differentiating once with respect to nuclear coordinates.
 Keep R1 ints in memory in symmetry-blocked form, NReq=155450263.
          There are     1 degrees of freedom in the 1st order CPHF.  IDoFFX=0 NUNeed=     1.
 LinEq1:  Iter=  0 NonCon=     1 RMS=3.06D-03 Max=4.36D-02 NDo=     1
 AX will form     1 AO Fock derivatives at one time.
 LinEq1:  Iter=  1 NonCon=     1 RMS=3.82D-04 Max=4.86D-03 NDo=     1
 LinEq1:  Iter=  2 NonCon=     1 RMS=1.60D-04 Max=3.22D-03 NDo=     1
 LinEq1:  Iter=  3 NonCon=     1 RMS=6.26D-05 Max=9.92D-04 NDo=     1
 LinEq1:  Iter=  4 NonCon=     1 RMS=2.57D-05 Max=6.42D-04 NDo=     1
 LinEq1:  Iter=  5 NonCon=     1 RMS=5.65D-06 Max=7.38D-05 NDo=     1
 LinEq1:  Iter=  6 NonCon=     1 RMS=1.52D-06 Max=1.95D-05 NDo=     1
 LinEq1:  Iter=  7 NonCon=     1 RMS=3.53D-07 Max=7.61D-06 NDo=     1
 LinEq1:  Iter=  8 NonCon=     1 RMS=6.78D-08 Max=1.45D-06 NDo=     1
 LinEq1:  Iter=  9 NonCon=     1 RMS=1.66D-08 Max=3.32D-07 NDo=     1
 LinEq1:  Iter= 10 NonCon=     1 RMS=3.98D-09 Max=4.61D-08 NDo=     1
 LinEq1:  Iter= 11 NonCon=     1 RMS=9.55D-10 Max=9.02D-09 NDo=     1
 LinEq1:  Iter= 12 NonCon=     1 RMS=2.36D-10 Max=3.33D-09 NDo=     1
 LinEq1:  Iter= 13 NonCon=     0 RMS=4.23D-11 Max=6.56D-10 NDo=     1
 Linear equations converged to 1.000D-10 1.000D-09 after    13 iterations.
 End of Minotr F.D. properties file   721 does not exist.
 End of Minotr F.D. properties file   722 does not exist.
 End of Minotr F.D. properties file   788 does not exist.
 Calling FoFJK, ICntrl=  10002127 FMM=F ISym2X=1 I1Cent= 0 IOpClX= 0 NMat=1 NMatS=1 NMatT=0.
 ***** Axes restored to original set *****
 -------------------------------------------------------------------
 Center     Atomic                   Forces (Hartrees/Bohr)
 Number     Number              X              Y              Z
 -------------------------------------------------------------------
      1        8          -0.002044564   -0.007233696   -0.000000000
      2       17           0.000137256   -0.000156780   -0.000000000
      3       17           0.002367422    0.007285707    0.000000000
      4        1          -0.000460115    0.000104769   -0.000000000
 -------------------------------------------------------------------
 Cartesian Forces:  Max     0.007285707 RMS     0.003101867
 -----------------------------------------------------------------------------------------------
                       Internal Coordinate Forces (Hartree/Bohr or radian)
  Cent   Atom   N1       Length/X         N2         Alpha/Y        N3         Beta/Z          J
 -----------------------------------------------------------------------------------------------
      1  O 
         X        1   0.000000(     1)
      2  Cl       1   0.000137(     2)      2   0.000000(     5)
      3  Cl       1  -0.007657(     3)      2  -0.000000(     6)      3  -0.001407(     8)     0
      4  H        1   0.000006(     4)      2   0.000000(     7)      3   0.000908(     9)     0
 -----------------------------------------------------------------------------------------------
 Internal  Forces:  Max     0.007656853 RMS     0.002613035

 GradGradGradGradGradGradGradGradGradGradGradGradGradGradGradGradGradGrad
 Berny optimization.
 Search for a local minimum.
 Step number   3 out of a maximum of   20
 All quantities printed in internal units (Hartrees-Bohrs-Radians)
 Update second derivatives using D2CorN and points    2    3
 DE= -3.20D-08 DEPred=-2.94D-08 R= 1.09D+00
 Trust test= 1.09D+00 RLast= 4.26D-04 DXMaxT set to 3.00D-01
 The second derivative matrix:
                          r1        r2        r3        a1        a2
           r1           0.29938
           r2          -0.00390   0.37758
           r3           0.01300  -0.00000   0.02211
           a1          -0.00290   0.00000  -0.00000   0.32000
           a2           0.00434   0.00000   0.00000  -0.16000   0.41000
           OOP          0.00000   0.00000  -0.00000   0.00000  -0.00000
                          OOP
           OOP          0.04500
 ITU=  0  0  0
     Eigenvalues ---    0.299381000.000001000.000001000.000001000.00000
     Eigenvalues --- 1000.00000
 RFO step:  Lambda= 0.00000000D+00 EMin= 2.99380863D-01
 Quartic linear search produced a step of  0.03394.
 Variable       Old X    -DE/DX   Delta X   Delta X   Delta X     New X
                                 (Linear)    (Quad)   (Total)
    r1        1.92456   0.00001   0.00001   0.00000   0.00001   1.92457
    r2        3.18419   0.00014   0.00000   0.00000   0.00000   3.18419
    r3        5.80273  -0.00766   0.00000   0.00000   0.00000   5.80273
    a1        1.80655   0.00091   0.00000   0.00000   0.00000   1.80655
    a2        1.85331  -0.00141   0.00000   0.00000   0.00000   1.85331
   OOP        1.57080   0.00000   0.00000   0.00000   0.00000   1.57080
         Item               Value     Threshold  Converged?
 Maximum Force            0.000006     0.000015     YES
 RMS     Force            0.000006     0.000010     YES
 Maximum Displacement     0.000014     0.000060     YES
 RMS     Displacement     0.000006     0.000040     YES
 Predicted change in Energy=-4.970664D-11
 Optimization completed.
    -- Stationary point found.
                       ----------------------------
                       !   Optimized Parameters   !
                       ! (Angstroms and Degrees)  !
 ----------------------                            ----------------------
 !      Name          Value   Derivative information (Atomic Units)     !
 ------------------------------------------------------------------------
 !       r1          1.0184   -DE/DX =    0.0                           !
 !       r2          1.685    -DE/DX =    0.0001                        !
 !       r3          3.0707   -DE/DX =   -0.0077                        !
 !       a1        103.5079   -DE/DX =    0.0009                        !
 !       a2        106.1868   -DE/DX =   -0.0014                        !
 !       OOP        90.0      -DE/DX =    0.0                           !
 ------------------------------------------------------------------------
 GradGradGradGradGradGradGradGradGradGradGradGradGradGradGradGradGradGrad

 ---------------------------------------------------------------------------------------------------
                            Z-MATRIX (ANGSTROMS AND DEGREES)
   CD    Cent   Atom    N1       Length/X        N2       Alpha/Y        N3        Beta/Z          J
 ---------------------------------------------------------------------------------------------------
      1      1  O 
      2         X        1  10.000000(     1)
      3      2  Cl       1   1.685000(     2)      2   90.000(     5)
      4      3  Cl       1   3.070672(     3)      2   90.000(     6)      3  106.187(     8)      0
      5      4  H        1   1.018433(     4)      2   90.000(     7)      3  103.508(     9)      0
 ---------------------------------------------------------------------------------------------------
                         Z-Matrix orientation:                         
 ---------------------------------------------------------------------
 Center     Atomic      Atomic             Coordinates (Angstroms)
 Number     Number       Type             X           Y           Z
 ---------------------------------------------------------------------
      1          8           0        0.000000    0.000000    0.000000
      2         -1           0        0.000000    0.000000   10.000000
      3         17           0        1.685000    0.000000    0.000000
      4         17           0       -0.856013   -2.948944    0.000000
      5          1           0       -0.237885   -0.990261    0.000000
 ---------------------------------------------------------------------
                    Distance matrix (angstroms):
                    1          2          3          4          5
     1  O    0.000000
     2  X   10.000000   0.000000
     3  Cl   1.685000  10.140968   0.000000
     4  Cl   3.070672  10.460833   3.892688   0.000000
     5  H    1.018433  10.051727   2.162892   2.053904   0.000000
 Stoichiometry    Cl2HO(1-)
 Framework group  CS[SG(Cl2HO)]
 Deg. of freedom     5
 Full point group                 CS      NOp   2
 Largest Abelian subgroup         CS      NOp   2
 Largest concise Abelian subgroup C1      NOp   1
                         Standard orientation:                         
 ---------------------------------------------------------------------
 Center     Atomic      Atomic             Coordinates (Angstroms)
 Number     Number       Type             X           Y           Z
 ---------------------------------------------------------------------
      1          8           0       -1.012819    0.701053   -0.000000
      2         17           0       -1.576017   -0.887038   -0.000000
      3         17           0        2.052638    0.522173    0.000000
      4          1           0       -0.000000    0.594270    0.000000
 ---------------------------------------------------------------------
 Rotational constants (GHZ):          24.3304191           1.8371961           1.7082088

 **********************************************************************

            Population analysis using the MP2 Density.

 **********************************************************************

 Orbital symmetries:
       Occupied  (A') (A') (A') (A') (A') (A') (A') (A") (A') (A")
                 (A') (A') (A') (A') (A') (A") (A') (A') (A") (A')
                 (A') (A")
       Virtual   (A') (A') (A') (A") (A') (A') (A") (A') (A') (A")
                 (A') (A') (A') (A') (A") (A') (A') (A") (A") (A')
                 (A') (A") (A') (A') (A') (A") (A') (A') (A') (A")
                 (A') (A") (A') (A') (A") (A') (A") (A') (A') (A")
                 (A') (A") (A') (A') (A") (A') (A') (A') (A") (A")
                 (A') (A') (A') (A") (A") (A') (A') (A") (A') (A")
                 (A') (A") (A') (A') (A') (A') (A") (A") (A') (A')
                 (A") (A') (A') (A") (A') (A') (A') (A") (A') (A')
                 (A") (A") (A') (A') (A') (A") (A') (A") (A') (A')
                 (A") (A') (A") (A') (A") (A') (A") (A') (A') (A")
                 (A") (A') (A') (A") (A') (A') (A") (A') (A") (A')
                 (A") (A') (A') (A') (A") (A') (A") (A') (A') (A')
                 (A') (A") (A") (A') (A") (A') (A') (A') (A') (A")
                 (A') (A') (A') (A') (A") (A') (A") (A') (A") (A')
                 (A") (A') (A") (A') (A') (A') (A')
 The electronic state is 1-A'.
 Alpha  occ. eigenvalues -- -104.73292-104.54575 -20.46440 -10.45242 -10.27010
 Alpha  occ. eigenvalues --   -7.91959  -7.91695  -7.91685  -7.73624  -7.73612
 Alpha  occ. eigenvalues --   -7.73612  -1.22868  -0.89658  -0.78095  -0.53857
 Alpha  occ. eigenvalues --   -0.44339  -0.43478  -0.30929  -0.28227  -0.20015
 Alpha  occ. eigenvalues --   -0.19194  -0.19190
 Alpha virt. eigenvalues --    0.15929   0.18321   0.22593   0.23117   0.25783
 Alpha virt. eigenvalues --    0.27246   0.27588   0.28764   0.30878   0.32457
 Alpha virt. eigenvalues --    0.33235   0.34867   0.38503   0.44690   0.45321
 Alpha virt. eigenvalues --    0.49925   0.51765   0.53990   0.55891   0.56063
 Alpha virt. eigenvalues --    0.57653   0.59140   0.59879   0.64553   0.66114
 Alpha virt. eigenvalues --    0.68149   0.68568   0.74547   0.77521   0.77826
 Alpha virt. eigenvalues --    0.83491   0.87947   0.88332   0.90382   0.90593
 Alpha virt. eigenvalues --    0.91367   0.95926   0.98627   1.05030   1.05992
 Alpha virt. eigenvalues --    1.06044   1.08289   1.09188   1.09847   1.12257
 Alpha virt. eigenvalues --    1.12839   1.16001   1.18772   1.18990   1.20706
 Alpha virt. eigenvalues --    1.20900   1.22385   1.27998   1.30934   1.31326
 Alpha virt. eigenvalues --    1.35431   1.39005   1.42246   1.43129   1.43464
 Alpha virt. eigenvalues --    1.46115   1.47956   1.53748   1.57595   1.63207
 Alpha virt. eigenvalues --    1.65550   1.66524   1.69633   1.69926   1.77102
 Alpha virt. eigenvalues --    1.77812   1.82691   1.84767   1.88154   1.94601
 Alpha virt. eigenvalues --    1.98214   2.26853   2.38169   2.47830   2.50751
 Alpha virt. eigenvalues --    2.52525   2.57708   2.58426   2.61025   2.65614
 Alpha virt. eigenvalues --    2.67702   2.69935   2.71643   2.72158   2.75907
 Alpha virt. eigenvalues --    2.76323   2.78937   2.79812   2.81311   2.91152
 Alpha virt. eigenvalues --    2.91650   2.92966   2.96732   3.02715   3.07913
 Alpha virt. eigenvalues --    3.12055   3.12304   3.19222   3.21453   3.22127
 Alpha virt. eigenvalues --    3.27392   3.29449   3.31431   3.33319   3.33333
 Alpha virt. eigenvalues --    3.39864   3.39896   3.40294   3.48906   3.49112
 Alpha virt. eigenvalues --    3.54437   3.55062   3.56531   3.64806   3.93291
 Alpha virt. eigenvalues --    4.22559   4.30674   4.43650   4.53673   4.58247
 Alpha virt. eigenvalues --    4.78091   4.98681   5.09187   5.32968   5.37317
 Alpha virt. eigenvalues --    5.65501   6.28804   6.51802   6.66486   6.84413
 Alpha virt. eigenvalues --    6.90054   6.91395   6.98782   7.26647   7.32052
 Alpha virt. eigenvalues --    7.34085   7.44268   7.54449   7.73575   7.80811
 Alpha virt. eigenvalues --    8.34417  14.48610
          Condensed to atoms (all electrons):
               1          2          3          4
     1  O    8.622082  -0.116966  -0.075166   0.053839
     2  Cl  -0.116966  17.066484   0.006780  -0.002732
     3  Cl  -0.075166   0.006780  17.868134   0.070151
     4  H    0.053839  -0.002732   0.070151   0.571488
 Mulliken charges:
               1
     1  O   -0.483789
     2  Cl   0.046434
     3  Cl  -0.869899
     4  H    0.307254
 Sum of Mulliken charges =  -1.00000
 Mulliken charges with hydrogens summed into heavy atoms:
               1
     1  O   -0.176535
     2  Cl   0.046434
     3  Cl  -0.869899
 Electronic spatial extent (au):  <R**2>=            612.9575
 Charge=             -1.0000 electrons
 Dipole moment (field-independent basis, Debye):
    X=             -5.6939    Y=             -2.1313    Z=             -0.0000  Tot=              6.0797
 Quadrupole moment (field-independent basis, Debye-Ang):
   XX=            -56.6924   YY=            -37.6198   ZZ=            -36.7723
   XY=             -3.5339   XZ=             -0.0000   YZ=             -0.0000
 Traceless Quadrupole moment (field-independent basis, Debye-Ang):
   XX=            -12.9976   YY=              6.0751   ZZ=              6.9225
   XY=             -3.5339   XZ=             -0.0000   YZ=             -0.0000
 Octapole moment (field-independent basis, Debye-Ang**2):
  XXX=            -49.1161  YYY=             -7.0782  ZZZ=             -0.0000  XYY=             -9.5839
  XXY=            -11.1353  XXZ=             -0.0000  XZZ=             -6.4161  YZZ=             -1.1002
  YYZ=             -0.0000  XYZ=             -0.0000
 Hexadecapole moment (field-independent basis, Debye-Ang**3):
 XXXX=           -773.0207 YYYY=           -150.1881 ZZZZ=            -50.1134 XXXY=           -113.6632
 XXXZ=             -0.0000 YYYX=            -90.9651 YYYZ=             -0.0000 ZZZX=             -0.0000
 ZZZY=             -0.0000 XXYY=           -145.8035 XXZZ=           -126.9104 YYZZ=            -35.6924
 XXYZ=             -0.0000 YYXZ=             -0.0000 ZZXY=            -32.9923
 N-N= 1.181313416417D+02 E-N=-2.613851881001D+03  KE= 9.949771911898D+02
 Symmetry A'   KE= 8.989642459964D+02
 Symmetry A"   KE= 9.601294519335D+01
 1\1\GINC-N2207\POpt\RMP2-FC\Aug-CC-pVTZ\Cl2H1O1(1-)\CGAVINH\13-Sep-202
 1\1\\# opt=(z-matrix,tight) mp2/aug-cc-pvtz density=current\\title\\-1
 ,1\O\X,1,10.\Cl,1,r2,2,90.\Cl,1,r3,2,90.,3,a2,0\H,1,r1,2,OOP,3,a1,0\\r
 1=1.018433\r2=1.68499987\r3=3.07067241\a1=103.50790746\a2=106.18683755
 \OOP=90.\\Version=ES64L-G16RevB.01\State=1-A'\HF=-994.5252584\MP2=-995
 .1908126\RMSD=4.892e-09\RMSF=3.102e-03\Dipole=-2.2401614,-0.8385127,0.
 \Quadrupole=-9.6633793,4.5166508,5.1467285,-2.6273704,0.,0.\PG=CS [SG(
 Cl2H1O1)]\\@


 EVERYTHING'S GOT A MORAL, IF ONLY YOU CAN FIND IT.

                                    -- LEWIS CARROL, ALICE IN WONDERLAND
 Job cpu time:       0 days  0 hours 21 minutes 15.7 seconds.
 Elapsed time:       0 days  0 hours  0 minutes 50.8 seconds.
 File lengths (MBytes):  RWF=     19 Int=      0 D2E=      0 Chk=     48 Scr=      1
 Normal termination of Gaussian 16 at Mon Sep 13 16:42:17 2021.
