title                                                                   
SP        RMP2-FC                                                     Aug-CC-pVTZ         
Number of atoms                            I                4
Info1-9                                    I   N=           9
          43          13           0           0           0         110
           1           2           1
Full Title                                 C   N=           1
title       
Route                                      C   N=           4
#p SP NoSymm mp2/aug-cc-pvtz density=current    
Charge                                     I               -1
Multiplicity                               I                1
Number of electrons                        I               44
Number of alpha electrons                  I               22
Number of beta electrons                   I               22
Number of basis functions                  I              169
Number of independent functions            I              169
Number of point charges in /Mol/           I                0
Number of translation vectors              I                0
Atomic numbers                             I   N=           4
           8          17          17           1
Nuclear charges                            R   N=           4
  8.00000000E+00  1.70000000E+01  1.70000000E+01  1.00000000E+00
Current cartesian coordinates              R   N=          12
  0.00000000E+00  0.00000000E+00  0.00000000E+00  5.48904212E+00  0.00000000E+00
  0.00000000E+00 -7.43959929E-01  3.09168378E+00  0.00000000E+00  9.19822112E-01
  0.00000000E+00  1.59317862E+00
Number of symbols in /Mol/                 I                0
Force Field                                I                0
Atom Types                                 C   N=           4
                                                
Int Atom Types                             I   N=           4
           0           0           0           0
MM charges                                 R   N=           4
  0.00000000E+00  0.00000000E+00  0.00000000E+00  0.00000000E+00
Integer atomic weights                     I   N=           4
          16          35          35           1
Real atomic weights                        R   N=           4
  1.59949146E+01  3.49688527E+01  3.49688527E+01  1.00782504E+00
Atom fragment info                         I   N=           4
           0           0           0           0
Atom residue num                           I   N=           4
           0           0           0           0
Nuclear spins                              I   N=           4
           0           3           3           1
Nuclear ZEff                               R   N=           4
 -5.60000000E+00 -1.42400000E+01 -1.42400000E+01 -1.00000000E+00
Nuclear ZNuc                               R   N=           4
  8.00000000E+00  1.70000000E+01  1.70000000E+01  1.00000000E+00
Nuclear QMom                               R   N=           4
  0.00000000E+00 -8.16500000E+00 -8.16500000E+00  0.00000000E+00
Nuclear GFac                               R   N=           4
  0.00000000E+00  8.21874000E-01  8.21874000E-01  2.79284600E+00
MicOpt                                     I   N=           4
          -1          -1          -1          -1
Number of residues                         I                0
Number of secondary structures             I                0
Number of contracted shells                I               55
Number of primitive shells                 I              140
Pure/Cartesian d shells                    I                0
Pure/Cartesian f shells                    I                0
Highest angular momentum                   I                3
Largest degree of contraction              I               11
Shell types                                I   N=          55
           0           0           0           0           0           1
           1           1           1          -2          -2          -2
          -3          -3           0           0           0           0
           0           0           1           1           1           1
           1          -2          -2          -2          -3          -3
           0           0           0           0           0           0
           1           1           1           1           1          -2
          -2          -2          -3          -3           0           0
           0           0           1           1           1          -2
          -2
Number of primitives per shell             I   N=          55
           7           6           1           1           1           3
           1           1           1           1           1           1
           1           1          11           9           8           1
           1           1           6           6           1           1
           1           1           1           1           1           1
          11           9           8           1           1           1
           6           6           1           1           1           1
           1           1           1           1           3           1
           1           1           1           1           1           1
           1
Shell to atom map                          I   N=          55
           1           1           1           1           1           1
           1           1           1           1           1           1
           1           1           2           2           2           2
           2           2           2           2           2           2
           2           2           2           2           2           2
           3           3           3           3           3           3
           3           3           3           3           3           3
           3           3           3           3           4           4
           4           4           4           4           4           4
           4
Primitive exponents                        R   N=         140
  1.53300000E+04  2.29900000E+03  5.22400000E+02  1.47300000E+02  4.75500000E+01
  1.67600000E+01  6.20700000E+00  5.22400000E+02  1.47300000E+02  4.75500000E+01
  1.67600000E+01  6.20700000E+00  6.88200000E-01  1.75200000E+00  2.38400000E-01
  7.37600000E-02  3.44600000E+01  7.74900000E+00  2.28000000E+00  7.15600000E-01
  2.14000000E-01  5.97400000E-02  2.31400000E+00  6.45000000E-01  2.14000000E-01
  1.42800000E+00  5.00000000E-01  4.56100000E+05  6.83300000E+04  1.55500000E+04
  4.40500000E+03  1.43900000E+03  5.20400000E+02  2.03100000E+02  8.39600000E+01
  3.62000000E+01  1.58300000E+01  6.33400000E+00  4.40500000E+03  1.43900000E+03
  5.20400000E+02  2.03100000E+02  8.39600000E+01  3.62000000E+01  1.58300000E+01
  6.33400000E+00  2.69400000E+00  1.43900000E+03  2.03100000E+02  8.39600000E+01
  3.62000000E+01  1.58300000E+01  6.33400000E+00  2.69400000E+00  4.31300000E-01
  9.76800000E-01  1.62500000E-01  5.91000000E-02  6.63300000E+02  1.56800000E+02
  4.99800000E+01  1.84200000E+01  7.24000000E+00  2.92200000E+00  1.56800000E+02
  4.99800000E+01  1.84200000E+01  7.24000000E+00  2.92200000E+00  3.81800000E-01
  1.02200000E+00  1.30100000E-01  4.19000000E-02  1.04600000E+00  3.44000000E-01
  1.35000000E-01  7.06000000E-01  3.12000000E-01  4.56100000E+05  6.83300000E+04
  1.55500000E+04  4.40500000E+03  1.43900000E+03  5.20400000E+02  2.03100000E+02
  8.39600000E+01  3.62000000E+01  1.58300000E+01  6.33400000E+00  4.40500000E+03
  1.43900000E+03  5.20400000E+02  2.03100000E+02  8.39600000E+01  3.62000000E+01
  1.58300000E+01  6.33400000E+00  2.69400000E+00  1.43900000E+03  2.03100000E+02
  8.39600000E+01  3.62000000E+01  1.58300000E+01  6.33400000E+00  2.69400000E+00
  4.31300000E-01  9.76800000E-01  1.62500000E-01  5.91000000E-02  6.63300000E+02
  1.56800000E+02  4.99800000E+01  1.84200000E+01  7.24000000E+00  2.92200000E+00
  1.56800000E+02  4.99800000E+01  1.84200000E+01  7.24000000E+00  2.92200000E+00
  3.81800000E-01  1.02200000E+00  1.30100000E-01  4.19000000E-02  1.04600000E+00
  3.44000000E-01  1.35000000E-01  7.06000000E-01  3.12000000E-01  3.38700000E+01
  5.09500000E+00  1.15900000E+00  3.25800000E-01  1.02700000E-01  2.52600000E-02
  1.40700000E+00  3.88000000E-01  1.02000000E-01  1.05700000E+00  2.47000000E-01
Contraction coefficients                   R   N=         140
  5.19808943E-04  4.02025621E-03  2.07128267E-02  8.10105536E-02  2.35962985E-01
  4.42653446E-01  3.57064423E-01 -4.42115008E-05 -1.22591041E-03 -1.05517725E-02
 -6.74452633E-02 -1.71198607E-01  1.07329856E+00  1.00000000E+00  1.00000000E+00
  1.00000000E+00  4.11634896E-02  2.57762836E-01  8.02419274E-01  1.00000000E+00
  1.00000000E+00  1.00000000E+00  1.00000000E+00  1.00000000E+00  1.00000000E+00
  1.00000000E+00  1.00000000E+00  4.93229477E-05  3.83207967E-04  2.00947816E-03
  8.38950124E-03  2.94843950E-02  8.78759948E-02  2.11589759E-01  3.65611554E-01
  3.41246350E-01  1.02162570E-01  2.14249949E-03 -2.21747925E-06 -1.71189708E-04
 -1.27922846E-03 -9.32956265E-03 -3.98910062E-02 -1.05536085E-01  9.36202446E-03
  5.10511140E-01  5.73150737E-01  4.03949245E-06  2.12481765E-04  8.59484452E-04
  4.63248159E-03  4.47343490E-04 -7.38438245E-02 -3.62271994E-01  1.16620337E+00
  1.00000000E+00  1.00000000E+00  1.00000000E+00  2.47206402E-03  1.97550234E-02
  9.09917355E-02  2.63187834E-01  4.49078073E-01  3.60183072E-01  3.03427809E-05
 -1.22475826E-03 -6.01429772E-03 -2.76401323E-02  4.35105612E-04  1.00307272E+00
  1.00000000E+00  1.00000000E+00  1.00000000E+00  1.00000000E+00  1.00000000E+00
  1.00000000E+00  1.00000000E+00  1.00000000E+00  4.93229477E-05  3.83207967E-04
  2.00947816E-03  8.38950124E-03  2.94843950E-02  8.78759948E-02  2.11589759E-01
  3.65611554E-01  3.41246350E-01  1.02162570E-01  2.14249949E-03 -2.21747925E-06
 -1.71189708E-04 -1.27922846E-03 -9.32956265E-03 -3.98910062E-02 -1.05536085E-01
  9.36202446E-03  5.10511140E-01  5.73150737E-01  4.03949245E-06  2.12481765E-04
  8.59484452E-04  4.63248159E-03  4.47343490E-04 -7.38438245E-02 -3.62271994E-01
  1.16620337E+00  1.00000000E+00  1.00000000E+00  1.00000000E+00  2.47206402E-03
  1.97550234E-02  9.09917355E-02  2.63187834E-01  4.49078073E-01  3.60183072E-01
  3.03427809E-05 -1.22475826E-03 -6.01429772E-03 -2.76401323E-02  4.35105612E-04
  1.00307272E+00  1.00000000E+00  1.00000000E+00  1.00000000E+00  1.00000000E+00
  1.00000000E+00  1.00000000E+00  1.00000000E+00  1.00000000E+00  2.54948632E-02
  1.90362766E-01  8.52162022E-01  1.00000000E+00  1.00000000E+00  1.00000000E+00
  1.00000000E+00  1.00000000E+00  1.00000000E+00  1.00000000E+00  1.00000000E+00
Coordinates of each shell                  R   N=         165
  0.00000000E+00  0.00000000E+00  0.00000000E+00  0.00000000E+00  0.00000000E+00
  0.00000000E+00  0.00000000E+00  0.00000000E+00  0.00000000E+00  0.00000000E+00
  0.00000000E+00  0.00000000E+00  0.00000000E+00  0.00000000E+00  0.00000000E+00
  0.00000000E+00  0.00000000E+00  0.00000000E+00  0.00000000E+00  0.00000000E+00
  0.00000000E+00  0.00000000E+00  0.00000000E+00  0.00000000E+00  0.00000000E+00
  0.00000000E+00  0.00000000E+00  0.00000000E+00  0.00000000E+00  0.00000000E+00
  0.00000000E+00  0.00000000E+00  0.00000000E+00  0.00000000E+00  0.00000000E+00
  0.00000000E+00  0.00000000E+00  0.00000000E+00  0.00000000E+00  0.00000000E+00
  0.00000000E+00  0.00000000E+00  5.48904212E+00  0.00000000E+00  0.00000000E+00
  5.48904212E+00  0.00000000E+00  0.00000000E+00  5.48904212E+00  0.00000000E+00
  0.00000000E+00  5.48904212E+00  0.00000000E+00  0.00000000E+00  5.48904212E+00
  0.00000000E+00  0.00000000E+00  5.48904212E+00  0.00000000E+00  0.00000000E+00
  5.48904212E+00  0.00000000E+00  0.00000000E+00  5.48904212E+00  0.00000000E+00
  0.00000000E+00  5.48904212E+00  0.00000000E+00  0.00000000E+00  5.48904212E+00
  0.00000000E+00  0.00000000E+00  5.48904212E+00  0.00000000E+00  0.00000000E+00
  5.48904212E+00  0.00000000E+00  0.00000000E+00  5.48904212E+00  0.00000000E+00
  0.00000000E+00  5.48904212E+00  0.00000000E+00  0.00000000E+00  5.48904212E+00
  0.00000000E+00  0.00000000E+00  5.48904212E+00  0.00000000E+00  0.00000000E+00
 -7.43959929E-01  3.09168378E+00  0.00000000E+00 -7.43959929E-01  3.09168378E+00
  0.00000000E+00 -7.43959929E-01  3.09168378E+00  0.00000000E+00 -7.43959929E-01
  3.09168378E+00  0.00000000E+00 -7.43959929E-01  3.09168378E+00  0.00000000E+00
 -7.43959929E-01  3.09168378E+00  0.00000000E+00 -7.43959929E-01  3.09168378E+00
  0.00000000E+00 -7.43959929E-01  3.09168378E+00  0.00000000E+00 -7.43959929E-01
  3.09168378E+00  0.00000000E+00 -7.43959929E-01  3.09168378E+00  0.00000000E+00
 -7.43959929E-01  3.09168378E+00  0.00000000E+00 -7.43959929E-01  3.09168378E+00
  0.00000000E+00 -7.43959929E-01  3.09168378E+00  0.00000000E+00 -7.43959929E-01
  3.09168378E+00  0.00000000E+00 -7.43959929E-01  3.09168378E+00  0.00000000E+00
 -7.43959929E-01  3.09168378E+00  0.00000000E+00  9.19822112E-01  0.00000000E+00
  1.59317862E+00  9.19822112E-01  0.00000000E+00  1.59317862E+00  9.19822112E-01
  0.00000000E+00  1.59317862E+00  9.19822112E-01  0.00000000E+00  1.59317862E+00
  9.19822112E-01  0.00000000E+00  1.59317862E+00  9.19822112E-01  0.00000000E+00
  1.59317862E+00  9.19822112E-01  0.00000000E+00  1.59317862E+00  9.19822112E-01
  0.00000000E+00  1.59317862E+00  9.19822112E-01  0.00000000E+00  1.59317862E+00
Num ILSW                                   I              100
ILSW                                       I   N=         100
           0           0           0           0           2           0
           0           0           0           0           0          -1
           5           0           0           0           0           0
           0           0           0           0           0           0
           1           1           0           0           0           0
           0           0      100000           0          -1           0
           0           0           0           0           0           0
           0           0           0           1           0           0
           0 -2000000000           1           0           0           0
           0           0           4          52           0           0
           0           0           0           0           0           0
           0           0           0           4           0           1
           0           0           0           0           0           0
           0           0           0           0           0           0
           0           0           0           0           0           0
           0           0           0           0           0           0
           0           0           0           0
Num RLSW                                   I               52
RLSW                                       R   N=          52
  1.00000000E+00  1.00000000E+00  1.00000000E+00  1.00000000E+00  1.00000000E+00
  0.00000000E+00  0.00000000E+00  1.00000000E+00  0.00000000E+00  0.00000000E+00
  0.00000000E+00  0.00000000E+00  1.00000000E+00  0.00000000E+00  0.00000000E+00
  0.00000000E+00  0.00000000E+00  1.00000000E+00  0.00000000E+00  0.00000000E+00
  0.00000000E+00  0.00000000E+00  1.00000000E+00  0.00000000E+00  0.00000000E+00
  0.00000000E+00  0.00000000E+00  1.00000000E+00  0.00000000E+00  0.00000000E+00
  0.00000000E+00  0.00000000E+00  1.00000000E+00  0.00000000E+00  0.00000000E+00
  0.00000000E+00  0.00000000E+00  0.00000000E+00  1.00000000E+00  1.00000000E+00
  0.00000000E+00  1.00000000E+00  0.00000000E+00  0.00000000E+00  0.00000000E+00
  0.00000000E+00  0.00000000E+00  0.00000000E+00  0.00000000E+00  0.00000000E+00
  0.00000000E+00  0.00000000E+00
MxBond                                     I                2
NBond                                      I   N=           4
           2           0           1           1
IBond                                      I   N=           8
           3           4           0           0           1           0
           1           0
RBond                                      R   N=           8
  1.00000000E+00  1.00000000E+00  0.00000000E+00  0.00000000E+00  1.00000000E+00
  0.00000000E+00  1.00000000E+00  0.00000000E+00
Virial Ratio                               R      2.000101031728441E+00
SCF Energy                                 R     -9.944975002966584E+02
MP2 Energy                                 R     -9.951609819693284E+02
Total Energy                               R     -9.951609819693284E+02
Post-SCF wavefunction norm                 R      1.103387235747174E+00
RMS Density                                R      5.814577082396381E-09
Job Status                                 I                1
Nuclear derivative order                   I                0
External E-field                           R   N=          35
  0.00000000E+00  0.00000000E+00  0.00000000E+00  0.00000000E+00  0.00000000E+00
  0.00000000E+00  0.00000000E+00  0.00000000E+00  0.00000000E+00  0.00000000E+00
  0.00000000E+00  0.00000000E+00  0.00000000E+00  0.00000000E+00  0.00000000E+00
  0.00000000E+00  0.00000000E+00  0.00000000E+00  0.00000000E+00  0.00000000E+00
  0.00000000E+00  0.00000000E+00  0.00000000E+00  0.00000000E+00  0.00000000E+00
  0.00000000E+00  0.00000000E+00  0.00000000E+00  0.00000000E+00  0.00000000E+00
  0.00000000E+00  0.00000000E+00  0.00000000E+00  0.00000000E+00  0.00000000E+00
IOpCl                                      I                0
IROHF                                      I                0
Alpha Orbital Energies                     R   N=         169
 -1.04740074E+02 -1.04516878E+02 -2.04829542E+01 -1.04598940E+01 -1.02412770E+01
 -7.92709457E+00 -7.92435102E+00 -7.92415830E+00 -7.70735629E+00 -7.70729246E+00
 -7.70726603E+00 -1.25671160E+00 -9.06317750E-01 -7.49553149E-01 -5.61482013E-01
 -4.58491676E-01 -4.49138920E-01 -3.19016085E-01 -2.91762049E-01 -1.66611612E-01
 -1.64455903E-01 -1.62117508E-01  1.48855311E-01  1.77716921E-01  2.20795969E-01
  2.32182300E-01  2.65298712E-01  2.74523610E-01  2.78790330E-01  2.90495799E-01
  2.97867313E-01  3.14036735E-01  3.20930158E-01  3.53589477E-01  3.97531517E-01
  4.17522923E-01  4.51832839E-01  4.70340544E-01  5.28837803E-01  5.36322464E-01
  5.56709590E-01  5.60223397E-01  5.77885545E-01  5.87438628E-01  6.08579837E-01
  6.17327086E-01  6.45800028E-01  6.61569489E-01  6.68117250E-01  6.81482000E-01
  7.57292193E-01  8.01861339E-01  8.46986637E-01  8.66697787E-01  8.72027509E-01
  8.98859560E-01  9.05274565E-01  9.19198246E-01  9.46055965E-01  9.68800785E-01
  1.03175861E+00  1.05511535E+00  1.07606928E+00  1.08780924E+00  1.11216906E+00
  1.11341112E+00  1.13890765E+00  1.16927664E+00  1.18542103E+00  1.19156458E+00
  1.20075385E+00  1.21914441E+00  1.22777845E+00  1.23057401E+00  1.24904007E+00
  1.26411075E+00  1.26760278E+00  1.30990214E+00  1.32450185E+00  1.38950408E+00
  1.39347734E+00  1.44051106E+00  1.44743818E+00  1.47410657E+00  1.50349311E+00
  1.51994801E+00  1.52924493E+00  1.54176595E+00  1.61964136E+00  1.65832365E+00
  1.68297649E+00  1.69353433E+00  1.73104044E+00  1.76348509E+00  1.80343140E+00
  1.86361833E+00  1.94016518E+00  1.99153537E+00  2.11350416E+00  2.33368193E+00
  2.42848704E+00  2.46284975E+00  2.48276897E+00  2.52611638E+00  2.58016553E+00
  2.60671956E+00  2.63614536E+00  2.67225347E+00  2.69073874E+00  2.69781800E+00
  2.71440984E+00  2.74308263E+00  2.77607091E+00  2.80804555E+00  2.82703460E+00
  2.82865387E+00  2.88069108E+00  2.89083838E+00  2.90765219E+00  2.96021151E+00
  2.98839333E+00  2.99964522E+00  3.01554625E+00  3.09161960E+00  3.15554156E+00
  3.18731124E+00  3.21020572E+00  3.22865861E+00  3.24116929E+00  3.29257429E+00
  3.30684733E+00  3.36322541E+00  3.36397996E+00  3.40485356E+00  3.42079708E+00
  3.44804060E+00  3.49475270E+00  3.52285656E+00  3.56626403E+00  3.57420272E+00
  3.64142909E+00  3.92617102E+00  3.97755926E+00  4.36338733E+00  4.46860970E+00
  4.52967100E+00  4.60183991E+00  4.74944851E+00  4.91035056E+00  5.02532933E+00
  5.38611096E+00  5.47160404E+00  5.68628308E+00  5.91815777E+00  6.38277106E+00
  6.63797912E+00  6.83322920E+00  6.90687195E+00  6.92381277E+00  6.98663938E+00
  7.34433354E+00  7.37610288E+00  7.39145215E+00  7.43482764E+00  7.47926244E+00
  7.67596413E+00  7.69885745E+00  8.41662608E+00  1.47733015E+01
Alpha MO coefficients                      R   N=       28561
  6.95710587E-06  3.77829687E-05  5.73747881E-07 -1.25582931E-04 -6.30727067E-05
 -1.66992383E-07  3.20554947E-06  2.58665274E-07  1.25775446E-06 -9.60188313E-06
  6.84148396E-07  5.06418189E-05 -1.43271603E-04  8.84332404E-06  1.61919032E-05
 -2.66548730E-05  6.26335720E-06 -1.76653027E-06  1.29251006E-07  1.89496284E-07
 -2.73081191E-06 -1.61351387E-06  1.40717630E-05  1.61870697E-06 -8.83140901E-07
  2.03405457E-05  1.08083755E-05  2.81840341E-05  1.03973768E-05 -1.09468084E-05
  5.39148864E-05  1.83084287E-05  1.15420361E-07 -5.74820273E-08  1.29276709E-06
 -7.17173351E-07  5.68444114E-07 -9.69558932E-07  2.58128310E-07 -1.99983882E-07
 -1.15422121E-06  8.25039155E-06  4.13847413E-06 -2.04687008E-06 -7.72194776E-06
  1.21453036E-05  1.51423437E-07  2.28930764E-06  5.93070848E-06 -1.49495942E-06
 -6.33629583E-06 -1.23088924E-05  5.15262936E-08 -9.35034870E-08  3.79028518E-08
 -1.74006587E-06 -9.85609406E-07  5.29297596E-07 -4.07295626E-07  3.51285354E-07
 -1.29392902E-07  1.30694223E-05  1.66132238E-06 -2.15099075E-06  3.61000653E-06
  1.47688658E-07 -8.27556734E-08 -4.44980180E-07 -4.24988064E-08 -7.82825948E-08
  9.35120466E-07  6.42863218E-08  1.17509688E-06  1.20903900E-07  2.60403523E-07
 -2.31617207E-06  3.46384102E-07  2.84289038E-06  1.51098988E-06 -5.00571995E-07
 -5.37895671E-06 -1.76290936E-06  2.41943456E-08  1.90519806E-07  3.95266184E-07
  2.04750831E-08 -1.18244552E-07 -1.10876359E-06 -1.18878213E-06  1.73085578E-07
 -1.53912942E-06 -7.24712288E-07 -3.47966427E-07  1.85450827E-07  3.71763209E-06
  2.24561857E-06  9.99534827E-01  1.95482685E-03  1.86087298E-04 -4.18393474E-04
  6.76617385E-05  6.09320740E-05  1.48201557E-05 -7.67588220E-05  2.71681758E-06
  3.39773329E-05 -1.36132443E-04  5.20391246E-06 -1.59104118E-05  7.27506271E-05
 -2.78279697E-06  8.42418808E-06 -4.73733484E-05 -2.28541053E-06  1.98997947E-07
 -1.02360186E-05 -1.38186729E-06 -3.69595019E-06  6.94364322E-08  5.95155320E-09
 -5.79494886E-06 -3.28098845E-06 -2.76507926E-05  9.13787008E-07 -2.35578376E-06
 -4.27001086E-05 -2.33708555E-05 -2.85794533E-06 -2.81559075E-06  9.08723297E-07
 -4.55091335E-06  8.46329269E-07 -5.21646239E-07 -1.17252183E-06  5.34406471E-06
 -2.70878527E-07 -1.28290024E-06 -5.57542749E-06  5.10375655E-06  2.10032158E-07
 -1.47067272E-06  4.15364360E-06 -3.83958918E-07  2.14066988E-06 -2.31719094E-06
  4.83414444E-06 -1.28874052E-07 -2.39242806E-05 -2.80441970E-06 -4.20358268E-06
  1.17708455E-06 -1.27787249E-06  1.28535790E-06 -8.41310431E-06  1.43506435E-05
  4.35585885E-06  5.28131429E-06  8.60186644E-06 -7.83743182E-07 -1.95062650E-06
 -3.60930659E-07  5.30440335E-08 -1.99093046E-06 -5.52093442E-07 -1.76365149E-06
  9.13599144E-07  4.94039390E-07  3.06292276E-06 -1.77877208E-06  4.74449429E-07
  2.61233753E-06 -4.13992287E-07 -1.92919286E-06  1.02587570E-05  6.39297590E-07
  1.94021114E-07 -3.06583908E-07 -1.52140722E-06 -8.12081081E-07  2.10482557E-06
  1.48432920E-05  6.36565911E-06 -1.81382835E-06 -4.26022447E-06  6.47454811E-06
  3.51887307E-06  1.70820828E-07 -3.02906290E-07  2.95724237E-08  3.55643549E-07
  9.22384417E-08 -4.17374202E-08  2.00437097E-06  2.07579588E-09 -1.48807560E-06
 -3.00421562E-07 -7.33895076E-06  6.24297316E-06  5.30287659E-07  6.03617357E-06
 -5.70474151E-07  4.47449018E-07  5.39262019E-08  9.09818943E-08  2.10650884E-07
 -3.27771216E-08 -6.95099871E-07 -2.77918857E-08 -2.09633124E-06  6.87641116E-07
 -2.83669336E-07  1.87690110E-07  3.19534892E-07  2.07419308E-06 -5.86979641E-09
  9.99531518E-01  1.97423198E-03  1.93799851E-04 -4.16915639E-04 -1.26735803E-04
  2.08588155E-05 -2.49309963E-07 -3.07905999E-07  4.02805693E-06 -1.05737192E-05
  1.73708462E-07  4.51075040E-06  2.72522808E-06  1.12023497E-07 -3.13563268E-06
  3.32135904E-05 -1.07759918E-06 -9.36360250E-06 -6.11836450E-06  9.18102338E-07
 -1.33683268E-08 -2.82123866E-07 -5.51953217E-07 -4.68351637E-08  7.28680476E-07
 -1.35378481E-07  8.52351990E-07 -7.68070676E-08  1.30903087E-07 -1.26997364E-06
  4.47610962E-07  5.34380401E-06  7.15782689E-06 -3.99530445E-07 -1.18628353E-05
  4.25492267E-08 -8.88452685E-07  1.26862663E-06  5.95684019E-08  1.25898315E-06
 -9.93797501E-08 -2.35866949E-06  1.58330920E-07  2.41686202E-06 -3.06198117E-06
 -8.69849613E-08 -3.42425996E-06  2.16663015E-07  5.90254031E-06 -3.91872479E-07
  1.12857985E-07  1.62232879E-06  4.18836057E-06 -7.36052722E-07 -1.46318135E-05
 -1.83900915E-05 -2.14055811E-07 -2.71503734E-08  1.27032323E-07 -1.61358726E-06
  4.84609180E-07  1.20084726E-06  8.45932829E-07  1.39520756E-08 -5.00409610E-07
 -3.97952084E-06  1.16054342E-05 -3.53839887E-06 -3.51393197E-06  2.42739717E-06
 -2.48442510E-07 -1.55557685E-07 -1.59198583E-07  1.56541194E-07  2.91121129E-07
 -3.39627416E-07  1.33206278E-06  4.76679979E-07 -3.46210377E-07  3.58538559E-07
  1.20565118E-06  1.70370292E-06 -1.71705005E-06  1.10715822E-06  6.57376218E-07
 -2.36274027E-08 -3.49054214E-08  3.28911252E-07 -1.84138630E-07  1.39987239E-07
  1.10430893E-09  2.21412336E-07 -2.15483880E-07  1.54323040E-07 -1.65799227E-07
 -5.77814615E-07 -1.40472083E-07  7.62791529E-08 -8.25679453E-07 -8.09951339E-08
  6.50462247E-07 -1.95778328E-05  4.94000396E-05 -3.12073248E-06 -2.86344270E-07
  1.15510923E-07  5.09200152E-07 -4.51233471E-06 -9.56072639E-07  6.23501763E-06
  1.10191556E-05  6.03260934E-06 -1.71533281E-05 -4.57934196E-07 -1.14263125E-08
  3.68097854E-07 -5.82330642E-07 -9.77452804E-08 -6.19899915E-06 -2.32945236E-06
 -1.39544198E-06  1.04195346E-05 -4.62719826E-08  9.76844559E-01 -9.06096208E-03
  4.33711084E-02  2.20326691E-03 -3.13895289E-06  1.63634556E-04  1.49268689E-03
  1.32564071E-03 -2.78133967E-04 -1.17374221E-03 -1.22078050E-03 -3.40932585E-04
  8.40629779E-04 -2.23777134E-04 -1.45161021E-04  1.01164156E-04 -1.17075906E-04
  7.84972177E-05  2.79002168E-05  9.47857861E-06  9.03060913E-05  4.80309179E-05
 -1.48233132E-04 -4.12047624E-04 -1.33960533E-05  2.78746501E-04  1.96400301E-04
 -1.56323701E-04 -4.41682059E-05  7.49874984E-05 -2.62010498E-04 -1.92571685E-04
 -1.03226454E-05 -1.32671869E-05 -3.17666186E-06  9.82622529E-06 -1.11605815E-05
 -1.24245635E-05  1.68045614E-05 -6.44186473E-05 -1.25482143E-04 -1.51821096E-05
 -7.54817795E-05 -2.71957033E-05 -1.31458037E-06 -3.02912205E-05 -4.00482601E-06
 -5.00884651E-05 -1.42239132E-04  2.18485747E-05  2.46540136E-04  4.08029452E-04
 -2.11591902E-06  2.90831802E-07 -6.12977376E-07  2.71517131E-05  9.79770131E-07
 -1.88831749E-05  9.47841212E-06 -1.33902453E-06  2.06181142E-06 -4.03675968E-04
  2.01684771E-05  1.25053253E-04 -9.92104012E-05 -1.08227884E-05  2.02109672E-05
  3.25599763E-06  6.36475540E-06  7.60064576E-07 -6.27951389E-06  3.49895235E-06
 -1.88064500E-05 -1.73911523E-05 -2.82707133E-06  3.67259877E-05 -1.22727458E-05
 -6.72198142E-05 -8.48241730E-05  1.03270096E-05  1.25516359E-04  4.42042866E-06
  1.27524803E-05  7.63325038E-06 -4.88134599E-06 -3.33772751E-06  8.42130388E-07
 -1.46549595E-05  2.68324616E-06 -3.74747660E-05  5.31021160E-06  8.31388310E-06
  2.35440852E-05 -2.06234701E-06 -8.34720716E-07 -2.00255466E-06  3.22551739E-06
  5.28161309E-05  3.92337907E-05 -2.52566665E-04 -1.21323528E-04 -2.68198019E-04
 -4.65783938E-06 -4.67442921E-08 -6.00378014E-06  3.72343262E-05 -4.47632635E-04
 -9.67278796E-05 -3.47114723E-05  2.25432051E-04  2.74801521E-05  2.02356241E-04
  4.06794221E-04  1.88420068E-04 -6.74903302E-06  6.60290566E-05  3.53265672E-05
  1.31790984E-05  9.09863832E-08 -2.03396227E-07  1.26106039E-05  1.18331762E-05
 -2.80224520E-04 -1.51587819E-05  5.52555625E-05 -4.20708374E-04 -2.03314345E-04
  1.68385521E-04  1.03709303E-04 -9.46680033E-05  3.19082802E-04 -2.35734927E-05
  1.19470703E-05 -4.04278061E-05  1.64604947E-04  3.78851860E-06  1.44585605E-05
 -1.28576870E-04  1.82077438E-04 -4.40664697E-06 -1.18129677E-05  7.67437507E-05
  2.11781810E-05 -3.00575438E-05 -8.74132607E-05  4.67824708E-05  4.77620559E-04
  1.71995453E-03 -6.86882845E-04 -4.55118255E-05 -1.58287202E-04  6.26469795E-05
 -2.30420679E-04 -4.88313312E-04 -9.56912673E-05 -8.92843019E-04 -4.54919037E-04
 -3.15175137E-04  2.34649483E-04 -5.59127834E-05 -3.25195060E-05 -6.28786407E-05
  2.44287135E-05 -2.84918281E-05  3.19477736E-04  4.63022190E-04  5.06563725E-05
  6.19589360E-05  5.34791116E-05 -8.52486821E-05 -1.50874277E-04 -1.00776743E-04
  2.23468376E-03  1.36902345E-03 -2.05239153E-05  3.92940208E-05 -9.37947352E-06
 -1.24682411E-04  5.85988518E-04  1.94193425E-06 -6.94625859E-04  2.23847280E-03
 -5.40376229E-05 -3.65301460E-04  6.25066008E-04 -1.57981766E-04 -3.47284955E-05
 -3.03892303E-06 -9.12314089E-06 -4.92773613E-05 -2.67950074E-05 -1.48787900E-04
  1.20868375E-06  6.13749710E-05 -2.52930054E-04 -1.10113609E-04 -2.90146116E-04
 -1.39238039E-04  2.26439737E-04 -6.75899232E-04 -1.39737993E-04 -2.66571025E-08
  1.65993314E-05 -4.13419076E-05  1.14818986E-05 -9.43911727E-06  3.41928367E-05
 -2.91053418E-05  3.81967339E-05 -6.62122581E-06  9.09569451E-05 -3.79707713E-05
  8.67425949E-05 -2.37141948E-05  1.41255686E-05 -2.19087755E-06 -3.13726819E-05
 -8.33957597E-05  1.96327899E-05  3.98808988E-05  3.63400221E-04  2.52146892E-06
  2.27629985E-06 -1.29822166E-06  6.16992210E-05  1.70173273E-05 -1.68240273E-05
 -6.37491718E-06 -7.71777692E-06  4.81290071E-06 -2.76665581E-04 -2.24150524E-05
  5.63910572E-05 -1.41632191E-04  5.17670734E-05 -2.16354561E-05  2.22814993E-06
  2.18821452E-06  1.94271543E-06 -1.15889807E-05 -2.92516731E-06 -2.65239540E-07
 -5.43457868E-06 -6.87033551E-06  2.59197470E-05  1.14699896E-06 -8.98378571E-05
 -2.83163475E-05  1.41387609E-05  1.11405681E-04  4.75746794E-07  1.73315384E-06