 Entering Gaussian System, Link 0=g16
 Input=clhocl_30_sp.gjf
 Output=clhocl_30_sp.log
 Initial command:
 /sw/contrib/gaussian/g16/B01/g16/l1.exe "/scr/Gau-23866.inp" -scrdir="/scr/"
 Entering Link 1 = /sw/contrib/gaussian/g16/B01/g16/l1.exe PID=     23867.
  
 Copyright (c) 1988-2017, Gaussian, Inc.  All Rights Reserved.
  
 This is part of the Gaussian(R) 16 program.  It is based on
 the Gaussian(R) 09 system (copyright 2009, Gaussian, Inc.),
 the Gaussian(R) 03 system (copyright 2003, Gaussian, Inc.),
 the Gaussian(R) 98 system (copyright 1998, Gaussian, Inc.),
 the Gaussian(R) 94 system (copyright 1995, Gaussian, Inc.),
 the Gaussian 92(TM) system (copyright 1992, Gaussian, Inc.),
 the Gaussian 90(TM) system (copyright 1990, Gaussian, Inc.),
 the Gaussian 88(TM) system (copyright 1988, Gaussian, Inc.),
 the Gaussian 86(TM) system (copyright 1986, Carnegie Mellon
 University), and the Gaussian 82(TM) system (copyright 1983,
 Carnegie Mellon University). Gaussian is a federally registered
 trademark of Gaussian, Inc.
  
 This software contains proprietary and confidential information,
 including trade secrets, belonging to Gaussian, Inc.
  
 This software is provided under written license and may be
 used, copied, transmitted, or stored only in accord with that
 written license.
  
 The following legend is applicable only to US Government
 contracts under FAR:
  
                    RESTRICTED RIGHTS LEGEND
  
 Use, reproduction and disclosure by the US Government is
 subject to restrictions as set forth in subparagraphs (a)
 and (c) of the Commercial Computer Software - Restricted
 Rights clause in FAR 52.227-19.
  
 Gaussian, Inc.
 340 Quinnipiac St., Bldg. 40, Wallingford CT 06492
  
  
 ---------------------------------------------------------------
 Warning -- This program may not be used in any manner that
 competes with the business of Gaussian, Inc. or will provide
 assistance to any competitor of Gaussian, Inc.  The licensee
 of this program is prohibited from giving any competitor of
 Gaussian, Inc. access to this program.  By using this program,
 the user acknowledges that Gaussian, Inc. is engaged in the
 business of creating and licensing software in the field of
 computational chemistry and represents and warrants to the
 licensee that it is not a competitor of Gaussian, Inc. and that
 it will not use this program in any manner prohibited above.
 ---------------------------------------------------------------
  

 Cite this work as:
 Gaussian 16, Revision B.01,
 M. J. Frisch, G. W. Trucks, H. B. Schlegel, G. E. Scuseria, 
 M. A. Robb, J. R. Cheeseman, G. Scalmani, V. Barone, 
 G. A. Petersson, H. Nakatsuji, X. Li, M. Caricato, A. V. Marenich, 
 J. Bloino, B. G. Janesko, R. Gomperts, B. Mennucci, H. P. Hratchian, 
 J. V. Ortiz, A. F. Izmaylov, J. L. Sonnenberg, D. Williams-Young, 
 F. Ding, F. Lipparini, F. Egidi, J. Goings, B. Peng, A. Petrone, 
 T. Henderson, D. Ranasinghe, V. G. Zakrzewski, J. Gao, N. Rega, 
 G. Zheng, W. Liang, M. Hada, M. Ehara, K. Toyota, R. Fukuda, 
 J. Hasegawa, M. Ishida, T. Nakajima, Y. Honda, O. Kitao, H. Nakai, 
 T. Vreven, K. Throssell, J. A. Montgomery, Jr., J. E. Peralta, 
 F. Ogliaro, M. J. Bearpark, J. J. Heyd, E. N. Brothers, K. N. Kudin, 
 V. N. Staroverov, T. A. Keith, R. Kobayashi, J. Normand, 
 K. Raghavachari, A. P. Rendell, J. C. Burant, S. S. Iyengar, 
 J. Tomasi, M. Cossi, J. M. Millam, M. Klene, C. Adamo, R. Cammi, 
 J. W. Ochterski, R. L. Martin, K. Morokuma, O. Farkas, 
 J. B. Foresman, and D. J. Fox, Gaussian, Inc., Wallingford CT, 2016.
 
 ******************************************
 Gaussian 16:  ES64L-G16RevB.01 20-Dec-2017
                16-Sep-2021 
 ******************************************
 %nproc=28
 Will use up to   28 processors via shared memory.
 %mem=120GB
 %chk=/gscratch/ilahie/mccoygrp/coire_hocl/clhocl/clhocl_30_sp.chk
 --------------------------------------------
 #p SP NoSymm mp2/aug-cc-pvtz density=current
 --------------------------------------------
 1/30=1,38=1,172=1/1;
 2/12=2,15=1,17=6,18=5,40=1/2;
 3/5=16,6=1,7=10,11=9,25=1,30=1,71=1/1,2,3;
 4//1;
 5/5=2,38=5/2;
 8/6=4,10=1/1;
 9/15=1,16=-3/6;
 10/5=1,13=10,31=1/2;
 6/7=2,8=2,9=2,10=2,22=-1/1;
 99/5=1,9=1/99;
 Leave Link    1 at Thu Sep 16 15:38:02 2021, MaxMem= 16106127360 cpu:               3.3 elap:               0.1
 (Enter /sw/contrib/gaussian/g16/B01/g16/l101.exe)
 -----
 title
 -----
 Symbolic Z-matrix:
 Charge = -1 Multiplicity = 1
 O                     0.        0.        0. 
 Cl                    2.90468   0.        0. 
 Cl                   -0.39369   1.63605   0. 
 H                     0.86478   0.        0.49928 
 
 ITRead=  0  0  0  0
 MicOpt= -1 -1 -1 -1
 NAtoms=      4 NQM=        4 NQMF=       0 NMMI=      0 NMMIF=      0
                NMic=       0 NMicF=      0.
                    Isotopes and Nuclear Properties:
 (Nuclear quadrupole moments (NQMom) in fm**2, nuclear magnetic moments (NMagM)
  in nuclear magnetons)

  Atom         1           2           3           4
 IAtWgt=          16          35          35           1
 AtmWgt=  15.9949146  34.9688527  34.9688527   1.0078250
 NucSpn=           0           3           3           1
 AtZEff=  -0.0000000  -0.0000000  -0.0000000  -0.0000000
 NQMom=    0.0000000  -8.1650000  -8.1650000   0.0000000
 NMagM=    0.0000000   0.8218740   0.8218740   2.7928460
 AtZNuc=   8.0000000  17.0000000  17.0000000   1.0000000
 Leave Link  101 at Thu Sep 16 15:38:03 2021, MaxMem= 16106127360 cpu:               3.2 elap:               0.1
 (Enter /sw/contrib/gaussian/g16/B01/g16/l202.exe)
                          Input orientation:                          
 ---------------------------------------------------------------------
 Center     Atomic      Atomic             Coordinates (Angstroms)
 Number     Number       Type             X           Y           Z
 ---------------------------------------------------------------------
      1          8           0        0.000000    0.000000    0.000000
      2         17           0        2.904676    0.000000    0.000000
      3         17           0       -0.393687    1.636049    0.000000
      4          1           0        0.864780    0.000000    0.499281
 ---------------------------------------------------------------------
                    Distance matrix (angstroms):
                    1          2          3          4
     1  O    0.000000
     2  Cl   2.904676   0.000000
     3  Cl   1.682749   3.681827   0.000000
     4  H    0.998562   2.100109   2.123599   0.000000
 Symmetry turned off by external request.
 Stoichiometry    Cl2HO(1-)
 Framework group  C1[X(Cl2HO)]
 Deg. of freedom     6
 Full point group                 C1      NOp   1
 Rotational constants (GHZ):          23.3367032           2.0581668           1.8948058
 Leave Link  202 at Thu Sep 16 15:38:03 2021, MaxMem= 16106127360 cpu:               0.3 elap:               0.0
 (Enter /sw/contrib/gaussian/g16/B01/g16/l301.exe)
 Standard basis: Aug-CC-pVTZ (5D, 7F)
 Ernie: Thresh=  0.10000D-02 Tol=  0.10000D-05 Strict=F.
 Ernie:  29 primitive shells out of 169 were deleted.
   169 basis functions,   327 primitive gaussians,   198 cartesian basis functions
    22 alpha electrons       22 beta electrons
       nuclear repulsion energy       121.8411713702 Hartrees.
 IExCor=    0 DFT=F Ex=HF Corr=None ExCW=0 ScaHFX=  1.000000
 ScaDFX=  1.000000  1.000000  1.000000  1.000000 ScalE2=  1.000000  1.000000
 IRadAn=      5 IRanWt=     -1 IRanGd=            0 ICorTp=0 IEmpDi=  4
 NAtoms=    4 NActive=    4 NUniq=    4 SFac= 1.00D+00 NAtFMM=   60 NAOKFM=F Big=F
 Integral buffers will be    131072 words long.
 Raffenetti 1 integral format.
 Two-electron integral symmetry is turned off.
 Leave Link  301 at Thu Sep 16 15:38:03 2021, MaxMem= 16106127360 cpu:               1.7 elap:               0.1
 (Enter /sw/contrib/gaussian/g16/B01/g16/l302.exe)
 NPDir=0 NMtPBC=     1 NCelOv=     1 NCel=       1 NClECP=     1 NCelD=      1
         NCelK=      1 NCelE2=     1 NClLst=     1 CellRange=     0.0.
 One-electron integrals computed using PRISM.
 NBasis=   169 RedAO= T EigKep=  2.81D-04  NBF=   169
 NBsUse=   169 1.00D-06 EigRej= -1.00D+00 NBFU=   169
 Leave Link  302 at Thu Sep 16 15:38:03 2021, MaxMem= 16106127360 cpu:               4.7 elap:               0.2
 (Enter /sw/contrib/gaussian/g16/B01/g16/l303.exe)
 DipDrv:  MaxL=1.
 Leave Link  303 at Thu Sep 16 15:38:03 2021, MaxMem= 16106127360 cpu:               5.9 elap:               0.3
 (Enter /sw/contrib/gaussian/g16/B01/g16/l401.exe)
 ExpMin= 2.53D-02 ExpMax= 4.56D+05 ExpMxC= 1.44D+03 IAcc=3 IRadAn=         5 AccDes= 0.00D+00
 Harris functional with IExCor=  205 and IRadAn=       5 diagonalized for initial guess.
 HarFok:  IExCor=  205 AccDes= 0.00D+00 IRadAn=         5 IDoV= 1 UseB2=F ITyADJ=14
 ICtDFT=  3500011 ScaDFX=  1.000000  1.000000  1.000000  1.000000
 FoFCou: FMM=F IPFlag=           0 FMFlag=      100000 FMFlg1=           0
         NFxFlg=           0 DoJE=T BraDBF=F KetDBF=T FulRan=T
         wScrn=  0.000000 ICntrl=       500 IOpCl=  0 I1Cent=   200000004 NGrid=           0
         NMat0=    1 NMatS0=      1 NMatT0=    0 NMatD0=    1 NMtDS0=    0 NMtDT0=    0
 Symmetry not used in FoFCou.
 Harris En= -993.815336485640    
 JPrj=0 DoOrth=F DoCkMO=F.
 Leave Link  401 at Thu Sep 16 15:38:04 2021, MaxMem= 16106127360 cpu:               7.2 elap:               0.3
 (Enter /sw/contrib/gaussian/g16/B01/g16/l502.exe)
 Keep R1 ints in memory in canonical form, NReq=117118997.
 FoFCou: FMM=F IPFlag=           0 FMFlag=           0 FMFlg1=           0
         NFxFlg=           0 DoJE=F BraDBF=F KetDBF=F FulRan=T
         wScrn=  0.000000 ICntrl=       600 IOpCl=  0 I1Cent=           0 NGrid=           0
         NMat0=    1 NMatS0=  14365 NMatT0=    0 NMatD0=    1 NMtDS0=    0 NMtDT0=    0
 Symmetry not used in FoFCou.
 Two-electron integral symmetry not used.
 Closed shell SCF:
 Using DIIS extrapolation, IDIIS=  1040.
 NGot= 16106127360 LenX= 16002858349 LenY= 16002818704
 Requested convergence on RMS density matrix=1.00D-08 within 128 cycles.
 Requested convergence on MAX density matrix=1.00D-06.
 Requested convergence on             energy=1.00D-06.
 No special actions if energy rises.

 Cycle   1  Pass 1  IDiag  1:
 E= -994.385163685021    
 DIIS: error= 2.56D-02 at cycle   1 NSaved=   1.
 NSaved= 1 IEnMin= 1 EnMin= -994.385163685021     IErMin= 1 ErrMin= 2.56D-02
 ErrMax= 2.56D-02  0.00D+00 EMaxC= 1.00D-01 BMatC= 4.22D-01 BMatP= 4.22D-01
 IDIUse=3 WtCom= 7.44D-01 WtEn= 2.56D-01
 Coeff-Com:  0.100D+01
 Coeff-En:   0.100D+01
 Coeff:      0.100D+01
 Gap=     0.548 Goal=   None    Shift=    0.000
 GapD=    0.548 DampG=2.000 DampE=0.500 DampFc=1.0000 IDamp=-1.
 RMSDP=2.13D-03 MaxDP=7.08D-02              OVMax= 1.21D-01

 Cycle   2  Pass 1  IDiag  1:
 E= -994.480910649947     Delta-E=       -0.095746964926 Rises=F Damp=F
 DIIS: error= 1.34D-02 at cycle   2 NSaved=   2.
 NSaved= 2 IEnMin= 2 EnMin= -994.480910649947     IErMin= 2 ErrMin= 1.34D-02
 ErrMax= 1.34D-02  0.00D+00 EMaxC= 1.00D-01 BMatC= 4.85D-02 BMatP= 4.22D-01
 IDIUse=3 WtCom= 8.66D-01 WtEn= 1.34D-01
 Coeff-Com:  0.165D+00 0.835D+00
 Coeff-En:   0.000D+00 0.100D+01
 Coeff:      0.143D+00 0.857D+00
 Gap=     0.359 Goal=   None    Shift=    0.000
 RMSDP=9.72D-04 MaxDP=3.93D-02 DE=-9.57D-02 OVMax= 7.72D-02

 Cycle   3  Pass 1  IDiag  1:
 E= -994.505803045057     Delta-E=       -0.024892395110 Rises=F Damp=F
 DIIS: error= 6.39D-03 at cycle   3 NSaved=   3.
 NSaved= 3 IEnMin= 3 EnMin= -994.505803045057     IErMin= 3 ErrMin= 6.39D-03
 ErrMax= 6.39D-03  0.00D+00 EMaxC= 1.00D-01 BMatC= 1.31D-02 BMatP= 4.85D-02
 IDIUse=3 WtCom= 9.36D-01 WtEn= 6.39D-02
 Coeff-Com: -0.149D-01 0.332D+00 0.683D+00
 Coeff-En:   0.000D+00 0.106D+00 0.894D+00
 Coeff:     -0.139D-01 0.317D+00 0.697D+00
 Gap=     0.345 Goal=   None    Shift=    0.000
 RMSDP=3.46D-04 MaxDP=1.33D-02 DE=-2.49D-02 OVMax= 3.44D-02

 Cycle   4  Pass 1  IDiag  1:
 E= -994.514760362266     Delta-E=       -0.008957317210 Rises=F Damp=F
 DIIS: error= 8.82D-04 at cycle   4 NSaved=   4.
 NSaved= 4 IEnMin= 4 EnMin= -994.514760362266     IErMin= 4 ErrMin= 8.82D-04
 ErrMax= 8.82D-04  0.00D+00 EMaxC= 1.00D-01 BMatC= 1.63D-04 BMatP= 1.31D-02
 IDIUse=3 WtCom= 9.91D-01 WtEn= 8.82D-03
 Coeff-Com: -0.428D-02 0.273D-01 0.117D+00 0.860D+00
 Coeff-En:   0.000D+00 0.000D+00 0.000D+00 0.100D+01
 Coeff:     -0.424D-02 0.270D-01 0.116D+00 0.861D+00
 Gap=     0.338 Goal=   None    Shift=    0.000
 RMSDP=5.43D-05 MaxDP=1.41D-03 DE=-8.96D-03 OVMax= 2.90D-03

 Cycle   5  Pass 1  IDiag  1:
 E= -994.514932195550     Delta-E=       -0.000171833283 Rises=F Damp=F
 DIIS: error= 2.02D-04 at cycle   5 NSaved=   5.
 NSaved= 5 IEnMin= 5 EnMin= -994.514932195550     IErMin= 5 ErrMin= 2.02D-04
 ErrMax= 2.02D-04  0.00D+00 EMaxC= 1.00D-01 BMatC= 1.53D-05 BMatP= 1.63D-04
 IDIUse=3 WtCom= 9.98D-01 WtEn= 2.02D-03
 Coeff-Com:  0.955D-03-0.385D-01-0.714D-01 0.161D-02 0.111D+01
 Coeff-En:   0.000D+00 0.000D+00 0.000D+00 0.000D+00 0.100D+01
 Coeff:      0.953D-03-0.384D-01-0.713D-01 0.161D-02 0.111D+01
 Gap=     0.340 Goal=   None    Shift=    0.000
 RMSDP=3.25D-05 MaxDP=1.15D-03 DE=-1.72D-04 OVMax= 3.06D-03

 Cycle   6  Pass 1  IDiag  1:
 E= -994.514970827199     Delta-E=       -0.000038631650 Rises=F Damp=F
 DIIS: error= 9.00D-05 at cycle   6 NSaved=   6.
 NSaved= 6 IEnMin= 6 EnMin= -994.514970827199     IErMin= 6 ErrMin= 9.00D-05
 ErrMax= 9.00D-05  0.00D+00 EMaxC= 1.00D-01 BMatC= 1.92D-06 BMatP= 1.53D-05
 IDIUse=1 WtCom= 1.00D+00 WtEn= 0.00D+00
 Coeff-Com:  0.268D-03 0.797D-02 0.157D-01-0.702D-01-0.408D+00 0.145D+01
 Coeff:      0.268D-03 0.797D-02 0.157D-01-0.702D-01-0.408D+00 0.145D+01
 Gap=     0.340 Goal=   None    Shift=    0.000
 RMSDP=1.62D-05 MaxDP=5.77D-04 DE=-3.86D-05 OVMax= 1.55D-03

 Cycle   7  Pass 1  IDiag  1:
 E= -994.514977636661     Delta-E=       -0.000006809462 Rises=F Damp=F
 DIIS: error= 2.56D-05 at cycle   7 NSaved=   7.
 NSaved= 7 IEnMin= 7 EnMin= -994.514977636661     IErMin= 7 ErrMin= 2.56D-05
 ErrMax= 2.56D-05  0.00D+00 EMaxC= 1.00D-01 BMatC= 1.19D-07 BMatP= 1.92D-06
 IDIUse=1 WtCom= 1.00D+00 WtEn= 0.00D+00
 Coeff-Com: -0.178D-03-0.587D-03-0.634D-03 0.264D-01 0.838D-01-0.593D+00
 Coeff-Com:  0.148D+01
 Coeff:     -0.178D-03-0.587D-03-0.634D-03 0.264D-01 0.838D-01-0.593D+00
 Coeff:      0.148D+01
 Gap=     0.340 Goal=   None    Shift=    0.000
 RMSDP=4.99D-06 MaxDP=1.76D-04 DE=-6.81D-06 OVMax= 4.77D-04

 Cycle   8  Pass 1  IDiag  1:
 E= -994.514978175231     Delta-E=       -0.000000538570 Rises=F Damp=F
 DIIS: error= 5.70D-06 at cycle   8 NSaved=   8.
 NSaved= 8 IEnMin= 8 EnMin= -994.514978175231     IErMin= 8 ErrMin= 5.70D-06
 ErrMax= 5.70D-06  0.00D+00 EMaxC= 1.00D-01 BMatC= 8.22D-09 BMatP= 1.19D-07
 IDIUse=1 WtCom= 1.00D+00 WtEn= 0.00D+00
 Coeff-Com:  0.109D-04-0.684D-03-0.116D-02 0.174D-02 0.204D-01-0.342D-01
 Coeff-Com: -0.168D+00 0.118D+01
 Coeff:      0.109D-04-0.684D-03-0.116D-02 0.174D-02 0.204D-01-0.342D-01
 Coeff:     -0.168D+00 0.118D+01
 Gap=     0.340 Goal=   None    Shift=    0.000
 RMSDP=1.10D-06 MaxDP=2.38D-05 DE=-5.39D-07 OVMax= 1.23D-04

 Cycle   9  Pass 1  IDiag  1:
 E= -994.514978205614     Delta-E=       -0.000000030383 Rises=F Damp=F
 DIIS: error= 2.64D-06 at cycle   9 NSaved=   9.
 NSaved= 9 IEnMin= 9 EnMin= -994.514978205614     IErMin= 9 ErrMin= 2.64D-06
 ErrMax= 2.64D-06  0.00D+00 EMaxC= 1.00D-01 BMatC= 1.17D-09 BMatP= 8.22D-09
 IDIUse=1 WtCom= 1.00D+00 WtEn= 0.00D+00
 Coeff-Com:  0.166D-04 0.216D-03 0.394D-03-0.352D-02-0.156D-01 0.820D-01
 Coeff-Com: -0.147D+00-0.236D+00 0.132D+01
 Coeff:      0.166D-04 0.216D-03 0.394D-03-0.352D-02-0.156D-01 0.820D-01
 Coeff:     -0.147D+00-0.236D+00 0.132D+01
 Gap=     0.340 Goal=   None    Shift=    0.000
 RMSDP=5.22D-07 MaxDP=1.09D-05 DE=-3.04D-08 OVMax= 6.15D-05

 Cycle  10  Pass 1  IDiag  1:
 E= -994.514978211203     Delta-E=       -0.000000005589 Rises=F Damp=F
 DIIS: error= 1.32D-06 at cycle  10 NSaved=  10.
 NSaved=10 IEnMin=10 EnMin= -994.514978211203     IErMin=10 ErrMin= 1.32D-06
 ErrMax= 1.32D-06  0.00D+00 EMaxC= 1.00D-01 BMatC= 1.77D-10 BMatP= 1.17D-09
 IDIUse=1 WtCom= 1.00D+00 WtEn= 0.00D+00
 Coeff-Com: -0.252D-05 0.337D-04 0.516D-05 0.493D-03 0.112D-02-0.128D-01
 Coeff-Com:  0.534D-01-0.139D+00-0.215D+00 0.131D+01
 Coeff:     -0.252D-05 0.337D-04 0.516D-05 0.493D-03 0.112D-02-0.128D-01
 Coeff:      0.534D-01-0.139D+00-0.215D+00 0.131D+01
 Gap=     0.340 Goal=   None    Shift=    0.000
 RMSDP=2.26D-07 MaxDP=5.24D-06 DE=-5.59D-09 OVMax= 2.67D-05

 Cycle  11  Pass 1  IDiag  1:
 E= -994.514978212068     Delta-E=       -0.000000000865 Rises=F Damp=F
 DIIS: error= 4.09D-07 at cycle  11 NSaved=  11.
 NSaved=11 IEnMin=11 EnMin= -994.514978212068     IErMin=11 ErrMin= 4.09D-07
 ErrMax= 4.09D-07  0.00D+00 EMaxC= 1.00D-01 BMatC= 1.58D-11 BMatP= 1.77D-10
 IDIUse=1 WtCom= 1.00D+00 WtEn= 0.00D+00
 Coeff-Com: -0.289D-05-0.196D-04-0.262D-04 0.420D-03 0.152D-02-0.859D-02
 Coeff-Com:  0.135D-01 0.397D-01-0.120D+00-0.227D+00 0.130D+01
 Coeff:     -0.289D-05-0.196D-04-0.262D-04 0.420D-03 0.152D-02-0.859D-02
 Coeff:      0.135D-01 0.397D-01-0.120D+00-0.227D+00 0.130D+01
 Gap=     0.340 Goal=   None    Shift=    0.000
 RMSDP=7.53D-08 MaxDP=1.87D-06 DE=-8.65D-10 OVMax= 8.37D-06

 Cycle  12  Pass 1  IDiag  1:
 E= -994.514978212152     Delta-E=       -0.000000000083 Rises=F Damp=F
 DIIS: error= 8.65D-08 at cycle  12 NSaved=  12.
 NSaved=12 IEnMin=12 EnMin= -994.514978212152     IErMin=12 ErrMin= 8.65D-08
 ErrMax= 8.65D-08  0.00D+00 EMaxC= 1.00D-01 BMatC= 9.33D-13 BMatP= 1.58D-11
 IDIUse=1 WtCom= 1.00D+00 WtEn= 0.00D+00
 Coeff-Com:  0.642D-06-0.131D-05-0.421D-06-0.851D-04-0.238D-03 0.184D-02
 Coeff-Com: -0.507D-02 0.283D-02 0.317D-01-0.539D-01-0.173D+00 0.120D+01
 Coeff:      0.642D-06-0.131D-05-0.421D-06-0.851D-04-0.238D-03 0.184D-02
 Coeff:     -0.507D-02 0.283D-02 0.317D-01-0.539D-01-0.173D+00 0.120D+01
 Gap=     0.340 Goal=   None    Shift=    0.000
 RMSDP=1.47D-08 MaxDP=3.28D-07 DE=-8.34D-11 OVMax= 1.26D-06

 Cycle  13  Pass 1  IDiag  1:
 E= -994.514978212157     Delta-E=       -0.000000000005 Rises=F Damp=F
 DIIS: error= 2.17D-08 at cycle  13 NSaved=  13.
 NSaved=13 IEnMin=13 EnMin= -994.514978212157     IErMin=13 ErrMin= 2.17D-08
 ErrMax= 2.17D-08  0.00D+00 EMaxC= 1.00D-01 BMatC= 1.44D-13 BMatP= 9.33D-13
 IDIUse=1 WtCom= 1.00D+00 WtEn= 0.00D+00
 Coeff-Com:  0.207D-06 0.235D-05 0.251D-05-0.312D-04-0.126D-03 0.633D-03
 Coeff-Com: -0.590D-03-0.530D-02 0.949D-02 0.346D-01-0.138D+00-0.102D+00
 Coeff-Com:  0.120D+01
 Coeff:      0.207D-06 0.235D-05 0.251D-05-0.312D-04-0.126D-03 0.633D-03
 Coeff:     -0.590D-03-0.530D-02 0.949D-02 0.346D-01-0.138D+00-0.102D+00
 Coeff:      0.120D+01
 Gap=     0.340 Goal=   None    Shift=    0.000
 RMSDP=5.51D-09 MaxDP=1.05D-07 DE=-5.00D-12 OVMax= 4.24D-07

 SCF Done:  E(RHF) =  -994.514978212     A.U. after   13 cycles
            NFock= 13  Conv=0.55D-08     -V/T= 2.0001
 KE= 9.943723781721D+02 PE=-2.621411931196D+03 EE= 5.106834034414D+02
 Leave Link  502 at Thu Sep 16 15:38:07 2021, MaxMem= 16106127360 cpu:              25.3 elap:               3.2
 (Enter /sw/contrib/gaussian/g16/B01/g16/l801.exe)
 ExpMin= 2.53D-02 ExpMax= 4.56D+05 ExpMxC= 1.44D+03 IAcc=3 IRadAn=         5 AccDes= 0.00D+00
 HarFok:  IExCor=  205 AccDes= 0.00D+00 IRadAn=         5 IDoV=-2 UseB2=F ITyADJ=14
 ICtDFT= 12500011 ScaDFX=  1.000000  1.000000  1.000000  1.000000
 Largest valence mixing into a core orbital is  4.47D-04
 Largest core mixing into a valence orbital is  1.74D-04
 Range of M.O.s used for correlation:    12   169
 NBasis=   169 NAE=    22 NBE=    22 NFC=    11 NFV=     0
 NROrb=    158 NOA=    11 NOB=    11 NVA=   147 NVB=   147

 **** Warning!!: The largest alpha MO coefficient is  0.11090830D+02

 Leave Link  801 at Thu Sep 16 15:38:07 2021, MaxMem= 16106127360 cpu:               2.1 elap:               0.1
 (Enter /sw/contrib/gaussian/g16/B01/g16/l906.exe)
 Frozen-core derivative calculation, NFC=  11 NFV=   0.
 FulOut=F Deriv=T AODrv=F NAtomX=     4
   MMem=         144  MDisk=          11 MDiskD=          11
  W3Min=      736164 MinDsk=     1250177 NBas6D=         198
 NBas2D=       20187    NTT=       19701    LW2=     3500000
    MDV= 16105751256 MDiskM=      406660 NBas2p=       19980
 Fully in-core method, ICMem=   420417501.
 IMap=   1   2   3   4   5   6   7   8   9  10  11  12  13  14  15  16  17  18  19  20
 IMap=  21  22
 JobTyp=1 Pass  1 fully in-core, NPsUse= 28.
 Compute canonical integrals.
 FoFCou: FMM=F IPFlag=           0 FMFlag=           0 FMFlg1=           0
         NFxFlg=           0 DoJE=F BraDBF=F KetDBF=F FulRan=T
         wScrn=  0.000000 ICntrl=       600 IOpCl=  1 I1Cent=           0 NGrid=           0
         NMat0=    1 NMatS0=  20187 NMatT0=    0 NMatD0=    1 NMtDS0=    0 NMtDT0=    0
 Symmetry not used in FoFCou.
 Spin components of T(2) and E(2):
     alpha-alpha T2 =       0.2919450553D-01 E2=     -0.8385911834D-01
     alpha-beta  T2 =       0.1594679155D+00 E2=     -0.4979654618D+00
     beta-beta   T2 =       0.2919450553D-01 E2=     -0.8385911834D-01
 The integrals were generated   1 times.
 ANorm=    0.1103565552D+01
 E2 =    -0.6656836984D+00 EUMP2 =    -0.99518066191059D+03
 Leave Link  906 at Thu Sep 16 15:38:11 2021, MaxMem= 16106127360 cpu:             118.6 elap:               4.3
 (Enter /sw/contrib/gaussian/g16/B01/g16/l1002.exe)
 Minotr:  Closed shell wavefunction.
          Computing MP2/KS-MP2 derivatives.
          Using Z-Vector for PSCF gradient.
          Skipping F1 and S1 gradient terms here.
          Frozen-core window.
          Direct CPHF calculation.
          Differentiating once with respect to electric field.
                with respect to dipole field.
          Electric field/nuclear overlap derivatives assumed to be zero.
          Requested convergence is 1.0D-10 RMS, and 1.0D-09 maximum.
          NewPWx=F KeepS1=T KeepF1=T KeepIn=T MapXYZ=F SortEE=F KeepMc=T.
 Keep R1 ints in memory in canonical form, NReq=117123241.
 FoFCou: FMM=F IPFlag=           0 FMFlag=           0 FMFlg1=           0
         NFxFlg=           0 DoJE=F BraDBF=F KetDBF=F FulRan=T
         wScrn=  0.000000 ICntrl=       600 IOpCl=  0 I1Cent=           0 NGrid=           0
         NMat0=    1 NMatS0=  14365 NMatT0=    0 NMatD0=    1 NMtDS0=    0 NMtDT0=    0
 Symmetry not used in FoFCou.
 Two-electron integral symmetry not used.
          MDV=   16106127360 using IRadAn=       5.
          Solving linear equations separately, MaxMat=       0.
          There are     1 degrees of freedom in the 1st order CPHF.  IDoFFX=0 NUNeed=     1.
 LinEq1:  Iter=  0 NonCon=     1 RMS=3.08D-03 Max=3.84D-02 NDo=     1
 AX will form     1 AO Fock derivatives at one time.
 LinEq1:  Iter=  1 NonCon=     1 RMS=3.88D-04 Max=4.58D-03 NDo=     1
 LinEq1:  Iter=  2 NonCon=     1 RMS=1.59D-04 Max=2.54D-03 NDo=     1
 LinEq1:  Iter=  3 NonCon=     1 RMS=6.22D-05 Max=9.68D-04 NDo=     1
 LinEq1:  Iter=  4 NonCon=     1 RMS=2.69D-05 Max=5.51D-04 NDo=     1
 LinEq1:  Iter=  5 NonCon=     1 RMS=7.24D-06 Max=1.52D-04 NDo=     1
 LinEq1:  Iter=  6 NonCon=     1 RMS=2.38D-06 Max=4.19D-05 NDo=     1
 LinEq1:  Iter=  7 NonCon=     1 RMS=6.97D-07 Max=9.64D-06 NDo=     1
 LinEq1:  Iter=  8 NonCon=     1 RMS=1.35D-07 Max=1.35D-06 NDo=     1
 LinEq1:  Iter=  9 NonCon=     1 RMS=3.08D-08 Max=3.65D-07 NDo=     1
 LinEq1:  Iter= 10 NonCon=     1 RMS=8.00D-09 Max=1.25D-07 NDo=     1
 LinEq1:  Iter= 11 NonCon=     1 RMS=2.00D-09 Max=4.07D-08 NDo=     1
 LinEq1:  Iter= 12 NonCon=     1 RMS=5.20D-10 Max=8.88D-09 NDo=     1
 LinEq1:  Iter= 13 NonCon=     1 RMS=1.21D-10 Max=1.51D-09 NDo=     1
 LinEq1:  Iter= 14 NonCon=     0 RMS=3.32D-11 Max=3.90D-10 NDo=     1
 Linear equations converged to 1.000D-10 1.000D-09 after    14 iterations.
 End of Minotr F.D. properties file   721 does not exist.
 End of Minotr F.D. properties file   722 does not exist.
 End of Minotr F.D. properties file   788 does not exist.
 Leave Link 1002 at Thu Sep 16 15:38:15 2021, MaxMem= 16106127360 cpu:              33.1 elap:               4.0
 (Enter /sw/contrib/gaussian/g16/B01/g16/l601.exe)
 Copying SCF densities to generalized density rwf, IOpCl= 0 IROHF=0.

 **********************************************************************

            Population analysis using the MP2 Density.

 **********************************************************************

 Alpha  occ. eigenvalues -- -104.73070-104.53600 -20.46385 -10.45031 -10.26065
 Alpha  occ. eigenvalues --   -7.91749  -7.91483  -7.91470  -7.72678  -7.72665
 Alpha  occ. eigenvalues --   -7.72664  -1.23362  -0.89570  -0.77217  -0.54256
 Alpha  occ. eigenvalues --   -0.44382  -0.43516  -0.30795  -0.28087  -0.18960
 Alpha  occ. eigenvalues --   -0.18374  -0.18257
 Alpha virt. eigenvalues --    0.15767   0.18290   0.22468   0.23247   0.26120
 Alpha virt. eigenvalues --    0.27431   0.28070   0.28992   0.30481   0.31843
 Alpha virt. eigenvalues --    0.33878   0.34730   0.40757   0.41870   0.46357
 Alpha virt. eigenvalues --    0.49225   0.52455   0.54272   0.55646   0.58085
 Alpha virt. eigenvalues --    0.58725   0.60627   0.61655   0.62538   0.65923
 Alpha virt. eigenvalues --    0.66800   0.67408   0.70129   0.76457   0.79334
 Alpha virt. eigenvalues --    0.85414   0.86461   0.88707   0.89775   0.90732
 Alpha virt. eigenvalues --    0.92195   0.96203   0.98966   0.99869   1.06703
 Alpha virt. eigenvalues --    1.08313   1.09782   1.09945   1.11584   1.13138
 Alpha virt. eigenvalues --    1.14809   1.19330   1.19715   1.20284   1.21583
 Alpha virt. eigenvalues --    1.22394   1.24597   1.27026   1.29153   1.31882
 Alpha virt. eigenvalues --    1.34702   1.39076   1.41734   1.43016   1.43180
 Alpha virt. eigenvalues --    1.44501   1.48907   1.51086   1.55875   1.60927
 Alpha virt. eigenvalues --    1.62883   1.65588   1.68736   1.71915   1.74191
 Alpha virt. eigenvalues --    1.77900   1.85426   1.85695   1.88247   1.95471
 Alpha virt. eigenvalues --    1.97880   2.18221   2.39551   2.42634   2.51273
 Alpha virt. eigenvalues --    2.51995   2.54270   2.60495   2.63120   2.64925
 Alpha virt. eigenvalues --    2.68234   2.70163   2.71261   2.72466   2.75274
 Alpha virt. eigenvalues --    2.77809   2.79907   2.81469   2.82559   2.89139
 Alpha virt. eigenvalues --    2.91402   2.93094   2.95619   3.00988   3.02548
 Alpha virt. eigenvalues --    3.07413   3.11130   3.18383   3.20740   3.22291
 Alpha virt. eigenvalues --    3.24796   3.29736   3.30599   3.34074   3.34866
 Alpha virt. eigenvalues --    3.35908   3.39582   3.42808   3.48742   3.50721
 Alpha virt. eigenvalues --    3.52902   3.56821   3.59277   3.63237   3.91733
 Alpha virt. eigenvalues --    4.19138   4.35770   4.49570   4.57533   4.61889
 Alpha virt. eigenvalues --    4.73974   4.97878   5.03462   5.36383   5.44300
 Alpha virt. eigenvalues --    5.68203   6.21217   6.45402   6.65819   6.88621
 Alpha virt. eigenvalues --    6.90572   6.92241   6.99556   7.33810   7.35006
 Alpha virt. eigenvalues --    7.35858   7.45164   7.53587   7.75228   7.76641
 Alpha virt. eigenvalues --    8.37175  14.43587
          Condensed to atoms (all electrons):
               1          2          3          4
     1  O    8.559892  -0.084740  -0.117656   0.065795
     2  Cl  -0.084740  17.889057   0.001812   0.079094
     3  Cl  -0.117656   0.001812  17.057298   0.000484
     4  H    0.065795   0.079094   0.000484   0.604173
 Mulliken charges:
               1
     1  O   -0.423291
     2  Cl  -0.885224
     3  Cl   0.058062
     4  H    0.250453
 Sum of Mulliken charges =  -1.00000
 Mulliken charges with hydrogens summed into heavy atoms:
               1
     1  O   -0.172838
     2  Cl  -0.885224
     3  Cl   0.058062
 Electronic spatial extent (au):  <R**2>=            795.2215
 Charge=             -1.0000 electrons
 Dipole moment (field-independent basis, Debye):
    X=            -10.4778    Y=             -0.6532    Z=              0.4322  Tot=             10.5070
 Quadrupole moment (field-independent basis, Debye-Ang):
   XX=            -71.4337   YY=            -36.9641   ZZ=            -36.2661
   XY=              0.4737   XZ=              0.2885   YZ=             -0.1640
 Traceless Quadrupole moment (field-independent basis, Debye-Ang):
   XX=            -23.2124   YY=             11.2572   ZZ=             11.9552
   XY=              0.4737   XZ=              0.2885   YZ=             -0.1640
 Octapole moment (field-independent basis, Debye-Ang**2):
  XXX=           -232.9083  YYY=            -62.8270  ZZZ=             -1.4989  XYY=            -44.0405
  XXY=            -21.8954  XXZ=             -2.2153  XZZ=            -43.2585  YZZ=            -22.2655
  YYZ=             -0.8573  XYZ=              0.0971
 Hexadecapole moment (field-independent basis, Debye-Ang**3):
 XXXX=          -1207.0243 YYYY=           -246.3636 ZZZZ=            -51.2710 XXXY=             28.1119
 XXXZ=             -8.4087 YYYX=             22.3015 YYYZ=             -0.7912 ZZZX=             -1.9209
 ZZZY=             -0.2474 XXYY=           -196.7412 XXZZ=           -160.9859 YYZZ=            -54.0754
 XXYZ=             -0.1837 YYXZ=             -0.4125 ZZXY=              9.2980
 N-N= 1.218411713702D+02 E-N=-2.621463709836D+03  KE= 9.950324564909D+02
 No NMR shielding tensors so no spin-rotation constants.
 Leave Link  601 at Thu Sep 16 15:38:16 2021, MaxMem= 16106127360 cpu:               4.2 elap:               0.2
 (Enter /sw/contrib/gaussian/g16/B01/g16/l9999.exe)
 1\1\GINC-N2114\SP\RMP2-FC\Aug-CC-pVTZ\Cl2H1O1(1-)\CGAVINH\16-Sep-2021\
 0\\#p SP NoSymm mp2/aug-cc-pvtz density=current\\title\\-1,1\O,0,0.,0.
 ,0.\Cl,0,2.904676,0.,0.\Cl,0,-0.39368664,1.6360486,0.\H,0,0.86477979,0
 .,0.49928085\\Version=ES64L-G16RevB.01\HF=-994.5149782\MP2=-995.180661
 9\RMSD=5.507e-09\Dipole=-2.2083059,0.9652948,0.1920004\Quadrupole=-17.
 2578778,8.3694687,8.8884091,0.3521869,0.2144953,-0.1219069\PG=C01 [X(C
 l2H1O1)]\\@


 CONFIDENCE IS WHAT YOU FEEL BEFORE YOU FULLY
 COMPREHEND THE SITUATION.
 Job cpu time:       0 days  0 hours  3 minutes 35.3 seconds.
 Elapsed time:       0 days  0 hours  0 minutes 13.2 seconds.
 File lengths (MBytes):  RWF=     14 Int=      0 D2E=      0 Chk=      8 Scr=      1
 Normal termination of Gaussian 16 at Thu Sep 16 15:38:16 2021.
