title                                                                   
SP        RMP2-FC                                                     Aug-CC-pVTZ         
Number of atoms                            I                4
Info1-9                                    I   N=           9
          41          13           0           0           0         110
           1           2           1
Full Title                                 C   N=           1
title       
Route                                      C   N=           4
#p SP mp2/aug-cc-pvtz density=current           
Charge                                     I               -1
Multiplicity                               I                1
Number of electrons                        I               44
Number of alpha electrons                  I               22
Number of beta electrons                   I               22
Number of basis functions                  I              169
Number of independent functions            I              169
Number of point charges in /Mol/           I                0
Number of translation vectors              I                0
Atomic numbers                             I   N=           4
           8          17          17           1
Nuclear charges                            R   N=           4
  8.00000000E+00  1.70000000E+01  1.70000000E+01  1.00000000E+00
Current cartesian coordinates              R   N=          12
  1.28604173E+00  1.87713580E+00 -3.91627886E-02 -3.76275894E+00 -2.76539182E-01
 -9.51162852E-03  3.18349706E+00 -6.74355810E-01  6.34483467E-05 -4.40881898E-01
  1.14812845E+00  4.73921372E-01
Number of symbols in /Mol/                 I                0
Force Field                                I                0
Atom Types                                 C   N=           4
                                                
Int Atom Types                             I   N=           4
           0           0           0           0
MM charges                                 R   N=           4
  0.00000000E+00  0.00000000E+00  0.00000000E+00  0.00000000E+00
Integer atomic weights                     I   N=           4
          16          35          35           1
Real atomic weights                        R   N=           4
  1.59949146E+01  3.49688527E+01  3.49688527E+01  1.00782504E+00
Atom fragment info                         I   N=           4
           0           0           0           0
Atom residue num                           I   N=           4
           0           0           0           0
Nuclear spins                              I   N=           4
           0           3           3           1
Nuclear ZEff                               R   N=           4
 -5.60000000E+00 -1.42400000E+01 -1.42400000E+01 -1.00000000E+00
Nuclear ZNuc                               R   N=           4
  8.00000000E+00  1.70000000E+01  1.70000000E+01  1.00000000E+00
Nuclear QMom                               R   N=           4
  0.00000000E+00 -8.16500000E+00 -8.16500000E+00  0.00000000E+00
Nuclear GFac                               R   N=           4
  0.00000000E+00  8.21874000E-01  8.21874000E-01  2.79284600E+00
MicOpt                                     I   N=           4
          -1          -1          -1          -1
Number of residues                         I                0
Number of secondary structures             I                0
SymInf integers                            I   N=          26
           1           1           1           1           1           0
           0           0           0           0           0           0
           0           0           0           0           0           0
           0           0           0           0           0           0
           0           0
RotTr to input orientation                 R   N=          12
 -9.19796308E-01  3.92395822E-01 -5.20075430E-04 -3.92358983E-01 -9.19690093E-01
  1.49853548E-02  5.40188242E-03  1.39875303E-02  9.99887578E-01  1.91961909E+00
  1.22229359E+00  1.16976785E-02
Number of contracted shells                I               55
Number of primitive shells                 I              140
Pure/Cartesian d shells                    I                0
Pure/Cartesian f shells                    I                0
Highest angular momentum                   I                3
Largest degree of contraction              I               11
Shell types                                I   N=          55
           0           0           0           0           0           1
           1           1           1          -2          -2          -2
          -3          -3           0           0           0           0
           0           0           1           1           1           1
           1          -2          -2          -2          -3          -3
           0           0           0           0           0           0
           1           1           1           1           1          -2
          -2          -2          -3          -3           0           0
           0           0           1           1           1          -2
          -2
Number of primitives per shell             I   N=          55
           7           6           1           1           1           3
           1           1           1           1           1           1
           1           1          11           9           8           1
           1           1           6           6           1           1
           1           1           1           1           1           1
          11           9           8           1           1           1
           6           6           1           1           1           1
           1           1           1           1           3           1
           1           1           1           1           1           1
           1
Shell to atom map                          I   N=          55
           1           1           1           1           1           1
           1           1           1           1           1           1
           1           1           2           2           2           2
           2           2           2           2           2           2
           2           2           2           2           2           2
           3           3           3           3           3           3
           3           3           3           3           3           3
           3           3           3           3           4           4
           4           4           4           4           4           4
           4
Primitive exponents                        R   N=         140
  1.53300000E+04  2.29900000E+03  5.22400000E+02  1.47300000E+02  4.75500000E+01
  1.67600000E+01  6.20700000E+00  5.22400000E+02  1.47300000E+02  4.75500000E+01
  1.67600000E+01  6.20700000E+00  6.88200000E-01  1.75200000E+00  2.38400000E-01
  7.37600000E-02  3.44600000E+01  7.74900000E+00  2.28000000E+00  7.15600000E-01
  2.14000000E-01  5.97400000E-02  2.31400000E+00  6.45000000E-01  2.14000000E-01
  1.42800000E+00  5.00000000E-01  4.56100000E+05  6.83300000E+04  1.55500000E+04
  4.40500000E+03  1.43900000E+03  5.20400000E+02  2.03100000E+02  8.39600000E+01
  3.62000000E+01  1.58300000E+01  6.33400000E+00  4.40500000E+03  1.43900000E+03
  5.20400000E+02  2.03100000E+02  8.39600000E+01  3.62000000E+01  1.58300000E+01
  6.33400000E+00  2.69400000E+00  1.43900000E+03  2.03100000E+02  8.39600000E+01
  3.62000000E+01  1.58300000E+01  6.33400000E+00  2.69400000E+00  4.31300000E-01
  9.76800000E-01  1.62500000E-01  5.91000000E-02  6.63300000E+02  1.56800000E+02
  4.99800000E+01  1.84200000E+01  7.24000000E+00  2.92200000E+00  1.56800000E+02
  4.99800000E+01  1.84200000E+01  7.24000000E+00  2.92200000E+00  3.81800000E-01
  1.02200000E+00  1.30100000E-01  4.19000000E-02  1.04600000E+00  3.44000000E-01
  1.35000000E-01  7.06000000E-01  3.12000000E-01  4.56100000E+05  6.83300000E+04
  1.55500000E+04  4.40500000E+03  1.43900000E+03  5.20400000E+02  2.03100000E+02
  8.39600000E+01  3.62000000E+01  1.58300000E+01  6.33400000E+00  4.40500000E+03
  1.43900000E+03  5.20400000E+02  2.03100000E+02  8.39600000E+01  3.62000000E+01
  1.58300000E+01  6.33400000E+00  2.69400000E+00  1.43900000E+03  2.03100000E+02
  8.39600000E+01  3.62000000E+01  1.58300000E+01  6.33400000E+00  2.69400000E+00
  4.31300000E-01  9.76800000E-01  1.62500000E-01  5.91000000E-02  6.63300000E+02
  1.56800000E+02  4.99800000E+01  1.84200000E+01  7.24000000E+00  2.92200000E+00
  1.56800000E+02  4.99800000E+01  1.84200000E+01  7.24000000E+00  2.92200000E+00
  3.81800000E-01  1.02200000E+00  1.30100000E-01  4.19000000E-02  1.04600000E+00
  3.44000000E-01  1.35000000E-01  7.06000000E-01  3.12000000E-01  3.38700000E+01
  5.09500000E+00  1.15900000E+00  3.25800000E-01  1.02700000E-01  2.52600000E-02
  1.40700000E+00  3.88000000E-01  1.02000000E-01  1.05700000E+00  2.47000000E-01
Contraction coefficients                   R   N=         140
  5.19808943E-04  4.02025621E-03  2.07128267E-02  8.10105536E-02  2.35962985E-01
  4.42653446E-01  3.57064423E-01 -4.42115008E-05 -1.22591041E-03 -1.05517725E-02
 -6.74452633E-02 -1.71198607E-01  1.07329856E+00  1.00000000E+00  1.00000000E+00
  1.00000000E+00  4.11634896E-02  2.57762836E-01  8.02419274E-01  1.00000000E+00
  1.00000000E+00  1.00000000E+00  1.00000000E+00  1.00000000E+00  1.00000000E+00
  1.00000000E+00  1.00000000E+00  4.93229477E-05  3.83207967E-04  2.00947816E-03
  8.38950124E-03  2.94843950E-02  8.78759948E-02  2.11589759E-01  3.65611554E-01
  3.41246350E-01  1.02162570E-01  2.14249949E-03 -2.21747925E-06 -1.71189708E-04
 -1.27922846E-03 -9.32956265E-03 -3.98910062E-02 -1.05536085E-01  9.36202446E-03
  5.10511140E-01  5.73150737E-01  4.03949245E-06  2.12481765E-04  8.59484452E-04
  4.63248159E-03  4.47343490E-04 -7.38438245E-02 -3.62271994E-01  1.16620337E+00
  1.00000000E+00  1.00000000E+00  1.00000000E+00  2.47206402E-03  1.97550234E-02
  9.09917355E-02  2.63187834E-01  4.49078073E-01  3.60183072E-01  3.03427809E-05
 -1.22475826E-03 -6.01429772E-03 -2.76401323E-02  4.35105612E-04  1.00307272E+00
  1.00000000E+00  1.00000000E+00  1.00000000E+00  1.00000000E+00  1.00000000E+00
  1.00000000E+00  1.00000000E+00  1.00000000E+00  4.93229477E-05  3.83207967E-04
  2.00947816E-03  8.38950124E-03  2.94843950E-02  8.78759948E-02  2.11589759E-01
  3.65611554E-01  3.41246350E-01  1.02162570E-01  2.14249949E-03 -2.21747925E-06
 -1.71189708E-04 -1.27922846E-03 -9.32956265E-03 -3.98910062E-02 -1.05536085E-01
  9.36202446E-03  5.10511140E-01  5.73150737E-01  4.03949245E-06  2.12481765E-04
  8.59484452E-04  4.63248159E-03  4.47343490E-04 -7.38438245E-02 -3.62271994E-01
  1.16620337E+00  1.00000000E+00  1.00000000E+00  1.00000000E+00  2.47206402E-03
  1.97550234E-02  9.09917355E-02  2.63187834E-01  4.49078073E-01  3.60183072E-01
  3.03427809E-05 -1.22475826E-03 -6.01429772E-03 -2.76401323E-02  4.35105612E-04
  1.00307272E+00  1.00000000E+00  1.00000000E+00  1.00000000E+00  1.00000000E+00
  1.00000000E+00  1.00000000E+00  1.00000000E+00  1.00000000E+00  2.54948632E-02
  1.90362766E-01  8.52162022E-01  1.00000000E+00  1.00000000E+00  1.00000000E+00
  1.00000000E+00  1.00000000E+00  1.00000000E+00  1.00000000E+00  1.00000000E+00
Coordinates of each shell                  R   N=         165
  1.28604173E+00  1.87713580E+00 -3.91627886E-02  1.28604173E+00  1.87713580E+00
 -3.91627886E-02  1.28604173E+00  1.87713580E+00 -3.91627886E-02  1.28604173E+00
  1.87713580E+00 -3.91627886E-02  1.28604173E+00  1.87713580E+00 -3.91627886E-02
  1.28604173E+00  1.87713580E+00 -3.91627886E-02  1.28604173E+00  1.87713580E+00
 -3.91627886E-02  1.28604173E+00  1.87713580E+00 -3.91627886E-02  1.28604173E+00
  1.87713580E+00 -3.91627886E-02  1.28604173E+00  1.87713580E+00 -3.91627886E-02
  1.28604173E+00  1.87713580E+00 -3.91627886E-02  1.28604173E+00  1.87713580E+00
 -3.91627886E-02  1.28604173E+00  1.87713580E+00 -3.91627886E-02  1.28604173E+00
  1.87713580E+00 -3.91627886E-02 -3.76275894E+00 -2.76539182E-01 -9.51162852E-03
 -3.76275894E+00 -2.76539182E-01 -9.51162852E-03 -3.76275894E+00 -2.76539182E-01
 -9.51162852E-03 -3.76275894E+00 -2.76539182E-01 -9.51162852E-03 -3.76275894E+00
 -2.76539182E-01 -9.51162852E-03 -3.76275894E+00 -2.76539182E-01 -9.51162852E-03
 -3.76275894E+00 -2.76539182E-01 -9.51162852E-03 -3.76275894E+00 -2.76539182E-01
 -9.51162852E-03 -3.76275894E+00 -2.76539182E-01 -9.51162852E-03 -3.76275894E+00
 -2.76539182E-01 -9.51162852E-03 -3.76275894E+00 -2.76539182E-01 -9.51162852E-03
 -3.76275894E+00 -2.76539182E-01 -9.51162852E-03 -3.76275894E+00 -2.76539182E-01
 -9.51162852E-03 -3.76275894E+00 -2.76539182E-01 -9.51162852E-03 -3.76275894E+00
 -2.76539182E-01 -9.51162852E-03 -3.76275894E+00 -2.76539182E-01 -9.51162852E-03
  3.18349706E+00 -6.74355810E-01  6.34483467E-05  3.18349706E+00 -6.74355810E-01
  6.34483467E-05  3.18349706E+00 -6.74355810E-01  6.34483467E-05  3.18349706E+00
 -6.74355810E-01  6.34483467E-05  3.18349706E+00 -6.74355810E-01  6.34483467E-05
  3.18349706E+00 -6.74355810E-01  6.34483467E-05  3.18349706E+00 -6.74355810E-01
  6.34483467E-05  3.18349706E+00 -6.74355810E-01  6.34483467E-05  3.18349706E+00
 -6.74355810E-01  6.34483467E-05  3.18349706E+00 -6.74355810E-01  6.34483467E-05
  3.18349706E+00 -6.74355810E-01  6.34483467E-05  3.18349706E+00 -6.74355810E-01
  6.34483467E-05  3.18349706E+00 -6.74355810E-01  6.34483467E-05  3.18349706E+00
 -6.74355810E-01  6.34483467E-05  3.18349706E+00 -6.74355810E-01  6.34483467E-05
  3.18349706E+00 -6.74355810E-01  6.34483467E-05 -4.40881898E-01  1.14812845E+00
  4.73921372E-01 -4.40881898E-01  1.14812845E+00  4.73921372E-01 -4.40881898E-01
  1.14812845E+00  4.73921372E-01 -4.40881898E-01  1.14812845E+00  4.73921372E-01
 -4.40881898E-01  1.14812845E+00  4.73921372E-01 -4.40881898E-01  1.14812845E+00
  4.73921372E-01 -4.40881898E-01  1.14812845E+00  4.73921372E-01 -4.40881898E-01
  1.14812845E+00  4.73921372E-01 -4.40881898E-01  1.14812845E+00  4.73921372E-01
Num ILSW                                   I              100
ILSW                                       I   N=         100
           0           0           0           0           2           0
           0           0           0           0           0          -1
           5           0           0           0           0           0
           0           0           0           0           0           0
           1           0           0           0           0           0
           0           0      100000           0          -1           0
           0           0           0           0           0           0
           0           0           0           1           0           0
           0 -2000000000           1           0           0           0
           0           0           4          52           0           0
           0           0           0           0           0           0
           0           0           0           4           0           1
           0           0           0           0           0           0
           0           0           0           0           0           0
           0           0           0           0           0           0
           0           0           0           0           0           0
           0           0           0           0
Num RLSW                                   I               52
RLSW                                       R   N=          52
  1.00000000E+00  1.00000000E+00  1.00000000E+00  1.00000000E+00  1.00000000E+00
  0.00000000E+00  0.00000000E+00  1.00000000E+00  0.00000000E+00  0.00000000E+00
  0.00000000E+00  0.00000000E+00  1.00000000E+00  0.00000000E+00  0.00000000E+00
  0.00000000E+00  0.00000000E+00  1.00000000E+00  0.00000000E+00  0.00000000E+00
  0.00000000E+00  0.00000000E+00  1.00000000E+00  0.00000000E+00  0.00000000E+00
  0.00000000E+00  0.00000000E+00  1.00000000E+00  0.00000000E+00  0.00000000E+00
  0.00000000E+00  0.00000000E+00  1.00000000E+00  0.00000000E+00  0.00000000E+00
  0.00000000E+00  0.00000000E+00  0.00000000E+00  1.00000000E+00  1.00000000E+00
  0.00000000E+00  1.00000000E+00  0.00000000E+00  0.00000000E+00  0.00000000E+00
  0.00000000E+00  0.00000000E+00  0.00000000E+00  0.00000000E+00  0.00000000E+00
  0.00000000E+00  0.00000000E+00
MxBond                                     I                2
NBond                                      I   N=           4
           2           0           1           1
IBond                                      I   N=           8
           3           4           0           0           1           0
           1           0
RBond                                      R   N=           8
  1.00000000E+00  1.00000000E+00  0.00000000E+00  0.00000000E+00  1.00000000E+00
  0.00000000E+00  1.00000000E+00  0.00000000E+00
Virial Ratio                               R      2.000168831766784E+00
SCF Energy                                 R     -9.945208253477859E+02
MP2 Energy                                 R     -9.951888176649609E+02
Total Energy                               R     -9.951888176649609E+02
Post-SCF wavefunction norm                 R      1.103963799620575E+00
RMS Density                                R      4.087408751034070E-09
Job Status                                 I                1
Nuclear derivative order                   I                0
External E-field                           R   N=          35
  0.00000000E+00  0.00000000E+00  0.00000000E+00  0.00000000E+00  0.00000000E+00
  0.00000000E+00  0.00000000E+00  0.00000000E+00  0.00000000E+00  0.00000000E+00
  0.00000000E+00  0.00000000E+00  0.00000000E+00  0.00000000E+00  0.00000000E+00
  0.00000000E+00  0.00000000E+00  0.00000000E+00  0.00000000E+00  0.00000000E+00
  0.00000000E+00  0.00000000E+00  0.00000000E+00  0.00000000E+00  0.00000000E+00
  0.00000000E+00  0.00000000E+00  0.00000000E+00  0.00000000E+00  0.00000000E+00
  0.00000000E+00  0.00000000E+00  0.00000000E+00  0.00000000E+00  0.00000000E+00
IOpCl                                      I                0
IROHF                                      I                0
Alpha Orbital Energies                     R   N=         169
 -1.04723911E+02 -1.04546650E+02 -2.04524117E+01 -1.04434716E+01 -1.02714690E+01
 -7.91064151E+00 -7.90804383E+00 -7.90794024E+00 -7.73762855E+00 -7.73745594E+00
 -7.73745426E+00 -1.21809684E+00 -8.87045657E-01 -7.85520491E-01 -5.28686103E-01
 -4.33936548E-01 -4.25674273E-01 -3.01234643E-01 -2.72890657E-01 -2.01911697E-01
 -1.94405368E-01 -1.93884432E-01  1.60558734E-01  1.85805582E-01  2.25775379E-01
  2.34427825E-01  2.58848120E-01  2.73017840E-01  2.76885976E-01  2.95387139E-01
  3.13339260E-01  3.17572621E-01  3.39693861E-01  3.49306368E-01  3.96642347E-01
  4.38983515E-01  4.64705075E-01  5.07679616E-01  5.22369320E-01  5.42678150E-01
  5.58645647E-01  5.77622866E-01  5.86861587E-01  6.02566553E-01  6.08783640E-01
  6.55366471E-01  6.60736804E-01  6.70188427E-01  6.80537488E-01  7.35500831E-01
  7.75552781E-01  7.88062455E-01  8.36799574E-01  8.66688096E-01  8.95952811E-01
  9.01416780E-01  9.12874795E-01  9.15427595E-01  9.66948403E-01  9.99778869E-01
  1.02654616E+00  1.06365693E+00  1.07586187E+00  1.09249037E+00  1.10143536E+00
  1.10295484E+00  1.14183758E+00  1.15851896E+00  1.18371964E+00  1.18814355E+00
  1.19464034E+00  1.21274229E+00  1.22618637E+00  1.24703232E+00  1.28449721E+00
  1.30292144E+00  1.33247234E+00  1.36973130E+00  1.40310698E+00  1.42702052E+00
  1.43262472E+00  1.44411539E+00  1.48966013E+00  1.51621690E+00  1.53879873E+00
  1.59853379E+00  1.63999864E+00  1.65959141E+00  1.68757525E+00  1.69323943E+00
  1.72747022E+00  1.74657004E+00  1.82598219E+00  1.85774241E+00  1.86314090E+00
  1.89771956E+00  1.94232345E+00  1.98899342E+00  2.26187052E+00  2.41221844E+00
  2.47270224E+00  2.51908196E+00  2.52901940E+00  2.56625779E+00  2.61562748E+00
  2.64010505E+00  2.65893230E+00  2.68840200E+00  2.71339953E+00  2.72455371E+00
  2.73309559E+00  2.76250947E+00  2.78338956E+00  2.79628557E+00  2.80144959E+00
  2.82304499E+00  2.91025222E+00  2.92461461E+00  2.93970761E+00  2.97555689E+00
  3.05223304E+00  3.10110274E+00  3.10859793E+00  3.13416962E+00  3.21365559E+00
  3.22461174E+00  3.23033650E+00  3.27382085E+00  3.30088232E+00  3.33115559E+00
  3.33622150E+00  3.36081692E+00  3.39054090E+00  3.39839618E+00  3.41559730E+00
  3.50046289E+00  3.51496009E+00  3.54076754E+00  3.56896256E+00  3.59556915E+00
  3.66191639E+00  3.93356039E+00  4.25829070E+00  4.32395458E+00  4.47760487E+00
  4.54579097E+00  4.57679059E+00  4.76989942E+00  4.98235174E+00  5.09943560E+00
  5.31919076E+00  5.44756669E+00  5.65318415E+00  6.30603216E+00  6.55047900E+00
  6.60017420E+00  6.88395414E+00  6.91097683E+00  6.93275358E+00  7.00847169E+00
  7.30080211E+00  7.31719156E+00  7.35916479E+00  7.45342040E+00  7.56581283E+00
  7.78142887E+00  7.80194180E+00  8.34545354E+00  1.42664948E+01
Alpha MO coefficients                      R   N=       28561
  5.29363817E-06  2.94894675E-05  2.21920652E-06 -1.49527819E-04 -1.01617413E-04
  8.60994932E-07 -2.90906155E-06  5.33041853E-07 -6.00150978E-08  9.77046902E-06
 -2.57978282E-06 -1.05156170E-04  1.19310806E-04 -1.16721803E-06 -2.49052151E-05
  2.85927014E-05  1.20543024E-06 -2.10949163E-06 -1.11464294E-07 -1.73994691E-07
 -1.06080430E-06 -3.17032226E-06  1.41151041E-05  5.08197543E-07  1.14641087E-06
  7.11870689E-06  2.14453037E-05  2.49772601E-05 -5.23445176E-06  1.88139030E-06
  3.13448987E-05  5.15963135E-05 -1.49607276E-07  1.91722710E-07  6.20976104E-08
 -5.39521840E-07 -2.96347391E-08  1.49650579E-06  1.21239532E-06  6.82158308E-07
  7.63002031E-06 -1.06700268E-05  2.34812019E-06  5.09138388E-07  1.01304925E-05
  1.68481346E-06  1.74089212E-07  2.45797655E-06  6.36131124E-06 -1.20630962E-06
 -1.94363440E-05 -1.21253574E-05 -1.92982879E-07 -8.96572624E-08 -9.07787392E-08
 -1.78245144E-06 -1.61055916E-06 -9.40762806E-07  8.38444667E-07  3.76686951E-07
  3.92469249E-07 -1.81905962E-05 -2.22582368E-06 -3.64924694E-06 -3.70139612E-06
 -1.23784621E-06  2.85622766E-07 -2.11083239E-07  2.96911621E-07  2.17094982E-07
  4.69509151E-07 -8.12158094E-08  1.26439364E-06 -1.56135895E-06 -1.12414555E-06
 -2.05793003E-06 -8.36248456E-07  3.16316270E-06 -2.14231265E-06  6.18585002E-07
 -5.83766562E-06 -1.49996932E-06 -1.62443843E-07  9.83852678E-09 -1.35735817E-08
  3.83261854E-07 -4.13454517E-07  2.70220052E-07  8.48389333E-08  9.22090399E-07
  6.95296720E-07  3.65293277E-08 -1.31272871E-06  3.13215993E-07 -1.66457981E-06
 -3.13757973E-07  9.99534796E-01  1.95445554E-03  1.85013951E-04 -4.18196813E-04
  7.10329585E-05  7.45744639E-05 -4.52510454E-05  6.19067544E-05  1.86031203E-07
 -8.66465536E-05  1.08596895E-04  2.30380592E-07  4.44390863E-05 -5.84146100E-05
 -1.65305246E-07 -2.51755100E-05  5.02077265E-05 -3.54290796E-06 -6.64522827E-06
  9.69859128E-06 -9.57464332E-07 -3.59275040E-06 -2.15949226E-08 -2.43949567E-08
 -1.01193393E-06 -5.83393626E-06 -2.83553854E-05  2.26750306E-07 -6.72850247E-07
 -1.28521265E-05 -4.77917254E-05 -1.07447366E-06  2.84633707E-06 -8.72631610E-08
 -7.46676900E-06 -6.28825474E-06 -2.64806683E-07  4.20676700E-06 -4.87766002E-06
  7.33700571E-07 -4.95236894E-08  5.41863206E-06  2.97419950E-06  1.01094986E-06
  9.10553796E-07 -2.86994816E-06 -1.48131370E-06  5.79809840E-07  8.29570266E-06
  1.25685461E-06 -1.51018551E-06 -1.81674617E-05  5.11958515E-05 -6.56863032E-06
 -1.60700062E-06  2.11615802E-06  6.95234766E-08  1.43324307E-05 -1.07168355E-05
 -8.88944321E-07  5.80714040E-06 -2.17631876E-05 -2.09941096E-06 -5.25529922E-07
 -3.09885001E-08  3.61607080E-09  2.79325858E-07 -1.09603341E-06 -1.33655683E-05
 -3.60267857E-06 -3.57437897E-07  7.52778288E-06  5.19910959E-06  8.95540285E-07
  5.12893940E-06 -2.01983802E-07  1.54429106E-06  3.23777768E-05 -2.09013358E-07
 -7.17085949E-08 -1.03299526E-07 -7.58732919E-07 -4.10381074E-07  6.47709847E-07
  2.68591003E-05  1.29760677E-05  1.95130981E-05  1.43383403E-06  2.78324682E-06
  1.24166438E-05 -4.61928574E-07  3.80481681E-07  2.59833978E-07  2.75084427E-07
  4.54483073E-07  2.58797077E-06 -2.73498069E-06 -1.50462003E-06 -1.59319175E-06
 -2.29651019E-06  1.10826136E-05 -3.34588878E-06 -7.70959624E-07 -1.02595332E-05
 -6.86181327E-06 -5.70203172E-07 -6.62100301E-08 -1.19002223E-07  3.70802894E-07
  2.16342179E-07 -5.20950149E-08  2.20572722E-07  3.79457017E-07 -2.72416013E-06
 -8.91339041E-07  2.92197911E-07  7.48882244E-07  7.95503901E-07  1.19660882E-06
  9.99531788E-01  1.98415973E-03  2.13990049E-04 -4.25410238E-04 -1.69994476E-04
 -3.17556385E-05  8.61456546E-06  4.16016656E-06  3.49654071E-06  2.39629067E-05
  1.01131678E-05  4.62847276E-06 -1.04680526E-05 -4.71963785E-06 -3.01467596E-06
 -7.57953594E-05 -2.98602956E-05 -1.04614333E-05 -5.23322570E-06 -2.62211676E-06
 -1.10960712E-06 -6.63301182E-07  2.43264663E-07  1.99105534E-07  7.38229496E-07
  5.45870711E-07 -2.63679772E-07  1.04294770E-06  1.43412085E-07  7.63293011E-07
  1.45124988E-06  1.19863581E-05 -6.12826622E-06 -2.14328558E-06 -1.62397618E-05
 -1.59836627E-05 -6.06678997E-07 -1.10974788E-06 -6.02177382E-07  4.79140853E-07
  5.09031038E-07  7.75344270E-07  1.83891527E-06  1.52301894E-06  3.30017971E-06
  1.60568207E-06 -1.18337974E-06 -1.36380882E-06 -2.08750051E-06 -4.92887990E-06
  1.14498789E-07  1.94240097E-06  4.79718450E-06 -1.53703908E-06 -4.31855793E-06
 -1.27538910E-05 -1.25573939E-07 -1.04875907E-08 -2.66546174E-08 -2.78163757E-06
 -2.76067764E-07 -1.49777091E-07  4.05859594E-07  8.34424219E-08  1.01111327E-07
  1.45607505E-05  8.99000527E-07  4.20142689E-07  1.89370523E-06 -2.62632192E-06
 -2.64382465E-06 -9.23428127E-08 -1.48355400E-07  9.27575217E-09  5.03364381E-07
 -2.13498578E-07 -4.81611637E-08  3.83748732E-07  6.87663794E-08 -9.38212756E-07
  6.10217218E-07  3.90626284E-06 -7.67576051E-08 -2.10775854E-07 -6.74127467E-06
  4.22615638E-07 -4.03992974E-07  1.79415515E-07 -8.89310522E-09  3.51568525E-08
  1.27380604E-07 -6.73088119E-07  2.31376422E-07  8.31113987E-07 -1.04824159E-06
 -6.32395379E-08 -3.20631489E-07 -2.36274288E-07  2.01835766E-06 -6.78812946E-07
 -2.31327155E-07  3.50092312E-05  7.43287328E-05  7.33075757E-07 -2.03814270E-08
  3.65633892E-07  1.15245400E-06 -5.08776773E-06 -2.67786258E-06 -1.66572268E-05
 -8.11326400E-05 -4.96276840E-05 -2.40990670E-05  1.14774448E-06 -1.92448438E-06
 -1.05703875E-06 -3.33581924E-07 -4.08858380E-07  5.88217751E-06 -6.24839748E-06
 -1.23600247E-06 -7.56740397E-06 -1.00093938E-05  9.76816688E-01 -9.21928475E-03
  4.33782501E-02  1.68597733E-03  5.17492418E-04 -1.02654537E-04 -1.75169476E-03
  4.20488022E-04  4.53185351E-04  1.49735302E-03 -4.35977382E-04  3.52075749E-04
 -4.02350612E-04 -1.39250033E-04  2.50707687E-04 -1.16529797E-04 -5.02363148E-05
  4.49075407E-05 -1.15090492E-05 -6.98405305E-07  3.75273969E-05  9.69883473E-05
  4.13128375E-04  2.18314883E-04  1.12924752E-04 -1.06015739E-04  1.37464058E-04
 -1.75647643E-04  5.38780498E-06  1.57253532E-05  7.37363442E-06 -1.69625543E-04
  1.00086544E-05 -2.53388393E-07 -2.04751128E-05 -2.36390064E-07 -7.06815556E-06
  1.45921568E-05  9.80959335E-06  3.58058487E-05 -5.84011709E-06 -1.02103045E-05
 -3.21703820E-05 -5.77081219E-05 -1.01482724E-05  1.01135104E-04  8.34894456E-08
  7.53313427E-06  1.82532329E-05  2.46573016E-05 -7.61748181E-04 -4.31243687E-04
 -4.88867247E-06 -2.45406941E-06 -3.22857843E-06 -1.93474516E-04 -7.92855966E-05
 -3.52425869E-05  1.93587295E-05  1.00019964E-05  1.61258023E-05 -4.34217126E-04
 -2.46438059E-04 -3.50597856E-04 -6.57162880E-05 -1.97360044E-05 -3.05836467E-05
  1.41764258E-05  1.47163938E-05  6.29164357E-06 -1.41943386E-05 -4.49490727E-06
  1.81622836E-06 -9.22561616E-05 -3.79053815E-05 -1.64732404E-05 -4.61067917E-05
 -6.39226233E-06 -2.14041367E-04 -1.04944592E-04 -3.43399549E-05 -6.83836953E-05
 -1.09377702E-05  1.90457324E-05  9.66762275E-06  1.05365570E-05  1.85471519E-05
 -4.65222065E-06  5.56141841E-07  6.30962134E-05 -8.26652661E-05 -3.53880074E-05
 -5.91945347E-05 -7.94513039E-05  2.65903949E-05  1.53935583E-05  4.76377137E-06
  7.68465052E-05  9.43870935E-05 -2.89850792E-04  9.46156359E-05 -6.47436549E-04
 -1.68012638E-06  1.04820458E-05 -1.69689037E-06 -2.97820675E-04  5.42624359E-04
 -3.27006822E-05  1.42546479E-04 -2.27251555E-04  1.03201699E-05  3.02531971E-05
 -3.78064223E-04  6.73929877E-05  6.87216389E-05 -1.24074058E-04  5.10506793E-06
  1.53508736E-05  3.36447982E-06  3.00219208E-06 -1.17821515E-06  7.90221035E-06
 -3.21621194E-04  5.00767246E-06 -3.16432059E-05 -1.89736928E-04 -4.64431964E-04
  1.22191050E-04 -3.09868956E-05  4.43314856E-05  2.04382489E-04  1.72510200E-04
  1.38906711E-05  8.90108569E-05 -1.39256317E-04 -9.84265118E-08  1.14971734E-05
  2.23762557E-04  5.23038473E-05 -1.28319110E-05  8.22397021E-05 -7.66949247E-05
  1.57165030E-05  1.83602918E-06  7.70663526E-05  4.22397752E-05  2.77379900E-04
  1.23253711E-03  1.09373730E-03  1.32835930E-04  2.42777822E-04  5.76829874E-05
 -7.28406183E-05  1.15635784E-03  4.74916828E-04 -2.10691994E-04 -7.65192698E-04
 -1.35888755E-04  2.21399321E-04 -2.38587814E-05 -1.68365881E-05  1.21311120E-05
  6.75146954E-05 -1.79674801E-05 -4.74388756E-04 -3.49810339E-04 -1.51333697E-04
  6.91309193E-04  6.84666343E-04 -7.07135561E-05 -6.46174550E-05 -1.05793818E-04
  2.75664296E-03  2.39314798E-03  3.89564142E-05 -2.79554426E-05 -6.44925560E-06
  2.65557596E-04 -5.00056065E-04  4.71306586E-05  1.45291005E-03 -1.99424634E-03
  9.87938733E-05  5.79773986E-04 -7.39222692E-04 -2.66183082E-05 -2.37412291E-05
  4.05339465E-06  4.20144908E-06 -6.48347613E-06 -5.51624868E-05 -2.00361558E-04
 -1.85075201E-05 -4.42365821E-05 -1.33648710E-04 -2.17707895E-04 -2.67369269E-04
  5.23920825E-05 -4.92154550E-05 -5.71891371E-04 -4.93117572E-04 -2.20005796E-06
 -1.28500965E-05  1.78402746E-05  8.46903694E-06  2.60734816E-06 -5.53362729E-05
 -3.23729456E-05 -1.16659277E-05 -2.34161083E-05  4.52541815E-05 -5.21695250E-05