title                                                                   
SP        RMP2-FC                                                     Aug-CC-pVTZ         
Number of atoms                            I                4
Info1-9                                    I   N=           9
          43          13           0           0           0         110
           1           2           1
Full Title                                 C   N=           1
title       
Route                                      C   N=           4
#p SP NoSymm mp2/aug-cc-pvtz density=current    
Charge                                     I               -1
Multiplicity                               I                1
Number of electrons                        I               44
Number of alpha electrons                  I               22
Number of beta electrons                   I               22
Number of basis functions                  I              169
Number of independent functions            I              169
Number of point charges in /Mol/           I                0
Number of translation vectors              I                0
Atomic numbers                             I   N=           4
           8          17          17           1
Nuclear charges                            R   N=           4
  8.00000000E+00  1.70000000E+01  1.70000000E+01  1.00000000E+00
Current cartesian coordinates              R   N=          12
  0.00000000E+00  0.00000000E+00  0.00000000E+00  5.48904212E+00  0.00000000E+00
  0.00000000E+00 -7.43959929E-01  3.09168378E+00  0.00000000E+00  1.31278739E+00
  0.00000000E+00  1.31278739E+00
Number of symbols in /Mol/                 I                0
Force Field                                I                0
Atom Types                                 C   N=           4
                                                
Int Atom Types                             I   N=           4
           0           0           0           0
MM charges                                 R   N=           4
  0.00000000E+00  0.00000000E+00  0.00000000E+00  0.00000000E+00
Integer atomic weights                     I   N=           4
          16          35          35           1
Real atomic weights                        R   N=           4
  1.59949146E+01  3.49688527E+01  3.49688527E+01  1.00782504E+00
Atom fragment info                         I   N=           4
           0           0           0           0
Atom residue num                           I   N=           4
           0           0           0           0
Nuclear spins                              I   N=           4
           0           3           3           1
Nuclear ZEff                               R   N=           4
 -5.60000000E+00 -1.42400000E+01 -1.42400000E+01 -1.00000000E+00
Nuclear ZNuc                               R   N=           4
  8.00000000E+00  1.70000000E+01  1.70000000E+01  1.00000000E+00
Nuclear QMom                               R   N=           4
  0.00000000E+00 -8.16500000E+00 -8.16500000E+00  0.00000000E+00
Nuclear GFac                               R   N=           4
  0.00000000E+00  8.21874000E-01  8.21874000E-01  2.79284600E+00
MicOpt                                     I   N=           4
          -1          -1          -1          -1
Number of residues                         I                0
Number of secondary structures             I                0
Number of contracted shells                I               55
Number of primitive shells                 I              140
Pure/Cartesian d shells                    I                0
Pure/Cartesian f shells                    I                0
Highest angular momentum                   I                3
Largest degree of contraction              I               11
Shell types                                I   N=          55
           0           0           0           0           0           1
           1           1           1          -2          -2          -2
          -3          -3           0           0           0           0
           0           0           1           1           1           1
           1          -2          -2          -2          -3          -3
           0           0           0           0           0           0
           1           1           1           1           1          -2
          -2          -2          -3          -3           0           0
           0           0           1           1           1          -2
          -2
Number of primitives per shell             I   N=          55
           7           6           1           1           1           3
           1           1           1           1           1           1
           1           1          11           9           8           1
           1           1           6           6           1           1
           1           1           1           1           1           1
          11           9           8           1           1           1
           6           6           1           1           1           1
           1           1           1           1           3           1
           1           1           1           1           1           1
           1
Shell to atom map                          I   N=          55
           1           1           1           1           1           1
           1           1           1           1           1           1
           1           1           2           2           2           2
           2           2           2           2           2           2
           2           2           2           2           2           2
           3           3           3           3           3           3
           3           3           3           3           3           3
           3           3           3           3           4           4
           4           4           4           4           4           4
           4
Primitive exponents                        R   N=         140
  1.53300000E+04  2.29900000E+03  5.22400000E+02  1.47300000E+02  4.75500000E+01
  1.67600000E+01  6.20700000E+00  5.22400000E+02  1.47300000E+02  4.75500000E+01
  1.67600000E+01  6.20700000E+00  6.88200000E-01  1.75200000E+00  2.38400000E-01
  7.37600000E-02  3.44600000E+01  7.74900000E+00  2.28000000E+00  7.15600000E-01
  2.14000000E-01  5.97400000E-02  2.31400000E+00  6.45000000E-01  2.14000000E-01
  1.42800000E+00  5.00000000E-01  4.56100000E+05  6.83300000E+04  1.55500000E+04
  4.40500000E+03  1.43900000E+03  5.20400000E+02  2.03100000E+02  8.39600000E+01
  3.62000000E+01  1.58300000E+01  6.33400000E+00  4.40500000E+03  1.43900000E+03
  5.20400000E+02  2.03100000E+02  8.39600000E+01  3.62000000E+01  1.58300000E+01
  6.33400000E+00  2.69400000E+00  1.43900000E+03  2.03100000E+02  8.39600000E+01
  3.62000000E+01  1.58300000E+01  6.33400000E+00  2.69400000E+00  4.31300000E-01
  9.76800000E-01  1.62500000E-01  5.91000000E-02  6.63300000E+02  1.56800000E+02
  4.99800000E+01  1.84200000E+01  7.24000000E+00  2.92200000E+00  1.56800000E+02
  4.99800000E+01  1.84200000E+01  7.24000000E+00  2.92200000E+00  3.81800000E-01
  1.02200000E+00  1.30100000E-01  4.19000000E-02  1.04600000E+00  3.44000000E-01
  1.35000000E-01  7.06000000E-01  3.12000000E-01  4.56100000E+05  6.83300000E+04
  1.55500000E+04  4.40500000E+03  1.43900000E+03  5.20400000E+02  2.03100000E+02
  8.39600000E+01  3.62000000E+01  1.58300000E+01  6.33400000E+00  4.40500000E+03
  1.43900000E+03  5.20400000E+02  2.03100000E+02  8.39600000E+01  3.62000000E+01
  1.58300000E+01  6.33400000E+00  2.69400000E+00  1.43900000E+03  2.03100000E+02
  8.39600000E+01  3.62000000E+01  1.58300000E+01  6.33400000E+00  2.69400000E+00
  4.31300000E-01  9.76800000E-01  1.62500000E-01  5.91000000E-02  6.63300000E+02
  1.56800000E+02  4.99800000E+01  1.84200000E+01  7.24000000E+00  2.92200000E+00
  1.56800000E+02  4.99800000E+01  1.84200000E+01  7.24000000E+00  2.92200000E+00
  3.81800000E-01  1.02200000E+00  1.30100000E-01  4.19000000E-02  1.04600000E+00
  3.44000000E-01  1.35000000E-01  7.06000000E-01  3.12000000E-01  3.38700000E+01
  5.09500000E+00  1.15900000E+00  3.25800000E-01  1.02700000E-01  2.52600000E-02
  1.40700000E+00  3.88000000E-01  1.02000000E-01  1.05700000E+00  2.47000000E-01
Contraction coefficients                   R   N=         140
  5.19808943E-04  4.02025621E-03  2.07128267E-02  8.10105536E-02  2.35962985E-01
  4.42653446E-01  3.57064423E-01 -4.42115008E-05 -1.22591041E-03 -1.05517725E-02
 -6.74452633E-02 -1.71198607E-01  1.07329856E+00  1.00000000E+00  1.00000000E+00
  1.00000000E+00  4.11634896E-02  2.57762836E-01  8.02419274E-01  1.00000000E+00
  1.00000000E+00  1.00000000E+00  1.00000000E+00  1.00000000E+00  1.00000000E+00
  1.00000000E+00  1.00000000E+00  4.93229477E-05  3.83207967E-04  2.00947816E-03
  8.38950124E-03  2.94843950E-02  8.78759948E-02  2.11589759E-01  3.65611554E-01
  3.41246350E-01  1.02162570E-01  2.14249949E-03 -2.21747925E-06 -1.71189708E-04
 -1.27922846E-03 -9.32956265E-03 -3.98910062E-02 -1.05536085E-01  9.36202446E-03
  5.10511140E-01  5.73150737E-01  4.03949245E-06  2.12481765E-04  8.59484452E-04
  4.63248159E-03  4.47343490E-04 -7.38438245E-02 -3.62271994E-01  1.16620337E+00
  1.00000000E+00  1.00000000E+00  1.00000000E+00  2.47206402E-03  1.97550234E-02
  9.09917355E-02  2.63187834E-01  4.49078073E-01  3.60183072E-01  3.03427809E-05
 -1.22475826E-03 -6.01429772E-03 -2.76401323E-02  4.35105612E-04  1.00307272E+00
  1.00000000E+00  1.00000000E+00  1.00000000E+00  1.00000000E+00  1.00000000E+00
  1.00000000E+00  1.00000000E+00  1.00000000E+00  4.93229477E-05  3.83207967E-04
  2.00947816E-03  8.38950124E-03  2.94843950E-02  8.78759948E-02  2.11589759E-01
  3.65611554E-01  3.41246350E-01  1.02162570E-01  2.14249949E-03 -2.21747925E-06
 -1.71189708E-04 -1.27922846E-03 -9.32956265E-03 -3.98910062E-02 -1.05536085E-01
  9.36202446E-03  5.10511140E-01  5.73150737E-01  4.03949245E-06  2.12481765E-04
  8.59484452E-04  4.63248159E-03  4.47343490E-04 -7.38438245E-02 -3.62271994E-01
  1.16620337E+00  1.00000000E+00  1.00000000E+00  1.00000000E+00  2.47206402E-03
  1.97550234E-02  9.09917355E-02  2.63187834E-01  4.49078073E-01  3.60183072E-01
  3.03427809E-05 -1.22475826E-03 -6.01429772E-03 -2.76401323E-02  4.35105612E-04
  1.00307272E+00  1.00000000E+00  1.00000000E+00  1.00000000E+00  1.00000000E+00
  1.00000000E+00  1.00000000E+00  1.00000000E+00  1.00000000E+00  2.54948632E-02
  1.90362766E-01  8.52162022E-01  1.00000000E+00  1.00000000E+00  1.00000000E+00
  1.00000000E+00  1.00000000E+00  1.00000000E+00  1.00000000E+00  1.00000000E+00
Coordinates of each shell                  R   N=         165
  0.00000000E+00  0.00000000E+00  0.00000000E+00  0.00000000E+00  0.00000000E+00
  0.00000000E+00  0.00000000E+00  0.00000000E+00  0.00000000E+00  0.00000000E+00
  0.00000000E+00  0.00000000E+00  0.00000000E+00  0.00000000E+00  0.00000000E+00
  0.00000000E+00  0.00000000E+00  0.00000000E+00  0.00000000E+00  0.00000000E+00
  0.00000000E+00  0.00000000E+00  0.00000000E+00  0.00000000E+00  0.00000000E+00
  0.00000000E+00  0.00000000E+00  0.00000000E+00  0.00000000E+00  0.00000000E+00
  0.00000000E+00  0.00000000E+00  0.00000000E+00  0.00000000E+00  0.00000000E+00
  0.00000000E+00  0.00000000E+00  0.00000000E+00  0.00000000E+00  0.00000000E+00
  0.00000000E+00  0.00000000E+00  5.48904212E+00  0.00000000E+00  0.00000000E+00
  5.48904212E+00  0.00000000E+00  0.00000000E+00  5.48904212E+00  0.00000000E+00
  0.00000000E+00  5.48904212E+00  0.00000000E+00  0.00000000E+00  5.48904212E+00
  0.00000000E+00  0.00000000E+00  5.48904212E+00  0.00000000E+00  0.00000000E+00
  5.48904212E+00  0.00000000E+00  0.00000000E+00  5.48904212E+00  0.00000000E+00
  0.00000000E+00  5.48904212E+00  0.00000000E+00  0.00000000E+00  5.48904212E+00
  0.00000000E+00  0.00000000E+00  5.48904212E+00  0.00000000E+00  0.00000000E+00
  5.48904212E+00  0.00000000E+00  0.00000000E+00  5.48904212E+00  0.00000000E+00
  0.00000000E+00  5.48904212E+00  0.00000000E+00  0.00000000E+00  5.48904212E+00
  0.00000000E+00  0.00000000E+00  5.48904212E+00  0.00000000E+00  0.00000000E+00
 -7.43959929E-01  3.09168378E+00  0.00000000E+00 -7.43959929E-01  3.09168378E+00
  0.00000000E+00 -7.43959929E-01  3.09168378E+00  0.00000000E+00 -7.43959929E-01
  3.09168378E+00  0.00000000E+00 -7.43959929E-01  3.09168378E+00  0.00000000E+00
 -7.43959929E-01  3.09168378E+00  0.00000000E+00 -7.43959929E-01  3.09168378E+00
  0.00000000E+00 -7.43959929E-01  3.09168378E+00  0.00000000E+00 -7.43959929E-01
  3.09168378E+00  0.00000000E+00 -7.43959929E-01  3.09168378E+00  0.00000000E+00
 -7.43959929E-01  3.09168378E+00  0.00000000E+00 -7.43959929E-01  3.09168378E+00
  0.00000000E+00 -7.43959929E-01  3.09168378E+00  0.00000000E+00 -7.43959929E-01
  3.09168378E+00  0.00000000E+00 -7.43959929E-01  3.09168378E+00  0.00000000E+00
 -7.43959929E-01  3.09168378E+00  0.00000000E+00  1.31278739E+00  0.00000000E+00
  1.31278739E+00  1.31278739E+00  0.00000000E+00  1.31278739E+00  1.31278739E+00
  0.00000000E+00  1.31278739E+00  1.31278739E+00  0.00000000E+00  1.31278739E+00
  1.31278739E+00  0.00000000E+00  1.31278739E+00  1.31278739E+00  0.00000000E+00
  1.31278739E+00  1.31278739E+00  0.00000000E+00  1.31278739E+00  1.31278739E+00
  0.00000000E+00  1.31278739E+00  1.31278739E+00  0.00000000E+00  1.31278739E+00
Num ILSW                                   I              100
ILSW                                       I   N=         100
           0           0           0           0           2           0
           0           0           0           0           0          -1
           5           0           0           0           0           0
           0           0           0           0           0           0
           1           1           0           0           0           0
           0           0      100000           0          -1           0
           0           0           0           0           0           0
           0           0           0           1           0           0
           0 -2000000000           1           0           0           0
           0           0           4          52           0           0
           0           0           0           0           0           0
           0           0           0           4           0           1
           0           0           0           0           0           0
           0           0           0           0           0           0
           0           0           0           0           0           0
           0           0           0           0           0           0
           0           0           0           0
Num RLSW                                   I               52
RLSW                                       R   N=          52
  1.00000000E+00  1.00000000E+00  1.00000000E+00  1.00000000E+00  1.00000000E+00
  0.00000000E+00  0.00000000E+00  1.00000000E+00  0.00000000E+00  0.00000000E+00
  0.00000000E+00  0.00000000E+00  1.00000000E+00  0.00000000E+00  0.00000000E+00
  0.00000000E+00  0.00000000E+00  1.00000000E+00  0.00000000E+00  0.00000000E+00
  0.00000000E+00  0.00000000E+00  1.00000000E+00  0.00000000E+00  0.00000000E+00
  0.00000000E+00  0.00000000E+00  1.00000000E+00  0.00000000E+00  0.00000000E+00
  0.00000000E+00  0.00000000E+00  1.00000000E+00  0.00000000E+00  0.00000000E+00
  0.00000000E+00  0.00000000E+00  0.00000000E+00  1.00000000E+00  1.00000000E+00
  0.00000000E+00  1.00000000E+00  0.00000000E+00  0.00000000E+00  0.00000000E+00
  0.00000000E+00  0.00000000E+00  0.00000000E+00  0.00000000E+00  0.00000000E+00
  0.00000000E+00  0.00000000E+00
MxBond                                     I                2
NBond                                      I   N=           4
           2           0           1           1
IBond                                      I   N=           8
           3           4           0           0           1           0
           1           0
RBond                                      R   N=           8
  1.00000000E+00  1.00000000E+00  0.00000000E+00  0.00000000E+00  1.00000000E+00
  0.00000000E+00  1.00000000E+00  0.00000000E+00
Virial Ratio                               R      2.000123297728149E+00
SCF Energy                                 R     -9.945064560869624E+02
MP2 Energy                                 R     -9.951706268872711E+02
Total Energy                               R     -9.951706268872711E+02
Post-SCF wavefunction norm                 R      1.103402315552919E+00
RMS Density                                R      5.956557825254130E-09
Job Status                                 I                1
Nuclear derivative order                   I                0
External E-field                           R   N=          35
  0.00000000E+00  0.00000000E+00  0.00000000E+00  0.00000000E+00  0.00000000E+00
  0.00000000E+00  0.00000000E+00  0.00000000E+00  0.00000000E+00  0.00000000E+00
  0.00000000E+00  0.00000000E+00  0.00000000E+00  0.00000000E+00  0.00000000E+00
  0.00000000E+00  0.00000000E+00  0.00000000E+00  0.00000000E+00  0.00000000E+00
  0.00000000E+00  0.00000000E+00  0.00000000E+00  0.00000000E+00  0.00000000E+00
  0.00000000E+00  0.00000000E+00  0.00000000E+00  0.00000000E+00  0.00000000E+00
  0.00000000E+00  0.00000000E+00  0.00000000E+00  0.00000000E+00  0.00000000E+00
IOpCl                                      I                0
IROHF                                      I                0
Alpha Orbital Energies                     R   N=         169
 -1.04736136E+02 -1.04525709E+02 -2.04744799E+01 -1.04558320E+01 -1.02502090E+01
 -7.92302536E+00 -7.92031708E+00 -7.92015216E+00 -7.71631151E+00 -7.71621818E+00
 -7.71619921E+00 -1.24641863E+00 -9.02089158E-01 -7.59721112E-01 -5.53305531E-01
 -4.52138892E-01 -4.43123060E-01 -3.14103755E-01 -2.87209555E-01 -1.77120056E-01
 -1.73347517E-01 -1.71573608E-01  1.53609735E-01  1.80106697E-01  2.22648483E-01
  2.31998488E-01  2.63645550E-01  2.75377435E-01  2.80554506E-01  2.88102233E-01
  2.99552424E-01  3.18596471E-01  3.28968632E-01  3.51464914E-01  4.04403533E-01
  4.13992279E-01  4.59408942E-01  4.79676273E-01  5.27236302E-01  5.39559784E-01
  5.56684864E-01  5.77479818E-01  5.84056248E-01  5.88756803E-01  6.10914118E-01
  6.23722832E-01  6.51971575E-01  6.63583657E-01  6.73153896E-01  6.81201078E-01
  7.59244548E-01  7.98293779E-01  8.49431083E-01  8.71064725E-01  8.85844692E-01
  8.96935696E-01  9.05060659E-01  9.27357145E-01  9.54962492E-01  9.76145733E-01
  1.01130180E+00  1.05613694E+00  1.07977744E+00  1.08818520E+00  1.10331860E+00
  1.11607487E+00  1.12479652E+00  1.15780106E+00  1.19419899E+00  1.20127416E+00
  1.20540153E+00  1.22081084E+00  1.22347037E+00  1.23230759E+00  1.26391742E+00
  1.27741769E+00  1.30149636E+00  1.33112653E+00  1.33379433E+00  1.39069321E+00
  1.41848967E+00  1.43671321E+00  1.44502760E+00  1.48439207E+00  1.49482810E+00
  1.52647248E+00  1.55959056E+00  1.58031297E+00  1.65230491E+00  1.67716789E+00
  1.69538706E+00  1.71345260E+00  1.75968773E+00  1.79915076E+00  1.84364073E+00
  1.86825830E+00  1.96400141E+00  1.98248687E+00  2.12581542E+00  2.35593094E+00
  2.42636732E+00  2.49053199E+00  2.49803268E+00  2.53282041E+00  2.60111912E+00
  2.60973807E+00  2.64270103E+00  2.67799803E+00  2.69038686E+00  2.70098597E+00
  2.72001611E+00  2.74597625E+00  2.77510751E+00  2.81131359E+00  2.82231959E+00
  2.82458407E+00  2.88549289E+00  2.89875004E+00  2.93297410E+00  2.96128981E+00
  2.98319589E+00  3.00410171E+00  3.01839702E+00  3.10370481E+00  3.16092127E+00
  3.20463122E+00  3.21540591E+00  3.23390366E+00  3.25862828E+00  3.29453409E+00
  3.31885894E+00  3.35594196E+00  3.35819102E+00  3.40042758E+00  3.43086126E+00
  3.47130743E+00  3.49440618E+00  3.52232352E+00  3.56158957E+00  3.58343088E+00
  3.62682012E+00  3.91226599E+00  4.04962801E+00  4.37011115E+00  4.48196426E+00
  4.55417963E+00  4.64291646E+00  4.73656266E+00  4.92290858E+00  5.01687331E+00
  5.37467917E+00  5.46019895E+00  5.69000720E+00  6.11296649E+00  6.40034595E+00
  6.66466484E+00  6.85994611E+00  6.90506492E+00  6.91981216E+00  6.98619669E+00
  7.34086081E+00  7.36658297E+00  7.37453658E+00  7.46779565E+00  7.49245146E+00
  7.71997824E+00  7.73065602E+00  8.39932262E+00  1.45997492E+01
Alpha MO coefficients                      R   N=       28561
  6.55960187E-06  3.56989165E-05  9.36128084E-07 -1.29075724E-04 -7.09891573E-05
 -1.44797976E-07  3.23949630E-06  4.40932789E-07  6.22911356E-07 -9.86427814E-06
 -1.28136509E-06  5.26979764E-05 -1.47736518E-04  6.74574384E-06  1.56566489E-05
 -2.84832065E-05  5.15323731E-06 -1.87887843E-06  1.66738669E-07  1.94631728E-07
 -2.77763884E-06 -1.45727627E-06  1.34065528E-05  5.90305128E-07 -1.12513487E-06
  2.05133821E-05  9.91925098E-06  2.66640774E-05  1.04436917E-05 -1.03672245E-05
  5.59297830E-05  1.59160636E-05  4.94471301E-08 -1.00303227E-07  9.07913832E-07
 -8.38004360E-07  7.98599090E-07 -1.14595266E-06  4.47430361E-07 -3.60150244E-07
 -1.92359604E-06  9.45854015E-06  4.08283292E-06 -3.23094712E-06 -6.87645036E-06
  1.11647625E-05  1.87608582E-07  2.79409040E-06  7.20718280E-06 -1.73895816E-06
 -1.01677383E-05 -1.47030433E-05  4.53580292E-08 -7.21623038E-08  3.28223168E-08
 -1.55785544E-06 -7.19849437E-07  4.44822213E-07 -4.09167070E-07  2.60680060E-07
 -9.49660927E-08  1.64235145E-05  1.03759687E-06 -3.44713015E-06  4.19126667E-06
 -8.31523553E-08 -1.09565474E-07 -3.60935014E-07 -4.08487369E-08 -1.20980138E-07
  8.08040819E-07  6.82466341E-08  1.11233103E-06  3.80832323E-07  4.70517134E-07
 -2.32723343E-06  1.95424473E-07  3.15206142E-06  2.05053682E-06 -9.60870915E-07
 -6.20894163E-06 -1.26951862E-06  1.13774043E-07  2.02974241E-08  3.89985556E-07
 -1.37393373E-07 -3.64859842E-07 -9.11539375E-07 -1.04550654E-06  6.02915450E-08
 -1.11165940E-06 -7.14164818E-07 -1.49078111E-07  5.98559007E-07  3.32472830E-06
  2.02648286E-06  9.99534836E-01  1.95437125E-03  1.85356117E-04 -4.17984342E-04
  6.89960540E-05  6.46367588E-05  1.58075357E-05 -7.63105685E-05  2.58387870E-06
  3.50344362E-05 -1.35324355E-04  4.34842090E-06 -1.66901659E-05  7.23210054E-05
 -2.44850757E-06  7.50921400E-06 -5.01970384E-05 -2.01501609E-06  8.47418066E-07
 -1.07725456E-05 -1.28144597E-06 -3.66302226E-06  1.35239375E-07 -1.15022764E-07
 -5.59057761E-06 -3.31487483E-06 -2.78966641E-05  7.58335007E-07 -1.73263489E-06
 -4.26212761E-05 -2.35201626E-05 -2.49967176E-06 -3.24203390E-06  3.38667416E-07
 -6.08427244E-06  6.07700435E-07 -5.35267461E-07 -1.30834856E-06  5.58931627E-06
  1.58468245E-07 -1.29502967E-06 -5.37255481E-06  4.73024355E-06  5.52724485E-07
 -1.25221853E-06  3.74508571E-06 -9.95276094E-07  2.29246014E-06 -2.70394347E-06
  5.50965688E-06 -5.96911431E-07 -2.56894660E-05  1.03555736E-05 -4.30868111E-06
  8.33179377E-07 -1.92824557E-06  7.01341963E-07 -6.14975731E-06  1.64041181E-05
  2.14173017E-06  8.78826777E-06  1.14558240E-05 -3.33052460E-06 -1.03109193E-06
 -2.65832222E-07 -1.54806292E-07 -1.90855111E-06 -7.58999861E-07 -4.26916194E-06
  6.75781820E-07 -3.72100909E-07  4.83690900E-06 -3.81377830E-06  1.98881080E-07
  1.05124242E-06 -5.59752064E-07 -2.39774214E-06  2.47391478E-06  2.26306069E-07
  1.18688915E-07  6.81077568E-08  3.92385324E-07 -5.58146534E-07  3.39974963E-07
  2.50998269E-05  4.98675835E-06  5.49636746E-06 -5.99118621E-06  5.14037862E-06
  5.95347167E-06  3.40642757E-07 -4.70629124E-07 -4.05377617E-08  2.60588429E-07
  1.96365591E-07 -1.22519422E-06  3.16507277E-06  2.11196740E-07 -4.94146794E-07
 -6.70318094E-07 -7.24236260E-06  9.73960981E-06  1.66207704E-06  1.04514886E-05
  2.24900522E-06  4.99637524E-07  2.26555812E-07 -5.12084460E-09  7.88361589E-08
 -9.46364284E-08 -5.05392520E-07  4.44027105E-08 -3.10779060E-06  4.50010631E-08
 -4.12114864E-08  1.29215172E-06  6.01031517E-07  1.84827898E-06 -1.42198237E-07
  9.99531717E-01  1.97870953E-03  2.04019136E-04 -4.20048359E-04 -1.46044959E-04
  3.54278225E-06 -2.46364126E-06 -3.30139809E-07  4.70285844E-06 -1.38347230E-05
  3.40264531E-07  4.79365990E-06  4.29991422E-06  9.96832495E-08 -3.37238868E-06
  5.74051937E-05 -2.10412112E-06 -1.48065590E-05 -3.00729901E-06  5.82016602E-07
 -7.12159590E-07 -4.08724535E-07 -1.03106281E-06 -9.18918600E-08  1.23159597E-06
 -1.85125328E-07  1.20139916E-06  1.30325299E-06  2.78155311E-07 -2.70240508E-06
  5.23122010E-07  9.68144759E-06  1.03944112E-05 -7.48685977E-07 -1.97605678E-05
  7.89575309E-07 -1.04828235E-06  1.43418379E-06  4.92899743E-08  1.48193468E-06
 -9.38026055E-08 -2.80917289E-06  2.95799679E-07  3.33949168E-06 -3.83249895E-06
 -3.12816818E-08 -4.72784485E-06  2.10880979E-07  7.87808930E-06 -7.55278531E-07
  1.73536718E-07  2.60833900E-06  6.70533091E-06 -1.31972243E-06 -1.75781187E-05
 -1.79902228E-05 -2.01113141E-07 -1.83045062E-08  3.48558216E-08 -1.38093863E-06
  1.43992813E-07  1.77363140E-07  8.41639418E-07 -1.08926013E-07 -1.12068488E-07
 -1.05421280E-05  1.11747911E-05 -4.70276241E-06 -2.08746462E-06  2.09990668E-06
 -1.38845315E-06 -1.57992190E-07 -2.05195928E-07 -3.91797729E-08  3.11515757E-07
 -5.02002779E-07  1.26305976E-06  3.66913110E-07  7.96953631E-07  9.83383384E-08
  2.24505634E-06  2.24189935E-06 -2.81760590E-06  1.38481437E-06 -1.69732102E-06
  2.07738891E-06  1.01876098E-07  3.61859744E-07 -1.61723100E-07  1.49546884E-07
 -2.74654840E-08  3.24493439E-07 -5.34693613E-07  1.58433181E-07 -1.08142661E-07
 -5.20705819E-07  2.55666630E-07  5.09345226E-07 -4.65389405E-07  8.56445528E-07
 -4.19203576E-07 -4.02410908E-05  9.92012684E-05 -5.81761616E-07 -3.06476810E-07
 -5.54683837E-08  1.03795157E-06  1.68671145E-06 -1.49033219E-06  7.18358541E-06
  2.20770848E-05  1.16170628E-05 -3.03228842E-05 -5.47150724E-07 -7.11427657E-07
  5.10152775E-07  5.51010340E-08  5.85530330E-08 -9.38752541E-06 -2.44028025E-06
 -2.49699836E-06  1.63326804E-05 -8.04685501E-07  9.76839347E-01 -9.05867525E-03
  4.33764126E-02  2.31895782E-03  2.72060186E-04  4.65890965E-04  1.53064287E-03
  1.08871298E-03 -5.55197181E-04 -1.19805847E-03 -9.88189321E-04 -3.26396932E-04
  8.24165736E-04 -2.13255628E-04 -1.16718612E-04  1.15333143E-04 -1.04611914E-04
  6.11576360E-05  3.29196426E-05  3.23050885E-06  9.87967559E-05  4.49845762E-05
  6.32826160E-05 -4.69647573E-04 -2.21598616E-05  1.76994778E-04  1.87204553E-04
 -1.69814770E-04 -5.90190554E-05  5.44641039E-05 -2.57355493E-04 -1.95729099E-04
 -2.25095821E-06 -1.59671412E-05  6.55667105E-06  4.51674084E-06 -1.44532841E-05
 -1.12807057E-05  1.33237697E-05  1.19133539E-05 -1.04311284E-04 -1.50002167E-05
 -1.10978855E-04 -2.91377282E-05 -2.41001027E-05 -4.08765445E-05 -3.84555513E-06
 -4.57649914E-05 -1.34793486E-04  1.36866080E-05  3.38644614E-04  3.53971725E-04
 -5.43730430E-06  2.90216453E-07  1.35092890E-06 -1.35781310E-05  6.89176483E-07
  1.38378660E-05  2.18001328E-05 -1.25752645E-06 -4.26342966E-06 -3.96599618E-04
  2.50736382E-05  1.27311554E-05 -7.60828103E-05 -1.02501340E-05  9.10054665E-06
  5.80533764E-06  9.81286587E-07  1.60460816E-06 -6.99083850E-06  4.03865575E-06
 -2.84040563E-05 -9.28879499E-06 -5.69718226E-06  5.00944116E-05 -1.36192004E-05
 -1.02526029E-04  1.98917814E-05  1.34295786E-05  9.54628472E-05  6.62735903E-06
  5.51519856E-06 -7.99890539E-06 -5.12163655E-06  1.32471662E-05  1.63396232E-06
 -2.34249167E-05  3.16049854E-06 -1.20980561E-05  5.35917095E-05  8.72397018E-06
 -2.88335282E-05 -2.16964015E-06  1.77555550E-05 -4.30211748E-06  3.80778043E-06
  6.11223678E-05  6.04872875E-05 -2.59872823E-04 -1.64635664E-04 -3.56269825E-04
 -5.70878730E-06 -1.14765678E-06 -4.48159906E-06  2.22536453E-05 -4.65953599E-04
 -7.07371140E-05 -3.01036978E-05  2.29877262E-04  2.03307162E-05  2.24844699E-04
  4.62580999E-04  1.24191913E-04 -1.82216135E-05  8.39286153E-05  2.97776532E-05
  1.31202416E-05 -1.87784837E-07 -7.10027847E-07  1.10715927E-05  1.14893302E-05
 -2.82362272E-04 -9.88321330E-06  4.35941924E-05 -4.26408524E-04 -1.96253147E-04
  1.43519819E-04  8.18420988E-05 -6.35395370E-05  3.51900319E-04 -2.97680748E-05
  1.10082829E-05 -3.60610063E-05  1.61789849E-04  1.15666010E-06  1.08900813E-05
 -1.29235723E-04  1.86500540E-04 -8.95119104E-06 -2.13083901E-05  8.82243959E-05
  2.32712652E-05 -2.37452785E-05 -7.91795638E-05  4.02922943E-05  4.39779944E-04
  1.67919155E-03 -9.04684046E-04 -4.43310795E-05 -1.99398948E-04  5.90114327E-05
 -1.82736702E-04 -7.29046552E-04 -5.16307083E-05 -6.75593868E-04 -3.87996240E-04
 -2.75844173E-04  4.05617738E-04 -3.66779555E-05 -4.31292032E-05 -5.34786678E-05
  1.54437772E-05 -4.66837782E-05  9.40417271E-05  5.20409455E-04  3.04842354E-05
  1.95053467E-04  5.70987160E-05 -8.23248156E-05 -1.30500880E-04 -1.00582274E-04
  2.31079981E-03  1.57597203E-03 -2.05497194E-05  3.75033850E-05 -9.23365510E-06
 -1.14638693E-04  5.91407481E-04  2.80948315E-05 -7.32500702E-04  2.39013508E-03
 -1.96813703E-05 -3.56424681E-04  6.95047211E-04 -1.28793412E-04 -3.19603969E-05
 -4.39897811E-06 -9.68844597E-06 -4.80345994E-05 -3.15401439E-05 -1.54769952E-04
  1.92720585E-05  7.14182608E-05 -2.55747677E-04 -7.25218340E-05 -2.75921047E-04
 -1.42415681E-04  2.33475445E-04 -7.24735102E-04 -5.95242074E-05 -4.59485355E-06
  1.38506703E-05 -3.44533357E-05  1.68708587E-05 -1.14635563E-05  3.80828250E-05
 -3.11871716E-05  2.37269844E-05  8.85597440E-06  5.57762289E-05 -4.62002811E-05
  1.24454328E-04 -3.71348397E-05  5.23649868E-05 -3.16482880E-06 -4.42749980E-05
 -1.18616212E-04  2.50106276E-05  1.40463839E-04  3.75923897E-04  1.57041568E-06
  1.73187608E-06 -7.94137968E-07  5.10744545E-05  9.54331784E-06 -1.14839719E-05
 -1.67164378E-06 -5.34930592E-06  2.43001454E-06 -3.44689905E-04 -2.21512437E-06
  7.54431808E-05 -1.47851267E-04  5.76616197E-05 -2.48200956E-05  2.13231298E-06
  4.03576241E-06  3.14593213E-06 -1.20505389E-05 -3.18293542E-06 -3.04464872E-06
 -1.57210998E-05 -1.24184165E-05  3.36418441E-05  5.29007625E-06 -9.91103717E-05
 -3.17962626E-05  2.66657701E-05  1.30288474E-04 -1.73289724E-05 -5.36583822E-09