 Entering Gaussian System, Link 0=g16
 Input=clhocl_15_opt.gjf
 Output=clhocl_15_opt.log
 Initial command:
 /sw/contrib/gaussian/g16/B01/g16/l1.exe "/scr/Gau-448999.inp" -scrdir="/scr/"
 Entering Link 1 = /sw/contrib/gaussian/g16/B01/g16/l1.exe PID=    449000.
  
 Copyright (c) 1988-2017, Gaussian, Inc.  All Rights Reserved.
  
 This is part of the Gaussian(R) 16 program.  It is based on
 the Gaussian(R) 09 system (copyright 2009, Gaussian, Inc.),
 the Gaussian(R) 03 system (copyright 2003, Gaussian, Inc.),
 the Gaussian(R) 98 system (copyright 1998, Gaussian, Inc.),
 the Gaussian(R) 94 system (copyright 1995, Gaussian, Inc.),
 the Gaussian 92(TM) system (copyright 1992, Gaussian, Inc.),
 the Gaussian 90(TM) system (copyright 1990, Gaussian, Inc.),
 the Gaussian 88(TM) system (copyright 1988, Gaussian, Inc.),
 the Gaussian 86(TM) system (copyright 1986, Carnegie Mellon
 University), and the Gaussian 82(TM) system (copyright 1983,
 Carnegie Mellon University). Gaussian is a federally registered
 trademark of Gaussian, Inc.
  
 This software contains proprietary and confidential information,
 including trade secrets, belonging to Gaussian, Inc.
  
 This software is provided under written license and may be
 used, copied, transmitted, or stored only in accord with that
 written license.
  
 The following legend is applicable only to US Government
 contracts under FAR:
  
                    RESTRICTED RIGHTS LEGEND
  
 Use, reproduction and disclosure by the US Government is
 subject to restrictions as set forth in subparagraphs (a)
 and (c) of the Commercial Computer Software - Restricted
 Rights clause in FAR 52.227-19.
  
 Gaussian, Inc.
 340 Quinnipiac St., Bldg. 40, Wallingford CT 06492
  
  
 ---------------------------------------------------------------
 Warning -- This program may not be used in any manner that
 competes with the business of Gaussian, Inc. or will provide
 assistance to any competitor of Gaussian, Inc.  The licensee
 of this program is prohibited from giving any competitor of
 Gaussian, Inc. access to this program.  By using this program,
 the user acknowledges that Gaussian, Inc. is engaged in the
 business of creating and licensing software in the field of
 computational chemistry and represents and warrants to the
 licensee that it is not a competitor of Gaussian, Inc. and that
 it will not use this program in any manner prohibited above.
 ---------------------------------------------------------------
  

 Cite this work as:
 Gaussian 16, Revision B.01,
 M. J. Frisch, G. W. Trucks, H. B. Schlegel, G. E. Scuseria, 
 M. A. Robb, J. R. Cheeseman, G. Scalmani, V. Barone, 
 G. A. Petersson, H. Nakatsuji, X. Li, M. Caricato, A. V. Marenich, 
 J. Bloino, B. G. Janesko, R. Gomperts, B. Mennucci, H. P. Hratchian, 
 J. V. Ortiz, A. F. Izmaylov, J. L. Sonnenberg, D. Williams-Young, 
 F. Ding, F. Lipparini, F. Egidi, J. Goings, B. Peng, A. Petrone, 
 T. Henderson, D. Ranasinghe, V. G. Zakrzewski, J. Gao, N. Rega, 
 G. Zheng, W. Liang, M. Hada, M. Ehara, K. Toyota, R. Fukuda, 
 J. Hasegawa, M. Ishida, T. Nakajima, Y. Honda, O. Kitao, H. Nakai, 
 T. Vreven, K. Throssell, J. A. Montgomery, Jr., J. E. Peralta, 
 F. Ogliaro, M. J. Bearpark, J. J. Heyd, E. N. Brothers, K. N. Kudin, 
 V. N. Staroverov, T. A. Keith, R. Kobayashi, J. Normand, 
 K. Raghavachari, A. P. Rendell, J. C. Burant, S. S. Iyengar, 
 J. Tomasi, M. Cossi, J. M. Millam, M. Klene, C. Adamo, R. Cammi, 
 J. W. Ochterski, R. L. Martin, K. Morokuma, O. Farkas, 
 J. B. Foresman, and D. J. Fox, Gaussian, Inc., Wallingford CT, 2016.
 
 ******************************************
 Gaussian 16:  ES64L-G16RevB.01 20-Dec-2017
                15-Sep-2021 
 ******************************************
 %nproc=28
 Will use up to   28 processors via shared memory.
 %mem=120GB
 %chk=/gscratch/ilahie/mccoygrp/coire_hocl/clhocl/clhocl_15_opt.chk
 -------------------------------------------------
 #p opt=(z-matrix) mp2/aug-cc-pvtz density=current
 -------------------------------------------------
 1/10=7,18=40,38=1/1,3;
 2/12=2,17=6,18=5,29=3,40=1/2;
 3/5=16,6=1,7=10,11=9,25=1,30=1,71=1/1,2,3;
 4//1;
 5/5=2,38=5/2;
 8/6=4,10=1/1;
 9/15=2,16=-3/6;
 10/5=1/2;
 6/7=2,8=2,9=2,10=2,22=-1/1;
 7/12=2,29=1/1,2,3,16;
 1/10=7,18=40/3(2);
 2/29=3/2;
 99//99;
 2/29=3/2;
 3/5=16,6=1,7=10,11=9,25=1,30=1,71=1/1,2,3;
 4/5=5,16=3,69=1/1;
 5/5=2,38=5/2;
 8/6=4,10=1/1;
 9/15=2,16=-3/6;
 10/5=1/2;
 7/12=2/1,2,3,16;
 1/18=40/3(-8);
 2/29=3/2;
 6/7=2,8=2,9=2,10=2,22=-1/1;
 99/9=10/99;
 Leave Link    1 at Wed Sep 15 11:51:39 2021, MaxMem= 16106127360 cpu:               3.4 elap:               0.1
 (Enter /sw/contrib/gaussian/g16/B01/g16/l101.exe)
 -----
 title
 -----
 Symbolic Z-matrix:
 Charge = -1 Multiplicity = 1
 O
 X                    1     10. 
 Cl                   1    r1       2     90. 
 Cl                   1    r2       2     90.      3    a1       0
 H                    1    r3       2    oop      3    a1       0
       Variables:
  r1                    1.685                    
  r2                    3.07067                  
  r3                    1.01773                  
  a1                  103.50791                  
  OOP                  75.                       
 
 ITRead=  0  0  0  0
 MicOpt= -1 -1 -1 -1
 NAtoms=      4 NQM=        4 NQMF=       0 NMMI=      0 NMMIF=      0
                NMic=       0 NMicF=      0.
                    Isotopes and Nuclear Properties:
 (Nuclear quadrupole moments (NQMom) in fm**2, nuclear magnetic moments (NMagM)
  in nuclear magnetons)

  Atom         1           2           3           4
 IAtWgt=          16          35          35           1
 AtmWgt=  15.9949146  34.9688527  34.9688527   1.0078250
 NucSpn=           0           3           3           1
 AtZEff=  -0.0000000  -0.0000000  -0.0000000  -0.0000000
 NQMom=    0.0000000  -8.1650000  -8.1650000   0.0000000
 NMagM=    0.0000000   0.8218740   0.8218740   2.7928460
 AtZNuc=   8.0000000  17.0000000  17.0000000   1.0000000
 Leave Link  101 at Wed Sep 15 11:51:39 2021, MaxMem= 16106127360 cpu:               2.5 elap:               0.1
 (Enter /sw/contrib/gaussian/g16/B01/g16/l103.exe)

 GradGradGradGradGradGradGradGradGradGradGradGradGradGradGradGradGradGrad
 Berny optimization.
 Initialization pass.
                       ----------------------------
                       !    Initial Parameters    !
                       ! (Angstroms and Degrees)  !
 ----------------------                            ----------------------
 !      Name          Value   Derivative information (Atomic Units)     !
 ------------------------------------------------------------------------
 !       r1          1.685    estimate D2E/DX2                          !
 !       r2          3.0707   estimate D2E/DX2                          !
 !       r3          1.0177   estimate D2E/DX2                          !
 !       a1        103.5079   estimate D2E/DX2                          !
 !       OOP        75.0      estimate D2E/DX2                          !
 ------------------------------------------------------------------------
 Trust Radius=3.00D-01 FncErr=1.00D-07 GrdErr=1.00D-07 EigMax=2.50D+02 EigMin=1.00D-04
 Number of steps in this run=     20 maximum allowed number of steps=    100.
 GradGradGradGradGradGradGradGradGradGradGradGradGradGradGradGradGradGrad

 Leave Link  103 at Wed Sep 15 11:51:39 2021, MaxMem= 16106127360 cpu:               1.3 elap:               0.1
 (Enter /sw/contrib/gaussian/g16/B01/g16/l202.exe)
 ---------------------------------------------------------------------------------------------------
                            Z-MATRIX (ANGSTROMS AND DEGREES)
   CD    Cent   Atom    N1       Length/X        N2       Alpha/Y        N3        Beta/Z          J
 ---------------------------------------------------------------------------------------------------
      1      1  O 
      2         X        1  10.000000(     1)
      3      2  Cl       1   1.685000(     2)      2   90.000(     5)
      4      3  Cl       1   3.070672(     3)      2   90.000(     6)      3  103.508(     8)      0
      5      4  H        1   1.017728(     4)      2   75.000(     7)      3  103.508(     9)      0
 ---------------------------------------------------------------------------------------------------
                         Z-Matrix orientation:                         
 ---------------------------------------------------------------------
 Center     Atomic      Atomic             Coordinates (Angstroms)
 Number     Number       Type             X           Y           Z
 ---------------------------------------------------------------------
      1          8           0        0.000000    0.000000    0.000000
      2         -1           0        0.000000    0.000000   10.000000
      3         17           0        1.685000    0.000000    0.000000
      4         17           0       -0.717246   -2.985731    0.000000
      5          1           0       -0.229620   -0.955856    0.263407
 ---------------------------------------------------------------------
                    Distance matrix (angstroms):
                    1          2          3          4          5
     1  O    0.000000
     2  X   10.000000   0.000000
     3  Cl   1.685000  10.140968   0.000000
     4  Cl   3.070672  10.460833   3.832150   0.000000
     5  H    1.017728   9.786093   2.156111   2.104175   0.000000
 Stoichiometry    Cl2HO(1-)
 Framework group  C1[X(Cl2HO)]
 Deg. of freedom     6
 Full point group                 C1      NOp   1
 Largest Abelian subgroup         C1      NOp   1
 Largest concise Abelian subgroup C1      NOp   1
                         Standard orientation:                         
 ---------------------------------------------------------------------
 Center     Atomic      Atomic             Coordinates (Angstroms)
 Number     Number       Type             X           Y           Z
 ---------------------------------------------------------------------
      1          8           0        0.762672    1.003283   -0.021129
      2         17           0        1.737516   -0.370927    0.000033
      3         17           0       -2.087603   -0.138947   -0.004650
      4          1           0       -0.149899    0.641607    0.247523
 ---------------------------------------------------------------------
 Rotational constants (GHZ):          22.9142724           1.8902503           1.7470200
 Leave Link  202 at Wed Sep 15 11:51:39 2021, MaxMem= 16106127360 cpu:               0.8 elap:               0.0
 (Enter /sw/contrib/gaussian/g16/B01/g16/l301.exe)
 Standard basis: Aug-CC-pVTZ (5D, 7F)
 Ernie: Thresh=  0.10000D-02 Tol=  0.10000D-05 Strict=F.
 Ernie:  29 primitive shells out of 169 were deleted.
 There are   198 symmetry adapted cartesian basis functions of A   symmetry.
 There are   169 symmetry adapted basis functions of A   symmetry.
   169 basis functions,   327 primitive gaussians,   198 cartesian basis functions
    22 alpha electrons       22 beta electrons
       nuclear repulsion energy       118.6632918619 Hartrees.
 IExCor=    0 DFT=F Ex=HF Corr=None ExCW=0 ScaHFX=  1.000000
 ScaDFX=  1.000000  1.000000  1.000000  1.000000 ScalE2=  1.000000  1.000000
 IRadAn=      5 IRanWt=     -1 IRanGd=            0 ICorTp=0 IEmpDi=  4
 NAtoms=    4 NActive=    4 NUniq=    4 SFac= 1.00D+00 NAtFMM=   60 NAOKFM=F Big=F
 Integral buffers will be    131072 words long.
 Raffenetti 1 integral format.
 Two-electron integral symmetry is turned on.
 Leave Link  301 at Wed Sep 15 11:51:39 2021, MaxMem= 16106127360 cpu:               1.4 elap:               0.1
 (Enter /sw/contrib/gaussian/g16/B01/g16/l302.exe)
 NPDir=0 NMtPBC=     1 NCelOv=     1 NCel=       1 NClECP=     1 NCelD=      1
         NCelK=      1 NCelE2=     1 NClLst=     1 CellRange=     0.0.
 One-electron integrals computed using PRISM.
 One-electron integral symmetry used in STVInt
 NBasis=   169 RedAO= T EigKep=  2.66D-04  NBF=   169
 NBsUse=   169 1.00D-06 EigRej= -1.00D+00 NBFU=   169
 Leave Link  302 at Wed Sep 15 11:51:40 2021, MaxMem= 16106127360 cpu:               5.3 elap:               0.2
 (Enter /sw/contrib/gaussian/g16/B01/g16/l303.exe)
 DipDrv:  MaxL=1.
 Leave Link  303 at Wed Sep 15 11:51:40 2021, MaxMem= 16106127360 cpu:               0.7 elap:               0.0
 (Enter /sw/contrib/gaussian/g16/B01/g16/l401.exe)
 ExpMin= 2.53D-02 ExpMax= 4.56D+05 ExpMxC= 1.44D+03 IAcc=3 IRadAn=         5 AccDes= 0.00D+00
 Harris functional with IExCor=  205 and IRadAn=       5 diagonalized for initial guess.
 HarFok:  IExCor=  205 AccDes= 0.00D+00 IRadAn=         5 IDoV= 1 UseB2=F ITyADJ=14
 ICtDFT=  3500011 ScaDFX=  1.000000  1.000000  1.000000  1.000000
 FoFCou: FMM=F IPFlag=           0 FMFlag=      100000 FMFlg1=           0
         NFxFlg=           0 DoJE=T BraDBF=F KetDBF=T FulRan=T
         wScrn=  0.000000 ICntrl=       500 IOpCl=  0 I1Cent=   200000004 NGrid=           0
         NMat0=    1 NMatS0=      1 NMatT0=    0 NMatD0=    1 NMtDS0=    0 NMtDT0=    0
 Petite list used in FoFCou.
 Harris En= -993.817918338763    
 JPrj=0 DoOrth=F DoCkMO=F.
 Leave Link  401 at Wed Sep 15 11:51:40 2021, MaxMem= 16106127360 cpu:               6.7 elap:               0.3
 (Enter /sw/contrib/gaussian/g16/B01/g16/l502.exe)
 Keep R1 ints in memory in canonical form, NReq=117118192.
 FoFCou: FMM=F IPFlag=           0 FMFlag=           0 FMFlg1=           0
         NFxFlg=           0 DoJE=F BraDBF=F KetDBF=F FulRan=T
         wScrn=  0.000000 ICntrl=       600 IOpCl=  0 I1Cent=           0 NGrid=           0
         NMat0=    1 NMatS0=  14365 NMatT0=    0 NMatD0=    1 NMtDS0=    0 NMtDT0=    0
 Symmetry not used in FoFCou.
 Two-electron integral symmetry not used.
 Closed shell SCF:
 Using DIIS extrapolation, IDIIS=  1040.
 NGot= 16106127360 LenX= 16002857927 LenY= 16002818282
 Requested convergence on RMS density matrix=1.00D-08 within 128 cycles.
 Requested convergence on MAX density matrix=1.00D-06.
 Requested convergence on             energy=1.00D-06.
 No special actions if energy rises.

 Cycle   1  Pass 1  IDiag  1:
 E= -994.396555868183    
 DIIS: error= 2.74D-02 at cycle   1 NSaved=   1.
 NSaved= 1 IEnMin= 1 EnMin= -994.396555868183     IErMin= 1 ErrMin= 2.74D-02
 ErrMax= 2.74D-02  0.00D+00 EMaxC= 1.00D-01 BMatC= 4.18D-01 BMatP= 4.18D-01
 IDIUse=3 WtCom= 7.26D-01 WtEn= 2.74D-01
 Coeff-Com:  0.100D+01
 Coeff-En:   0.100D+01
 Coeff:      0.100D+01
 Gap=     0.554 Goal=   None    Shift=    0.000
 GapD=    0.554 DampG=2.000 DampE=0.500 DampFc=1.0000 IDamp=-1.
 RMSDP=2.10D-03 MaxDP=7.07D-02              OVMax= 1.18D-01

 Cycle   2  Pass 1  IDiag  1:
 E= -994.490120348212     Delta-E=       -0.093564480029 Rises=F Damp=F
 DIIS: error= 2.06D-02 at cycle   2 NSaved=   2.
 NSaved= 2 IEnMin= 2 EnMin= -994.490120348212     IErMin= 2 ErrMin= 2.06D-02
 ErrMax= 2.06D-02  0.00D+00 EMaxC= 1.00D-01 BMatC= 4.60D-02 BMatP= 4.18D-01
 IDIUse=3 WtCom= 7.94D-01 WtEn= 2.06D-01
 Coeff-Com:  0.160D+00 0.840D+00
 Coeff-En:   0.000D+00 0.100D+01
 Coeff:      0.127D+00 0.873D+00
 Gap=     0.366 Goal=   None    Shift=    0.000
 RMSDP=9.54D-04 MaxDP=3.86D-02 DE=-9.36D-02 OVMax= 7.65D-02

 Cycle   3  Pass 1  IDiag  1:
 E= -994.512672897792     Delta-E=       -0.022552549580 Rises=F Damp=F
 DIIS: error= 9.47D-03 at cycle   3 NSaved=   3.
 NSaved= 3 IEnMin= 3 EnMin= -994.512672897792     IErMin= 3 ErrMin= 9.47D-03
 ErrMax= 9.47D-03  0.00D+00 EMaxC= 1.00D-01 BMatC= 1.39D-02 BMatP= 4.60D-02
 IDIUse=3 WtCom= 9.05D-01 WtEn= 9.47D-02
 Coeff-Com: -0.149D-01 0.345D+00 0.670D+00
 Coeff-En:   0.000D+00 0.137D+00 0.863D+00
 Coeff:     -0.135D-01 0.326D+00 0.688D+00
 Gap=     0.353 Goal=   None    Shift=    0.000
 RMSDP=3.55D-04 MaxDP=1.25D-02 DE=-2.26D-02 OVMax= 3.54D-02

 Cycle   4  Pass 1  IDiag  1:
 E= -994.522100205906     Delta-E=       -0.009427308114 Rises=F Damp=F
 DIIS: error= 1.41D-03 at cycle   4 NSaved=   4.
 NSaved= 4 IEnMin= 4 EnMin= -994.522100205906     IErMin= 4 ErrMin= 1.41D-03
 ErrMax= 1.41D-03  0.00D+00 EMaxC= 1.00D-01 BMatC= 1.79D-04 BMatP= 1.39D-02
 IDIUse=3 WtCom= 9.86D-01 WtEn= 1.41D-02
 Coeff-Com: -0.418D-02 0.262D-01 0.119D+00 0.859D+00
 Coeff-En:   0.000D+00 0.000D+00 0.000D+00 0.100D+01
 Coeff:     -0.412D-02 0.258D-01 0.117D+00 0.861D+00
 Gap=     0.346 Goal=   None    Shift=    0.000
 RMSDP=5.41D-05 MaxDP=1.35D-03 DE=-9.43D-03 OVMax= 3.02D-03

 Cycle   5  Pass 1  IDiag  1:
 E= -994.522279600818     Delta-E=       -0.000179394912 Rises=F Damp=F
 DIIS: error= 2.62D-04 at cycle   5 NSaved=   5.
 NSaved= 5 IEnMin= 5 EnMin= -994.522279600818     IErMin= 5 ErrMin= 2.62D-04
 ErrMax= 2.62D-04  0.00D+00 EMaxC= 1.00D-01 BMatC= 1.48D-05 BMatP= 1.79D-04
 IDIUse=3 WtCom= 9.97D-01 WtEn= 2.62D-03
 Coeff-Com:  0.949D-03-0.393D-01-0.692D-01 0.933D-02 0.110D+01
 Coeff-En:   0.000D+00 0.000D+00 0.000D+00 0.000D+00 0.100D+01
 Coeff:      0.946D-03-0.392D-01-0.690D-01 0.930D-02 0.110D+01
 Gap=     0.348 Goal=   None    Shift=    0.000
 RMSDP=3.10D-05 MaxDP=7.81D-04 DE=-1.79D-04 OVMax= 3.00D-03

 Cycle   6  Pass 1  IDiag  1:
 E= -994.522316536450     Delta-E=       -0.000036935632 Rises=F Damp=F
 DIIS: error= 1.37D-04 at cycle   6 NSaved=   6.
 NSaved= 6 IEnMin= 6 EnMin= -994.522316536450     IErMin= 6 ErrMin= 1.37D-04
 ErrMax= 1.37D-04  0.00D+00 EMaxC= 1.00D-01 BMatC= 1.90D-06 BMatP= 1.48D-05
 IDIUse=3 WtCom= 9.99D-01 WtEn= 1.37D-03
 Coeff-Com:  0.264D-03 0.839D-02 0.150D-01-0.731D-01-0.411D+00 0.146D+01
 Coeff-En:   0.000D+00 0.000D+00 0.000D+00 0.000D+00 0.000D+00 0.100D+01
 Coeff:      0.264D-03 0.838D-02 0.150D-01-0.730D-01-0.410D+00 0.146D+01
 Gap=     0.348 Goal=   None    Shift=    0.000
 RMSDP=1.58D-05 MaxDP=3.90D-04 DE=-3.69D-05 OVMax= 1.54D-03

 Cycle   7  Pass 1  IDiag  1:
 E= -994.522323258626     Delta-E=       -0.000006722177 Rises=F Damp=F
 DIIS: error= 3.17D-05 at cycle   7 NSaved=   7.
 NSaved= 7 IEnMin= 7 EnMin= -994.522323258626     IErMin= 7 ErrMin= 3.17D-05
 ErrMax= 3.17D-05  0.00D+00 EMaxC= 1.00D-01 BMatC= 1.18D-07 BMatP= 1.90D-06
 IDIUse=1 WtCom= 1.00D+00 WtEn= 0.00D+00
 Coeff-Com: -0.180D-03-0.686D-03-0.497D-03 0.277D-01 0.860D-01-0.601D+00
 Coeff-Com:  0.149D+01
 Coeff:     -0.180D-03-0.686D-03-0.497D-03 0.277D-01 0.860D-01-0.601D+00
 Coeff:      0.149D+01
 Gap=     0.348 Goal=   None    Shift=    0.000
 RMSDP=4.92D-06 MaxDP=1.45D-04 DE=-6.72D-06 OVMax= 4.82D-04

 Cycle   8  Pass 1  IDiag  1:
 E= -994.522323796258     Delta-E=       -0.000000537631 Rises=F Damp=F
 DIIS: error= 6.62D-06 at cycle   8 NSaved=   8.
 NSaved= 8 IEnMin= 8 EnMin= -994.522323796258     IErMin= 8 ErrMin= 6.62D-06
 ErrMax= 6.62D-06  0.00D+00 EMaxC= 1.00D-01 BMatC= 8.56D-09 BMatP= 1.18D-07
 IDIUse=1 WtCom= 1.00D+00 WtEn= 0.00D+00
 Coeff-Com:  0.909D-05-0.716D-03-0.112D-02 0.204D-02 0.216D-01-0.441D-01
 Coeff-Com: -0.137D+00 0.116D+01
 Coeff:      0.909D-05-0.716D-03-0.112D-02 0.204D-02 0.216D-01-0.441D-01
 Coeff:     -0.137D+00 0.116D+01
 Gap=     0.348 Goal=   None    Shift=    0.000
 RMSDP=1.08D-06 MaxDP=2.95D-05 DE=-5.38D-07 OVMax= 1.23D-04

 Cycle   9  Pass 1  IDiag  1:
 E= -994.522323827167     Delta-E=       -0.000000030909 Rises=F Damp=F
 DIIS: error= 3.46D-06 at cycle   9 NSaved=   9.
 NSaved= 9 IEnMin= 9 EnMin= -994.522323827167     IErMin= 9 ErrMin= 3.46D-06
 ErrMax= 3.46D-06  0.00D+00 EMaxC= 1.00D-01 BMatC= 1.26D-09 BMatP= 8.56D-09
 IDIUse=1 WtCom= 1.00D+00 WtEn= 0.00D+00
 Coeff-Com:  0.176D-04 0.229D-03 0.354D-03-0.379D-02-0.159D-01 0.870D-01
 Coeff-Com: -0.164D+00-0.227D+00 0.132D+01
 Coeff:      0.176D-04 0.229D-03 0.354D-03-0.379D-02-0.159D-01 0.870D-01
 Coeff:     -0.164D+00-0.227D+00 0.132D+01
 Gap=     0.348 Goal=   None    Shift=    0.000
 RMSDP=5.50D-07 MaxDP=1.29D-05 DE=-3.09D-08 OVMax= 6.59D-05

 Cycle  10  Pass 1  IDiag  1:
 E= -994.522323833389     Delta-E=       -0.000000006222 Rises=F Damp=F
 DIIS: error= 1.67D-06 at cycle  10 NSaved=  10.
 NSaved=10 IEnMin=10 EnMin= -994.522323833389     IErMin=10 ErrMin= 1.67D-06
 ErrMax= 1.67D-06  0.00D+00 EMaxC= 1.00D-01 BMatC= 1.95D-10 BMatP= 1.26D-09
 IDIUse=1 WtCom= 1.00D+00 WtEn= 0.00D+00
 Coeff-Com: -0.313D-05 0.374D-04 0.144D-04 0.587D-03 0.116D-02-0.142D-01
 Coeff-Com:  0.592D-01-0.151D+00-0.225D+00 0.133D+01
 Coeff:     -0.313D-05 0.374D-04 0.144D-04 0.587D-03 0.116D-02-0.142D-01
 Coeff:      0.592D-01-0.151D+00-0.225D+00 0.133D+01
 Gap=     0.348 Goal=   None    Shift=    0.000
 RMSDP=2.41D-07 MaxDP=6.42D-06 DE=-6.22D-09 OVMax= 2.87D-05

 Cycle  11  Pass 1  IDiag  1:
 E= -994.522323834347     Delta-E=       -0.000000000958 Rises=F Damp=F
 DIIS: error= 5.04D-07 at cycle  11 NSaved=  11.
 NSaved=11 IEnMin=11 EnMin= -994.522323834347     IErMin=11 ErrMin= 5.04D-07
 ErrMax= 5.04D-07  0.00D+00 EMaxC= 1.00D-01 BMatC= 1.50D-11 BMatP= 1.95D-10
 IDIUse=1 WtCom= 1.00D+00 WtEn= 0.00D+00
 Coeff-Com: -0.262D-05-0.230D-04-0.249D-04 0.413D-03 0.149D-02-0.823D-02
 Coeff-Com:  0.121D-01 0.420D-01-0.100D+00-0.262D+00 0.131D+01
 Coeff:     -0.262D-05-0.230D-04-0.249D-04 0.413D-03 0.149D-02-0.823D-02
 Coeff:      0.121D-01 0.420D-01-0.100D+00-0.262D+00 0.131D+01
 Gap=     0.348 Goal=   None    Shift=    0.000
 RMSDP=7.29D-08 MaxDP=2.04D-06 DE=-9.58D-10 OVMax= 8.37D-06

 Cycle  12  Pass 1  IDiag  1:
 E= -994.522323834425     Delta-E=       -0.000000000078 Rises=F Damp=F
 DIIS: error= 9.49D-08 at cycle  12 NSaved=  12.
 NSaved=12 IEnMin=12 EnMin= -994.522323834425     IErMin=12 ErrMin= 9.49D-08
 ErrMax= 9.49D-08  0.00D+00 EMaxC= 1.00D-01 BMatC= 7.32D-13 BMatP= 1.50D-11
 IDIUse=1 WtCom= 1.00D+00 WtEn= 0.00D+00
 Coeff-Com:  0.626D-06 0.229D-07 0.445D-06-0.912D-04-0.263D-03 0.192D-02
 Coeff-Com: -0.491D-02 0.146D-02 0.291D-01-0.338D-01-0.200D+00 0.121D+01
 Coeff:      0.626D-06 0.229D-07 0.445D-06-0.912D-04-0.263D-03 0.192D-02
 Coeff:     -0.491D-02 0.146D-02 0.291D-01-0.338D-01-0.200D+00 0.121D+01
 Gap=     0.348 Goal=   None    Shift=    0.000
 RMSDP=1.28D-08 MaxDP=2.93D-07 DE=-7.78D-11 OVMax= 1.14D-06

 Cycle  13  Pass 1  IDiag  1:
 E= -994.522323834430     Delta-E=       -0.000000000005 Rises=F Damp=F
 DIIS: error= 2.14D-08 at cycle  13 NSaved=  13.
 NSaved=13 IEnMin=13 EnMin= -994.522323834430     IErMin=13 ErrMin= 2.14D-08
 ErrMax= 2.14D-08  0.00D+00 EMaxC= 1.00D-01 BMatC= 8.36D-14 BMatP= 7.32D-13
 IDIUse=1 WtCom= 1.00D+00 WtEn= 0.00D+00
 Coeff-Com:  0.179D-06 0.213D-05 0.188D-05-0.286D-04-0.109D-03 0.569D-03
 Coeff-Com: -0.613D-03-0.436D-02 0.719D-02 0.286D-01-0.118D+00-0.753D-01
 Coeff-Com:  0.116D+01
 Coeff:      0.179D-06 0.213D-05 0.188D-05-0.286D-04-0.109D-03 0.569D-03
 Coeff:     -0.613D-03-0.436D-02 0.719D-02 0.286D-01-0.118D+00-0.753D-01
 Coeff:      0.116D+01
 Gap=     0.348 Goal=   None    Shift=    0.000
 RMSDP=4.13D-09 MaxDP=8.46D-08 DE=-4.77D-12 OVMax= 3.42D-07

 SCF Done:  E(RHF) =  -994.522323834     A.U. after   13 cycles
            NFock= 13  Conv=0.41D-08     -V/T= 2.0002
 KE= 9.943076459290D+02 PE=-2.614861898467D+03 EE= 5.073686368416D+02
 Leave Link  502 at Wed Sep 15 11:51:43 2021, MaxMem= 16106127360 cpu:              20.6 elap:               2.9
 (Enter /sw/contrib/gaussian/g16/B01/g16/l801.exe)
 ExpMin= 2.53D-02 ExpMax= 4.56D+05 ExpMxC= 1.44D+03 IAcc=3 IRadAn=         5 AccDes= 0.00D+00
 HarFok:  IExCor=  205 AccDes= 0.00D+00 IRadAn=         5 IDoV=-2 UseB2=F ITyADJ=14
 ICtDFT= 12500011 ScaDFX=  1.000000  1.000000  1.000000  1.000000
 Largest valence mixing into a core orbital is  4.47D-04
 Largest core mixing into a valence orbital is  1.75D-04
 Range of M.O.s used for correlation:    12   169
 NBasis=   169 NAE=    22 NBE=    22 NFC=    11 NFV=     0
 NROrb=    158 NOA=    11 NOB=    11 NVA=   147 NVB=   147

 **** Warning!!: The largest alpha MO coefficient is  0.13627568D+02

 Leave Link  801 at Wed Sep 15 11:51:43 2021, MaxMem= 16106127360 cpu:               1.3 elap:               0.1
 (Enter /sw/contrib/gaussian/g16/B01/g16/l906.exe)
 Frozen-core derivative calculation, NFC=  11 NFV=   0.
 FulOut=F Deriv=T AODrv=T NAtomX=     4
   MMem=         144  MDisk=          11 MDiskD=          11
  W3Min=      736164 MinDsk=     1250177 NBas6D=         198
 NBas2D=       20187    NTT=       19701    LW2=     3500000
    MDV= 16105749574 MDiskM=      406660 NBas2p=       20007
 Fully direct method using O(ONN) memory.
 IMap=   1   2   3   4   5   6   7   8   9  10  11  12  13  14  15  16  17  18  19  20
 IMap=  21  22
 JobTyp=1 Pass  1:  I=  12 to  22 NPSUse= 28 ParTrn=T ParDer=T DoDerP=T.
 Spin components of T(2) and E(2):
     alpha-alpha T2 =       0.2917705067D-01 E2=     -0.8371587872D-01
     alpha-beta  T2 =       0.1597250053D+00 E2=     -0.4979537821D+00
     beta-beta   T2 =       0.2917705067D-01 E2=     -0.8371587872D-01
 The integrals were generated   1 times.
 ANorm=    0.1103666212D+01
 E2 =    -0.6653855395D+00 EUMP2 =    -0.99518770937392D+03
 Leave Link  906 at Wed Sep 15 11:51:53 2021, MaxMem= 16106127360 cpu:             285.4 elap:              10.2
 (Enter /sw/contrib/gaussian/g16/B01/g16/l1002.exe)
 Minotr:  Closed shell wavefunction.
          Computing MP2/KS-MP2 derivatives.
          Using Z-Vector for PSCF gradient.
          Skipping F1 and S1 gradient terms here.
          IDoAtm=1111
          Frozen-core window.
          Direct CPHF calculation.
          Differentiating once with respect to electric field.
                with respect to dipole field.
          Differentiating once with respect to nuclear coordinates.
          Requested convergence is 1.0D-10 RMS, and 1.0D-09 maximum.
          NewPWx=F KeepS1=T KeepF1=T KeepIn=T MapXYZ=F SortEE=F KeepMc=T.
 Keep R1 ints in memory in canonical form, NReq=117121599.
 FoFCou: FMM=F IPFlag=           0 FMFlag=           0 FMFlg1=           0
         NFxFlg=           0 DoJE=F BraDBF=F KetDBF=F FulRan=T
         wScrn=  0.000000 ICntrl=       600 IOpCl=  0 I1Cent=           0 NGrid=           0
         NMat0=    1 NMatS0=  14365 NMatT0=    0 NMatD0=    1 NMtDS0=    0 NMtDT0=    0
 Symmetry not used in FoFCou.
 Two-electron integral symmetry not used.
          MDV=   16106127360 using IRadAn=       5.
          Solving linear equations separately, MaxMat=       0.
          There are     1 degrees of freedom in the 1st order CPHF.  IDoFFX=0 NUNeed=     1.
 LinEq1:  Iter=  0 NonCon=     1 RMS=3.06D-03 Max=3.80D-02 NDo=     1
 AX will form     1 AO Fock derivatives at one time.
 LinEq1:  Iter=  1 NonCon=     1 RMS=3.82D-04 Max=4.70D-03 NDo=     1
 LinEq1:  Iter=  2 NonCon=     1 RMS=1.58D-04 Max=2.90D-03 NDo=     1
 LinEq1:  Iter=  3 NonCon=     1 RMS=6.21D-05 Max=8.88D-04 NDo=     1
 LinEq1:  Iter=  4 NonCon=     1 RMS=2.58D-05 Max=6.10D-04 NDo=     1
 LinEq1:  Iter=  5 NonCon=     1 RMS=6.07D-06 Max=8.54D-05 NDo=     1
 LinEq1:  Iter=  6 NonCon=     1 RMS=1.85D-06 Max=3.49D-05 NDo=     1
 LinEq1:  Iter=  7 NonCon=     1 RMS=5.54D-07 Max=1.23D-05 NDo=     1
 LinEq1:  Iter=  8 NonCon=     1 RMS=1.17D-07 Max=1.77D-06 NDo=     1
 LinEq1:  Iter=  9 NonCon=     1 RMS=2.57D-08 Max=2.87D-07 NDo=     1
 LinEq1:  Iter= 10 NonCon=     1 RMS=6.21D-09 Max=1.22D-07 NDo=     1
 LinEq1:  Iter= 11 NonCon=     1 RMS=1.58D-09 Max=3.12D-08 NDo=     1
 LinEq1:  Iter= 12 NonCon=     1 RMS=4.96D-10 Max=8.10D-09 NDo=     1
 LinEq1:  Iter= 13 NonCon=     1 RMS=1.14D-10 Max=1.35D-09 NDo=     1
 LinEq1:  Iter= 14 NonCon=     0 RMS=2.53D-11 Max=3.24D-10 NDo=     1
 Linear equations converged to 1.000D-10 1.000D-09 after    14 iterations.
 End of Minotr F.D. properties file   721 does not exist.
 End of Minotr F.D. properties file   722 does not exist.
 End of Minotr F.D. properties file   788 does not exist.
 Leave Link 1002 at Wed Sep 15 11:51:56 2021, MaxMem= 16106127360 cpu:              24.6 elap:               3.3
 (Enter /sw/contrib/gaussian/g16/B01/g16/l601.exe)
 Copying SCF densities to generalized density rwf, IOpCl= 0 IROHF=0.

 **********************************************************************

            Population analysis using the MP2 Density.

 **********************************************************************

 Orbital symmetries:
       Occupied  (A) (A) (A) (A) (A) (A) (A) (A) (A) (A) (A) (A)
                 (A) (A) (A) (A) (A) (A) (A) (A) (A) (A)
       Virtual   (A) (A) (A) (A) (A) (A) (A) (A) (A) (A) (A) (A)
                 (A) (A) (A) (A) (A) (A) (A) (A) (A) (A) (A) (A)
                 (A) (A) (A) (A) (A) (A) (A) (A) (A) (A) (A) (A)
                 (A) (A) (A) (A) (A) (A) (A) (A) (A) (A) (A) (A)
                 (A) (A) (A) (A) (A) (A) (A) (A) (A) (A) (A) (A)
                 (A) (A) (A) (A) (A) (A) (A) (A) (A) (A) (A) (A)
                 (A) (A) (A) (A) (A) (A) (A) (A) (A) (A) (A) (A)
                 (A) (A) (A) (A) (A) (A) (A) (A) (A) (A) (A) (A)
                 (A) (A) (A) (A) (A) (A) (A) (A) (A) (A) (A) (A)
                 (A) (A) (A) (A) (A) (A) (A) (A) (A) (A) (A) (A)
                 (A) (A) (A) (A) (A) (A) (A) (A) (A) (A) (A) (A)
                 (A) (A) (A) (A) (A) (A) (A) (A) (A) (A) (A) (A)
                 (A) (A) (A)
 The electronic state is 1-A.
 Alpha  occ. eigenvalues -- -104.73337-104.54264 -20.46681 -10.45287 -10.26698
 Alpha  occ. eigenvalues --   -7.92005  -7.91738  -7.91727  -7.73311  -7.73300
 Alpha  occ. eigenvalues --   -7.73299  -1.23057  -0.89701  -0.77725  -0.53980
 Alpha  occ. eigenvalues --   -0.44474  -0.43621  -0.30951  -0.28303  -0.19639
 Alpha  occ. eigenvalues --   -0.18886  -0.18865
 Alpha virt. eigenvalues --    0.15910   0.18230   0.22514   0.23178   0.26027
 Alpha virt. eigenvalues --    0.27341   0.27746   0.28698   0.31084   0.31448
 Alpha virt. eigenvalues --    0.33490   0.34723   0.39539   0.43218   0.45864
 Alpha virt. eigenvalues --    0.50095   0.51087   0.53907   0.55249   0.57311
 Alpha virt. eigenvalues --    0.57884   0.59517   0.60160   0.64825   0.66170
 Alpha virt. eigenvalues --    0.66795   0.67809   0.72998   0.76988   0.78110
 Alpha virt. eigenvalues --    0.84145   0.86771   0.89004   0.89540   0.90613
 Alpha virt. eigenvalues --    0.90884   0.96421   0.98107   1.01624   1.06682
 Alpha virt. eigenvalues --    1.07007   1.09266   1.09629   1.10056   1.13075
 Alpha virt. eigenvalues --    1.14635   1.17286   1.18793   1.19358   1.19567
 Alpha virt. eigenvalues --    1.20906   1.23068   1.26638   1.29799   1.31058
 Alpha virt. eigenvalues --    1.35033   1.38861   1.41501   1.43215   1.43450
 Alpha virt. eigenvalues --    1.46938   1.47962   1.51016   1.57542   1.61032
 Alpha virt. eigenvalues --    1.62900   1.66278   1.67343   1.68307   1.74203
 Alpha virt. eigenvalues --    1.80544   1.83368   1.84551   1.88094   1.92740
 Alpha virt. eigenvalues --    1.97328   2.23159   2.39417   2.46067   2.49790
 Alpha virt. eigenvalues --    2.51430   2.55133   2.59712   2.61852   2.64411
 Alpha virt. eigenvalues --    2.67612   2.70464   2.71621   2.71907   2.75006
 Alpha virt. eigenvalues --    2.76754   2.78623   2.80142   2.81743   2.89703
 Alpha virt. eigenvalues --    2.91079   2.91817   2.95682   3.05559   3.07034
 Alpha virt. eigenvalues --    3.08270   3.10397   3.19074   3.20874   3.21652
 Alpha virt. eigenvalues --    3.26019   3.29433   3.32685   3.33639   3.34381
 Alpha virt. eigenvalues --    3.36741   3.38746   3.40301   3.49854   3.50304
 Alpha virt. eigenvalues --    3.53141   3.54989   3.56364   3.61419   3.91749
 Alpha virt. eigenvalues --    4.17262   4.31506   4.46410   4.54343   4.56332
 Alpha virt. eigenvalues --    4.75733   4.97439   5.05372   5.32574   5.40154
 Alpha virt. eigenvalues --    5.65240   6.20934   6.51596   6.56748   6.86171
 Alpha virt. eigenvalues --    6.89941   6.91722   6.98861   7.28529   7.31872
 Alpha virt. eigenvalues --    7.34466   7.43324   7.53737   7.73540   7.78145
 Alpha virt. eigenvalues --    8.33485  14.30725
          Condensed to atoms (all electrons):
               1          2          3          4
     1  O    8.598188  -0.113407  -0.069675   0.057318
     2  Cl  -0.113407  17.050750   0.004375   0.000146
     3  Cl  -0.069675   0.004375  17.868033   0.075957
     4  H    0.057318   0.000146   0.075957   0.573601
 Mulliken charges:
               1
     1  O   -0.472423
     2  Cl   0.058136
     3  Cl  -0.878691
     4  H    0.292977
 Sum of Mulliken charges =  -1.00000
 Mulliken charges with hydrogens summed into heavy atoms:
               1
     1  O   -0.179445
     2  Cl   0.058136
     3  Cl  -0.878691
 Electronic spatial extent (au):  <R**2>=            601.8599
 Charge=             -1.0000 electrons
 Dipole moment (field-independent basis, Debye):
    X=              6.1507    Y=             -0.1919    Z=              0.2600  Tot=              6.1591
 Quadrupole moment (field-independent basis, Debye-Ang):
   XX=            -56.9572   YY=            -37.2887   ZZ=            -36.6684
   XY=             -2.8328   XZ=             -0.0328   YZ=              0.2470
 Traceless Quadrupole moment (field-independent basis, Debye-Ang):
   XX=            -13.3191   YY=              6.3494   ZZ=              6.9697
   XY=             -2.8328   XZ=             -0.0328   YZ=              0.2470
 Octapole moment (field-independent basis, Debye-Ang**2):
  XXX=             54.1194  YYY=              0.2334  ZZZ=             -0.2639  XYY=              7.0777
  XXY=              0.3344  XXZ=             -0.9913  XZZ=              6.5789  YZZ=              1.0587
  YYZ=             -0.0231  XYZ=             -0.2485
 Hexadecapole moment (field-independent basis, Debye-Ang**3):
 XXXX=           -823.1058 YYYY=            -98.7783 ZZZZ=            -50.5469 XXXY=            -10.6841
 XXXZ=              0.9049 YYYX=             -7.2261 YYYZ=             -0.1220 ZZZX=              0.1538
 ZZZY=              0.0464 XXYY=           -136.9556 XXZZ=           -134.6347 YYZZ=            -25.5022
 XXYZ=             -0.0435 YYXZ=             -0.1398 ZZXY=             -0.1512
 N-N= 1.186632918619D+02 E-N=-2.614937243037D+03  KE= 9.949737087088D+02
 No NMR shielding tensors so no spin-rotation constants.
 Leave Link  601 at Wed Sep 15 11:51:57 2021, MaxMem= 16106127360 cpu:               3.3 elap:               0.1
 (Enter /sw/contrib/gaussian/g16/B01/g16/l701.exe)
 ... and contract with generalized density number  2.
 Compute integral first derivatives.
 Leave Link  701 at Wed Sep 15 11:51:57 2021, MaxMem= 16106127360 cpu:               4.3 elap:               0.2
 (Enter /sw/contrib/gaussian/g16/B01/g16/l702.exe)
 L702 exits ... SP integral derivatives will be done elsewhere.
 Leave Link  702 at Wed Sep 15 11:51:57 2021, MaxMem= 16106127360 cpu:               1.4 elap:               0.1
 (Enter /sw/contrib/gaussian/g16/B01/g16/l703.exe)
 Integral derivatives from FoFJK, PRISM(SPDF).
 Compute integral first derivatives, UseDBF=F ICtDFT=           0.
 Calling FoFJK, ICntrl=  10002127 FMM=F ISym2X=0 I1Cent= 0 IOpClX= 0 NMat=1 NMatS=1 NMatT=0.
 FoFJK:  IHMeth= 1 ICntrl=10002127 DoSepK=F KAlg= 0 I1Cent=           0 FoldK=F
 IRaf=         0 NMat=       1 IRICut=       1 DoRegI=T DoRafI=F ISym2E= 0 IDoP0=0 IntGTp=1.
 FoFCou: FMM=F IPFlag=           0 FMFlag=      100000 FMFlg1=         800
         NFxFlg=           0 DoJE=F BraDBF=F KetDBF=F FulRan=T
         wScrn=  0.000000 ICntrl=  10002127 IOpCl=  0 I1Cent=           0 NGrid=           0
         NMat0=    1 NMatS0=      1 NMatT0=    0 NMatD0=    1 NMtDS0=    0 NMtDT0=    0
 Symmetry not used in FoFCou.
 Leave Link  703 at Wed Sep 15 11:51:58 2021, MaxMem= 16106127360 cpu:              34.5 elap:               1.3
 (Enter /sw/contrib/gaussian/g16/B01/g16/l716.exe)
 Dipole        = 2.41985295D+00-7.54881788D-02 1.02282597D-01
 ***** Axes restored to original set *****
 -------------------------------------------------------------------
 Center     Atomic                   Forces (Hartrees/Bohr)
 Number     Number              X              Y              Z
 -------------------------------------------------------------------
      1        8          -0.002800117   -0.007901156    0.008434342
      2       17           0.000441220    0.000239589    0.000150305
      3       17           0.001168702    0.006709182    0.003918874
      4        1           0.001190194    0.000952385   -0.012503520
 -------------------------------------------------------------------
 Cartesian Forces:  Max     0.012503520 RMS     0.005493025
 -----------------------------------------------------------------------------------------------
                       Internal Coordinate Forces (Hartree/Bohr or radian)
  Cent   Atom   N1       Length/X         N2         Alpha/Y        N3         Beta/Z          J
 -----------------------------------------------------------------------------------------------
      1  O 
         X        1   0.000000(     1)
      2  Cl       1   0.000441(     2)      2  -0.000479(     5)
      3  Cl       1  -0.006797(     3)      2  -0.022740(     6)      3   0.002500(     8)     0
      4  H        1  -0.004399(     4)      2   0.022628(     7)      3  -0.001737(     9)     0
 -----------------------------------------------------------------------------------------------
 Internal  Forces:  Max     0.022740165 RMS     0.011077465
 Force constants in Cartesian coordinates: 
                1             2             3             4             5 
      1  0.451337D+00
      2  0.520412D-01  0.477040D+00
      3 -0.810758D-02 -0.108556D+00  0.812650D-01
      4 -0.377580D+00  0.000000D+00  0.000000D+00  0.377580D+00
      5  0.381151D-01 -0.479137D-01  0.744776D-02  0.000000D+00  0.394370D-01
      6 -0.903392D-02  0.528494D-02 -0.117796D-01  0.000000D+00 -0.465286D-02
      7 -0.854335D-02  0.978454D-02 -0.143365D-02  0.000000D+00 -0.132415D-01
      8 -0.325791D-02 -0.244557D-01  0.344397D-03  0.000000D+00  0.318095D-02
      9 -0.358160D-03  0.346428D-02  0.357010D-02  0.000000D+00 -0.329504D-03
     10 -0.652137D-01 -0.618258D-01  0.954122D-02  0.000000D+00 -0.248735D-01
     11 -0.868984D-01 -0.404670D+00  0.100764D+00  0.000000D+00  0.529584D-02
     12  0.174997D-01  0.998068D-01 -0.730555D-01  0.000000D+00 -0.246540D-02
                6             7             8             9            10 
      6  0.441705D-02
      7  0.462030D-03  0.829023D-02
      8 -0.110991D-03  0.331871D-02  0.213080D-01
      9  0.178109D-02  0.249123D-03 -0.598455D-04  0.571212D-02
     10  0.857189D-02  0.253125D-03 -0.608070D-04  0.109037D-03  0.649605D-01
     11 -0.521085D-03  0.138292D-03 -0.332211D-04 -0.307493D-02  0.867601D-01
     12  0.558146D-02  0.722492D-03 -0.173560D-03 -0.110633D-01 -0.182221D-01
               11            12 
     11  0.399407D+00
     12 -0.971678D-01  0.785374D-01
 Force constants in internal coordinates: 
                1             2             3             4             5 
      1  0.000000D+00
      2  0.000000D+00  0.377580D+00
      3  0.000000D+00  0.000000D+00  0.221053D-01
      4  0.000000D+00  0.000000D+00  0.000000D+00  0.447026D+00
      5  0.000000D+00  0.000000D+00  0.000000D+00  0.000000D+00  0.447847D-01
      6  0.000000D+00  0.000000D+00  0.000000D+00  0.000000D+00  0.329091D-01
      7  0.000000D+00  0.000000D+00  0.000000D+00  0.000000D+00  0.353861D-01
      8  0.000000D+00  0.000000D+00  0.000000D+00  0.000000D+00  0.877980D-02
      9  0.000000D+00  0.000000D+00  0.000000D+00  0.000000D+00  0.500222D-01
                6             7             8             9 
      6  0.192337D+00
      7 -0.127821D+00  0.192637D+00
      8  0.862704D-02  0.858489D-02  0.252302D+00
      9  0.888529D-02  0.184139D-01  0.237050D-02  0.151149D+00
 Leave Link  716 at Wed Sep 15 11:51:58 2021, MaxMem= 16106127360 cpu:               0.9 elap:               0.1
 (Enter /sw/contrib/gaussian/g16/B01/g16/l103.exe)

 GradGradGradGradGradGradGradGradGradGradGradGradGradGradGradGradGradGrad
 Berny optimization.
 Search for a local minimum.
 Step number   1 out of a maximum of   20
 All quantities printed in internal units (Hartrees-Bohrs-Radians)
 Second derivative matrix not updated -- first step.
 The second derivative matrix:
                          r1        r2        r3        a1        OOP
           r1           0.37758
           r2          -0.00000   0.02211
           r3           0.00000   0.00000   0.44703
           a1           0.00000  -0.00000  -0.00000   0.40819
           OOP          0.00000   0.00000  -0.00000   0.02700   0.19264
 ITU=  0
     Eigenvalues ---    0.02211   0.18931   0.37758   0.41152   0.44703
 RFO step:  Lambda=-4.39838463D-03 EMin= 2.21052598D-02
 Linear search not attempted -- first point.
 Variable       Old X    -DE/DX   Delta X   Delta X   Delta X     New X
                                 (Linear)    (Quad)   (Total)
    r1        3.18419   0.00044   0.00000   0.00116   0.00116   3.18534
    r2        5.80273  -0.00680   0.00000  -0.25644  -0.25644   5.54629
    r3        1.92323  -0.00440   0.00000  -0.00975  -0.00975   1.91348
    a1        1.80655   0.00076   0.00000  -0.00572  -0.00572   1.80084
   OOP        1.30900   0.02263   0.00000   0.11563   0.11563   1.42462
         Item               Value     Threshold  Converged?
 Maximum Force            0.022628     0.000450     NO 
 RMS     Force            0.010755     0.000300     NO 
 Maximum Displacement     0.256439     0.001800     NO 
 RMS     Displacement     0.125905     0.001200     NO 
 Predicted change in Energy=-2.373500D-03
 Lowest energy point so far.  Saving SCF results.
 GradGradGradGradGradGradGradGradGradGradGradGradGradGradGradGradGradGrad

 Leave Link  103 at Wed Sep 15 11:51:58 2021, MaxMem= 16106127360 cpu:               1.1 elap:               0.1
 (Enter /sw/contrib/gaussian/g16/B01/g16/l202.exe)
 ---------------------------------------------------------------------------------------------------
                            Z-MATRIX (ANGSTROMS AND DEGREES)
   CD    Cent   Atom    N1       Length/X        N2       Alpha/Y        N3        Beta/Z          J
 ---------------------------------------------------------------------------------------------------
      1      1  O 
      2         X        1  10.000000(     1)
      3      2  Cl       1   1.685611(     2)      2   90.000(     5)
      4      3  Cl       1   2.934971(     3)      2   90.000(     6)      3  103.180(     8)      0
      5      4  H        1   1.012571(     4)      2   81.625(     7)      3  103.180(     9)      0
 ---------------------------------------------------------------------------------------------------
                         Z-Matrix orientation:                         
 ---------------------------------------------------------------------
 Center     Atomic      Atomic             Coordinates (Angstroms)
 Number     Number       Type             X           Y           Z
 ---------------------------------------------------------------------
      1          8           0        0.000000    0.000000    0.000000
      2         -1           0        0.000000    0.000000   10.000000
      3         17           0        1.685611    0.000000    0.000000
      4         17           0       -0.669223   -2.857655    0.000000
      5          1           0       -0.228421   -0.975383    0.147483
 ---------------------------------------------------------------------
                    Distance matrix (angstroms):
                    1          2          3          4          5
     1  O    0.000000
     2  X   10.000000   0.000000
     3  Cl   1.685611  10.141069   0.000000
     4  Cl   2.934971  10.421807   3.702895   0.000000
     5  H    1.012571   9.903315   2.153286   1.938816   0.000000
 Stoichiometry    Cl2HO(1-)
 Framework group  C1[X(Cl2HO)]
 Deg. of freedom     6
 Full point group                 C1      NOp   1
 RotChk:  IX=0 Diff= 2.20D-02
 Largest Abelian subgroup         C1      NOp   1
 Largest concise Abelian subgroup C1      NOp   1
                         Standard orientation:                         
 ---------------------------------------------------------------------
 Center     Atomic      Atomic             Coordinates (Angstroms)
 Number     Number       Type             X           Y           Z
 ---------------------------------------------------------------------
      1          8           0        0.696778    0.999878   -0.011459
      2         17           0        1.690981   -0.361266    0.000006
      3         17           0       -2.005603   -0.145163   -0.002788
      4          1           0       -0.225647    0.610262    0.138979
 ---------------------------------------------------------------------
 Rotational constants (GHZ):          23.3166052           2.0338100           1.8709363
 Leave Link  202 at Wed Sep 15 11:51:58 2021, MaxMem= 16106127360 cpu:               0.4 elap:               0.0
 (Enter /sw/contrib/gaussian/g16/B01/g16/l301.exe)
 Standard basis: Aug-CC-pVTZ (5D, 7F)
 Ernie: Thresh=  0.10000D-02 Tol=  0.10000D-05 Strict=F.
 Ernie:  29 primitive shells out of 169 were deleted.
 There are   198 symmetry adapted cartesian basis functions of A   symmetry.
 There are   169 symmetry adapted basis functions of A   symmetry.
   169 basis functions,   327 primitive gaussians,   198 cartesian basis functions
    22 alpha electrons       22 beta electrons
       nuclear repulsion energy       121.5157777763 Hartrees.
 IExCor=    0 DFT=F Ex=HF Corr=None ExCW=0 ScaHFX=  1.000000
 ScaDFX=  1.000000  1.000000  1.000000  1.000000 ScalE2=  1.000000  1.000000
 IRadAn=      5 IRanWt=     -1 IRanGd=            0 ICorTp=0 IEmpDi=  4
 NAtoms=    4 NActive=    4 NUniq=    4 SFac= 1.00D+00 NAtFMM=   60 NAOKFM=F Big=F
 Integral buffers will be    131072 words long.
 Raffenetti 1 integral format.
 Two-electron integral symmetry is turned on.
 Leave Link  301 at Wed Sep 15 11:51:58 2021, MaxMem= 16106127360 cpu:               1.4 elap:               0.1
 (Enter /sw/contrib/gaussian/g16/B01/g16/l302.exe)
 NPDir=0 NMtPBC=     1 NCelOv=     1 NCel=       1 NClECP=     1 NCelD=      1
         NCelK=      1 NCelE2=     1 NClLst=     1 CellRange=     0.0.
 One-electron integrals computed using PRISM.
 One-electron integral symmetry used in STVInt
 NBasis=   169 RedAO= T EigKep=  2.41D-04  NBF=   169
 NBsUse=   169 1.00D-06 EigRej= -1.00D+00 NBFU=   169
 Leave Link  302 at Wed Sep 15 11:51:59 2021, MaxMem= 16106127360 cpu:               5.2 elap:               0.2
 (Enter /sw/contrib/gaussian/g16/B01/g16/l303.exe)
 DipDrv:  MaxL=1.
 Leave Link  303 at Wed Sep 15 11:51:59 2021, MaxMem= 16106127360 cpu:               1.1 elap:               0.1
 (Enter /sw/contrib/gaussian/g16/B01/g16/l401.exe)
 Initial guess from the checkpoint file:  "/gscratch/ilahie/mccoygrp/coire_hocl/clhocl/clhocl_15_opt.chk"
 B after Tr=    -0.000000    0.000000    0.000000
         Rot=    0.999994   -0.000470    0.000090   -0.003546 Ang=  -0.41 deg.
 Guess basis will be translated and rotated to current coordinates.
 JPrj=2 DoOrth=T DoCkMO=T.
 Generating alternative initial guess.
 ExpMin= 2.53D-02 ExpMax= 4.56D+05 ExpMxC= 1.44D+03 IAcc=3 IRadAn=         5 AccDes= 0.00D+00
 Harris functional with IExCor=  205 and IRadAn=       5 diagonalized for initial guess.
 HarFok:  IExCor=  205 AccDes= 0.00D+00 IRadAn=         5 IDoV= 1 UseB2=F ITyADJ=14
 ICtDFT=  3500011 ScaDFX=  1.000000  1.000000  1.000000  1.000000
 FoFCou: FMM=F IPFlag=           0 FMFlag=      100000 FMFlg1=           0
         NFxFlg=           0 DoJE=T BraDBF=F KetDBF=T FulRan=T
         wScrn=  0.000000 ICntrl=       500 IOpCl=  0 I1Cent=   200000004 NGrid=           0
         NMat0=    1 NMatS0=      1 NMatT0=    0 NMatD0=    1 NMtDS0=    0 NMtDT0=    0
 Petite list used in FoFCou.
 Harris En= -993.821663433667    
 Leave Link  401 at Wed Sep 15 11:51:59 2021, MaxMem= 16106127360 cpu:               8.8 elap:               0.4
 (Enter /sw/contrib/gaussian/g16/B01/g16/l502.exe)
 Keep R1 ints in memory in canonical form, NReq=117119419.
 FoFCou: FMM=F IPFlag=           0 FMFlag=           0 FMFlg1=           0
         NFxFlg=           0 DoJE=F BraDBF=F KetDBF=F FulRan=T
         wScrn=  0.000000 ICntrl=       600 IOpCl=  0 I1Cent=           0 NGrid=           0
         NMat0=    1 NMatS0=  14365 NMatT0=    0 NMatD0=    1 NMtDS0=    0 NMtDT0=    0
 Symmetry not used in FoFCou.
 Two-electron integral symmetry not used.
 Closed shell SCF:
 Using DIIS extrapolation, IDIIS=  1040.
 NGot= 16106127360 LenX= 16002857927 LenY= 16002818282
 Requested convergence on RMS density matrix=1.00D-08 within 128 cycles.
 Requested convergence on MAX density matrix=1.00D-06.
 Requested convergence on             energy=1.00D-06.
 No special actions if energy rises.

 Cycle   1  Pass 1  IDiag  1:
 E= -994.521208956824    
 DIIS: error= 2.29D-03 at cycle   1 NSaved=   1.
 NSaved= 1 IEnMin= 1 EnMin= -994.521208956824     IErMin= 1 ErrMin= 2.29D-03
 ErrMax= 2.29D-03  0.00D+00 EMaxC= 1.00D-01 BMatC= 2.47D-03 BMatP= 2.47D-03
 IDIUse=3 WtCom= 9.77D-01 WtEn= 2.29D-02
 Coeff-Com:  0.100D+01
 Coeff-En:   0.100D+01
 Coeff:      0.100D+01
 Gap=     0.708 Goal=   None    Shift=    0.000
 GapD=    0.708 DampG=2.000 DampE=1.000 DampFc=2.0000 IDamp=-1.
 RMSDP=3.78D-04 MaxDP=1.06D-02              OVMax= 1.28D-02

 Cycle   2  Pass 1  IDiag  1:
 E= -994.523706977782     Delta-E=       -0.002498020958 Rises=F Damp=F
 DIIS: error= 7.36D-04 at cycle   2 NSaved=   2.
 NSaved= 2 IEnMin= 2 EnMin= -994.523706977782     IErMin= 2 ErrMin= 7.36D-04
 ErrMax= 7.36D-04  0.00D+00 EMaxC= 1.00D-01 BMatC= 1.50D-04 BMatP= 2.47D-03
 IDIUse=3 WtCom= 9.93D-01 WtEn= 7.36D-03
 Coeff-Com: -0.144D+00 0.114D+01
 Coeff-En:   0.000D+00 0.100D+01
 Coeff:     -0.143D+00 0.114D+01
 Gap=     0.354 Goal=   None    Shift=    0.000
 RMSDP=9.95D-05 MaxDP=3.97D-03 DE=-2.50D-03 OVMax= 4.78D-03

 Cycle   3  Pass 1  IDiag  1:
 E= -994.523922724318     Delta-E=       -0.000215746536 Rises=F Damp=F
 DIIS: error= 4.23D-04 at cycle   3 NSaved=   3.
 NSaved= 3 IEnMin= 3 EnMin= -994.523922724318     IErMin= 3 ErrMin= 4.23D-04
 ErrMax= 4.23D-04  0.00D+00 EMaxC= 1.00D-01 BMatC= 3.17D-05 BMatP= 1.50D-04
 IDIUse=3 WtCom= 9.96D-01 WtEn= 4.23D-03
 Coeff-Com: -0.798D-01 0.325D+00 0.755D+00
 Coeff-En:   0.000D+00 0.000D+00 0.100D+01
 Coeff:     -0.794D-01 0.324D+00 0.756D+00
 Gap=     0.354 Goal=   None    Shift=    0.000
 RMSDP=2.43D-05 MaxDP=8.04D-04 DE=-2.16D-04 OVMax= 1.72D-03

 Cycle   4  Pass 1  IDiag  1:
 E= -994.523954237011     Delta-E=       -0.000031512693 Rises=F Damp=F
 DIIS: error= 1.06D-04 at cycle   4 NSaved=   4.
 NSaved= 4 IEnMin= 4 EnMin= -994.523954237011     IErMin= 4 ErrMin= 1.06D-04
 ErrMax= 1.06D-04  0.00D+00 EMaxC= 1.00D-01 BMatC= 3.64D-06 BMatP= 3.17D-05
 IDIUse=3 WtCom= 9.99D-01 WtEn= 1.06D-03
 Coeff-Com:  0.152D-01-0.151D+00 0.890D-01 0.105D+01
 Coeff-En:   0.000D+00 0.000D+00 0.000D+00 0.100D+01
 Coeff:      0.152D-01-0.151D+00 0.889D-01 0.105D+01
 Gap=     0.355 Goal=   None    Shift=    0.000
 RMSDP=1.50D-05 MaxDP=4.92D-04 DE=-3.15D-05 OVMax= 9.28D-04

 Cycle   5  Pass 1  IDiag  1:
 E= -994.523960358958     Delta-E=       -0.000006121947 Rises=F Damp=F
 DIIS: error= 2.65D-05 at cycle   5 NSaved=   5.
 NSaved= 5 IEnMin= 5 EnMin= -994.523960358958     IErMin= 5 ErrMin= 2.65D-05
 ErrMax= 2.65D-05  0.00D+00 EMaxC= 1.00D-01 BMatC= 2.08D-07 BMatP= 3.64D-06
 IDIUse=1 WtCom= 1.00D+00 WtEn= 0.00D+00
 Coeff-Com:  0.695D-02-0.384D-01-0.508D-01 0.761D-01 0.101D+01
 Coeff:      0.695D-02-0.384D-01-0.508D-01 0.761D-01 0.101D+01
 Gap=     0.355 Goal=   None    Shift=    0.000
 RMSDP=4.30D-06 MaxDP=1.10D-04 DE=-6.12D-06 OVMax= 2.32D-04

 Cycle   6  Pass 1  IDiag  1:
 E= -994.523960864911     Delta-E=       -0.000000505953 Rises=F Damp=F
 DIIS: error= 1.03D-05 at cycle   6 NSaved=   6.
 NSaved= 6 IEnMin= 6 EnMin= -994.523960864911     IErMin= 6 ErrMin= 1.03D-05
 ErrMax= 1.03D-05  0.00D+00 EMaxC= 1.00D-01 BMatC= 2.06D-08 BMatP= 2.08D-07
 IDIUse=1 WtCom= 1.00D+00 WtEn= 0.00D+00
 Coeff-Com: -0.248D-02 0.209D-01-0.108D-02-0.129D+00-0.107D+00 0.122D+01
 Coeff:     -0.248D-02 0.209D-01-0.108D-02-0.129D+00-0.107D+00 0.122D+01
 Gap=     0.355 Goal=   None    Shift=    0.000
 RMSDP=1.74D-06 MaxDP=4.58D-05 DE=-5.06D-07 OVMax= 1.30D-04

 Cycle   7  Pass 1  IDiag  1:
 E= -994.523960926984     Delta-E=       -0.000000062073 Rises=F Damp=F
 DIIS: error= 3.32D-06 at cycle   7 NSaved=   7.
 NSaved= 7 IEnMin= 7 EnMin= -994.523960926984     IErMin= 7 ErrMin= 3.32D-06
 ErrMax= 3.32D-06  0.00D+00 EMaxC= 1.00D-01 BMatC= 1.24D-09 BMatP= 2.06D-08
 IDIUse=1 WtCom= 1.00D+00 WtEn= 0.00D+00
 Coeff-Com: -0.123D-03 0.193D-03 0.368D-02 0.663D-02-0.377D-01-0.148D+00
 Coeff-Com:  0.118D+01
 Coeff:     -0.123D-03 0.193D-03 0.368D-02 0.663D-02-0.377D-01-0.148D+00
 Coeff:      0.118D+01
 Gap=     0.355 Goal=   None    Shift=    0.000
 RMSDP=4.17D-07 MaxDP=8.16D-06 DE=-6.21D-08 OVMax= 2.85D-05

 Cycle   8  Pass 1  IDiag  1:
 E= -994.523960931350     Delta-E=       -0.000000004366 Rises=F Damp=F
 DIIS: error= 9.67D-07 at cycle   8 NSaved=   8.
 NSaved= 8 IEnMin= 8 EnMin= -994.523960931350     IErMin= 8 ErrMin= 9.67D-07
 ErrMax= 9.67D-07  0.00D+00 EMaxC= 1.00D-01 BMatC= 1.79D-10 BMatP= 1.24D-09
 IDIUse=1 WtCom= 1.00D+00 WtEn= 0.00D+00
 Coeff-Com:  0.288D-03-0.239D-02 0.852D-04 0.126D-01 0.184D-01-0.125D+00
 Coeff-Com: -0.130D+00 0.123D+01
 Coeff:      0.288D-03-0.239D-02 0.852D-04 0.126D-01 0.184D-01-0.125D+00
 Coeff:     -0.130D+00 0.123D+01
 Gap=     0.355 Goal=   None    Shift=    0.000
 RMSDP=1.58D-07 MaxDP=2.72D-06 DE=-4.37D-09 OVMax= 1.39D-05

 Cycle   9  Pass 1  IDiag  1:
 E= -994.523960932016     Delta-E=       -0.000000000666 Rises=F Damp=F
 DIIS: error= 3.36D-07 at cycle   9 NSaved=   9.
 NSaved= 9 IEnMin= 9 EnMin= -994.523960932016     IErMin= 9 ErrMin= 3.36D-07
 ErrMax= 3.36D-07  0.00D+00 EMaxC= 1.00D-01 BMatC= 2.29D-11 BMatP= 1.79D-10
 IDIUse=1 WtCom= 1.00D+00 WtEn= 0.00D+00
 Coeff-Com: -0.713D-04 0.651D-03-0.218D-03-0.464D-02-0.164D-02 0.501D-01
 Coeff-Com: -0.624D-01-0.390D+00 0.141D+01
 Coeff:     -0.713D-04 0.651D-03-0.218D-03-0.464D-02-0.164D-02 0.501D-01
 Coeff:     -0.624D-01-0.390D+00 0.141D+01
 Gap=     0.355 Goal=   None    Shift=    0.000
 RMSDP=7.14D-08 MaxDP=1.43D-06 DE=-6.66D-10 OVMax= 7.81D-06

 Cycle  10  Pass 1  IDiag  1:
 E= -994.523960932127     Delta-E=       -0.000000000111 Rises=F Damp=F
 DIIS: error= 1.52D-07 at cycle  10 NSaved=  10.
 NSaved=10 IEnMin=10 EnMin= -994.523960932127     IErMin=10 ErrMin= 1.52D-07
 ErrMax= 1.52D-07  0.00D+00 EMaxC= 1.00D-01 BMatC= 3.85D-12 BMatP= 2.29D-11
 IDIUse=1 WtCom= 1.00D+00 WtEn= 0.00D+00
 Coeff-Com: -0.156D-04 0.116D-03 0.699D-04-0.293D-03-0.196D-02 0.309D-02
 Coeff-Com:  0.362D-01-0.887D-01-0.279D+00 0.133D+01
 Coeff:     -0.156D-04 0.116D-03 0.699D-04-0.293D-03-0.196D-02 0.309D-02
 Coeff:      0.362D-01-0.887D-01-0.279D+00 0.133D+01
 Gap=     0.355 Goal=   None    Shift=    0.000
 RMSDP=3.27D-08 MaxDP=6.31D-07 DE=-1.11D-10 OVMax= 4.06D-06

 Cycle  11  Pass 1  IDiag  1:
 E= -994.523960932154     Delta-E=       -0.000000000026 Rises=F Damp=F
 DIIS: error= 7.36D-08 at cycle  11 NSaved=  11.
 NSaved=11 IEnMin=11 EnMin= -994.523960932154     IErMin=11 ErrMin= 7.36D-08
 ErrMax= 7.36D-08  0.00D+00 EMaxC= 1.00D-01 BMatC= 9.05D-13 BMatP= 3.85D-12
 IDIUse=1 WtCom= 1.00D+00 WtEn= 0.00D+00
 Coeff-Com:  0.214D-04-0.195D-03 0.398D-04 0.128D-02 0.656D-03-0.131D-01
 Coeff-Com:  0.108D-01 0.103D+00-0.261D+00-0.263D+00 0.142D+01
 Coeff:      0.214D-04-0.195D-03 0.398D-04 0.128D-02 0.656D-03-0.131D-01
 Coeff:      0.108D-01 0.103D+00-0.261D+00-0.263D+00 0.142D+01
 Gap=     0.355 Goal=   None    Shift=    0.000
 RMSDP=1.99D-08 MaxDP=4.10D-07 DE=-2.61D-11 OVMax= 2.44D-06

 Cycle  12  Pass 1  IDiag  1:
 E= -994.523960932165     Delta-E=       -0.000000000011 Rises=F Damp=F
 DIIS: error= 2.76D-08 at cycle  12 NSaved=  12.
 NSaved=12 IEnMin=12 EnMin= -994.523960932165     IErMin=12 ErrMin= 2.76D-08
 ErrMax= 2.76D-08  0.00D+00 EMaxC= 1.00D-01 BMatC= 1.33D-13 BMatP= 9.05D-13
 IDIUse=1 WtCom= 1.00D+00 WtEn= 0.00D+00
 Coeff-Com:  0.122D-05-0.606D-05-0.266D-04-0.347D-04 0.254D-03 0.723D-03
 Coeff-Com: -0.740D-02 0.267D-02 0.892D-01-0.207D+00-0.305D+00 0.143D+01
 Coeff:      0.122D-05-0.606D-05-0.266D-04-0.347D-04 0.254D-03 0.723D-03
 Coeff:     -0.740D-02 0.267D-02 0.892D-01-0.207D+00-0.305D+00 0.143D+01
 Gap=     0.355 Goal=   None    Shift=    0.000
 RMSDP=8.90D-09 MaxDP=1.81D-07 DE=-1.14D-11 OVMax= 1.09D-06

 SCF Done:  E(RHF) =  -994.523960932     A.U. after   12 cycles
            NFock= 12  Conv=0.89D-08     -V/T= 2.0002
 KE= 9.943641979893D+02 PE=-2.620745524395D+03 EE= 5.103415876968D+02
 Leave Link  502 at Wed Sep 15 11:52:02 2021, MaxMem= 16106127360 cpu:              20.1 elap:               2.6
 (Enter /sw/contrib/gaussian/g16/B01/g16/l801.exe)
 ExpMin= 2.53D-02 ExpMax= 4.56D+05 ExpMxC= 1.44D+03 IAcc=3 IRadAn=         5 AccDes= 0.00D+00
 HarFok:  IExCor=  205 AccDes= 0.00D+00 IRadAn=         5 IDoV=-2 UseB2=F ITyADJ=14
 ICtDFT= 12500011 ScaDFX=  1.000000  1.000000  1.000000  1.000000
 Largest valence mixing into a core orbital is  4.47D-04
 Largest core mixing into a valence orbital is  1.73D-04
 Range of M.O.s used for correlation:    12   169
 NBasis=   169 NAE=    22 NBE=    22 NFC=    11 NFV=     0
 NROrb=    158 NOA=    11 NOB=    11 NVA=   147 NVB=   147

 **** Warning!!: The largest alpha MO coefficient is  0.18729139D+02

 Leave Link  801 at Wed Sep 15 11:52:02 2021, MaxMem= 16106127360 cpu:               1.5 elap:               0.1
 (Enter /sw/contrib/gaussian/g16/B01/g16/l906.exe)
 Frozen-core derivative calculation, NFC=  11 NFV=   0.
 FulOut=F Deriv=T AODrv=T NAtomX=     4
   MMem=         143  MDisk=          11 MDiskD=          11
  W3Min=      736164 MinDsk=     1250177 NBas6D=         198
 NBas2D=       20187    NTT=       19701    LW2=     3500000
    MDV= 16105748584 MDiskM=      406660 NBas2p=       20117
 Fully direct method using O(ONN) memory.
 IMap=   1   2   3   4   5   6   7   8   9  10  11  12  13  14  15  16  17  18  19  20
 IMap=  21  22
 JobTyp=1 Pass  1:  I=  12 to  22 NPSUse= 28 ParTrn=T ParDer=T DoDerP=T.
 Spin components of T(2) and E(2):
     alpha-alpha T2 =       0.2929034640D-01 E2=     -0.8416943521D-01
     alpha-beta  T2 =       0.1595197285D+00 E2=     -0.4986642372D+00
     beta-beta   T2 =       0.2929034640D-01 E2=     -0.8416943521D-01
 The integrals were generated   1 times.
 ANorm=    0.1103675868D+01
 E2 =    -0.6670031076D+00 EUMP2 =    -0.99519096403978D+03
 Leave Link  906 at Wed Sep 15 11:52:12 2021, MaxMem= 16106127360 cpu:             281.9 elap:              10.1
 (Enter /sw/contrib/gaussian/g16/B01/g16/l1002.exe)
 Minotr:  Closed shell wavefunction.
          Computing MP2/KS-MP2 derivatives.
          Using Z-Vector for PSCF gradient.
          Skipping F1 and S1 gradient terms here.
          IDoAtm=1111
          Frozen-core window.
          Direct CPHF calculation.
          Differentiating once with respect to electric field.
                with respect to dipole field.
          Differentiating once with respect to nuclear coordinates.
          Requested convergence is 1.0D-10 RMS, and 1.0D-09 maximum.
          NewPWx=F KeepS1=T KeepF1=T KeepIn=T MapXYZ=F SortEE=F KeepMc=T.
 Keep R1 ints in memory in canonical form, NReq=117123711.
 FoFCou: FMM=F IPFlag=           0 FMFlag=           0 FMFlg1=           0
         NFxFlg=           0 DoJE=F BraDBF=F KetDBF=F FulRan=T
         wScrn=  0.000000 ICntrl=       600 IOpCl=  0 I1Cent=           0 NGrid=           0
         NMat0=    1 NMatS0=  14365 NMatT0=    0 NMatD0=    1 NMtDS0=    0 NMtDT0=    0
 Symmetry not used in FoFCou.
 Two-electron integral symmetry not used.
          MDV=   16106127360 using IRadAn=       5.
          Solving linear equations separately, MaxMat=       0.
          There are     1 degrees of freedom in the 1st order CPHF.  IDoFFX=0 NUNeed=     1.
 LinEq1:  Iter=  0 NonCon=     1 RMS=3.08D-03 Max=4.02D-02 NDo=     1
 AX will form     1 AO Fock derivatives at one time.
 LinEq1:  Iter=  1 NonCon=     1 RMS=3.86D-04 Max=5.11D-03 NDo=     1
 LinEq1:  Iter=  2 NonCon=     1 RMS=1.63D-04 Max=3.39D-03 NDo=     1
 LinEq1:  Iter=  3 NonCon=     1 RMS=6.31D-05 Max=8.53D-04 NDo=     1
 LinEq1:  Iter=  4 NonCon=     1 RMS=2.63D-05 Max=6.71D-04 NDo=     1
 LinEq1:  Iter=  5 NonCon=     1 RMS=5.93D-06 Max=7.18D-05 NDo=     1
 LinEq1:  Iter=  6 NonCon=     1 RMS=1.68D-06 Max=2.72D-05 NDo=     1
 LinEq1:  Iter=  7 NonCon=     1 RMS=4.72D-07 Max=1.21D-05 NDo=     1
 LinEq1:  Iter=  8 NonCon=     1 RMS=1.12D-07 Max=2.25D-06 NDo=     1
 LinEq1:  Iter=  9 NonCon=     1 RMS=2.56D-08 Max=3.47D-07 NDo=     1
 LinEq1:  Iter= 10 NonCon=     1 RMS=6.83D-09 Max=7.21D-08 NDo=     1
 LinEq1:  Iter= 11 NonCon=     1 RMS=1.84D-09 Max=2.79D-08 NDo=     1
 LinEq1:  Iter= 12 NonCon=     1 RMS=3.91D-10 Max=7.71D-09 NDo=     1
 LinEq1:  Iter= 13 NonCon=     1 RMS=1.04D-10 Max=2.27D-09 NDo=     1
 LinEq1:  Iter= 14 NonCon=     0 RMS=3.23D-11 Max=5.49D-10 NDo=     1
 Linear equations converged to 1.000D-10 1.000D-09 after    14 iterations.
 End of Minotr F.D. properties file   721 does not exist.
 End of Minotr F.D. properties file   722 does not exist.
 End of Minotr F.D. properties file   788 does not exist.
 Leave Link 1002 at Wed Sep 15 11:52:15 2021, MaxMem= 16106127360 cpu:              25.5 elap:               3.3
 (Enter /sw/contrib/gaussian/g16/B01/g16/l701.exe)
 ... and contract with generalized density number  2.
 Compute integral first derivatives.
 Leave Link  701 at Wed Sep 15 11:52:15 2021, MaxMem= 16106127360 cpu:               4.6 elap:               0.2
 (Enter /sw/contrib/gaussian/g16/B01/g16/l702.exe)
 L702 exits ... SP integral derivatives will be done elsewhere.
 Leave Link  702 at Wed Sep 15 11:52:15 2021, MaxMem= 16106127360 cpu:               0.5 elap:               0.0
 (Enter /sw/contrib/gaussian/g16/B01/g16/l703.exe)
 Integral derivatives from FoFJK, PRISM(SPDF).
 Compute integral first derivatives, UseDBF=F ICtDFT=           0.
 Calling FoFJK, ICntrl=  10002127 FMM=F ISym2X=0 I1Cent= 0 IOpClX= 0 NMat=1 NMatS=1 NMatT=0.
 FoFJK:  IHMeth= 1 ICntrl=10002127 DoSepK=F KAlg= 0 I1Cent=           0 FoldK=F
 IRaf=         0 NMat=       1 IRICut=       1 DoRegI=T DoRafI=F ISym2E= 0 IDoP0=0 IntGTp=1.
 FoFCou: FMM=F IPFlag=           0 FMFlag=      100000 FMFlg1=         800
         NFxFlg=           0 DoJE=F BraDBF=F KetDBF=F FulRan=T
         wScrn=  0.000000 ICntrl=  10002127 IOpCl=  0 I1Cent=           0 NGrid=           0
         NMat0=    1 NMatS0=      1 NMatT0=    0 NMatD0=    1 NMtDS0=    0 NMtDT0=    0
 Symmetry not used in FoFCou.
 Leave Link  703 at Wed Sep 15 11:52:17 2021, MaxMem= 16106127360 cpu:              34.1 elap:               1.2
 (Enter /sw/contrib/gaussian/g16/B01/g16/l716.exe)
 Dipole        = 2.15637331D+00-1.05491881D-01 5.21136373D-02
 ***** Axes restored to original set *****
 -------------------------------------------------------------------
 Center     Atomic                   Forces (Hartrees/Bohr)
 Number     Number              X              Y              Z
 -------------------------------------------------------------------
      1        8           0.001604857    0.005159290    0.003594309
      2       17          -0.000805603    0.000426712    0.000101042
      3       17          -0.000299756    0.001477881    0.002468391
      4        1          -0.000499498   -0.007063883   -0.006163743
 -------------------------------------------------------------------
 Cartesian Forces:  Max     0.007063883 RMS     0.003409066
 -----------------------------------------------------------------------------------------------
                       Internal Coordinate Forces (Hartree/Bohr or radian)
  Cent   Atom   N1       Length/X         N2         Alpha/Y        N3         Beta/Z          J
 -----------------------------------------------------------------------------------------------
      1  O 
         X        1   0.000000(     1)
      2  Cl       1  -0.000806(     2)      2  -0.000322(     5)
      3  Cl       1  -0.001371(     3)      2  -0.013690(     6)      3   0.003488(     8)     0
      4  H        1   0.006019(     4)      2   0.013617(     7)      3  -0.002128(     9)     0
 -----------------------------------------------------------------------------------------------
 Internal  Forces:  Max     0.013690415 RMS     0.006899354
 Leave Link  716 at Wed Sep 15 11:52:17 2021, MaxMem= 16106127360 cpu:               1.0 elap:               0.1
 (Enter /sw/contrib/gaussian/g16/B01/g16/l103.exe)

 GradGradGradGradGradGradGradGradGradGradGradGradGradGradGradGradGradGrad
 Berny optimization.
 Search for a local minimum.
 Step number   2 out of a maximum of   20
 All quantities printed in internal units (Hartrees-Bohrs-Radians)
 Update second derivatives using D2CorN and points    1    2
 DE= -3.25D-03 DEPred=-2.37D-03 R= 1.37D+00
 TightC=F SS=  1.41D+00  RLast= 2.82D-01 DXNew= 5.0454D-01 8.4459D-01
 Trust test= 1.37D+00 RLast= 2.82D-01 DXMaxT set to 5.05D-01
 The second derivative matrix:
                          r1        r2        r3        a1        OOP
           r1           0.37759
           r2          -0.00131   0.02132
           r3          -0.00009   0.00979   0.44777
           a1          -0.00004   0.00223   0.00030   0.40829
           OOP          0.00050   0.02138  -0.00362   0.02646   0.17351
 ITU=  1  0
     Eigenvalues ---    0.01812   0.17345   0.37760   0.41129   0.44803
 RFO step:  Lambda=-8.94315559D-04 EMin= 1.81206684D-02
 Quartic linear search produced a step of  0.49157.
 Variable       Old X    -DE/DX   Delta X   Delta X   Delta X     New X
                                 (Linear)    (Quad)   (Total)
    r1        3.18534  -0.00081   0.00057  -0.00346  -0.00289   3.18246
    r2        5.54629  -0.00137  -0.12606   0.10280  -0.02325   5.52304
    r3        1.91348   0.00602  -0.00479   0.02304   0.01825   1.93173
    a1        1.80084   0.00136  -0.00281   0.00129  -0.00152   1.79931
   OOP        1.42462   0.01362   0.05684   0.03526   0.09210   1.51673
         Item               Value     Threshold  Converged?
 Maximum Force            0.013617     0.000450     NO 
 RMS     Force            0.006724     0.000300     NO 
 Maximum Displacement     0.092101     0.001800     NO 
 RMS     Displacement     0.043283     0.001200     NO 
 Predicted change in Energy=-6.377113D-04
 Lowest energy point so far.  Saving SCF results.
 GradGradGradGradGradGradGradGradGradGradGradGradGradGradGradGradGradGrad

 Leave Link  103 at Wed Sep 15 11:52:17 2021, MaxMem= 16106127360 cpu:               0.5 elap:               0.0
 (Enter /sw/contrib/gaussian/g16/B01/g16/l202.exe)
 ---------------------------------------------------------------------------------------------------
                            Z-MATRIX (ANGSTROMS AND DEGREES)
   CD    Cent   Atom    N1       Length/X        N2       Alpha/Y        N3        Beta/Z          J
 ---------------------------------------------------------------------------------------------------
      1      1  O 
      2         X        1  10.000000(     1)
      3      2  Cl       1   1.684083(     2)      2   90.000(     5)
      4      3  Cl       1   2.922665(     3)      2   90.000(     6)      3  103.093(     8)      0
      5      4  H        1   1.022226(     4)      2   86.902(     7)      3  103.093(     9)      0
 ---------------------------------------------------------------------------------------------------
                         Z-Matrix orientation:                         
 ---------------------------------------------------------------------
 Center     Atomic      Atomic             Coordinates (Angstroms)
 Number     Number       Type             X           Y           Z
 ---------------------------------------------------------------------
      1          8           0        0.000000    0.000000    0.000000
      2         -1           0        0.000000    0.000000   10.000000
      3         17           0        1.684083    0.000000    0.000000
      4         17           0       -0.662082   -2.846685    0.000000
      5          1           0       -0.231230   -0.994197    0.055246
 ---------------------------------------------------------------------
                    Distance matrix (angstroms):
                    1          2          3          4          5
     1  O    0.000000
     2  X   10.000000   0.000000
     3  Cl   1.684083  10.140815   0.000000
     4  Cl   2.922665  10.418348   3.688917   0.000000
     5  H    1.022226   9.997001   2.158681   1.902734   0.000000
 Stoichiometry    Cl2HO(1-)
 Framework group  C1[X(Cl2HO)]
 Deg. of freedom     6
 Full point group                 C1      NOp   1
 RotChk:  IX=0 Diff= 7.34D-03
 Largest Abelian subgroup         C1      NOp   1
 Largest concise Abelian subgroup C1      NOp   1
                         Standard orientation:                         
 ---------------------------------------------------------------------
 Center     Atomic      Atomic             Coordinates (Angstroms)
 Number     Number       Type             X           Y           Z
 ---------------------------------------------------------------------
      1          8           0        0.692144    0.999517   -0.004240
      2         17           0        1.685736   -0.360222    0.000000
      3         17           0       -1.996921   -0.145422   -0.001070
      4          1           0       -0.247011    0.599818    0.052113
 ---------------------------------------------------------------------
 Rotational constants (GHZ):          23.3880979           2.0498577           1.8847167
 Leave Link  202 at Wed Sep 15 11:52:17 2021, MaxMem= 16106127360 cpu:               0.4 elap:               0.0
 (Enter /sw/contrib/gaussian/g16/B01/g16/l301.exe)
 Standard basis: Aug-CC-pVTZ (5D, 7F)
 Ernie: Thresh=  0.10000D-02 Tol=  0.10000D-05 Strict=F.
 Ernie:  29 primitive shells out of 169 were deleted.
 There are   198 symmetry adapted cartesian basis functions of A   symmetry.
 There are   169 symmetry adapted basis functions of A   symmetry.
   169 basis functions,   327 primitive gaussians,   198 cartesian basis functions
    22 alpha electrons       22 beta electrons
       nuclear repulsion energy       121.8523298963 Hartrees.
 IExCor=    0 DFT=F Ex=HF Corr=None ExCW=0 ScaHFX=  1.000000
 ScaDFX=  1.000000  1.000000  1.000000  1.000000 ScalE2=  1.000000  1.000000
 IRadAn=      5 IRanWt=     -1 IRanGd=            0 ICorTp=0 IEmpDi=  4
 NAtoms=    4 NActive=    4 NUniq=    4 SFac= 1.00D+00 NAtFMM=   60 NAOKFM=F Big=F
 Integral buffers will be    131072 words long.
 Raffenetti 1 integral format.
 Two-electron integral symmetry is turned on.
 Leave Link  301 at Wed Sep 15 11:52:17 2021, MaxMem= 16106127360 cpu:               1.4 elap:               0.1
 (Enter /sw/contrib/gaussian/g16/B01/g16/l302.exe)
 NPDir=0 NMtPBC=     1 NCelOv=     1 NCel=       1 NClECP=     1 NCelD=      1
         NCelK=      1 NCelE2=     1 NClLst=     1 CellRange=     0.0.
 One-electron integrals computed using PRISM.
 One-electron integral symmetry used in STVInt
 NBasis=   169 RedAO= T EigKep=  2.39D-04  NBF=   169
 NBsUse=   169 1.00D-06 EigRej= -1.00D+00 NBFU=   169
 Leave Link  302 at Wed Sep 15 11:52:17 2021, MaxMem= 16106127360 cpu:               4.2 elap:               0.2
 (Enter /sw/contrib/gaussian/g16/B01/g16/l303.exe)
 DipDrv:  MaxL=1.
 Leave Link  303 at Wed Sep 15 11:52:17 2021, MaxMem= 16106127360 cpu:               1.3 elap:               0.1
 (Enter /sw/contrib/gaussian/g16/B01/g16/l401.exe)
 Initial guess from the checkpoint file:  "/gscratch/ilahie/mccoygrp/coire_hocl/clhocl/clhocl_15_opt.chk"
 B after Tr=     0.000000   -0.000000    0.000000
         Rot=    1.000000   -0.000088    0.000017   -0.000299 Ang=  -0.04 deg.
 Guess basis will be translated and rotated to current coordinates.
 JPrj=2 DoOrth=T DoCkMO=T.
 Generating alternative initial guess.
 ExpMin= 2.53D-02 ExpMax= 4.56D+05 ExpMxC= 1.44D+03 IAcc=3 IRadAn=         5 AccDes= 0.00D+00
 Harris functional with IExCor=  205 and IRadAn=       5 diagonalized for initial guess.
 HarFok:  IExCor=  205 AccDes= 0.00D+00 IRadAn=         5 IDoV= 1 UseB2=F ITyADJ=14
 ICtDFT=  3500011 ScaDFX=  1.000000  1.000000  1.000000  1.000000
 FoFCou: FMM=F IPFlag=           0 FMFlag=      100000 FMFlg1=           0
         NFxFlg=           0 DoJE=T BraDBF=F KetDBF=T FulRan=T
         wScrn=  0.000000 ICntrl=       500 IOpCl=  0 I1Cent=   200000004 NGrid=           0
         NMat0=    1 NMatS0=      1 NMatT0=    0 NMatD0=    1 NMtDS0=    0 NMtDT0=    0
 Petite list used in FoFCou.
 Harris En= -993.822153114512    
 Leave Link  401 at Wed Sep 15 11:52:18 2021, MaxMem= 16106127360 cpu:               8.0 elap:               0.3
 (Enter /sw/contrib/gaussian/g16/B01/g16/l502.exe)
 Keep R1 ints in memory in canonical form, NReq=117119639.
 FoFCou: FMM=F IPFlag=           0 FMFlag=           0 FMFlg1=           0
         NFxFlg=           0 DoJE=F BraDBF=F KetDBF=F FulRan=T
         wScrn=  0.000000 ICntrl=       600 IOpCl=  0 I1Cent=           0 NGrid=           0
         NMat0=    1 NMatS0=  14365 NMatT0=    0 NMatD0=    1 NMtDS0=    0 NMtDT0=    0
 Symmetry not used in FoFCou.
 Two-electron integral symmetry not used.
 Closed shell SCF:
 Using DIIS extrapolation, IDIIS=  1040.
 NGot= 16106127360 LenX= 16002857927 LenY= 16002818282
 Requested convergence on RMS density matrix=1.00D-08 within 128 cycles.
 Requested convergence on MAX density matrix=1.00D-06.
 Requested convergence on             energy=1.00D-06.
 No special actions if energy rises.

 Cycle   1  Pass 1  IDiag  1:
 E= -994.522842453688    
 DIIS: error= 2.01D-03 at cycle   1 NSaved=   1.
 NSaved= 1 IEnMin= 1 EnMin= -994.522842453688     IErMin= 1 ErrMin= 2.01D-03
 ErrMax= 2.01D-03  0.00D+00 EMaxC= 1.00D-01 BMatC= 1.26D-03 BMatP= 1.26D-03
 IDIUse=3 WtCom= 9.80D-01 WtEn= 2.01D-02
 Coeff-Com:  0.100D+01
 Coeff-En:   0.100D+01
 Coeff:      0.100D+01
 Gap=     0.714 Goal=   None    Shift=    0.000
 GapD=    0.714 DampG=2.000 DampE=1.000 DampFc=2.0000 IDamp=-1.
 RMSDP=3.00D-04 MaxDP=1.12D-02              OVMax= 1.03D-02

 Cycle   2  Pass 1  IDiag  1:
 E= -994.524071922405     Delta-E=       -0.001229468717 Rises=F Damp=F
 DIIS: error= 6.54D-04 at cycle   2 NSaved=   2.
 NSaved= 2 IEnMin= 2 EnMin= -994.524071922405     IErMin= 2 ErrMin= 6.54D-04
 ErrMax= 6.54D-04  0.00D+00 EMaxC= 1.00D-01 BMatC= 7.45D-05 BMatP= 1.26D-03
 IDIUse=3 WtCom= 9.93D-01 WtEn= 6.54D-03
 Coeff-Com: -0.176D+00 0.118D+01
 Coeff-En:   0.000D+00 0.100D+01
 Coeff:     -0.175D+00 0.118D+01
 Gap=     0.357 Goal=   None    Shift=    0.000
 RMSDP=8.12D-05 MaxDP=3.19D-03 DE=-1.23D-03 OVMax= 4.20D-03

 Cycle   3  Pass 1  IDiag  1:
 E= -994.524186365262     Delta-E=       -0.000114442857 Rises=F Damp=F
 DIIS: error= 3.02D-04 at cycle   3 NSaved=   3.
 NSaved= 3 IEnMin= 3 EnMin= -994.524186365262     IErMin= 3 ErrMin= 3.02D-04
 ErrMax= 3.02D-04  0.00D+00 EMaxC= 1.00D-01 BMatC= 1.31D-05 BMatP= 7.45D-05
 IDIUse=3 WtCom= 9.97D-01 WtEn= 3.02D-03
 Coeff-Com: -0.786D-01 0.306D+00 0.772D+00
 Coeff-En:   0.000D+00 0.000D+00 0.100D+01
 Coeff:     -0.783D-01 0.305D+00 0.773D+00
 Gap=     0.357 Goal=   None    Shift=    0.000
 RMSDP=1.66D-05 MaxDP=5.94D-04 DE=-1.14D-04 OVMax= 1.13D-03

 Cycle   4  Pass 1  IDiag  1:
 E= -994.524199504090     Delta-E=       -0.000013138829 Rises=F Damp=F
 DIIS: error= 8.45D-05 at cycle   4 NSaved=   4.
 NSaved= 4 IEnMin= 4 EnMin= -994.524199504090     IErMin= 4 ErrMin= 8.45D-05
 ErrMax= 8.45D-05  0.00D+00 EMaxC= 1.00D-01 BMatC= 1.77D-06 BMatP= 1.31D-05
 IDIUse=1 WtCom= 1.00D+00 WtEn= 0.00D+00
 Coeff-Com:  0.220D-01-0.181D+00 0.121D+00 0.104D+01
 Coeff:      0.220D-01-0.181D+00 0.121D+00 0.104D+01
 Gap=     0.357 Goal=   None    Shift=    0.000
 RMSDP=9.39D-06 MaxDP=3.79D-04 DE=-1.31D-05 OVMax= 7.13D-04

 Cycle   5  Pass 1  IDiag  1:
 E= -994.524202271934     Delta-E=       -0.000002767843 Rises=F Damp=F
 DIIS: error= 1.69D-05 at cycle   5 NSaved=   5.
 NSaved= 5 IEnMin= 5 EnMin= -994.524202271934     IErMin= 5 ErrMin= 1.69D-05
 ErrMax= 1.69D-05  0.00D+00 EMaxC= 1.00D-01 BMatC= 5.31D-08 BMatP= 1.77D-06
 IDIUse=1 WtCom= 1.00D+00 WtEn= 0.00D+00
 Coeff-Com:  0.253D-02-0.893D-02-0.462D-01-0.377D-01 0.109D+01
 Coeff:      0.253D-02-0.893D-02-0.462D-01-0.377D-01 0.109D+01
 Gap=     0.357 Goal=   None    Shift=    0.000
 RMSDP=2.25D-06 MaxDP=6.15D-05 DE=-2.77D-06 OVMax= 1.62D-04

 Cycle   6  Pass 1  IDiag  1:
 E= -994.524202402321     Delta-E=       -0.000000130388 Rises=F Damp=F
 DIIS: error= 6.39D-06 at cycle   6 NSaved=   6.
 NSaved= 6 IEnMin= 6 EnMin= -994.524202402321     IErMin= 6 ErrMin= 6.39D-06
 ErrMax= 6.39D-06  0.00D+00 EMaxC= 1.00D-01 BMatC= 5.01D-09 BMatP= 5.31D-08
 IDIUse=1 WtCom= 1.00D+00 WtEn= 0.00D+00
 Coeff-Com: -0.199D-02 0.164D-01-0.852D-02-0.941D-01-0.322D-01 0.112D+01
 Coeff:     -0.199D-02 0.164D-01-0.852D-02-0.941D-01-0.322D-01 0.112D+01
 Gap=     0.357 Goal=   None    Shift=    0.000
 RMSDP=8.37D-07 MaxDP=2.53D-05 DE=-1.30D-07 OVMax= 5.97D-05

 Cycle   7  Pass 1  IDiag  1:
 E= -994.524202416878     Delta-E=       -0.000000014557 Rises=F Damp=F
 DIIS: error= 1.76D-06 at cycle   7 NSaved=   7.
 NSaved= 7 IEnMin= 7 EnMin= -994.524202416878     IErMin= 7 ErrMin= 1.76D-06
 ErrMax= 1.76D-06  0.00D+00 EMaxC= 1.00D-01 BMatC= 5.72D-10 BMatP= 5.01D-09
 IDIUse=1 WtCom= 1.00D+00 WtEn= 0.00D+00
 Coeff-Com:  0.171D-03-0.210D-02 0.523D-02 0.184D-01-0.726D-01-0.162D+00
 Coeff-Com:  0.121D+01
 Coeff:      0.171D-03-0.210D-02 0.523D-02 0.184D-01-0.726D-01-0.162D+00
 Coeff:      0.121D+01
 Gap=     0.357 Goal=   None    Shift=    0.000
 RMSDP=3.06D-07 MaxDP=6.75D-06 DE=-1.46D-08 OVMax= 3.17D-05

 Cycle   8  Pass 1  IDiag  1:
 E= -994.524202419394     Delta-E=       -0.000000002515 Rises=F Damp=F
 DIIS: error= 1.03D-06 at cycle   8 NSaved=   8.
 NSaved= 8 IEnMin= 8 EnMin= -994.524202419394     IErMin= 8 ErrMin= 1.03D-06
 ErrMax= 1.03D-06  0.00D+00 EMaxC= 1.00D-01 BMatC= 1.57D-10 BMatP= 5.72D-10
 IDIUse=1 WtCom= 1.00D+00 WtEn= 0.00D+00
 Coeff-Com:  0.319D-03-0.256D-02 0.497D-03 0.121D-01 0.204D-01-0.145D+00
 Coeff-Com: -0.321D+00 0.144D+01
 Coeff:      0.319D-03-0.256D-02 0.497D-03 0.121D-01 0.204D-01-0.145D+00
 Coeff:     -0.321D+00 0.144D+01
 Gap=     0.357 Goal=   None    Shift=    0.000
 RMSDP=2.07D-07 MaxDP=4.62D-06 DE=-2.52D-09 OVMax= 2.57D-05

 Cycle   9  Pass 1  IDiag  1:
 E= -994.524202420320     Delta-E=       -0.000000000927 Rises=F Damp=F
 DIIS: error= 4.63D-07 at cycle   9 NSaved=   9.
 NSaved= 9 IEnMin= 9 EnMin= -994.524202420320     IErMin= 9 ErrMin= 4.63D-07
 ErrMax= 4.63D-07  0.00D+00 EMaxC= 1.00D-01 BMatC= 3.15D-11 BMatP= 1.57D-10
 IDIUse=1 WtCom= 1.00D+00 WtEn= 0.00D+00
 Coeff-Com: -0.125D-03 0.114D-02-0.110D-02-0.715D-02 0.617D-02 0.860D-01
 Coeff-Com: -0.131D+00-0.619D+00 0.166D+01
 Coeff:     -0.125D-03 0.114D-02-0.110D-02-0.715D-02 0.617D-02 0.860D-01
 Coeff:     -0.131D+00-0.619D+00 0.166D+01
 Gap=     0.357 Goal=   None    Shift=    0.000
 RMSDP=1.35D-07 MaxDP=2.82D-06 DE=-9.27D-10 OVMax= 1.75D-05

 Cycle  10  Pass 1  IDiag  1:
 E= -994.524202420547     Delta-E=       -0.000000000226 Rises=F Damp=F
 DIIS: error= 9.61D-08 at cycle  10 NSaved=  10.
 NSaved=10 IEnMin=10 EnMin= -994.524202420547     IErMin=10 ErrMin= 9.61D-08
 ErrMax= 9.61D-08  0.00D+00 EMaxC= 1.00D-01 BMatC= 2.31D-12 BMatP= 3.15D-11
 IDIUse=1 WtCom= 1.00D+00 WtEn= 0.00D+00
 Coeff-Com: -0.154D-04 0.103D-03 0.134D-03-0.114D-04-0.431D-02 0.618D-02
 Coeff-Com:  0.674D-01-0.125D+00-0.164D+00 0.122D+01
 Coeff:     -0.154D-04 0.103D-03 0.134D-03-0.114D-04-0.431D-02 0.618D-02
 Coeff:      0.674D-01-0.125D+00-0.164D+00 0.122D+01
 Gap=     0.357 Goal=   None    Shift=    0.000
 RMSDP=3.10D-08 MaxDP=6.08D-07 DE=-2.26D-10 OVMax= 3.85D-06

 Cycle  11  Pass 1  IDiag  1:
 E= -994.524202420557     Delta-E=       -0.000000000010 Rises=F Damp=F
 DIIS: error= 3.09D-08 at cycle  11 NSaved=  11.
 NSaved=11 IEnMin=11 EnMin= -994.524202420557     IErMin=11 ErrMin= 3.09D-08
 ErrMax= 3.09D-08  0.00D+00 EMaxC= 1.00D-01 BMatC= 2.37D-13 BMatP= 2.31D-12
 IDIUse=1 WtCom= 1.00D+00 WtEn= 0.00D+00
 Coeff-Com:  0.150D-04-0.135D-03 0.787D-04 0.764D-03-0.261D-03-0.939D-02
 Coeff-Com:  0.405D-02 0.738D-01-0.128D+00-0.242D+00 0.130D+01
 Coeff:      0.150D-04-0.135D-03 0.787D-04 0.764D-03-0.261D-03-0.939D-02
 Coeff:      0.405D-02 0.738D-01-0.128D+00-0.242D+00 0.130D+01
 Gap=     0.357 Goal=   None    Shift=    0.000
[...]
 IMap=   1   2   3   4   5   6   7   8   9  10  11  12  13  14  15  16  17  18  19  20
 IMap=  21  22
 JobTyp=1 Pass  1:  I=  12 to  22 NPSUse= 28 ParTrn=T ParDer=T DoDerP=T.
 Spin components of T(2) and E(2):
     alpha-alpha T2 =       0.2940725921D-01 E2=     -0.8445868527D-01
     alpha-beta  T2 =       0.1597314054D+00 E2=     -0.4993244661D+00
     beta-beta   T2 =       0.2940725921D-01 E2=     -0.8445868527D-01
 The integrals were generated   1 times.
 ANorm=    0.1103877676D+01
 E2 =    -0.6682418366D+00 EUMP2 =    -0.99519212575494D+03
 Leave Link  906 at Wed Sep 15 11:53:26 2021, MaxMem= 16106127360 cpu:             289.6 elap:              10.4
 (Enter /sw/contrib/gaussian/g16/B01/g16/l1002.exe)
 Minotr:  Closed shell wavefunction.
          Computing MP2/KS-MP2 derivatives.
          Using Z-Vector for PSCF gradient.
          Skipping F1 and S1 gradient terms here.
          IDoAtm=1111
          Frozen-core window.
          Direct CPHF calculation.
          Differentiating once with respect to electric field.
                with respect to dipole field.
          Differentiating once with respect to nuclear coordinates.
          Requested convergence is 1.0D-10 RMS, and 1.0D-09 maximum.
          NewPWx=F KeepS1=T KeepF1=T KeepIn=T MapXYZ=F SortEE=F KeepMc=T.
 Keep R1 ints in memory in canonical form, NReq=117123931.
 FoFCou: FMM=F IPFlag=           0 FMFlag=           0 FMFlg1=           0
         NFxFlg=           0 DoJE=F BraDBF=F KetDBF=F FulRan=T
         wScrn=  0.000000 ICntrl=       600 IOpCl=  0 I1Cent=           0 NGrid=           0
         NMat0=    1 NMatS0=  14365 NMatT0=    0 NMatD0=    1 NMtDS0=    0 NMtDT0=    0
 Symmetry not used in FoFCou.
 Two-electron integral symmetry not used.
          MDV=   16106127360 using IRadAn=       5.
          Solving linear equations separately, MaxMat=       0.
          There are     1 degrees of freedom in the 1st order CPHF.  IDoFFX=0 NUNeed=     1.
 LinEq1:  Iter=  0 NonCon=     1 RMS=3.10D-03 Max=4.66D-02 NDo=     1
 AX will form     1 AO Fock derivatives at one time.
 LinEq1:  Iter=  1 NonCon=     1 RMS=3.88D-04 Max=5.08D-03 NDo=     1
 LinEq1:  Iter=  2 NonCon=     1 RMS=1.63D-04 Max=3.36D-03 NDo=     1
 LinEq1:  Iter=  3 NonCon=     1 RMS=6.27D-05 Max=1.05D-03 NDo=     1
 LinEq1:  Iter=  4 NonCon=     1 RMS=2.64D-05 Max=6.73D-04 NDo=     1
 LinEq1:  Iter=  5 NonCon=     1 RMS=5.86D-06 Max=7.34D-05 NDo=     1
 LinEq1:  Iter=  6 NonCon=     1 RMS=1.53D-06 Max=1.75D-05 NDo=     1
 LinEq1:  Iter=  7 NonCon=     1 RMS=3.22D-07 Max=3.98D-06 NDo=     1
 LinEq1:  Iter=  8 NonCon=     1 RMS=5.47D-08 Max=6.96D-07 NDo=     1
 LinEq1:  Iter=  9 NonCon=     1 RMS=1.27D-08 Max=1.52D-07 NDo=     1
 LinEq1:  Iter= 10 NonCon=     1 RMS=3.34D-09 Max=4.88D-08 NDo=     1
 LinEq1:  Iter= 11 NonCon=     1 RMS=7.87D-10 Max=1.15D-08 NDo=     1
 LinEq1:  Iter= 12 NonCon=     1 RMS=1.74D-10 Max=3.60D-09 NDo=     1
 LinEq1:  Iter= 13 NonCon=     0 RMS=4.18D-11 Max=8.98D-10 NDo=     1
 Linear equations converged to 1.000D-10 1.000D-09 after    13 iterations.
 End of Minotr F.D. properties file   721 does not exist.
 End of Minotr F.D. properties file   722 does not exist.
 End of Minotr F.D. properties file   788 does not exist.
 Leave Link 1002 at Wed Sep 15 11:53:29 2021, MaxMem= 16106127360 cpu:              24.4 elap:               3.1
 (Enter /sw/contrib/gaussian/g16/B01/g16/l701.exe)
 ... and contract with generalized density number  2.
 Compute integral first derivatives.
 Leave Link  701 at Wed Sep 15 11:53:30 2021, MaxMem= 16106127360 cpu:               4.2 elap:               0.2
 (Enter /sw/contrib/gaussian/g16/B01/g16/l702.exe)
 L702 exits ... SP integral derivatives will be done elsewhere.
 Leave Link  702 at Wed Sep 15 11:53:30 2021, MaxMem= 16106127360 cpu:               1.2 elap:               0.1
 (Enter /sw/contrib/gaussian/g16/B01/g16/l703.exe)
 Integral derivatives from FoFJK, PRISM(SPDF).
 Compute integral first derivatives, UseDBF=F ICtDFT=           0.
 Calling FoFJK, ICntrl=  10002127 FMM=F ISym2X=0 I1Cent= 0 IOpClX= 0 NMat=1 NMatS=1 NMatT=0.
 FoFJK:  IHMeth= 1 ICntrl=10002127 DoSepK=F KAlg= 0 I1Cent=           0 FoldK=F
 IRaf=         0 NMat=       1 IRICut=       1 DoRegI=T DoRafI=F ISym2E= 0 IDoP0=0 IntGTp=1.
 FoFCou: FMM=F IPFlag=           0 FMFlag=      100000 FMFlg1=         800
         NFxFlg=           0 DoJE=F BraDBF=F KetDBF=F FulRan=T
         wScrn=  0.000000 ICntrl=  10002127 IOpCl=  0 I1Cent=           0 NGrid=           0
         NMat0=    1 NMatS0=      1 NMatT0=    0 NMatD0=    1 NMtDS0=    0 NMtDT0=    0
 Symmetry not used in FoFCou.
 Leave Link  703 at Wed Sep 15 11:53:31 2021, MaxMem= 16106127360 cpu:              34.9 elap:               1.3
 (Enter /sw/contrib/gaussian/g16/B01/g16/l716.exe)
 Dipole        = 2.03558254D+00-1.24326281D-01 2.51300812D-05
 ***** Axes restored to original set *****
 -------------------------------------------------------------------
 Center     Atomic                   Forces (Hartrees/Bohr)
 Number     Number              X              Y              Z
 -------------------------------------------------------------------
      1        8          -0.001068899    0.000257356    0.000002361
      2       17          -0.000080238    0.000043070    0.000000087
      3       17          -0.000675936    0.000137334    0.000001359
      4        1           0.001825072   -0.000437760   -0.000003807
 -------------------------------------------------------------------
 Cartesian Forces:  Max     0.001825072 RMS     0.000659252
 -----------------------------------------------------------------------------------------------
                       Internal Coordinate Forces (Hartree/Bohr or radian)
  Cent   Atom   N1       Length/X         N2         Alpha/Y        N3         Beta/Z          J
 -----------------------------------------------------------------------------------------------
      1  O 
         X        1   0.000000(     1)
      2  Cl       1  -0.000080(     2)      2  -0.000000(     5)
      3  Cl       1   0.000025(     3)      2  -0.000007(     6)      3   0.003784(     8)     0
      4  H        1  -0.000001(     4)      2   0.000007(     7)      3  -0.003647(     9)     0
 -----------------------------------------------------------------------------------------------
 Internal  Forces:  Max     0.003784404 RMS     0.001752219
 Leave Link  716 at Wed Sep 15 11:53:31 2021, MaxMem= 16106127360 cpu:               1.7 elap:               0.1
 (Enter /sw/contrib/gaussian/g16/B01/g16/l103.exe)

 GradGradGradGradGradGradGradGradGradGradGradGradGradGradGradGradGradGrad
 Berny optimization.
 Search for a local minimum.
 Step number   6 out of a maximum of   20
 All quantities printed in internal units (Hartrees-Bohrs-Radians)
 Update second derivatives using D2CorN and points    1    2    3    4    5
                                                          6
 DE= -8.30D-07 DEPred=-5.84D-07 R= 1.42D+00
 Trust test= 1.42D+00 RLast= 2.78D-03 DXMaxT set to 5.05D-01
 The second derivative matrix:
                          r1        r2        r3        a1        OOP
           r1           0.36342
           r2          -0.02337   0.07898
           r3          -0.00088   0.01490   0.43605
           a1           0.05159   0.05281   0.00187   0.23153
           OOP         -0.00451   0.01906  -0.03928   0.02318   0.11310
 ITU=  0  1  1  1  1  0
     Eigenvalues ---    0.05467   0.10456   0.24134   0.38131   0.44122
 RFO step:  Lambda=-2.55144632D-08 EMin= 5.46746498D-02
 Quartic linear search produced a step of  0.33550.
 Variable       Old X    -DE/DX   Delta X   Delta X   Delta X     New X
                                 (Linear)    (Quad)   (Total)
    r1        3.18031  -0.00008  -0.00023  -0.00012  -0.00035   3.17996
    r2        5.49014   0.00002  -0.00047   0.00047   0.00000   5.49014
    r3        1.94338  -0.00000  -0.00001   0.00000  -0.00001   1.94337
    a1        1.80682   0.00014   0.00077  -0.00005   0.00072   1.80753
   OOP        1.57072   0.00001  -0.00008   0.00006  -0.00002   1.57071
         Item               Value     Threshold  Converged?
 Maximum Force            0.000137     0.000450     YES
 RMS     Force            0.000072     0.000300     YES
 Maximum Displacement     0.000715     0.001800     YES
 RMS     Displacement     0.000357     0.001200     YES
 Predicted change in Energy=-5.758508D-08
 Optimization completed.
    -- Stationary point found.
                       ----------------------------
                       !   Optimized Parameters   !
                       ! (Angstroms and Degrees)  !
 ----------------------                            ----------------------
 !      Name          Value   Derivative information (Atomic Units)     !
 ------------------------------------------------------------------------
 !       r1          1.6829   -DE/DX =   -0.0001                        !
 !       r2          2.9053   -DE/DX =    0.0                           !
 !       r3          1.0284   -DE/DX =    0.0                           !
 !       a1        103.5231   -DE/DX =    0.0001                        !
 !       OOP        89.9957   -DE/DX =    0.0                           !
 ------------------------------------------------------------------------
 Lowest energy point so far.  Saving SCF results.
 Largest change from initial coordinates is atom    4       0.277 Angstoms.
 GradGradGradGradGradGradGradGradGradGradGradGradGradGradGradGradGradGrad

 Leave Link  103 at Wed Sep 15 11:53:31 2021, MaxMem= 16106127360 cpu:               0.7 elap:               0.0
 (Enter /sw/contrib/gaussian/g16/B01/g16/l202.exe)
 ---------------------------------------------------------------------------------------------------
                            Z-MATRIX (ANGSTROMS AND DEGREES)
   CD    Cent   Atom    N1       Length/X        N2       Alpha/Y        N3        Beta/Z          J
 ---------------------------------------------------------------------------------------------------
      1      1  O 
      2         X        1  10.000000(     1)
      3      2  Cl       1   1.682948(     2)      2   90.000(     5)
      4      3  Cl       1   2.905255(     3)      2   90.000(     6)      3  103.523(     8)      0
      5      4  H        1   1.028391(     4)      2   89.996(     7)      3  103.523(     9)      0
 ---------------------------------------------------------------------------------------------------
                         Z-Matrix orientation:                         
 ---------------------------------------------------------------------
 Center     Atomic      Atomic             Coordinates (Angstroms)
 Number     Number       Type             X           Y           Z
 ---------------------------------------------------------------------
      1          8           0        0.000000    0.000000    0.000000
      2         -1           0        0.000000    0.000000   10.000000
      3         17           0        1.682948    0.000000    0.000000
      4         17           0       -0.679357   -2.824709    0.000000
      5          1           0       -0.240476   -0.999880    0.000076
 ---------------------------------------------------------------------
                    Distance matrix (angstroms):
                    1          2          3          4          5
     1  O    0.000000
     2  X   10.000000   0.000000
     3  Cl   1.682948  10.140627   0.000000
     4  Cl   2.905255  10.413477   3.682318   0.000000
     5  H    1.028391  10.052664   2.167792   1.876863   0.000000
 Stoichiometry    Cl2HO(1-)
 Framework group  C1[X(Cl2HO)]
 Deg. of freedom     6
 Full point group                 C1      NOp   1
 RotChk:  IX=0 Diff= 1.33D-17
 Largest Abelian subgroup         C1      NOp   1
 Largest concise Abelian subgroup C1      NOp   1
                         Standard orientation:                         
 ---------------------------------------------------------------------
 Center     Atomic      Atomic             Coordinates (Angstroms)
 Number     Number       Type             X           Y           Z
 ---------------------------------------------------------------------
      1          8           0        0.681385    0.994148   -0.000002
      2         17           0        1.685611   -0.356350   -0.000002
      3         17           0       -1.990706   -0.146219   -0.000002
      4          1           0       -0.264472    0.590485    0.000075
 ---------------------------------------------------------------------
 Rotational constants (GHZ):          23.6885159           2.0591432           1.8944653
 Leave Link  202 at Wed Sep 15 11:53:31 2021, MaxMem= 16106127360 cpu:               1.7 elap:               0.1
 (Enter /sw/contrib/gaussian/g16/B01/g16/l601.exe)
 Copying SCF densities to generalized density rwf, IOpCl= 0 IROHF=0.

 **********************************************************************

            Population analysis using the MP2 Density.

 **********************************************************************

 Orbital symmetries:
       Occupied  (A) (A) (A) (A) (A) (A) (A) (A) (A) (A) (A) (A)
                 (A) (A) (A) (A) (A) (A) (A) (A) (A) (A)
       Virtual   (A) (A) (A) (A) (A) (A) (A) (A) (A) (A) (A) (A)
                 (A) (A) (A) (A) (A) (A) (A) (A) (A) (A) (A) (A)
                 (A) (A) (A) (A) (A) (A) (A) (A) (A) (A) (A) (A)
                 (A) (A) (A) (A) (A) (A) (A) (A) (A) (A) (A) (A)
                 (A) (A) (A) (A) (A) (A) (A) (A) (A) (A) (A) (A)
                 (A) (A) (A) (A) (A) (A) (A) (A) (A) (A) (A) (A)
                 (A) (A) (A) (A) (A) (A) (A) (A) (A) (A) (A) (A)
                 (A) (A) (A) (A) (A) (A) (A) (A) (A) (A) (A) (A)
                 (A) (A) (A) (A) (A) (A) (A) (A) (A) (A) (A) (A)
                 (A) (A) (A) (A) (A) (A) (A) (A) (A) (A) (A) (A)
                 (A) (A) (A) (A) (A) (A) (A) (A) (A) (A) (A) (A)
                 (A) (A) (A) (A) (A) (A) (A) (A) (A) (A) (A) (A)
                 (A) (A) (A)
 The electronic state is 1-A.
 Alpha  occ. eigenvalues -- -104.72208-104.54992 -20.44830 -10.44161 -10.27482
 Alpha  occ. eigenvalues --   -7.90878  -7.90620  -7.90610  -7.74099  -7.74081
 Alpha  occ. eigenvalues --   -7.74081  -1.21496  -0.88533  -0.79002  -0.52674
 Alpha  occ. eigenvalues --   -0.43112  -0.42308  -0.29984  -0.27063  -0.20593
 Alpha  occ. eigenvalues --   -0.19779  -0.19775
 Alpha virt. eigenvalues --    0.16127   0.18668   0.22582   0.23556   0.25819
 Alpha virt. eigenvalues --    0.27266   0.27486   0.29634   0.31075   0.32743
 Alpha virt. eigenvalues --    0.33744   0.35025   0.38580   0.45305   0.46286
 Alpha virt. eigenvalues --    0.51595   0.52517   0.53869   0.56525   0.56889
 Alpha virt. eigenvalues --    0.58584   0.60025   0.60585   0.65226   0.66079
 Alpha virt. eigenvalues --    0.68408   0.68535   0.75312   0.78520   0.78984
 Alpha virt. eigenvalues --    0.83067   0.87508   0.88417   0.90031   0.91086
 Alpha virt. eigenvalues --    0.92275   0.96711   1.00840   1.04897   1.05742
 Alpha virt. eigenvalues --    1.06367   1.08963   1.09414   1.10275   1.14228
 Alpha virt. eigenvalues --    1.15032   1.17085   1.18582   1.18820   1.21504
 Alpha virt. eigenvalues --    1.22858   1.24596   1.29557   1.32547   1.33067
 Alpha virt. eigenvalues --    1.37697   1.40871   1.42547   1.42948   1.47640
 Alpha virt. eigenvalues --    1.48518   1.50165   1.54400   1.61886   1.65737
 Alpha virt. eigenvalues --    1.67603   1.68676   1.72631   1.74557   1.79759
 Alpha virt. eigenvalues --    1.80833   1.84326   1.86426   1.91477   1.94479
 Alpha virt. eigenvalues --    2.01004   2.29637   2.39638   2.50935   2.51912
 Alpha virt. eigenvalues --    2.53895   2.59733   2.60280   2.62695   2.66928
 Alpha virt. eigenvalues --    2.69041   2.71316   2.72645   2.74037   2.77391
 Alpha virt. eigenvalues --    2.78120   2.80164   2.80203   2.82215   2.89354
 Alpha virt. eigenvalues --    2.92073   2.99247   2.99291   3.04480   3.09592
 Alpha virt. eigenvalues --    3.15202   3.16460   3.20486   3.22624   3.24295
 Alpha virt. eigenvalues --    3.28548   3.30589   3.32454   3.33847   3.34074
 Alpha virt. eigenvalues --    3.39968   3.40579   3.41720   3.47403   3.51335
 Alpha virt. eigenvalues --    3.54464   3.56394   3.59718   3.70523   3.95724
 Alpha virt. eigenvalues --    4.26417   4.31291   4.47245   4.54776   4.59843
 Alpha virt. eigenvalues --    4.79564   4.99254   5.17480   5.37491   5.37956
 Alpha virt. eigenvalues --    5.66052   6.39157   6.58925   6.69438   6.86600
 Alpha virt. eigenvalues --    6.91224   6.92785   7.01972   7.26422   7.31845
 Alpha virt. eigenvalues --    7.35580   7.45986   7.57668   7.77480   7.84680
 Alpha virt. eigenvalues --    8.37783  14.44335
          Condensed to atoms (all electrons):
               1          2          3          4
     1  O    8.658201  -0.121406  -0.097376   0.060525
     2  Cl  -0.121406  17.082557   0.003601  -0.002382
     3  Cl  -0.097376   0.003601  17.856061   0.067397
     4  H    0.060525  -0.002382   0.067397   0.582463
 Mulliken charges:
               1
     1  O   -0.499944
     2  Cl   0.037630
     3  Cl  -0.829683
     4  H    0.291997
 Sum of Mulliken charges =  -1.00000
 Mulliken charges with hydrogens summed into heavy atoms:
               1
     1  O   -0.207947
     2  Cl   0.037630
     3  Cl  -0.829683
 Electronic spatial extent (au):  <R**2>=            560.5548
 Charge=             -1.0000 electrons
 Dipole moment (field-independent basis, Debye):
    X=              5.1739    Y=             -0.3160    Z=              0.0001  Tot=              5.1836
 Quadrupole moment (field-independent basis, Debye-Ang):
   XX=            -54.3837   YY=            -37.3842   ZZ=            -36.6614
   XY=             -2.6811   XZ=             -0.0000   YZ=              0.0001
 Traceless Quadrupole moment (field-independent basis, Debye-Ang):
   XX=            -11.5739   YY=              5.4255   ZZ=              6.1484
   XY=             -2.6811   XZ=             -0.0000   YZ=              0.0001
 Octapole moment (field-independent basis, Debye-Ang**2):
  XXX=             44.3800  YYY=              0.0576  ZZZ=             -0.0001  XYY=              5.8263
  XXY=              0.4508  XXZ=             -0.0003  XZZ=              5.4764  YZZ=              0.9256
  YYZ=             -0.0000  XYZ=             -0.0001
 Hexadecapole moment (field-independent basis, Debye-Ang**3):
 XXXX=           -743.8741 YYYY=            -97.4135 ZZZZ=            -49.5870 XXXY=             -9.0985
 XXXZ=              0.0004 YYYX=             -6.7138 YYYZ=             -0.0001 ZZZX=              0.0001
 ZZZY=             -0.0001 XXYY=           -126.2190 XXZZ=           -124.1117 YYZZ=            -25.1729
 XXYZ=              0.0000 YYXZ=             -0.0000 ZZXY=             -0.1245
 N-N= 1.221258299310D+02 E-N=-2.622069625812D+03  KE= 9.950210143300D+02
 No NMR shielding tensors so no spin-rotation constants.
 Leave Link  601 at Wed Sep 15 11:53:31 2021, MaxMem= 16106127360 cpu:               3.3 elap:               0.1
 (Enter /sw/contrib/gaussian/g16/B01/g16/l9999.exe)
 1\1\GINC-N2398\POpt\RMP2-FC\Aug-CC-pVTZ\Cl2H1O1(1-)\CGAVINH\15-Sep-202
 1\1\\#p opt=(z-matrix) mp2/aug-cc-pvtz density=current\\title\\-1,1\O\
 X,1,10.\Cl,1,r1,2,90.\Cl,1,r2,2,90.,3,a1,0\H,1,r3,2,OOP,3,a1,0\\r1=1.6
 8294802\r2=2.90525483\r3=1.02839142\a1=103.52308845\OOP=89.99574099\\V
 ersion=ES64L-G16RevB.01\State=1-A\HF=-994.5238839\MP2=-995.1921258\RMS
 D=2.746e-09\RMSF=6.593e-04\Dipole=2.0355825,-0.1243263,0.0000251\Quadr
 upole=-8.6049087,4.0337404,4.5711683,-1.9933527,-0.0000112,0.0000469\P
 G=C01 [X(Cl2H1O1)]\\@


 WHEN YOU'VE SEEN ONE NUCLEAR WAR YOU'VE SEEN THEM ALL.
 Job cpu time:       0 days  0 hours 39 minutes 21.0 seconds.
 Elapsed time:       0 days  0 hours  1 minutes 51.9 seconds.
 File lengths (MBytes):  RWF=     19 Int=      0 D2E=      0 Chk=      8 Scr=      1
 Normal termination of Gaussian 16 at Wed Sep 15 11:53:31 2021.
