 Entering Gaussian System, Link 0=g16
 Input=clhocl_40_sp.gjf
 Output=clhocl_40_sp.log
 Initial command:
 /sw/contrib/gaussian/g16/B01/g16/l1.exe "/scr/Gau-29370.inp" -scrdir="/scr/"
 Entering Link 1 = /sw/contrib/gaussian/g16/B01/g16/l1.exe PID=     29371.
  
 Copyright (c) 1988-2017, Gaussian, Inc.  All Rights Reserved.
  
 This is part of the Gaussian(R) 16 program.  It is based on
 the Gaussian(R) 09 system (copyright 2009, Gaussian, Inc.),
 the Gaussian(R) 03 system (copyright 2003, Gaussian, Inc.),
 the Gaussian(R) 98 system (copyright 1998, Gaussian, Inc.),
 the Gaussian(R) 94 system (copyright 1995, Gaussian, Inc.),
 the Gaussian 92(TM) system (copyright 1992, Gaussian, Inc.),
 the Gaussian 90(TM) system (copyright 1990, Gaussian, Inc.),
 the Gaussian 88(TM) system (copyright 1988, Gaussian, Inc.),
 the Gaussian 86(TM) system (copyright 1986, Carnegie Mellon
 University), and the Gaussian 82(TM) system (copyright 1983,
 Carnegie Mellon University). Gaussian is a federally registered
 trademark of Gaussian, Inc.
  
 This software contains proprietary and confidential information,
 including trade secrets, belonging to Gaussian, Inc.
  
 This software is provided under written license and may be
 used, copied, transmitted, or stored only in accord with that
 written license.
  
 The following legend is applicable only to US Government
 contracts under FAR:
  
                    RESTRICTED RIGHTS LEGEND
  
 Use, reproduction and disclosure by the US Government is
 subject to restrictions as set forth in subparagraphs (a)
 and (c) of the Commercial Computer Software - Restricted
 Rights clause in FAR 52.227-19.
  
 Gaussian, Inc.
 340 Quinnipiac St., Bldg. 40, Wallingford CT 06492
  
  
 ---------------------------------------------------------------
 Warning -- This program may not be used in any manner that
 competes with the business of Gaussian, Inc. or will provide
 assistance to any competitor of Gaussian, Inc.  The licensee
 of this program is prohibited from giving any competitor of
 Gaussian, Inc. access to this program.  By using this program,
 the user acknowledges that Gaussian, Inc. is engaged in the
 business of creating and licensing software in the field of
 computational chemistry and represents and warrants to the
 licensee that it is not a competitor of Gaussian, Inc. and that
 it will not use this program in any manner prohibited above.
 ---------------------------------------------------------------
  

 Cite this work as:
 Gaussian 16, Revision B.01,
 M. J. Frisch, G. W. Trucks, H. B. Schlegel, G. E. Scuseria, 
 M. A. Robb, J. R. Cheeseman, G. Scalmani, V. Barone, 
 G. A. Petersson, H. Nakatsuji, X. Li, M. Caricato, A. V. Marenich, 
 J. Bloino, B. G. Janesko, R. Gomperts, B. Mennucci, H. P. Hratchian, 
 J. V. Ortiz, A. F. Izmaylov, J. L. Sonnenberg, D. Williams-Young, 
 F. Ding, F. Lipparini, F. Egidi, J. Goings, B. Peng, A. Petrone, 
 T. Henderson, D. Ranasinghe, V. G. Zakrzewski, J. Gao, N. Rega, 
 G. Zheng, W. Liang, M. Hada, M. Ehara, K. Toyota, R. Fukuda, 
 J. Hasegawa, M. Ishida, T. Nakajima, Y. Honda, O. Kitao, H. Nakai, 
 T. Vreven, K. Throssell, J. A. Montgomery, Jr., J. E. Peralta, 
 F. Ogliaro, M. J. Bearpark, J. J. Heyd, E. N. Brothers, K. N. Kudin, 
 V. N. Staroverov, T. A. Keith, R. Kobayashi, J. Normand, 
 K. Raghavachari, A. P. Rendell, J. C. Burant, S. S. Iyengar, 
 J. Tomasi, M. Cossi, J. M. Millam, M. Klene, C. Adamo, R. Cammi, 
 J. W. Ochterski, R. L. Martin, K. Morokuma, O. Farkas, 
 J. B. Foresman, and D. J. Fox, Gaussian, Inc., Wallingford CT, 2016.
 
 ******************************************
 Gaussian 16:  ES64L-G16RevB.01 20-Dec-2017
                22-Sep-2021 
 ******************************************
 %nproc=28
 Will use up to   28 processors via shared memory.
 %mem=120GB
 %chk=/gscratch/ilahie/mccoygrp/coire_hocl/clhocl/clhocl_40_sp.chk
 ----------------------------------------------------
 #p pop=NBO SP NoSymm mp2/aug-cc-pvtz density=current
 ----------------------------------------------------
 1/30=1,38=1,172=1/1;
 2/12=2,15=1,17=6,18=5,40=1/2;
 3/5=16,6=1,7=10,11=9,25=1,30=1,71=1/1,2,3;
 4//1;
 5/5=2,38=5/2;
 8/6=4,10=1/1;
 9/15=1,16=-3/6;
 10/5=1,13=10,31=1/2;
 6/7=2,8=2,9=2,10=2,22=-1,40=1/1,7;
 99/5=1,9=1/99;
 Leave Link    1 at Wed Sep 22 16:32:41 2021, MaxMem= 16106127360 cpu:               0.9 elap:               0.0
 (Enter /sw/contrib/gaussian/g16/B01/g16/l101.exe)
 -----
 title
 -----
 Symbolic Z-matrix:
 Charge = -1 Multiplicity = 1
 O                     0.        0.        0. 
 Cl                    2.90468   0.        0. 
 Cl                   -0.39369   1.63605   0. 
 H                     0.75584   0.        0.63423 
 
 ITRead=  0  0  0  0
 MicOpt= -1 -1 -1 -1
 NAtoms=      4 NQM=        4 NQMF=       0 NMMI=      0 NMMIF=      0
                NMic=       0 NMicF=      0.
                    Isotopes and Nuclear Properties:
 (Nuclear quadrupole moments (NQMom) in fm**2, nuclear magnetic moments (NMagM)
  in nuclear magnetons)

  Atom         1           2           3           4
 IAtWgt=          16          35          35           1
 AtmWgt=  15.9949146  34.9688527  34.9688527   1.0078250
 NucSpn=           0           3           3           1
 AtZEff=  -0.0000000  -0.0000000  -0.0000000  -0.0000000
 NQMom=    0.0000000  -8.1650000  -8.1650000   0.0000000
 NMagM=    0.0000000   0.8218740   0.8218740   2.7928460
 AtZNuc=   8.0000000  17.0000000  17.0000000   1.0000000
 Leave Link  101 at Wed Sep 22 16:32:41 2021, MaxMem= 16106127360 cpu:               2.9 elap:               0.1
 (Enter /sw/contrib/gaussian/g16/B01/g16/l202.exe)
                          Input orientation:                          
 ---------------------------------------------------------------------
 Center     Atomic      Atomic             Coordinates (Angstroms)
 Number     Number       Type             X           Y           Z
 ---------------------------------------------------------------------
      1          8           0        0.000000    0.000000    0.000000
      2         17           0        2.904676    0.000000    0.000000
      3         17           0       -0.393687    1.636049    0.000000
      4          1           0        0.755841    0.000000    0.634226
 ---------------------------------------------------------------------
                    Distance matrix (angstroms):
                    1          2          3          4
     1  O    0.000000
     2  Cl   2.904676   0.000000
     3  Cl   1.682749   3.681827   0.000000
     4  H    0.986680   2.240477   2.097692   0.000000
 Symmetry turned off by external request.
 Stoichiometry    Cl2HO(1-)
 Framework group  C1[X(Cl2HO)]
 Deg. of freedom     6
 Full point group                 C1      NOp   1
 Rotational constants (GHZ):          23.1108426           2.0570393           1.8944485
 Leave Link  202 at Wed Sep 22 16:32:41 2021, MaxMem= 16106127360 cpu:               2.1 elap:               0.1
 (Enter /sw/contrib/gaussian/g16/B01/g16/l301.exe)
 Standard basis: Aug-CC-pVTZ (5D, 7F)
 Ernie: Thresh=  0.10000D-02 Tol=  0.10000D-05 Strict=F.
 Ernie:  29 primitive shells out of 169 were deleted.
   169 basis functions,   327 primitive gaussians,   198 cartesian basis functions
    22 alpha electrons       22 beta electrons
       nuclear repulsion energy       121.6761739024 Hartrees.
 IExCor=    0 DFT=F Ex=HF Corr=None ExCW=0 ScaHFX=  1.000000
 ScaDFX=  1.000000  1.000000  1.000000  1.000000 ScalE2=  1.000000  1.000000
 IRadAn=      5 IRanWt=     -1 IRanGd=            0 ICorTp=0 IEmpDi=  4
 NAtoms=    4 NActive=    4 NUniq=    4 SFac= 1.00D+00 NAtFMM=   60 NAOKFM=F Big=F
 Integral buffers will be    131072 words long.
 Raffenetti 1 integral format.
 Two-electron integral symmetry is turned off.
 Leave Link  301 at Wed Sep 22 16:32:41 2021, MaxMem= 16106127360 cpu:               1.2 elap:               0.1
 (Enter /sw/contrib/gaussian/g16/B01/g16/l302.exe)
 NPDir=0 NMtPBC=     1 NCelOv=     1 NCel=       1 NClECP=     1 NCelD=      1
         NCelK=      1 NCelE2=     1 NClLst=     1 CellRange=     0.0.
 One-electron integrals computed using PRISM.
 NBasis=   169 RedAO= T EigKep=  2.93D-04  NBF=   169
 NBsUse=   169 1.00D-06 EigRej= -1.00D+00 NBFU=   169
 Leave Link  302 at Wed Sep 22 16:32:41 2021, MaxMem= 16106127360 cpu:               4.2 elap:               0.2
 (Enter /sw/contrib/gaussian/g16/B01/g16/l303.exe)
 DipDrv:  MaxL=1.
 Leave Link  303 at Wed Sep 22 16:32:41 2021, MaxMem= 16106127360 cpu:               1.4 elap:               0.1
 (Enter /sw/contrib/gaussian/g16/B01/g16/l401.exe)
 ExpMin= 2.53D-02 ExpMax= 4.56D+05 ExpMxC= 1.44D+03 IAcc=3 IRadAn=         5 AccDes= 0.00D+00
 Harris functional with IExCor=  205 and IRadAn=       5 diagonalized for initial guess.
 HarFok:  IExCor=  205 AccDes= 0.00D+00 IRadAn=         5 IDoV= 1 UseB2=F ITyADJ=14
 ICtDFT=  3500011 ScaDFX=  1.000000  1.000000  1.000000  1.000000
 FoFCou: FMM=F IPFlag=           0 FMFlag=      100000 FMFlg1=           0
         NFxFlg=           0 DoJE=T BraDBF=F KetDBF=T FulRan=T
         wScrn=  0.000000 ICntrl=       500 IOpCl=  0 I1Cent=   200000004 NGrid=           0
         NMat0=    1 NMatS0=      1 NMatT0=    0 NMatD0=    1 NMtDS0=    0 NMtDT0=    0
 Symmetry not used in FoFCou.
 Harris En= -993.811749012896    
 JPrj=0 DoOrth=F DoCkMO=F.
 Leave Link  401 at Wed Sep 22 16:32:42 2021, MaxMem= 16106127360 cpu:               7.7 elap:               0.3
 (Enter /sw/contrib/gaussian/g16/B01/g16/l502.exe)
 Keep R1 ints in memory in canonical form, NReq=117118997.
 FoFCou: FMM=F IPFlag=           0 FMFlag=           0 FMFlg1=           0
         NFxFlg=           0 DoJE=F BraDBF=F KetDBF=F FulRan=T
         wScrn=  0.000000 ICntrl=       600 IOpCl=  0 I1Cent=           0 NGrid=           0
         NMat0=    1 NMatS0=  14365 NMatT0=    0 NMatD0=    1 NMtDS0=    0 NMtDT0=    0
 Symmetry not used in FoFCou.
 Two-electron integral symmetry not used.
 Closed shell SCF:
 Using DIIS extrapolation, IDIIS=  1040.
 NGot= 16106127360 LenX= 16002858349 LenY= 16002818704
 Requested convergence on RMS density matrix=1.00D-08 within 128 cycles.
 Requested convergence on MAX density matrix=1.00D-06.
 Requested convergence on             energy=1.00D-06.
 No special actions if energy rises.

 Cycle   1  Pass 1  IDiag  1:
 E= -994.377410080218    
 DIIS: error= 2.73D-02 at cycle   1 NSaved=   1.
 NSaved= 1 IEnMin= 1 EnMin= -994.377410080218     IErMin= 1 ErrMin= 2.73D-02
 ErrMax= 2.73D-02  0.00D+00 EMaxC= 1.00D-01 BMatC= 4.23D-01 BMatP= 4.23D-01
 IDIUse=3 WtCom= 7.27D-01 WtEn= 2.73D-01
 Coeff-Com:  0.100D+01
 Coeff-En:   0.100D+01
 Coeff:      0.100D+01
 Gap=     0.541 Goal=   None    Shift=    0.000
 GapD=    0.541 DampG=2.000 DampE=0.500 DampFc=1.0000 IDamp=-1.
 RMSDP=2.13D-03 MaxDP=7.09D-02              OVMax= 1.21D-01

 Cycle   2  Pass 1  IDiag  1:
 E= -994.475231047915     Delta-E=       -0.097820967698 Rises=F Damp=F
 DIIS: error= 1.27D-02 at cycle   2 NSaved=   2.
 NSaved= 2 IEnMin= 2 EnMin= -994.475231047915     IErMin= 2 ErrMin= 1.27D-02
 ErrMax= 1.27D-02  0.00D+00 EMaxC= 1.00D-01 BMatC= 4.85D-02 BMatP= 4.23D-01
 IDIUse=3 WtCom= 8.73D-01 WtEn= 1.27D-01
 Coeff-Com:  0.166D+00 0.834D+00
 Coeff-En:   0.000D+00 0.100D+01
 Coeff:      0.145D+00 0.855D+00
 Gap=     0.349 Goal=   None    Shift=    0.000
 RMSDP=9.83D-04 MaxDP=4.00D-02 DE=-9.78D-02 OVMax= 7.66D-02

 Cycle   3  Pass 1  IDiag  1:
 E= -994.500492985344     Delta-E=       -0.025261937429 Rises=F Damp=F
 DIIS: error= 6.30D-03 at cycle   3 NSaved=   3.
 NSaved= 3 IEnMin= 3 EnMin= -994.500492985344     IErMin= 3 ErrMin= 6.30D-03
 ErrMax= 6.30D-03  0.00D+00 EMaxC= 1.00D-01 BMatC= 1.28D-02 BMatP= 4.85D-02
 IDIUse=3 WtCom= 9.37D-01 WtEn= 6.30D-02
 Coeff-Com: -0.146D-01 0.328D+00 0.686D+00
 Coeff-En:   0.000D+00 0.954D-01 0.905D+00
 Coeff:     -0.136D-01 0.314D+00 0.700D+00
 Gap=     0.335 Goal=   None    Shift=    0.000
 RMSDP=3.43D-04 MaxDP=1.32D-02 DE=-2.53D-02 OVMax= 3.40D-02

 Cycle   4  Pass 1  IDiag  1:
 E= -994.509208371902     Delta-E=       -0.008715386558 Rises=F Damp=F
 DIIS: error= 7.44D-04 at cycle   4 NSaved=   4.
 NSaved= 4 IEnMin= 4 EnMin= -994.509208371902     IErMin= 4 ErrMin= 7.44D-04
 ErrMax= 7.44D-04  0.00D+00 EMaxC= 1.00D-01 BMatC= 1.68D-04 BMatP= 1.28D-02
 IDIUse=3 WtCom= 9.93D-01 WtEn= 7.44D-03
 Coeff-Com: -0.440D-02 0.309D-01 0.126D+00 0.848D+00
 Coeff-En:   0.000D+00 0.000D+00 0.000D+00 0.100D+01
 Coeff:     -0.437D-02 0.306D-01 0.125D+00 0.849D+00
 Gap=     0.328 Goal=   None    Shift=    0.000
 RMSDP=5.42D-05 MaxDP=1.34D-03 DE=-8.72D-03 OVMax= 2.93D-03

 Cycle   5  Pass 1  IDiag  1:
 E= -994.509379943154     Delta-E=       -0.000171571251 Rises=F Damp=F
 DIIS: error= 2.11D-04 at cycle   5 NSaved=   5.
 NSaved= 5 IEnMin= 5 EnMin= -994.509379943154     IErMin= 5 ErrMin= 2.11D-04
 ErrMax= 2.11D-04  0.00D+00 EMaxC= 1.00D-01 BMatC= 1.50D-05 BMatP= 1.68D-04
 IDIUse=3 WtCom= 9.98D-01 WtEn= 2.11D-03
 Coeff-Com:  0.896D-03-0.379D-01-0.716D-01-0.638D-02 0.111D+01
 Coeff-En:   0.000D+00 0.000D+00 0.000D+00 0.000D+00 0.100D+01
 Coeff:      0.894D-03-0.378D-01-0.714D-01-0.636D-02 0.111D+01
 Gap=     0.330 Goal=   None    Shift=    0.000
 RMSDP=3.24D-05 MaxDP=1.13D-03 DE=-1.72D-04 OVMax= 3.05D-03

 Cycle   6  Pass 1  IDiag  1:
 E= -994.509417771499     Delta-E=       -0.000037828346 Rises=F Damp=F
 DIIS: error= 8.35D-05 at cycle   6 NSaved=   6.
 NSaved= 6 IEnMin= 6 EnMin= -994.509417771499     IErMin= 6 ErrMin= 8.35D-05
 ErrMax= 8.35D-05  0.00D+00 EMaxC= 1.00D-01 BMatC= 1.86D-06 BMatP= 1.50D-05
 IDIUse=1 WtCom= 1.00D+00 WtEn= 0.00D+00
 Coeff-Com:  0.297D-03 0.737D-02 0.148D-01-0.666D-01-0.397D+00 0.144D+01
 Coeff:      0.297D-03 0.737D-02 0.148D-01-0.666D-01-0.397D+00 0.144D+01
 Gap=     0.330 Goal=   None    Shift=    0.000
 RMSDP=1.57D-05 MaxDP=5.52D-04 DE=-3.78D-05 OVMax= 1.50D-03

 Cycle   7  Pass 1  IDiag  1:
 E= -994.509424223765     Delta-E=       -0.000006452266 Rises=F Damp=F
 DIIS: error= 2.13D-05 at cycle   7 NSaved=   7.
 NSaved= 7 IEnMin= 7 EnMin= -994.509424223765     IErMin= 7 ErrMin= 2.13D-05
 ErrMax= 2.13D-05  0.00D+00 EMaxC= 1.00D-01 BMatC= 1.15D-07 BMatP= 1.86D-06
 IDIUse=1 WtCom= 1.00D+00 WtEn= 0.00D+00
 Coeff-Com: -0.186D-03-0.202D-03 0.122D-03 0.240D-01 0.711D-01-0.558D+00
 Coeff-Com:  0.146D+01
 Coeff:     -0.186D-03-0.202D-03 0.122D-03 0.240D-01 0.711D-01-0.558D+00
 Coeff:      0.146D+01
 Gap=     0.330 Goal=   None    Shift=    0.000
 RMSDP=4.80D-06 MaxDP=1.69D-04 DE=-6.45D-06 OVMax= 4.62D-04

 Cycle   8  Pass 1  IDiag  1:
 E= -994.509424732085     Delta-E=       -0.000000508320 Rises=F Damp=F
 DIIS: error= 6.08D-06 at cycle   8 NSaved=   8.
 NSaved= 8 IEnMin= 8 EnMin= -994.509424732085     IErMin= 8 ErrMin= 6.08D-06
 ErrMax= 6.08D-06  0.00D+00 EMaxC= 1.00D-01 BMatC= 8.23D-09 BMatP= 1.15D-07
 IDIUse=1 WtCom= 1.00D+00 WtEn= 0.00D+00
 Coeff-Com:  0.128D-05-0.768D-03-0.136D-02 0.347D-02 0.290D-01-0.800D-01
 Coeff-Com: -0.752D-01 0.112D+01
 Coeff:      0.128D-05-0.768D-03-0.136D-02 0.347D-02 0.290D-01-0.800D-01
 Coeff:     -0.752D-01 0.112D+01
 Gap=     0.330 Goal=   None    Shift=    0.000
 RMSDP=1.04D-06 MaxDP=2.32D-05 DE=-5.08D-07 OVMax= 1.13D-04

 Cycle   9  Pass 1  IDiag  1:
 E= -994.509424760448     Delta-E=       -0.000000028363 Rises=F Damp=F
 DIIS: error= 2.60D-06 at cycle   9 NSaved=   9.
 NSaved= 9 IEnMin= 9 EnMin= -994.509424760448     IErMin= 9 ErrMin= 2.60D-06
 ErrMax= 2.60D-06  0.00D+00 EMaxC= 1.00D-01 BMatC= 1.17D-09 BMatP= 8.23D-09
 IDIUse=1 WtCom= 1.00D+00 WtEn= 0.00D+00
 Coeff-Com:  0.187D-04 0.175D-03 0.346D-03-0.346D-02-0.156D-01 0.858D-01
 Coeff-Com: -0.164D+00-0.206D+00 0.130D+01
 Coeff:      0.187D-04 0.175D-03 0.346D-03-0.346D-02-0.156D-01 0.858D-01
 Coeff:     -0.164D+00-0.206D+00 0.130D+01
 Gap=     0.330 Goal=   None    Shift=    0.000
 RMSDP=5.03D-07 MaxDP=9.33D-06 DE=-2.84D-08 OVMax= 5.87D-05

 Cycle  10  Pass 1  IDiag  1:
 E= -994.509424765755     Delta-E=       -0.000000005307 Rises=F Damp=F
 DIIS: error= 1.20D-06 at cycle  10 NSaved=  10.
 NSaved=10 IEnMin=10 EnMin= -994.509424765755     IErMin=10 ErrMin= 1.20D-06
 ErrMax= 1.20D-06  0.00D+00 EMaxC= 1.00D-01 BMatC= 1.67D-10 BMatP= 1.17D-09
 IDIUse=1 WtCom= 1.00D+00 WtEn= 0.00D+00
 Coeff-Com: -0.201D-05 0.440D-04 0.277D-04 0.315D-03 0.439D-03-0.923D-02
 Coeff-Com:  0.456D-01-0.113D+00-0.265D+00 0.134D+01
 Coeff:     -0.201D-05 0.440D-04 0.277D-04 0.315D-03 0.439D-03-0.923D-02
 Coeff:      0.456D-01-0.113D+00-0.265D+00 0.134D+01
 Gap=     0.330 Goal=   None    Shift=    0.000
 RMSDP=2.21D-07 MaxDP=4.79D-06 DE=-5.31D-09 OVMax= 2.63D-05

 Cycle  11  Pass 1  IDiag  1:
 E= -994.509424766598     Delta-E=       -0.000000000844 Rises=F Damp=F
 DIIS: error= 3.81D-07 at cycle  11 NSaved=  11.
 NSaved=11 IEnMin=11 EnMin= -994.509424766598     IErMin=11 ErrMin= 3.81D-07
 ErrMax= 3.81D-07  0.00D+00 EMaxC= 1.00D-01 BMatC= 1.65D-11 BMatP= 1.67D-10
 IDIUse=1 WtCom= 1.00D+00 WtEn= 0.00D+00
 Coeff-Com: -0.296D-05-0.193D-04-0.300D-04 0.424D-03 0.168D-02-0.937D-02
 Coeff-Com:  0.154D-01 0.368D-01-0.114D+00-0.247D+00 0.132D+01
 Coeff:     -0.296D-05-0.193D-04-0.300D-04 0.424D-03 0.168D-02-0.937D-02
 Coeff:      0.154D-01 0.368D-01-0.114D+00-0.247D+00 0.132D+01
 Gap=     0.330 Goal=   None    Shift=    0.000
 RMSDP=7.76D-08 MaxDP=1.81D-06 DE=-8.44D-10 OVMax= 8.86D-06

 Cycle  12  Pass 1  IDiag  1:
 E= -994.509424766688     Delta-E=       -0.000000000090 Rises=F Damp=F
 DIIS: error= 7.65D-08 at cycle  12 NSaved=  12.
 NSaved=12 IEnMin=12 EnMin= -994.509424766688     IErMin=12 ErrMin= 7.65D-08
 ErrMax= 7.65D-08  0.00D+00 EMaxC= 1.00D-01 BMatC= 1.03D-12 BMatP= 1.65D-11
 IDIUse=1 WtCom= 1.00D+00 WtEn= 0.00D+00
 Coeff-Com:  0.518D-06-0.221D-05-0.969D-06-0.664D-04-0.196D-03 0.159D-02
 Coeff-Com: -0.478D-02 0.333D-02 0.324D-01-0.656D-01-0.153D+00 0.119D+01
 Coeff:      0.518D-06-0.221D-05-0.969D-06-0.664D-04-0.196D-03 0.159D-02
 Coeff:     -0.478D-02 0.333D-02 0.324D-01-0.656D-01-0.153D+00 0.119D+01
 Gap=     0.330 Goal=   None    Shift=    0.000
 RMSDP=1.58D-08 MaxDP=3.59D-07 DE=-8.96D-11 OVMax= 1.47D-06

 Cycle  13  Pass 1  IDiag  1:
 E= -994.509424766691     Delta-E=       -0.000000000003 Rises=F Damp=F
 DIIS: error= 2.04D-08 at cycle  13 NSaved=  13.
 NSaved=13 IEnMin=13 EnMin= -994.509424766691     IErMin=13 ErrMin= 2.04D-08
 ErrMax= 2.04D-08  0.00D+00 EMaxC= 1.00D-01 BMatC= 1.57D-13 BMatP= 1.03D-12
 IDIUse=1 WtCom= 1.00D+00 WtEn= 0.00D+00
 Coeff-Com:  0.225D-06 0.231D-05 0.249D-05-0.315D-04-0.134D-03 0.672D-03
 Coeff-Com: -0.627D-03-0.500D-02 0.641D-02 0.437D-01-0.140D+00-0.144D+00
 Coeff-Com:  0.124D+01
 Coeff:      0.225D-06 0.231D-05 0.249D-05-0.315D-04-0.134D-03 0.672D-03
 Coeff:     -0.627D-03-0.500D-02 0.641D-02 0.437D-01-0.140D+00-0.144D+00
 Coeff:      0.124D+01
 Gap=     0.330 Goal=   None    Shift=    0.000
 RMSDP=5.93D-09 MaxDP=1.18D-07 DE=-3.18D-12 OVMax= 4.67D-07

 SCF Done:  E(RHF) =  -994.509424767     A.U. after   13 cycles
            NFock= 13  Conv=0.59D-08     -V/T= 2.0001
 KE= 9.943803254516D+02 PE=-2.621077950260D+03 EE= 5.105120261393D+02
 Leave Link  502 at Wed Sep 22 16:32:45 2021, MaxMem= 16106127360 cpu:              33.4 elap:               3.5
 (Enter /sw/contrib/gaussian/g16/B01/g16/l801.exe)
 ExpMin= 2.53D-02 ExpMax= 4.56D+05 ExpMxC= 1.44D+03 IAcc=3 IRadAn=         5 AccDes= 0.00D+00
 HarFok:  IExCor=  205 AccDes= 0.00D+00 IRadAn=         5 IDoV=-2 UseB2=F ITyADJ=14
 ICtDFT= 12500011 ScaDFX=  1.000000  1.000000  1.000000  1.000000
 Largest valence mixing into a core orbital is  4.47D-04
 Largest core mixing into a valence orbital is  1.75D-04
 Range of M.O.s used for correlation:    12   169
 NBasis=   169 NAE=    22 NBE=    22 NFC=    11 NFV=     0
 NROrb=    158 NOA=    11 NOB=    11 NVA=   147 NVB=   147

 **** Warning!!: The largest alpha MO coefficient is  0.10279401D+02

 Leave Link  801 at Wed Sep 22 16:32:45 2021, MaxMem= 16106127360 cpu:               2.4 elap:               0.1
 (Enter /sw/contrib/gaussian/g16/B01/g16/l906.exe)
 Frozen-core derivative calculation, NFC=  11 NFV=   0.
 FulOut=F Deriv=T AODrv=F NAtomX=     4
   MMem=         144  MDisk=          11 MDiskD=          11
  W3Min=      736164 MinDsk=     1250177 NBas6D=         198
 NBas2D=       20187    NTT=       19701    LW2=     3500000
    MDV= 16105751340 MDiskM=      406660 NBas2p=       19980
 Fully in-core method, ICMem=   420417501.
 IMap=   1   2   3   4   5   6   7   8   9  10  11  12  13  14  15  16  17  18  19  20
 IMap=  21  22
 JobTyp=1 Pass  1 fully in-core, NPsUse= 28.
 Compute canonical integrals.
 FoFCou: FMM=F IPFlag=           0 FMFlag=           0 FMFlg1=           0
         NFxFlg=           0 DoJE=F BraDBF=F KetDBF=F FulRan=T
         wScrn=  0.000000 ICntrl=       600 IOpCl=  1 I1Cent=           0 NGrid=           0
         NMat0=    1 NMatS0=  20187 NMatT0=    0 NMatD0=    1 NMtDS0=    0 NMtDT0=    0
 Symmetry not used in FoFCou.
 Spin components of T(2) and E(2):
     alpha-alpha T2 =       0.2910290407D-01 E2=     -0.8359352166D-01
     alpha-beta  T2 =       0.1593657580D+00 E2=     -0.4973918833D+00
     beta-beta   T2 =       0.2910290407D-01 E2=     -0.8359352166D-01
 The integrals were generated   1 times.
 ANorm=    0.1103436254D+01
 E2 =    -0.6645789266D+00 EUMP2 =    -0.99517400369327D+03
 Leave Link  906 at Wed Sep 22 16:32:49 2021, MaxMem= 16106127360 cpu:             114.6 elap:               4.1
 (Enter /sw/contrib/gaussian/g16/B01/g16/l1002.exe)
 Minotr:  Closed shell wavefunction.
          Computing MP2/KS-MP2 derivatives.
          Using Z-Vector for PSCF gradient.
          Skipping F1 and S1 gradient terms here.
          Frozen-core window.
          Direct CPHF calculation.
          Differentiating once with respect to electric field.
                with respect to dipole field.
          Electric field/nuclear overlap derivatives assumed to be zero.
          Requested convergence is 1.0D-10 RMS, and 1.0D-09 maximum.
          NewPWx=F KeepS1=T KeepF1=T KeepIn=T MapXYZ=F SortEE=F KeepMc=T.
 Keep R1 ints in memory in canonical form, NReq=117123153.
 FoFCou: FMM=F IPFlag=           0 FMFlag=           0 FMFlg1=           0
         NFxFlg=           0 DoJE=F BraDBF=F KetDBF=F FulRan=T
         wScrn=  0.000000 ICntrl=       600 IOpCl=  0 I1Cent=           0 NGrid=           0
         NMat0=    1 NMatS0=  14365 NMatT0=    0 NMatD0=    1 NMtDS0=    0 NMtDT0=    0
 Symmetry not used in FoFCou.
 Two-electron integral symmetry not used.
          MDV=   16106127360 using IRadAn=       5.
          Solving linear equations separately, MaxMat=       0.
          There are     1 degrees of freedom in the 1st order CPHF.  IDoFFX=0 NUNeed=     1.
 LinEq1:  Iter=  0 NonCon=     1 RMS=3.08D-03 Max=3.94D-02 NDo=     1
 AX will form     1 AO Fock derivatives at one time.
 LinEq1:  Iter=  1 NonCon=     1 RMS=3.91D-04 Max=3.61D-03 NDo=     1
 LinEq1:  Iter=  2 NonCon=     1 RMS=1.58D-04 Max=1.83D-03 NDo=     1
 LinEq1:  Iter=  3 NonCon=     1 RMS=6.19D-05 Max=9.57D-04 NDo=     1
 LinEq1:  Iter=  4 NonCon=     1 RMS=2.74D-05 Max=4.37D-04 NDo=     1
 LinEq1:  Iter=  5 NonCon=     1 RMS=7.82D-06 Max=1.34D-04 NDo=     1
 LinEq1:  Iter=  6 NonCon=     1 RMS=2.53D-06 Max=3.13D-05 NDo=     1
 LinEq1:  Iter=  7 NonCon=     1 RMS=7.16D-07 Max=7.59D-06 NDo=     1
 LinEq1:  Iter=  8 NonCon=     1 RMS=1.39D-07 Max=1.56D-06 NDo=     1
 LinEq1:  Iter=  9 NonCon=     1 RMS=3.43D-08 Max=4.27D-07 NDo=     1
 LinEq1:  Iter= 10 NonCon=     1 RMS=9.30D-09 Max=1.40D-07 NDo=     1
 LinEq1:  Iter= 11 NonCon=     1 RMS=2.34D-09 Max=3.78D-08 NDo=     1
 LinEq1:  Iter= 12 NonCon=     1 RMS=6.39D-10 Max=6.09D-09 NDo=     1
 LinEq1:  Iter= 13 NonCon=     1 RMS=1.60D-10 Max=1.67D-09 NDo=     1
 LinEq1:  Iter= 14 NonCon=     0 RMS=4.31D-11 Max=4.75D-10 NDo=     1
 Linear equations converged to 1.000D-10 1.000D-09 after    14 iterations.
 End of Minotr F.D. properties file   721 does not exist.
 End of Minotr F.D. properties file   722 does not exist.
 End of Minotr F.D. properties file   788 does not exist.
 Leave Link 1002 at Wed Sep 22 16:32:53 2021, MaxMem= 16106127360 cpu:              30.1 elap:               3.9
 (Enter /sw/contrib/gaussian/g16/B01/g16/l601.exe)
 Copying SCF densities to generalized density rwf, IOpCl= 0 IROHF=0.

 **********************************************************************

            Population analysis using the MP2 Density.

 **********************************************************************

 Alpha  occ. eigenvalues -- -104.73450-104.52902 -20.47113 -10.45416 -10.25356
 Alpha  occ. eigenvalues --   -7.92135  -7.91866  -7.91850  -7.71968  -7.71957
 Alpha  occ. eigenvalues --   -7.71955  -1.24247  -0.90022  -0.76366  -0.55006
 Alpha  occ. eigenvalues --   -0.44959  -0.44068  -0.31217  -0.28531  -0.18113
 Alpha  occ. eigenvalues --   -0.17669  -0.17511
 Alpha virt. eigenvalues --    0.15506   0.18100   0.22336   0.23203   0.26290
 Alpha virt. eigenvalues --    0.27502   0.28135   0.28793   0.30075   0.31899
 Alpha virt. eigenvalues --    0.33252   0.35015   0.40750   0.41285   0.46124
 Alpha virt. eigenvalues --    0.48345   0.52643   0.54074   0.55647   0.58033
 Alpha virt. eigenvalues --    0.58540   0.59533   0.61132   0.62351   0.65503
 Alpha virt. eigenvalues --    0.66455   0.67647   0.68283   0.76051   0.79687
 Alpha virt. eigenvalues --    0.85067   0.87250   0.88459   0.89744   0.90576
 Alpha virt. eigenvalues --    0.92698   0.95688   0.98098   1.00185   1.05957
 Alpha virt. eigenvalues --    1.08201   1.09261   1.10439   1.11164   1.12684
 Alpha virt. eigenvalues --    1.15194   1.19467   1.20065   1.20608   1.21966
 Alpha virt. eigenvalues --    1.22398   1.23419   1.26784   1.28388   1.30981
 Alpha virt. eigenvalues --    1.33517   1.35324   1.39166   1.42325   1.43515
 Alpha virt. eigenvalues --    1.44675   1.48842   1.49288   1.53527   1.57389
 Alpha virt. eigenvalues --    1.59820   1.65437   1.68148   1.70830   1.72237
 Alpha virt. eigenvalues --    1.75831   1.81956   1.85366   1.87041   1.96922
 Alpha virt. eigenvalues --    1.98106   2.13846   2.36328   2.42620   2.50142
 Alpha virt. eigenvalues --    2.50400   2.53563   2.60276   2.61622   2.64507
 Alpha virt. eigenvalues --    2.67978   2.69230   2.70403   2.72181   2.74856
 Alpha virt. eigenvalues --    2.77590   2.80892   2.82194   2.82485   2.88786
 Alpha virt. eigenvalues --    2.89965   2.94097   2.94571   2.98432   3.00737
 Alpha virt. eigenvalues --    3.03757   3.10922   3.16608   3.20476   3.21902
 Alpha virt. eigenvalues --    3.23860   3.27052   3.29585   3.32565   3.35329
 Alpha virt. eigenvalues --    3.35627   3.39880   3.43097   3.47614   3.50323
 Alpha virt. eigenvalues --    3.52286   3.56086   3.58927   3.62613   3.91267
 Alpha virt. eigenvalues --    4.08789   4.36847   4.48767   4.56745   4.64414
 Alpha virt. eigenvalues --    4.73407   4.94035   5.01664   5.37501   5.44665
 Alpha virt. eigenvalues --    5.68936   6.16499   6.41426   6.67288   6.87008
 Alpha virt. eigenvalues --    6.90438   6.91829   6.98851   7.34033   7.36186
 Alpha virt. eigenvalues --    7.36735   7.46456   7.50770   7.73097   7.74405
 Alpha virt. eigenvalues --    8.39083  14.53976
          Condensed to atoms (all electrons):
               1          2          3          4
     1  O    8.514312  -0.082553  -0.119498   0.080308
     2  Cl  -0.082553  17.921187   0.000263   0.072657
     3  Cl  -0.119498   0.000263  17.051700   0.000849
     4  H    0.080308   0.072657   0.000849   0.608748
 Mulliken charges:
               1
     1  O   -0.392569
     2  Cl  -0.911555
     3  Cl   0.066686
     4  H    0.237438
 Sum of Mulliken charges =  -1.00000
 Mulliken charges with hydrogens summed into heavy atoms:
               1
     1  O   -0.155131
     2  Cl  -0.911555
     3  Cl   0.066686
 Electronic spatial extent (au):  <R**2>=            796.1838
 Charge=             -1.0000 electrons
 Dipole moment (field-independent basis, Debye):
    X=            -10.9772    Y=             -0.5986    Z=              0.6011  Tot=             11.0099
 Quadrupole moment (field-independent basis, Debye-Ang):
   XX=            -73.1545   YY=            -36.9317   ZZ=            -35.9853
   XY=              0.4807   XZ=              0.3596   YZ=             -0.2143
 Traceless Quadrupole moment (field-independent basis, Debye-Ang):
   XX=            -24.4640   YY=             11.7588   ZZ=             12.7052
   XY=              0.4807   XZ=              0.3596   YZ=             -0.2143
 Octapole moment (field-independent basis, Debye-Ang**2):
  XXX=           -238.8930  YYY=            -62.3015  ZZZ=             -1.6186  XYY=            -44.5110
  XXY=            -21.8872  XXZ=             -2.5472  XZZ=            -43.5806  YZZ=            -22.1949
  YYZ=             -1.0577  XYZ=              0.1195
 Hexadecapole moment (field-independent basis, Debye-Ang**3):
 XXXX=          -1232.5074 YYYY=           -245.5870 ZZZZ=            -52.0484 XXXY=             28.0996
 XXXZ=             -9.1188 YYYX=             22.3202 YYYZ=             -0.9838 ZZZX=             -2.0321
 ZZZY=             -0.3114 XXYY=           -198.5587 XXZZ=           -162.8392 YYZZ=            -54.1600
 XXYZ=             -0.2181 YYXZ=             -0.4611 ZZXY=              9.2825
 N-N= 1.216761739024D+02 E-N=-2.621126853336D+03  KE= 9.950416783903D+02
 No NMR shielding tensors so no spin-rotation constants.
 Leave Link  601 at Wed Sep 22 16:32:54 2021, MaxMem= 16106127360 cpu:               4.3 elap:               0.2
 (Enter /sw/contrib/gaussian/g16/B01/g16/l607.exe)
 ******************************Gaussian NBO Version 3.1******************************
             N A T U R A L   A T O M I C   O R B I T A L   A N D
          N A T U R A L   B O N D   O R B I T A L   A N A L Y S I S
 ******************************Gaussian NBO Version 3.1******************************
       /RESON  / : Allow strongly delocalized NBO set

 Analyzing the MP2 density

 Job title: title                                                           

 Storage needed:     86521 in NPA,    114817 in NBO (********** available)
 GSVD:  LWork=        1191 too small for GESVD, short by       52514 words or       52514 for optimal perf.


 NATURAL POPULATIONS:  Natural atomic orbital occupancies 
                                                          
   NAO  Atom  No  lang   Type(AO)    Occupancy
 --------------------------------------------
     1    O    1  S      Cor( 1S)     1.99971
     2    O    1  S      Val( 2S)     1.79299
     3    O    1  S      Ryd( 3S)     0.00924
     4    O    1  S      Ryd( 4S)     0.00110
     5    O    1  S      Ryd( 5S)     0.00016
     6    O    1  px     Val( 2p)     1.72739
     7    O    1  px     Ryd( 3p)     0.01423
     8    O    1  px     Ryd( 4p)     0.00070
     9    O    1  px     Ryd( 5p)     0.00037
    10    O    1  py     Val( 2p)     1.27407
    11    O    1  py     Ryd( 3p)     0.00771
    12    O    1  py     Ryd( 4p)     0.00061
    13    O    1  py     Ryd( 5p)     0.00032
    14    O    1  pz     Val( 2p)     1.80962
    15    O    1  pz     Ryd( 3p)     0.01616
    16    O    1  pz     Ryd( 4p)     0.00071
    17    O    1  pz     Ryd( 5p)     0.00025
    18    O    1  dxy    Ryd( 3d)     0.00916
    19    O    1  dxy    Ryd( 4d)     0.00050
    20    O    1  dxy    Ryd( 5d)     0.00019
    21    O    1  dxz    Ryd( 3d)     0.01132
    22    O    1  dxz    Ryd( 4d)     0.00054
    23    O    1  dxz    Ryd( 5d)     0.00015
    24    O    1  dyz    Ryd( 3d)     0.00986
    25    O    1  dyz    Ryd( 4d)     0.00056
    26    O    1  dyz    Ryd( 5d)     0.00010
    27    O    1  dx2y2  Ryd( 3d)     0.01046
    28    O    1  dx2y2  Ryd( 4d)     0.00049
    29    O    1  dx2y2  Ryd( 5d)     0.00020
    30    O    1  dz2    Ryd( 3d)     0.00931
    31    O    1  dz2    Ryd( 4d)     0.00057
    32    O    1  dz2    Ryd( 5d)     0.00020
    33    O    1  f(0)   Ryd( 4f)     0.00059
    34    O    1  f(0)   Ryd( 5f)     0.00011
    35    O    1  f(C1)  Ryd( 4f)     0.00059
    36    O    1  f(C1)  Ryd( 5f)     0.00012
    37    O    1  f(S1)  Ryd( 4f)     0.00060
    38    O    1  f(S1)  Ryd( 5f)     0.00012
    39    O    1  f(C2)  Ryd( 4f)     0.00064
    40    O    1  f(C2)  Ryd( 5f)     0.00014
    41    O    1  f(S2)  Ryd( 4f)     0.00060
    42    O    1  f(S2)  Ryd( 5f)     0.00012
    43    O    1  f(C3)  Ryd( 4f)     0.00064
    44    O    1  f(C3)  Ryd( 5f)     0.00014
    45    O    1  f(S3)  Ryd( 4f)     0.00062
    46    O    1  f(S3)  Ryd( 5f)     0.00011

    47   Cl    2  S      Cor( 1S)     2.00001
    48   Cl    2  S      Cor( 2S)     2.00000
    49   Cl    2  S      Val( 3S)     1.97798
    50   Cl    2  S      Ryd( 4S)     0.00300
    51   Cl    2  S      Ryd( 5S)     0.00030
    52   Cl    2  S      Ryd( 6S)     0.00011
    53   Cl    2  px     Cor( 2p)     2.00002
    54   Cl    2  px     Val( 3p)     1.91995
    55   Cl    2  px     Ryd( 4p)     0.01191
    56   Cl    2  px     Ryd( 5p)     0.00056
    57   Cl    2  px     Ryd( 6p)     0.00006
    58   Cl    2  py     Cor( 2p)     2.00003
    59   Cl    2  py     Val( 3p)     1.95180
    60   Cl    2  py     Ryd( 4p)     0.01344
    61   Cl    2  py     Ryd( 5p)     0.00058
    62   Cl    2  py     Ryd( 6p)     0.00006
    63   Cl    2  pz     Cor( 2p)     2.00002
    64   Cl    2  pz     Val( 3p)     1.94472
    65   Cl    2  pz     Ryd( 4p)     0.01329
    66   Cl    2  pz     Ryd( 5p)     0.00058
    67   Cl    2  pz     Ryd( 6p)     0.00004
    68   Cl    2  dxy    Ryd( 3d)     0.01865
    69   Cl    2  dxy    Ryd( 4d)     0.00085
    70   Cl    2  dxy    Ryd( 5d)     0.00013
    71   Cl    2  dxz    Ryd( 3d)     0.01878
    72   Cl    2  dxz    Ryd( 4d)     0.00090
    73   Cl    2  dxz    Ryd( 5d)     0.00014
    74   Cl    2  dyz    Ryd( 3d)     0.01839
    75   Cl    2  dyz    Ryd( 4d)     0.00099
    76   Cl    2  dyz    Ryd( 5d)     0.00011
    77   Cl    2  dx2y2  Ryd( 3d)     0.01833
    78   Cl    2  dx2y2  Ryd( 4d)     0.00093
    79   Cl    2  dx2y2  Ryd( 5d)     0.00014
    80   Cl    2  dz2    Ryd( 3d)     0.01838
    81   Cl    2  dz2    Ryd( 4d)     0.00095
    82   Cl    2  dz2    Ryd( 5d)     0.00011
    83   Cl    2  f(0)   Ryd( 4f)     0.00130
    84   Cl    2  f(0)   Ryd( 5f)     0.00015
    85   Cl    2  f(C1)  Ryd( 4f)     0.00129
    86   Cl    2  f(C1)  Ryd( 5f)     0.00016
    87   Cl    2  f(S1)  Ryd( 4f)     0.00129
    88   Cl    2  f(S1)  Ryd( 5f)     0.00014
    89   Cl    2  f(C2)  Ryd( 4f)     0.00129
    90   Cl    2  f(C2)  Ryd( 5f)     0.00016
    91   Cl    2  f(S2)  Ryd( 4f)     0.00130
    92   Cl    2  f(S2)  Ryd( 5f)     0.00015
    93   Cl    2  f(C3)  Ryd( 4f)     0.00129
    94   Cl    2  f(C3)  Ryd( 5f)     0.00017
    95   Cl    2  f(S3)  Ryd( 4f)     0.00129
    96   Cl    2  f(S3)  Ryd( 5f)     0.00016

    97   Cl    3  S      Cor( 1S)     2.00000
    98   Cl    3  S      Cor( 2S)     1.99981
    99   Cl    3  S      Val( 3S)     1.88284
   100   Cl    3  S      Ryd( 4S)     0.00845
   101   Cl    3  S      Ryd( 5S)     0.00055
   102   Cl    3  S      Ryd( 6S)     0.00017
   103   Cl    3  px     Cor( 2p)     2.00003
   104   Cl    3  px     Val( 3p)     1.89272
   105   Cl    3  px     Ryd( 4p)     0.00984
   106   Cl    3  px     Ryd( 5p)     0.00059
   107   Cl    3  px     Ryd( 6p)     0.00007
   108   Cl    3  py     Cor( 2p)     1.99997
   109   Cl    3  py     Val( 3p)     0.96556
   110   Cl    3  py     Ryd( 4p)     0.00710
   111   Cl    3  py     Ryd( 5p)     0.00052
   112   Cl    3  py     Ryd( 6p)     0.00021
   113   Cl    3  pz     Cor( 2p)     2.00003
   114   Cl    3  pz     Val( 3p)     1.95409
   115   Cl    3  pz     Ryd( 4p)     0.01034
   116   Cl    3  pz     Ryd( 5p)     0.00061
   117   Cl    3  pz     Ryd( 6p)     0.00003
   118   Cl    3  dxy    Ryd( 3d)     0.01867
   119   Cl    3  dxy    Ryd( 4d)     0.00076
   120   Cl    3  dxy    Ryd( 5d)     0.00026
   121   Cl    3  dxz    Ryd( 3d)     0.01716
   122   Cl    3  dxz    Ryd( 4d)     0.00080
   123   Cl    3  dxz    Ryd( 5d)     0.00021
   124   Cl    3  dyz    Ryd( 3d)     0.01907
   125   Cl    3  dyz    Ryd( 4d)     0.00090
   126   Cl    3  dyz    Ryd( 5d)     0.00034
   127   Cl    3  dx2y2  Ryd( 3d)     0.01878
   128   Cl    3  dx2y2  Ryd( 4d)     0.00072
   129   Cl    3  dx2y2  Ryd( 5d)     0.00025
   130   Cl    3  dz2    Ryd( 3d)     0.01741
   131   Cl    3  dz2    Ryd( 4d)     0.00063
   132   Cl    3  dz2    Ryd( 5d)     0.00018
   133   Cl    3  f(0)   Ryd( 4f)     0.00128
   134   Cl    3  f(0)   Ryd( 5f)     0.00013
   135   Cl    3  f(C1)  Ryd( 4f)     0.00127
   136   Cl    3  f(C1)  Ryd( 5f)     0.00013
   137   Cl    3  f(S1)  Ryd( 4f)     0.00140
   138   Cl    3  f(S1)  Ryd( 5f)     0.00013
   139   Cl    3  f(C2)  Ryd( 4f)     0.00127
   140   Cl    3  f(C2)  Ryd( 5f)     0.00014
   141   Cl    3  f(S2)  Ryd( 4f)     0.00123
   142   Cl    3  f(S2)  Ryd( 5f)     0.00013
   143   Cl    3  f(C3)  Ryd( 4f)     0.00146
   144   Cl    3  f(C3)  Ryd( 5f)     0.00014
   145   Cl    3  f(S3)  Ryd( 4f)     0.00147
   146   Cl    3  f(S3)  Ryd( 5f)     0.00015

   147    H    4  S      Val( 1S)     0.47760
   148    H    4  S      Ryd( 2S)     0.00551
   149    H    4  S      Ryd( 3S)     0.00026
   150    H    4  S      Ryd( 4S)     0.00014
   151    H    4  px     Ryd( 2p)     0.00607
   152    H    4  px     Ryd( 3p)     0.00070
   153    H    4  px     Ryd( 4p)     0.00028
   154    H    4  py     Ryd( 2p)     0.00266
   155    H    4  py     Ryd( 3p)     0.00040
   156    H    4  py     Ryd( 4p)     0.00011
   157    H    4  pz     Ryd( 2p)     0.00340
   158    H    4  pz     Ryd( 3p)     0.00055
   159    H    4  pz     Ryd( 4p)     0.00019
   160    H    4  dxy    Ryd( 3d)     0.00024
   161    H    4  dxy    Ryd( 4d)     0.00008
   162    H    4  dxz    Ryd( 3d)     0.00033
   163    H    4  dxz    Ryd( 4d)     0.00009
   164    H    4  dyz    Ryd( 3d)     0.00016
   165    H    4  dyz    Ryd( 4d)     0.00007
   166    H    4  dx2y2  Ryd( 3d)     0.00027
   167    H    4  dx2y2  Ryd( 4d)     0.00012
   168    H    4  dz2    Ryd( 3d)     0.00023
   169    H    4  dz2    Ryd( 4d)     0.00010


 Summary of Natural Population Analysis:                  
                                                          
                                       Natural Population 
                Natural  -----------------------------------------------
    Atom  No    Charge         Core      Valence    Rydberg      Total
 -----------------------------------------------------------------------
      O    1   -0.71408      1.99971     6.60407    0.11031     8.71408
     Cl    2   -0.94640     10.00008     7.79445    0.15188    17.94640
     Cl    3    0.16005      9.99983     6.69521    0.14491    16.83995
      H    4    0.50044      0.00000     0.47760    0.02197     0.49956
 =======================================================================
   * Total *   -1.00000     21.99962    21.57132    0.42906    44.00000

                                 Natural Population      
 --------------------------------------------------------
   Core                      21.99962 ( 99.9983% of  22)
   Valence                   21.57132 ( 98.0515% of  22)
   Natural Minimal Basis     43.57094 ( 99.0249% of  44)
   Natural Rydberg Basis      0.42906 (  0.9751% of  44)
 --------------------------------------------------------

    Atom  No          Natural Electron Configuration
 ----------------------------------------------------------------------------
      O    1      [core]2S( 1.79)2p( 4.81)3S( 0.01)3p( 0.04)3d( 0.05)
     Cl    2      [core]3S( 1.98)3p( 5.82)3d( 0.09)4p( 0.04)4f( 0.01)
     Cl    3      [core]3S( 1.88)3p( 4.81)4S( 0.01)3d( 0.09)4p( 0.03)4f( 0.01)
      H    4            1S( 0.48)2S( 0.01)2p( 0.01)


 NATURAL BOND ORBITAL ANALYSIS:

                       Occupancies       Lewis Structure    Low   High
           Occ.    -------------------  -----------------   occ   occ
  Cycle   Thresh.   Lewis   Non-Lewis     CR  BD  3C  LP    (L)   (NL)   Dev
 =============================================================================
   1(1)    1.90    43.50652   0.49348     11   2   0   9     0      0    0.05
 -----------------------------------------------------------------------------

 Structure accepted: No low occupancy Lewis orbitals

 --------------------------------------------------------
   Core                     21.99962 ( 99.998% of  22)
   Valence Lewis            21.50690 ( 97.759% of  22)
  ==================       ============================
   Total Lewis              43.50652 ( 98.878% of  44)
  -----------------------------------------------------
   Valence non-Lewis         0.11376 (  0.259% of  44)
   Rydberg non-Lewis         0.37972 (  0.863% of  44)
  ==================       ============================
   Total non-Lewis           0.49348 (  1.122% of  44)
 --------------------------------------------------------


       (Occupancy)   Bond orbital/ Coefficients/ Hybrids
 ---------------------------------------------------------------------------------
     1. (1.94018) BD ( 1) O   1 -Cl   3  
                ( 59.02%)   0.7682* O   1 s( 10.16%)p 8.79( 89.28%)d 0.05(  0.55%)
                                                  f 0.00(  0.02%)
                                            0.0003  0.3156 -0.0424 -0.0126 -0.0018
                                           -0.2229  0.0269  0.0061  0.0021  0.9169
                                           -0.0184 -0.0081 -0.0093  0.0280  0.0194
                                            0.0035 -0.0006 -0.0141 -0.0020 -0.0026
                                            0.0082  0.0008 -0.0012  0.0219  0.0030
                                           -0.0005 -0.0589 -0.0044  0.0001 -0.0353
                                           -0.0028 -0.0004 -0.0001  0.0003  0.0017
                                            0.0006 -0.0070  0.0000 -0.0035  0.0019
                                            0.0054 -0.0010  0.0055  0.0010 -0.0071
                                            0.0010
                ( 40.98%)   0.6402*Cl   3 s(  8.56%)p10.54( 90.16%)d 0.14(  1.17%)
                                                  f 0.01(  0.11%)
                                           -0.0000  0.0005  0.2860 -0.0606 -0.0101
                                           -0.0026  0.0001  0.2264 -0.0144 -0.0044
                                            0.0013 -0.0004 -0.9195  0.0662  0.0128
                                           -0.0035  0.0000  0.0051 -0.0004 -0.0024
                                            0.0012 -0.0470  0.0057 -0.0000  0.0079
                                            0.0004 -0.0009 -0.0114 -0.0016 -0.0009
                                           -0.0794  0.0096  0.0006 -0.0534  0.0060
                                           -0.0001 -0.0008  0.0001 -0.0047  0.0006
                                            0.0193 -0.0023  0.0001 -0.0006 -0.0019
                                            0.0013 -0.0177  0.0026  0.0195 -0.0024
     2. (1.96402) BD ( 1) O   1 - H   4  
                ( 77.87%)   0.8825* O   1 s( 24.80%)p 3.01( 74.65%)d 0.02(  0.53%)
                                                  f 0.00(  0.01%)
                                            0.0002  0.4979 -0.0045 -0.0073  0.0024
                                            0.6404 -0.0131 -0.0064 -0.0016 -0.0312
                                            0.0154  0.0014  0.0018  0.5787 -0.0053
                                           -0.0057 -0.0039  0.0192  0.0038  0.0010
                                            0.0606  0.0035 -0.0007  0.0194  0.0035
                                            0.0003  0.0247  0.0014  0.0017  0.0155
                                            0.0026  0.0020 -0.0072  0.0007  0.0051
                                            0.0008  0.0014 -0.0006  0.0039  0.0023
                                           -0.0000 -0.0009 -0.0024  0.0022 -0.0019
                                            0.0000
                ( 22.13%)   0.4704* H   4 s( 99.80%)p 0.00(  0.20%)d 0.00(  0.00%)
                                            0.9988  0.0218  0.0008  0.0002 -0.0016
                                           -0.0244 -0.0057  0.0112  0.0018 -0.0041
                                            0.0273 -0.0206 -0.0043  0.0010  0.0011
                                            0.0017 -0.0007  0.0017  0.0016  0.0000
                                           -0.0019 -0.0012 -0.0015
     3. (1.99971) CR ( 1) O   1           s(100.00%)p 0.00(  0.00%)
                                            1.0000 -0.0004  0.0000  0.0000  0.0000
                                           -0.0000 -0.0000  0.0000  0.0000 -0.0002
                                            0.0000  0.0000  0.0000 -0.0000 -0.0000
                                            0.0000  0.0000  0.0000 -0.0000 -0.0000
                                           -0.0000 -0.0000  0.0000 -0.0000 -0.0000
                                           -0.0000  0.0000  0.0000 -0.0000  0.0000
                                            0.0000 -0.0000  0.0000 -0.0000 -0.0000
                                           -0.0000  0.0000 -0.0000 -0.0000 -0.0000
                                           -0.0000  0.0000 -0.0000 -0.0000  0.0000
                                           -0.0000
     4. (2.00001) CR ( 1)Cl   2           s(100.00%)
                                            1.0000 -0.0000  0.0000  0.0000 -0.0000
                                            0.0000 -0.0000 -0.0000  0.0000  0.0000
                                           -0.0000 -0.0000  0.0000  0.0000  0.0000
                                            0.0000  0.0000  0.0000  0.0000 -0.0000
                                            0.0000 -0.0000 -0.0000 -0.0000 -0.0000
                                           -0.0000 -0.0000  0.0000  0.0000  0.0000
                                            0.0000  0.0000 -0.0000 -0.0000 -0.0000
                                            0.0000 -0.0000 -0.0000  0.0000  0.0000
                                           -0.0000 -0.0000  0.0000  0.0000 -0.0000
                                           -0.0000 -0.0000 -0.0000  0.0000  0.0000
     5. (2.00000) CR ( 2)Cl   2           s(100.00%)
                                           -0.0000  1.0000  0.0000  0.0000 -0.0000
                                            0.0000 -0.0000 -0.0000  0.0000  0.0000
                                           -0.0000 -0.0000  0.0000  0.0000  0.0000
                                            0.0000  0.0000  0.0000  0.0000 -0.0000
                                            0.0000 -0.0000 -0.0000 -0.0000 -0.0000
                                           -0.0000 -0.0000  0.0000  0.0000  0.0000
                                            0.0000  0.0000 -0.0000 -0.0000 -0.0000
                                            0.0000 -0.0000 -0.0000  0.0000  0.0000
                                           -0.0000 -0.0000  0.0000  0.0000 -0.0000
                                           -0.0000 -0.0000 -0.0000  0.0000  0.0000
     6. (2.00002) CR ( 3)Cl   2           s(  0.00%)p 1.00(100.00%)
                                           -0.0000 -0.0000  0.0000  0.0000  0.0000
                                            0.0000  1.0000 -0.0001 -0.0000  0.0000
                                           -0.0000 -0.0000 -0.0000 -0.0000  0.0000
                                            0.0000  0.0000  0.0000  0.0000 -0.0000
                                            0.0000  0.0000 -0.0000 -0.0000 -0.0000
                                           -0.0000 -0.0000 -0.0000 -0.0000  0.0000
                                            0.0000  0.0000  0.0000 -0.0000 -0.0000
                                            0.0000 -0.0000 -0.0000 -0.0000  0.0000
                                           -0.0000 -0.0000  0.0000  0.0000  0.0000
                                           -0.0000 -0.0000 -0.0000  0.0000  0.0000
     7. (2.00003) CR ( 4)Cl   2           s(  0.00%)p 1.00(100.00%)
                                           -0.0000 -0.0000  0.0000  0.0000 -0.0000
                                            0.0000 -0.0000 -0.0000 -0.0000  0.0000
                                            0.0000  1.0000  0.0000  0.0000  0.0000
                                            0.0000  0.0000  0.0000  0.0000 -0.0000
                                            0.0000 -0.0000 -0.0000 -0.0000 -0.0000
                                           -0.0000 -0.0000  0.0000  0.0000  0.0000
                                            0.0000  0.0000  0.0000 -0.0000 -0.0000
                                            0.0000 -0.0000 -0.0000  0.0000  0.0000
                                           -0.0000 -0.0000  0.0000  0.0000 -0.0000
                                           -0.0000 -0.0000 -0.0000  0.0000  0.0000
     8. (2.00002) CR ( 5)Cl   2           s(  0.00%)p 1.00(100.00%)
                                            0.0000  0.0000 -0.0000 -0.0000  0.0000
                                           -0.0000  0.0000  0.0001 -0.0000 -0.0000
                                            0.0000  0.0000  0.0000 -0.0000 -0.0000
                                           -0.0000  1.0000  0.0000 -0.0000  0.0000
                                           -0.0000  0.0000  0.0000  0.0000  0.0000
                                            0.0000  0.0000  0.0000  0.0000  0.0000
                                           -0.0000 -0.0000  0.0000  0.0000  0.0000
                                            0.0000  0.0000  0.0000 -0.0000 -0.0000
                                            0.0000  0.0000 -0.0000 -0.0000 -0.0000
                                           -0.0000  0.0000  0.0000 -0.0000 -0.0000
     9. (2.00000) CR ( 1)Cl   3           s(100.00%)
                                            1.0000  0.0000  0.0000 -0.0000 -0.0000
                                           -0.0000  0.0000  0.0000 -0.0000 -0.0000
                                            0.0000 -0.0000 -0.0000  0.0000  0.0000
                                           -0.0000  0.0000  0.0000 -0.0000 -0.0000
                                            0.0000 -0.0000  0.0000 -0.0000  0.0000
                                            0.0000 -0.0000 -0.0000 -0.0000 -0.0000
                                           -0.0000  0.0000  0.0000 -0.0000  0.0000
                                           -0.0000 -0.0000  0.0000 -0.0000  0.0000
                                            0.0000 -0.0000 -0.0000 -0.0000 -0.0000
                                            0.0000 -0.0000  0.0000  0.0000 -0.0000
    10. (1.99981) CR ( 2)Cl   3           s(100.00%)p 0.00(  0.00%)
                                            0.0000  1.0000 -0.0004  0.0000  0.0000
                                            0.0000 -0.0000 -0.0001  0.0000  0.0000
                                           -0.0000  0.0000  0.0004 -0.0000 -0.0000
                                            0.0000 -0.0000 -0.0000  0.0000  0.0000
                                           -0.0000  0.0000 -0.0000 -0.0000 -0.0000
                                           -0.0000  0.0000  0.0000  0.0000  0.0000
                                            0.0000 -0.0000 -0.0000  0.0000 -0.0000
                                           -0.0000  0.0000 -0.0000  0.0000 -0.0000
                                           -0.0000  0.0000 -0.0000  0.0000  0.0000
                                           -0.0000  0.0000 -0.0000 -0.0000  0.0000
    11. (2.00003) CR ( 3)Cl   3           s(  0.00%)p 1.00(100.00%)
                                            0.0000 -0.0000 -0.0000  0.0000  0.0000
                                            0.0000  1.0000  0.0001  0.0000  0.0000
                                           -0.0000  0.0000  0.0001 -0.0000 -0.0000
                                            0.0000 -0.0000  0.0000  0.0000  0.0000
                                            0.0000  0.0000  0.0000  0.0000 -0.0000
                                            0.0000  0.0000  0.0000 -0.0000  0.0000
                                            0.0000 -0.0000 -0.0000  0.0000 -0.0000
                                            0.0000 -0.0000  0.0000  0.0000 -0.0000
                                           -0.0000  0.0000  0.0000 -0.0000  0.0000
                                           -0.0000  0.0000 -0.0000 -0.0000  0.0000
    12. (1.99997) CR ( 4)Cl   3           s(  0.00%)p 1.00(100.00%)
                                           -0.0000  0.0000  0.0001 -0.0000 -0.0000
                                           -0.0000  0.0000  0.0001 -0.0000 -0.0000
                                            0.0000  1.0000 -0.0003  0.0000  0.0000
                                           -0.0000 -0.0000  0.0000 -0.0000 -0.0000
                                            0.0000 -0.0000  0.0000  0.0000  0.0000
                                            0.0000 -0.0000 -0.0000 -0.0000 -0.0000
                                           -0.0000  0.0000 -0.0000 -0.0000  0.0000
                                           -0.0000 -0.0000  0.0000 -0.0000  0.0000
                                            0.0000 -0.0000  0.0000 -0.0000 -0.0000
                                            0.0000 -0.0000  0.0000  0.0000 -0.0000
    13. (2.00003) CR ( 5)Cl   3           s(  0.00%)p 1.00(100.00%)
                                            0.0000 -0.0000 -0.0000  0.0000  0.0000
                                           -0.0000 -0.0000  0.0000  0.0000 -0.0000
                                            0.0000 -0.0000  0.0000 -0.0000  0.0000
                                           -0.0000  1.0000  0.0002  0.0000  0.0000
                                           -0.0000 -0.0000 -0.0000 -0.0000 -0.0000
                                           -0.0000 -0.0000  0.0000  0.0000  0.0000
                                            0.0000 -0.0000 -0.0000  0.0000  0.0000
                                            0.0000 -0.0000  0.0000  0.0000 -0.0000
                                           -0.0000  0.0000 -0.0000  0.0000 -0.0000
                                            0.0000  0.0000  0.0000 -0.0000 -0.0000
    14. (1.96862) LP ( 1) O   1           s( 65.17%)p 0.53( 34.74%)d 0.00(  0.09%)
                                                  f 0.00(  0.00%)
                                            0.0002  0.8072  0.0113  0.0066 -0.0009
                                           -0.3081 -0.0060 -0.0036 -0.0023 -0.3403
                                           -0.0043 -0.0053 -0.0023 -0.3694 -0.0051
                                           -0.0038 -0.0011 -0.0169 -0.0008  0.0039
                                           -0.0106  0.0003  0.0011 -0.0215 -0.0026
                                            0.0014  0.0025  0.0007  0.0014 -0.0045
                                           -0.0005  0.0012  0.0027 -0.0004 -0.0005
                                           -0.0004 -0.0018  0.0011  0.0023 -0.0012
                                           -0.0017  0.0006  0.0038 -0.0017  0.0002
                                            0.0005
    15. (1.95292) LP ( 2) O   1           s(  0.02%)p99.99( 99.74%)d 9.82(  0.22%)
                                                  f 0.69(  0.02%)
                                           -0.0000  0.0010  0.0137  0.0058 -0.0011
                                           -0.6630 -0.0120 -0.0036 -0.0025 -0.1827
                                           -0.0054 -0.0014 -0.0024  0.7238  0.0157
                                            0.0055  0.0052 -0.0249 -0.0015  0.0037
                                           -0.0116 -0.0042 -0.0040  0.0217  0.0030
                                           -0.0014  0.0009  0.0045  0.0054  0.0282
                                           -0.0010 -0.0066 -0.0008  0.0005  0.0062
                                           -0.0000  0.0008 -0.0005 -0.0075  0.0010
                                           -0.0036  0.0000  0.0044 -0.0022  0.0041
                                           -0.0005
    16. (1.97966) LP ( 1)Cl   2           s( 97.58%)p 0.02(  2.42%)d 0.00(  0.00%)
                                                  f 0.00(  0.00%)
                                            0.0000  0.0000  0.9878 -0.0001  0.0001
                                           -0.0001 -0.0000  0.1423 -0.0012  0.0005
                                           -0.0004  0.0000 -0.0017 -0.0000 -0.0000
                                           -0.0001  0.0000 -0.0626  0.0007 -0.0001
                                            0.0002 -0.0001 -0.0001 -0.0000 -0.0008
                                           -0.0005  0.0001 -0.0000 -0.0000 -0.0000
                                            0.0013  0.0006 -0.0001 -0.0008 -0.0003
                                            0.0000 -0.0003 -0.0002  0.0002  0.0001
                                           -0.0000 -0.0000  0.0004  0.0004  0.0000
                                            0.0000 -0.0004 -0.0003  0.0001  0.0000
    17. (1.95204) LP ( 2)Cl   2           s(  0.00%)p 1.00( 99.99%)d 0.00(  0.01%)
                                                  f 0.00(  0.00%)
                                           -0.0000 -0.0000  0.0041  0.0005 -0.0007
                                            0.0010  0.0000 -0.1244  0.0000 -0.0001
                                            0.0001 -0.0000  0.9616  0.0005  0.0008
                                            0.0000  0.0000 -0.2442  0.0003 -0.0001
                                            0.0003 -0.0075 -0.0021 -0.0002  0.0007
                                           -0.0004 -0.0005  0.0041  0.0020  0.0011
                                            0.0013  0.0006  0.0002 -0.0016 -0.0006
                                           -0.0002 -0.0001 -0.0001  0.0006  0.0004
                                           -0.0002 -0.0001  0.0001  0.0002 -0.0016
                                           -0.0011 -0.0002 -0.0000  0.0018  0.0012
    18. (1.95138) LP ( 3)Cl   2           s(  0.00%)p 1.00( 99.99%)d 0.00(  0.01%)
                                                  f 0.00(  0.00%)
                                            0.0000  0.0000  0.0012  0.0007 -0.0018
                                            0.0019  0.0000 -0.3973  0.0011 -0.0000
                                           -0.0000  0.0000 -0.2738  0.0000 -0.0001
                                           -0.0000  0.0000 -0.8758  0.0008 -0.0006
                                            0.0005  0.0020  0.0003 -0.0002  0.0030
                                           -0.0002 -0.0010 -0.0012 -0.0006 -0.0004
                                            0.0017  0.0001 -0.0007 -0.0053 -0.0023
                                           -0.0010 -0.0001 -0.0001  0.0022  0.0014
                                            0.0001  0.0000 -0.0003 -0.0000  0.0006
                                            0.0004 -0.0005 -0.0002 -0.0004 -0.0002
    19. (1.91246) LP ( 4)Cl   2           s(  2.41%)p40.40( 97.55%)d 0.01(  0.04%)
                                                  f 0.00(  0.00%)
                                           -0.0000 -0.0000  0.1554  0.0009 -0.0005
                                            0.0009 -0.0001 -0.8978  0.0003  0.0014
                                           -0.0002 -0.0000 -0.0123  0.0001  0.0002
                                            0.0003  0.0001  0.4114  0.0029 -0.0006
                                            0.0009 -0.0001 -0.0005 -0.0005 -0.0145
                                           -0.0042 -0.0013 -0.0001  0.0000  0.0000
                                            0.0105  0.0026 -0.0001 -0.0030 -0.0009
                                           -0.0000 -0.0021 -0.0013  0.0004  0.0005
                                           -0.0001 -0.0001  0.0030  0.0018  0.0000
                                           -0.0001 -0.0022 -0.0013  0.0001  0.0003
    20. (1.97447) LP ( 1)Cl   3           s( 91.67%)p 0.09(  8.31%)d 0.00(  0.02%)
                                                  f 0.00(  0.00%)
                                            0.0000  0.0003  0.9574  0.0072  0.0012
                                            0.0003 -0.0000 -0.0549 -0.0005  0.0003
                                            0.0001  0.0000  0.2816 -0.0064 -0.0028
                                            0.0011  0.0000  0.0265  0.0008  0.0001
                                            0.0002  0.0050 -0.0001  0.0003  0.0007
                                            0.0001 -0.0003  0.0006  0.0006  0.0005
                                            0.0107 -0.0006 -0.0001  0.0085  0.0008
                                            0.0002 -0.0003  0.0001  0.0007 -0.0001
                                           -0.0023 -0.0003  0.0000 -0.0001 -0.0006
                                            0.0003  0.0017  0.0004 -0.0027  0.0000
    21. (1.95616) LP ( 2)Cl   3           s(  0.02%)p99.99( 99.91%)d 2.40(  0.05%)
                                                  f 0.38(  0.01%)
                                            0.0000  0.0000  0.0124 -0.0077 -0.0034
                                            0.0017 -0.0001  0.6083  0.0082  0.0027
                                           -0.0005 -0.0000  0.1502  0.0022 -0.0002
                                            0.0009  0.0001 -0.7787 -0.0123 -0.0036
                                            0.0016  0.0033  0.0093  0.0042  0.0065
                                            0.0081  0.0029 -0.0040 -0.0126 -0.0064
                                           -0.0052 -0.0075 -0.0039  0.0000  0.0010
                                            0.0001  0.0031  0.0003 -0.0018  0.0004
                                            0.0002 -0.0003  0.0057 -0.0016  0.0026
                                           -0.0004 -0.0037  0.0006 -0.0041  0.0011
    22. (1.95497) LP ( 3)Cl   3           s(  0.08%)p99.99( 99.87%)d 0.53(  0.04%)
                                                  f 0.11(  0.01%)
                                            0.0000 -0.0000  0.0274  0.0047  0.0033
                                           -0.0014  0.0001 -0.7571 -0.0099 -0.0011
                                            0.0003  0.0001 -0.1823 -0.0026 -0.0006
                                           -0.0007  0.0001 -0.6262 -0.0101 -0.0015
                                            0.0004  0.0045 -0.0085 -0.0043  0.0005
                                            0.0043  0.0023  0.0022 -0.0083 -0.0047
                                            0.0066  0.0099  0.0052 -0.0027 -0.0033
                                           -0.0002  0.0037 -0.0004  0.0003  0.0008
                                            0.0010  0.0000  0.0033 -0.0002  0.0027
                                           -0.0006  0.0050 -0.0010  0.0053 -0.0008
    23. (0.01956) RY*( 1) O   1           s(  0.26%)p99.99( 98.02%)d 6.29(  1.66%)
                                                  f 0.21(  0.06%)
                                           -0.0000 -0.0007  0.0511  0.0049  0.0014
                                            0.0168 -0.6577  0.0272  0.0093  0.0084
                                           -0.1836  0.0059 -0.0034 -0.0193  0.7153
                                           -0.0276 -0.0019 -0.0709 -0.0157 -0.0013
                                           -0.0266 -0.0113 -0.0089  0.0592  0.0191
                                            0.0058 -0.0019  0.0083  0.0071  0.0793
                                            0.0054 -0.0062 -0.0043  0.0035  0.0059
                                           -0.0062  0.0030 -0.0015 -0.0100  0.0085
                                           -0.0043  0.0033  0.0110 -0.0080  0.0052
                                           -0.0053
    24. (0.01531) RY*( 2) O   1           s( 28.52%)p 2.39( 68.23%)d 0.10(  2.97%)
                                                  f 0.01(  0.28%)
                                           -0.0000  0.0013  0.5301 -0.0641 -0.0028
                                            0.0046 -0.4015  0.0067  0.0232  0.0428
                                           -0.4859 -0.0020  0.0347  0.0073 -0.5298
                                            0.0089  0.0235 -0.0859 -0.0171 -0.0065
                                           -0.0306 -0.0002  0.0093 -0.1336 -0.0238
                                           -0.0087  0.0496  0.0015 -0.0021  0.0002
                                            0.0012  0.0002  0.0076 -0.0066  0.0201
                                           -0.0098 -0.0165  0.0073  0.0266 -0.0122
                                           -0.0075  0.0051  0.0264 -0.0126 -0.0096
                                            0.0031
    25. (0.00777) RY*( 3) O   1           s( 13.51%)p 0.46(  6.24%)d 5.82( 78.65%)
                                                  f 0.12(  1.60%)
                                            0.0000  0.0137  0.3637 -0.0508  0.0099
                                            0.0082  0.1824 -0.0104  0.0552 -0.0154
                                           -0.1046  0.0015  0.0343 -0.0029  0.1149
                                           -0.0101  0.0148  0.5951 -0.0079 -0.0014
                                           -0.2323  0.0014 -0.0122  0.3151  0.0092
                                            0.0065 -0.4820 -0.0075 -0.0254  0.2139
                                           -0.0057  0.0040  0.0006 -0.0019 -0.0058
                                           -0.0046  0.0080 -0.0004 -0.0648  0.0267
                                            0.0273 -0.0120 -0.0828  0.0310 -0.0423
                                            0.0211
    26. (0.00708) RY*( 4) O   1           s(  1.28%)p 0.29(  0.36%)d75.62( 96.62%)
                                                  f 1.36(  1.74%)
                                           -0.0000  0.0069  0.1124 -0.0099 -0.0028
                                            0.0128  0.0445  0.0082 -0.0001 -0.0012
                                           -0.0052  0.0067  0.0096 -0.0130 -0.0296
                                           -0.0087  0.0125 -0.1917  0.0184 -0.0005
                                           -0.3096  0.0166 -0.0042  0.7707 -0.0352
                                            0.0041  0.3715 -0.0243  0.0028 -0.3142
                                            0.0167 -0.0095 -0.0765  0.0322 -0.0271
                                            0.0120  0.0184 -0.0074 -0.0654  0.0261
                                           -0.0143  0.0066  0.0399 -0.0208  0.0419
                                           -0.0155
    27. (0.00632) RY*( 5) O   1           s(  0.19%)p28.24(  5.50%)d99.99( 92.77%)
                                                  f 7.86(  1.53%)
                                           -0.0000  0.0012  0.0398 -0.0188 -0.0027
                                            0.0415  0.2118 -0.0141  0.0038 -0.0026
                                           -0.0835 -0.0014  0.0255 -0.0144  0.0189
                                           -0.0033  0.0049 -0.6671  0.0412 -0.0133
                                           -0.1224  0.0069 -0.0036  0.1408 -0.0244
                                           -0.0087 -0.2652  0.0126 -0.0133  0.6102
                                           -0.0458  0.0175  0.0354 -0.0184  0.0486
                                           -0.0237  0.0320 -0.0155 -0.0433  0.0219
                                           -0.0482  0.0222  0.0500 -0.0181 -0.0363
                                            0.0146
    28. (0.00611) RY*( 6) O   1           s(  1.52%)p16.80( 25.57%)d46.84( 71.30%)
                                                  f 1.05(  1.60%)
                                           -0.0000  0.0115  0.1193 -0.0222 -0.0188
                                            0.0464  0.3332 -0.0136 -0.0189 -0.0102
                                           -0.2518 -0.0023  0.0315  0.0485  0.2728
                                           -0.0221 -0.0165 -0.1493 -0.0027 -0.0095
                                           -0.6011  0.0398 -0.0222 -0.4455  0.0305
                                           -0.0107 -0.0106 -0.0037  0.0078 -0.3562
                                            0.0249 -0.0061  0.0332 -0.0182 -0.0597
                                            0.0308 -0.0611  0.0238  0.0001  0.0031
                                           -0.0601  0.0259  0.0243 -0.0097 -0.0271
                                            0.0090
    29. (0.00572) RY*( 7) O   1           s(  1.11%)p11.50( 12.70%)d76.01( 84.00%)
                                                  f 1.98(  2.19%)
                                           -0.0000  0.0195  0.1008 -0.0188  0.0124
                                           -0.0101 -0.0945  0.0017  0.0132  0.0728
                                            0.3290 -0.0050 -0.0477 -0.0049 -0.0439
                                           -0.0009  0.0051  0.2215 -0.0102  0.0038
                                           -0.4336  0.0652 -0.0018 -0.1814  0.0316
                                            0.0105  0.5455 -0.0521 -0.0124  0.5115
                                           -0.0495 -0.0062  0.0360 -0.0166 -0.0128
                                            0.0031  0.0810 -0.0304  0.0281 -0.0108
                                           -0.0229  0.0081 -0.0418  0.0151  0.0894
                                           -0.0347
    30. (0.00279) RY*( 8) O   1           s( 15.84%)p 2.33( 36.99%)d 2.93( 46.38%)
                                                  f 0.05(  0.79%)
                                            0.0000 -0.0051  0.3865 -0.0941  0.0122
                                           -0.0238  0.4311 -0.0421  0.1103  0.0196
                                           -0.2367  0.0208  0.0652 -0.0199  0.3173
                                           -0.0654  0.0550  0.0303  0.0144  0.0076
                                            0.4825 -0.1409  0.0322 -0.0327  0.0072
                                           -0.0003  0.4331 -0.0545  0.0601  0.1084
                                            0.0321  0.0282  0.0021  0.0096  0.0470
                                           -0.0395  0.0201 -0.0092  0.0296 -0.0268
                                            0.0251 -0.0053 -0.0032 -0.0028  0.0354
                                           -0.0081
    31. (0.00247) RY*( 9) O   1           s( 32.62%)p 1.53( 50.08%)d 0.51( 16.61%)
                                                  f 0.02(  0.69%)
                                           -0.0000 -0.0016  0.5557 -0.1317 -0.0102
                                            0.0002 -0.0885 -0.0129  0.1202  0.0169
                                            0.6853 -0.0255  0.0417  0.0026  0.0641
                                           -0.0319  0.0285 -0.2257  0.0421 -0.0384
                                            0.0690 -0.0631 -0.0081 -0.0940  0.0210
                                            0.0001 -0.1877 -0.0050 -0.0679 -0.2171
                                            0.0802 -0.0202  0.0088 -0.0061  0.0360
                                           -0.0311 -0.0331  0.0338  0.0067 -0.0034
                                           -0.0071  0.0030  0.0199 -0.0242 -0.0203
                                            0.0278
    32. (0.00078) RY*(10) O   1           s( 54.38%)p 0.56( 30.22%)d 0.19( 10.51%)
                                                  f 0.09(  4.89%)
                                           -0.0000 -0.0015  0.0613  0.7343  0.0279
                                            0.0064 -0.0062 -0.2149  0.2203  0.0143
                                           -0.0073 -0.1857 -0.1823  0.0021 -0.0273
                                           -0.3565  0.1078 -0.0196  0.1100  0.0844
                                           -0.0213 -0.0074 -0.1180 -0.0094  0.0431
                                            0.0033 -0.0109 -0.0598  0.0477 -0.0124
                                            0.2346  0.0890  0.0700 -0.0493  0.1410
                                           -0.0461  0.0546 -0.0114 -0.0754  0.0194
                                            0.0338 -0.0132 -0.0925  0.0076  0.0161
                                           -0.0148
    33. (0.00068) RY*(11) O   1           s(  4.20%)p 2.60( 10.92%)d17.37( 72.90%)
                                                  f 2.86( 11.99%)
                                           -0.0000  0.0009  0.0919  0.1820 -0.0205
                                            0.0052  0.0116  0.0741 -0.2221  0.0089
                                            0.0342  0.0146 -0.0919 -0.0003  0.0256
                                           -0.0498  0.2028  0.0209  0.3806  0.0882
                                           -0.0013 -0.1799 -0.0038 -0.0005 -0.1866
                                           -0.0206  0.0092  0.3971  0.0676 -0.0213
                                           -0.5874 -0.0196  0.0353 -0.0066  0.0139
                                           -0.0030 -0.2871  0.0483  0.0596 -0.0180
                                           -0.0555  0.0121 -0.0662 -0.0009  0.1464
                                           -0.0258
    34. (0.00064) RY*(12) O   1           s(  0.14%)p99.99( 81.32%)d52.90(  7.63%)
                                                  f75.63( 10.91%)
                                           -0.0000  0.0023  0.0086  0.0365 -0.0053
                                           -0.0019  0.0224  0.6788 -0.2184  0.0026
                                            0.0234  0.1821  0.0462  0.0025 -0.0266
                                           -0.5009  0.1295  0.0354 -0.1206  0.0246
                                           -0.0022 -0.1149 -0.0054 -0.0162 -0.0171
                                           -0.0139 -0.0136  0.0829  0.0172  0.0234
                                            0.1926  0.0298 -0.0630 -0.0183  0.0139
                                            0.0115  0.1519 -0.0144 -0.0487 -0.0249
                                           -0.1869  0.0154  0.2019  0.0088 -0.0339
                                            0.0315
    35. (0.00058) RY*(13) O   1           s(  3.01%)p 4.87( 14.66%)d14.64( 44.11%)
                                                  f12.69( 38.21%)
                                           -0.0000  0.0041 -0.0101  0.1488  0.0887
                                            0.0046 -0.0102 -0.0782  0.0288  0.0097
                                            0.0134  0.0101  0.0617 -0.0000 -0.0007
                                            0.3598 -0.0767  0.0425 -0.0934  0.0583
                                           -0.0573 -0.5142 -0.0419  0.0374 -0.2202
                                            0.0430  0.0021  0.1809  0.0454  0.0184
                                            0.2645  0.0302  0.1439  0.0064 -0.0202
                                           -0.0010  0.1036 -0.0084  0.3193 -0.0067
                                           -0.4856  0.0370  0.0507 -0.0084 -0.0912
                                            0.0008
    36. (0.00051) RY*(14) O   1           s(  0.01%)p99.99( 11.10%)d99.99( 62.07%)
                                                  f99.99( 26.82%)
                                           -0.0000  0.0018  0.0079  0.0049  0.0054
                                           -0.0047  0.0019  0.2294 -0.0299 -0.0017
                                           -0.0071  0.2275 -0.0300  0.0066  0.0248
                                            0.0536 -0.0347 -0.0131  0.3713 -0.0383
                                            0.0013  0.2218 -0.0462  0.0136 -0.5159
                                            0.0842 -0.0045 -0.3197  0.0397 -0.0031
                                            0.2238 -0.0505  0.3112  0.0257  0.0094
                                            0.0050 -0.0667 -0.0132  0.2755  0.0224
                                            0.1953  0.0097 -0.2180 -0.0132 -0.0603
                                            0.0019
    37. (0.00050) RY*(15) O   1           s(  0.99%)p 5.44(  5.37%)d15.20( 14.99%)
                                                  f79.72( 78.66%)
                                           -0.0000  0.0016  0.0488  0.0825 -0.0260
                                            0.0072  0.0192 -0.0625 -0.0508  0.0024
                                            0.0227  0.1042 -0.0443  0.0014  0.0242
                                            0.1581  0.0885  0.0268 -0.1412  0.0728
                                           -0.0177  0.0242 -0.0358 -0.0041 -0.1111
                                            0.0165  0.0226  0.3282  0.0170 -0.0236
                                           -0.0065  0.0043  0.4185  0.0312  0.0285
                                            0.0095  0.2884  0.0059 -0.1069 -0.0013
                                            0.5022  0.0165  0.5020  0.0205 -0.1000
                                           -0.0027
    38. (0.00050) RY*(16) O   1           s(  0.09%)p99.99( 12.20%)d99.99( 19.39%)
                                                  f99.99( 68.33%)
                                            0.0000 -0.0028  0.0223  0.0002 -0.0193
                                           -0.0048 -0.0155 -0.0127 -0.1180 -0.0005
                                            0.0042 -0.3236 -0.0174  0.0021  0.0097
                                           -0.0093  0.0490  0.0215  0.3813 -0.0306
                                            0.0185 -0.0464  0.0544 -0.0258 -0.0177
                                           -0.0228  0.0267 -0.1364  0.0371 -0.0063
                                           -0.1368  0.0269 -0.2135 -0.0165 -0.3492
                                           -0.0093  0.4131  0.0052  0.0341 -0.0123
                                           -0.0011 -0.0031  0.0972 -0.0195 -0.5769
                                           -0.0267
    39. (0.00048) RY*(17) O   1           s(  4.82%)p 9.60( 46.32%)d 4.16( 20.07%)
                                                  f 5.97( 28.78%)
                                           -0.0000  0.0051  0.0794  0.1831  0.0915
                                            0.0014  0.0170  0.0363 -0.0387  0.0042
                                           -0.0179  0.5703 -0.2034 -0.0025  0.0118
                                            0.3001 -0.0550 -0.0196  0.2770  0.0066
                                            0.0260  0.0169 -0.0089 -0.0370  0.2937
                                           -0.0640 -0.0562 -0.1184 -0.0698 -0.0534
                                           -0.0723 -0.0260 -0.1841 -0.0173  0.0678
                                            0.0083  0.4264  0.0527 -0.0732 -0.0100
                                           -0.0893 -0.0069 -0.0066 -0.0103  0.2243
                                            0.0204
    40. (0.00047) RY*(18) O   1           s(  1.97%)p27.81( 54.77%)d 6.19( 12.19%)
                                                  f15.78( 31.07%)
                                            0.0000  0.0011  0.0447  0.1300  0.0281
                                            0.0067  0.0304  0.4722 -0.0790 -0.0042
                                           -0.0017 -0.3363  0.0078 -0.0035  0.0141
                                            0.4391 -0.1063 -0.0066  0.0912  0.0102
                                           -0.0156 -0.0603 -0.0417  0.0012  0.2894
                                           -0.0301  0.0579  0.0115  0.1074  0.0086
                                            0.0898  0.0002  0.0051 -0.0050  0.4298
                                            0.0533 -0.1626 -0.0045 -0.1396 -0.0028
                                            0.1633  0.0148 -0.1141 -0.0224 -0.1889
[...]
                                            0.0487  0.0379 -0.0240
   151. (0.00047) RY*( 6) H   4           s(  3.79%)p22.12( 83.75%)d 3.29( 12.46%)
                                            0.0030  0.1539 -0.0062  0.1189  0.0998
                                            0.7186 -0.4262 -0.0139 -0.1940 -0.0862
                                            0.1268 -0.2488 -0.0795  0.2003 -0.0005
                                            0.1043  0.1068 -0.0293  0.0042  0.1201
                                            0.1449 -0.1565  0.0373
   152. (0.00036) RY*( 7) H   4           s(  2.88%)p23.76( 68.43%)d 9.96( 28.69%)
                                           -0.0054 -0.0509 -0.0335  0.1583  0.0720
                                            0.0266  0.4030 -0.0250 -0.6354  0.0421
                                            0.1561 -0.2638 -0.1260 -0.1480  0.1181
                                            0.3121 -0.0936  0.1427  0.0795 -0.2327
                                           -0.1824  0.1293  0.1187
   153. (0.00026) RY*( 8) H   4           s( 20.74%)p 1.23( 25.41%)d 2.60( 53.85%)
                                            0.0087 -0.0308  0.4164  0.1816 -0.0096
                                            0.2632  0.0006  0.0110  0.2840 -0.0329
                                           -0.0108  0.1703 -0.2715 -0.4159 -0.0945
                                           -0.0275  0.1530  0.4204 -0.1198 -0.3736
                                           -0.0186 -0.0076  0.0369
   154. (0.00026) RY*( 9) H   4           s(  2.87%)p 9.43( 27.09%)d24.39( 70.04%)
                                            0.0010 -0.0574 -0.0264  0.1572  0.0624
                                           -0.1144 -0.0135 -0.0627  0.2192 -0.0349
                                           -0.0097  0.2027 -0.3992  0.3950 -0.0952
                                            0.5574  0.0410 -0.3575 -0.0622 -0.2972
                                            0.0061  0.0017  0.0538
   155. (0.00022) RY*(10) H   4           s( 10.13%)p 3.14( 31.79%)d 5.73( 58.08%)
                                            0.0056 -0.0006  0.2691 -0.1699 -0.0575
                                            0.2547  0.3569 -0.1177  0.0994 -0.1563
                                            0.0238 -0.1731  0.2090  0.4143  0.0178
                                           -0.3820 -0.0648 -0.2134 -0.0098 -0.4334
                                           -0.1382  0.0117  0.0778
   156. (0.00018) RY*(11) H   4           s( 20.89%)p 2.98( 62.28%)d 0.81( 16.83%)
                                           -0.0214 -0.0928  0.4458 -0.0338 -0.0996
                                           -0.3354 -0.1176 -0.0019  0.1377 -0.0766
                                           -0.0253 -0.6474 -0.2048  0.0488  0.0082
                                            0.0712  0.1102  0.0128 -0.0522  0.2647
                                           -0.1120 -0.0977  0.2315
   157. (0.00015) RY*(12) H   4           s(  1.33%)p34.06( 45.24%)d40.22( 53.43%)
                                           -0.0080  0.0156  0.0814 -0.0797  0.0887
                                           -0.2583 -0.2985 -0.0430 -0.1113 -0.2481
                                           -0.1063 -0.1277  0.4304 -0.0014  0.0428
                                            0.2662 -0.0185  0.1866  0.0270 -0.4325
                                            0.1333 -0.3445 -0.3198
   158. (0.00012) RY*(13) H   4           s( 55.99%)p 0.30( 17.03%)d 0.48( 26.98%)
                                            0.0029  0.0382  0.3834  0.6414  0.0386
                                            0.0326  0.0746  0.0291  0.0566  0.2275
                                           -0.0182  0.0433  0.3227 -0.0037 -0.0447
                                            0.0710 -0.4096 -0.1903 -0.0051  0.1856
                                           -0.0098 -0.0662 -0.1410
   159. (0.00012) RY*(14) H   4           s(  1.69%)p 7.30( 12.37%)d50.74( 85.94%)
                                           -0.0077 -0.0588  0.0628  0.0974 -0.0074
                                           -0.0464 -0.1933  0.0239  0.0632 -0.1674
                                            0.0996 -0.2037  0.0079 -0.0997  0.1471
                                           -0.0441 -0.0000 -0.1564  0.0932 -0.1342
                                            0.3488  0.7726 -0.2370
   160. (0.00009) RY*(15) H   4           s(  0.81%)p63.37( 51.39%)d58.93( 47.80%)
   161. (0.00008) RY*(16) H   4           s(  0.25%)p16.79(  4.28%)d99.99( 95.46%)
   162. (0.00006) RY*(17) H   4           s( 36.03%)p 0.48( 17.35%)d 1.29( 46.62%)
   163. (0.00006) RY*(18) H   4           s(  0.96%)p 6.17(  5.93%)d96.96( 93.11%)
   164. (0.00006) RY*(19) H   4           s(  1.75%)p 1.88(  3.29%)d54.34( 94.96%)
   165. (0.00003) RY*(20) H   4           s( 14.49%)p 1.37( 19.92%)d 4.52( 65.58%)
   166. (0.00003) RY*(21) H   4           s(  6.53%)p 5.26( 34.33%)d 9.06( 59.14%)
   167. (0.00004) RY*(22) H   4           s(  2.36%)p14.53( 34.21%)d26.94( 63.44%)
   168. (0.05777) BD*( 1) O   1 -Cl   3  
                ( 40.98%)   0.6402* O   1 s( 10.16%)p 8.79( 89.28%)d 0.05(  0.55%)
                                                  f 0.00(  0.02%)
                                           -0.0003 -0.3156  0.0424  0.0126  0.0018
                                            0.2229 -0.0269 -0.0061 -0.0021 -0.9169
                                            0.0184  0.0081  0.0093 -0.0280 -0.0194
                                           -0.0035  0.0006  0.0141  0.0020  0.0026
                                           -0.0082 -0.0008  0.0012 -0.0219 -0.0030
                                            0.0005  0.0589  0.0044 -0.0001  0.0353
                                            0.0028  0.0004  0.0001 -0.0003 -0.0017
                                           -0.0006  0.0070 -0.0000  0.0035 -0.0019
                                           -0.0054  0.0010 -0.0055 -0.0010  0.0071
                                           -0.0010
                ( 59.02%)  -0.7682*Cl   3 s(  8.56%)p10.54( 90.16%)d 0.14(  1.17%)
                                                  f 0.01(  0.11%)
                                            0.0000 -0.0005 -0.2860  0.0606  0.0101
                                            0.0026 -0.0001 -0.2264  0.0144  0.0044
                                           -0.0013  0.0004  0.9195 -0.0662 -0.0128
                                            0.0035 -0.0000 -0.0051  0.0004  0.0024
                                           -0.0012  0.0470 -0.0057  0.0000 -0.0079
                                           -0.0004  0.0009  0.0114  0.0016  0.0009
                                            0.0794 -0.0096 -0.0006  0.0534 -0.0060
                                            0.0001  0.0008 -0.0001  0.0047 -0.0006
                                           -0.0193  0.0023 -0.0001  0.0006  0.0019
                                           -0.0013  0.0177 -0.0026 -0.0195  0.0024
   169. (0.05599) BD*( 1) O   1 - H   4  
                ( 22.13%)   0.4704* O   1 s( 24.80%)p 3.01( 74.65%)d 0.02(  0.53%)
                                                  f 0.00(  0.01%)
                                           -0.0002 -0.4979  0.0045  0.0073 -0.0024
                                           -0.6404  0.0131  0.0064  0.0016  0.0312
                                           -0.0154 -0.0014 -0.0018 -0.5787  0.0053
                                            0.0057  0.0039 -0.0192 -0.0038 -0.0010
                                           -0.0606 -0.0035  0.0007 -0.0194 -0.0035
                                           -0.0003 -0.0247 -0.0014 -0.0017 -0.0155
                                           -0.0026 -0.0020  0.0072 -0.0007 -0.0051
                                           -0.0008 -0.0014  0.0006 -0.0039 -0.0023
                                            0.0000  0.0009  0.0024 -0.0022  0.0019
                                           -0.0000
                ( 77.87%)  -0.8825* H   4 s( 99.80%)p 0.00(  0.20%)d 0.00(  0.00%)
                                           -0.9988 -0.0218 -0.0008 -0.0002  0.0016
                                            0.0244  0.0057 -0.0112 -0.0018  0.0041
                                           -0.0273  0.0206  0.0043 -0.0010 -0.0011
                                           -0.0017  0.0007 -0.0017 -0.0016 -0.0000
                                            0.0019  0.0012  0.0015


 NHO Directionality and "Bond Bending" (deviations from line of nuclear centers)

         [Thresholds for printing:  angular deviation  >  1.0 degree]
                                    hybrid p-character > 25.0%
                                    orbital occupancy  >  0.10e

                                Line of Centers        Hybrid 1              Hybrid 2
                                ---------------  -------------------   ------------------
                NBO               Theta   Phi    Theta   Phi    Dev    Theta   Phi    Dev
 ========================================================================================
     1. BD (   1) O   1 -Cl   3    90.0  103.5    86.8  102.0   3.5      --     --    --
     2. BD (   1) O   1 - H   4    50.0    0.0    47.7  358.8   2.5      --     --    --
    14. LP (   1) O   1             --     --    128.6  227.8   --       --     --    --
    15. LP (   2) O   1             --     --     43.3  195.7   --       --     --    --
    17. LP (   2)Cl   2             --     --    104.1   97.4   --       --     --    --
    18. LP (   3)Cl   2             --     --    151.2  214.7   --       --     --    --
    19. LP (   4)Cl   2             --     --     65.2  180.8   --       --     --    --
    21. LP (   2)Cl   3             --     --    141.2   13.9   --       --     --    --
    22. LP (   3)Cl   3             --     --    128.9  193.6   --       --     --    --


 Natural Bond Orbitals (Summary):

           NBO                  Occupancy  
 -----------------------------------------------
 Molecular unit  1  (HOCl)
     1. BD (   1) O   1 -Cl   3          1.94018
     2. BD (   1) O   1 - H   4          1.96402
     3. CR (   1) O   1                  1.99971
     9. CR (   1)Cl   3                  2.00000
    10. CR (   2)Cl   3                  1.99981
    11. CR (   3)Cl   3                  2.00003
    12. CR (   4)Cl   3                  1.99997
    13. CR (   5)Cl   3                  2.00003
    14. LP (   1) O   1                  1.96862
    15. LP (   2) O   1                  1.95292
    20. LP (   1)Cl   3                  1.97447
    21. LP (   2)Cl   3                  1.95616
    22. LP (   3)Cl   3                  1.95497
    23. RY*(   1) O   1                  0.01956
    24. RY*(   2) O   1                  0.01531
    25. RY*(   3) O   1                  0.00777
    26. RY*(   4) O   1                  0.00708
    27. RY*(   5) O   1                  0.00632
    28. RY*(   6) O   1                  0.00611
    29. RY*(   7) O   1                  0.00572
    30. RY*(   8) O   1                  0.00279
    31. RY*(   9) O   1                  0.00247
    32. RY*(  10) O   1                  0.00078
    33. RY*(  11) O   1                  0.00068
    34. RY*(  12) O   1                  0.00064
    35. RY*(  13) O   1                  0.00058
    36. RY*(  14) O   1                  0.00051
    37. RY*(  15) O   1                  0.00050
    38. RY*(  16) O   1                  0.00050
    39. RY*(  17) O   1                  0.00048
    40. RY*(  18) O   1                  0.00047
    41. RY*(  19) O   1                  0.00045
    42. RY*(  20) O   1                  0.00045
    43. RY*(  21) O   1                  0.00044
    44. RY*(  22) O   1                  0.00042
    45. RY*(  23) O   1                  0.00034
    46. RY*(  24) O   1                  0.00030
    47. RY*(  25) O   1                  0.00024
    48. RY*(  26) O   1                  0.00019
    49. RY*(  27) O   1                  0.00015
    50. RY*(  28) O   1                  0.00013
    51. RY*(  29) O   1                  0.00012
    52. RY*(  30) O   1                  0.00012
    53. RY*(  31) O   1                  0.00010
    54. RY*(  32) O   1                  0.00009
    55. RY*(  33) O   1                  0.00008
    56. RY*(  34) O   1                  0.00007
    57. RY*(  35) O   1                  0.00008
    58. RY*(  36) O   1                  0.00007
    59. RY*(  37) O   1                  0.00006
    60. RY*(  38) O   1                  0.00004
    61. RY*(  39) O   1                  0.00004
    62. RY*(  40) O   1                  0.00004
    63. RY*(  41) O   1                  0.00002
   105. RY*(   1)Cl   3                  0.02269
   106. RY*(   2)Cl   3                  0.01756
   107. RY*(   3)Cl   3                  0.01684
   108. RY*(   4)Cl   3                  0.01641
   109. RY*(   5)Cl   3                  0.01165
   110. RY*(   6)Cl   3                  0.00920
   111. RY*(   7)Cl   3                  0.00902
   112. RY*(   8)Cl   3                  0.00630
   113. RY*(   9)Cl   3                  0.00173
   114. RY*(  10)Cl   3                  0.00126
   115. RY*(  11)Cl   3                  0.00126
   116. RY*(  12)Cl   3                  0.00119
   117. RY*(  13)Cl   3                  0.00119
   118. RY*(  14)Cl   3                  0.00116
   119. RY*(  15)Cl   3                  0.00110
   120. RY*(  16)Cl   3                  0.00094
   121. RY*(  17)Cl   3                  0.00077
   122. RY*(  18)Cl   3                  0.00074
   123. RY*(  19)Cl   3                  0.00063
   124. RY*(  20)Cl   3                  0.00055
   125. RY*(  21)Cl   3                  0.00041
   126. RY*(  22)Cl   3                  0.00038
   127. RY*(  23)Cl   3                  0.00032
   128. RY*(  24)Cl   3                  0.00030
   129. RY*(  25)Cl   3                  0.00019
   130. RY*(  26)Cl   3                  0.00016
   131. RY*(  27)Cl   3                  0.00013
   132. RY*(  28)Cl   3                  0.00013
   133. RY*(  29)Cl   3                  0.00013
   134. RY*(  30)Cl   3                  0.00011
   135. RY*(  31)Cl   3                  0.00012
   136. RY*(  32)Cl   3                  0.00011
   137. RY*(  33)Cl   3                  0.00010
   138. RY*(  34)Cl   3                  0.00010
   139. RY*(  35)Cl   3                  0.00009
   140. RY*(  36)Cl   3                  0.00009
   141. RY*(  37)Cl   3                  0.00006
   142. RY*(  38)Cl   3                  0.00004
   143. RY*(  39)Cl   3                  0.00003
   144. RY*(  40)Cl   3                  0.00004
   145. RY*(  41)Cl   3                  0.00001
   146. RY*(   1) H   4                  0.00807
   147. RY*(   2) H   4                  0.00473
   148. RY*(   3) H   4                  0.00301
   149. RY*(   4) H   4                  0.00248
   150. RY*(   5) H   4                  0.00052
   151. RY*(   6) H   4                  0.00047
   152. RY*(   7) H   4                  0.00036
   153. RY*(   8) H   4                  0.00026
   154. RY*(   9) H   4                  0.00026
   155. RY*(  10) H   4                  0.00022
   156. RY*(  11) H   4                  0.00018
   157. RY*(  12) H   4                  0.00015
   158. RY*(  13) H   4                  0.00012
   159. RY*(  14) H   4                  0.00012
   160. RY*(  15) H   4                  0.00009
   161. RY*(  16) H   4                  0.00008
   162. RY*(  17) H   4                  0.00006
   163. RY*(  18) H   4                  0.00006
   164. RY*(  19) H   4                  0.00006
   165. RY*(  20) H   4                  0.00003
   166. RY*(  21) H   4                  0.00003
   167. RY*(  22) H   4                  0.00004
   168. BD*(   1) O   1 -Cl   3          0.05777
   169. BD*(   1) O   1 - H   4          0.05599
       -------------------------------
              Total Lewis   25.71090  ( 98.6846%)
        Valence non-Lewis    0.11376  (  0.4366%)
        Rydberg non-Lewis    0.22894  (  0.8787%)
       -------------------------------
            Total unit  1   26.05360  (100.0000%)
           Charge unit  1   -0.05360

 Molecular unit  2  (Cl)
     4. CR (   1)Cl   2                  2.00001
     5. CR (   2)Cl   2                  2.00000
     6. CR (   3)Cl   2                  2.00002
     7. CR (   4)Cl   2                  2.00003
     8. CR (   5)Cl   2                  2.00002
    16. LP (   1)Cl   2                  1.97966
    17. LP (   2)Cl   2                  1.95204
    18. LP (   3)Cl   2                  1.95138
    19. LP (   4)Cl   2                  1.91246
    64. RY*(   1)Cl   2                  0.01855
    65. RY*(   2)Cl   2                  0.01848
    66. RY*(   3)Cl   2                  0.01836
    67. RY*(   4)Cl   2                  0.01836
    68. RY*(   5)Cl   2                  0.01815
    69. RY*(   6)Cl   2                  0.01343
    70. RY*(   7)Cl   2                  0.01338
    71. RY*(   8)Cl   2                  0.01170
    72. RY*(   9)Cl   2                  0.00322
    73. RY*(  10)Cl   2                  0.00131
    74. RY*(  11)Cl   2                  0.00129
    75. RY*(  12)Cl   2                  0.00129
    76. RY*(  13)Cl   2                  0.00129
    77. RY*(  14)Cl   2                  0.00130
    78. RY*(  15)Cl   2                  0.00129
    79. RY*(  16)Cl   2                  0.00127
    80. RY*(  17)Cl   2                  0.00101
    81. RY*(  18)Cl   2                  0.00100
    82. RY*(  19)Cl   2                  0.00083
    83. RY*(  20)Cl   2                  0.00081
    84. RY*(  21)Cl   2                  0.00077
    85. RY*(  22)Cl   2                  0.00056
    86. RY*(  23)Cl   2                  0.00056
    87. RY*(  24)Cl   2                  0.00053
    88. RY*(  25)Cl   2                  0.00025
    89. RY*(  26)Cl   2                  0.00018
    90. RY*(  27)Cl   2                  0.00016
    91. RY*(  28)Cl   2                  0.00015
    92. RY*(  29)Cl   2                  0.00014
    93. RY*(  30)Cl   2                  0.00015
    94. RY*(  31)Cl   2                  0.00014
    95. RY*(  32)Cl   2                  0.00014
    96. RY*(  33)Cl   2                  0.00012
    97. RY*(  34)Cl   2                  0.00012
    98. RY*(  35)Cl   2                  0.00010
    99. RY*(  36)Cl   2                  0.00010
   100. RY*(  37)Cl   2                  0.00010
   101. RY*(  38)Cl   2                  0.00008
   102. RY*(  39)Cl   2                  0.00004
   103. RY*(  40)Cl   2                  0.00002
   104. RY*(  41)Cl   2                  0.00002
       -------------------------------
              Total Lewis   17.79563  ( 99.1598%)
        Valence non-Lewis    0.00000  (  0.0000%)
        Rydberg non-Lewis    0.15078  (  0.8402%)
       -------------------------------
            Total unit  2   17.94640  (100.0000%)
           Charge unit  2   -0.94640
 Leave Link  607 at Wed Sep 22 16:32:56 2021, MaxMem= 16106127360 cpu:              68.4 elap:               2.5
 (Enter /sw/contrib/gaussian/g16/B01/g16/l9999.exe)
 1\1\GINC-N2096\SP\RMP2-FC\Aug-CC-pVTZ\Cl2H1O1(1-)\CGAVINH\22-Sep-2021\
 0\\#p pop=NBO SP NoSymm mp2/aug-cc-pvtz density=current\\title\\-1,1\O
 ,0,0.,0.,0.\Cl,0,2.904676,0.,0.\Cl,0,-0.3936866,1.6360486,0.\H,0,0.755
 840731,0.,0.634225679\\Version=ES64L-G16RevB.01\HF=-994.5094248\MP2=-9
 95.1740037\RMSD=5.930e-09\Dipole=-2.4095858,0.9868048,0.2643593\Quadru
 pole=-18.1883769,8.7423951,9.4459818,0.3574094,0.2673276,-0.1593404\PG
 =C01 [X(Cl2H1O1)]\\@


 REALITY IS FOR PEOPLE WHO CAN'T FACE SCIENCE FICTION.
 Job cpu time:       0 days  0 hours  4 minutes 35.5 seconds.
 Elapsed time:       0 days  0 hours  0 minutes 15.4 seconds.
 File lengths (MBytes):  RWF=     14 Int=      0 D2E=      0 Chk=      8 Scr=      1
 Normal termination of Gaussian 16 at Wed Sep 22 16:32:56 2021.
