title                                                                   
SP        RMP2-FC                                                     Aug-CC-pVTZ         
Number of atoms                            I                4
Info1-9                                    I   N=           9
          40          13           0           0           0         110
           1           2           1
Full Title                                 C   N=           1
title       
Route                                      C   N=           4
#p SP NoSymm mp2/aug-cc-pvtz density=current    
Charge                                     I               -1
Multiplicity                               I                1
Number of electrons                        I               44
Number of alpha electrons                  I               22
Number of beta electrons                   I               22
Number of basis functions                  I              169
Number of independent functions            I              169
Number of point charges in /Mol/           I                0
Number of translation vectors              I                0
Atomic numbers                             I   N=           4
           8          17          17           1
Nuclear charges                            R   N=           4
  8.00000000E+00  1.70000000E+01  1.70000000E+01  1.00000000E+00
Current cartesian coordinates              R   N=          12
  0.00000000E+00  0.00000000E+00  0.00000000E+00  5.48904212E+00  0.00000000E+00
  0.00000000E+00 -7.43959853E-01  3.09168378E+00  0.00000000E+00  1.94344348E+00
  0.00000000E+00  0.00000000E+00
Number of symbols in /Mol/                 I                0
Force Field                                I                0
Atom Types                                 C   N=           4
                                                
Int Atom Types                             I   N=           4
           0           0           0           0
MM charges                                 R   N=           4
  0.00000000E+00  0.00000000E+00  0.00000000E+00  0.00000000E+00
Integer atomic weights                     I   N=           4
          16          35          35           1
Real atomic weights                        R   N=           4
  1.59949146E+01  3.49688527E+01  3.49688527E+01  1.00782504E+00
Atom fragment info                         I   N=           4
           0           0           0           0
Atom residue num                           I   N=           4
           0           0           0           0
Nuclear spins                              I   N=           4
           0           3           3           1
Nuclear ZEff                               R   N=           4
 -5.60000000E+00 -1.42400000E+01 -1.42400000E+01 -1.00000000E+00
Nuclear ZNuc                               R   N=           4
  8.00000000E+00  1.70000000E+01  1.70000000E+01  1.00000000E+00
Nuclear QMom                               R   N=           4
  0.00000000E+00 -8.16500000E+00 -8.16500000E+00  0.00000000E+00
Nuclear GFac                               R   N=           4
  0.00000000E+00  8.21874000E-01  8.21874000E-01  2.79284600E+00
MicOpt                                     I   N=           4
          -1          -1          -1          -1
Number of residues                         I                0
Number of secondary structures             I                0
SymInf integers                            I   N=          26
           1           2           1           1           1           1
           1          -1           0           0           0           0
           0           0           0           0           0           0
           0           0           0           0           0           0
           0           0
RotTr to input orientation                 R   N=          12
  9.99833846E-01  1.82285664E-02 -1.11740635E-16  1.82285664E-02 -9.99833846E-01
 -5.01161489E-17 -1.12635614E-16  4.80709503E-17 -1.00000000E+00  1.92115912E+00
  1.22229359E+00  0.00000000E+00
Number of contracted shells                I               55
Number of primitive shells                 I              140
Pure/Cartesian d shells                    I                0
Pure/Cartesian f shells                    I                0
Highest angular momentum                   I                3
Largest degree of contraction              I               11
Shell types                                I   N=          55
           0           0           0           0           0           1
           1           1           1          -2          -2          -2
          -3          -3           0           0           0           0
           0           0           1           1           1           1
           1          -2          -2          -2          -3          -3
           0           0           0           0           0           0
           1           1           1           1           1          -2
          -2          -2          -3          -3           0           0
           0           0           1           1           1          -2
          -2
Number of primitives per shell             I   N=          55
           7           6           1           1           1           3
           1           1           1           1           1           1
           1           1          11           9           8           1
           1           1           6           6           1           1
           1           1           1           1           1           1
          11           9           8           1           1           1
           6           6           1           1           1           1
           1           1           1           1           3           1
           1           1           1           1           1           1
           1
Shell to atom map                          I   N=          55
           1           1           1           1           1           1
           1           1           1           1           1           1
           1           1           2           2           2           2
           2           2           2           2           2           2
           2           2           2           2           2           2
           3           3           3           3           3           3
           3           3           3           3           3           3
           3           3           3           3           4           4
           4           4           4           4           4           4
           4
Primitive exponents                        R   N=         140
  1.53300000E+04  2.29900000E+03  5.22400000E+02  1.47300000E+02  4.75500000E+01
  1.67600000E+01  6.20700000E+00  5.22400000E+02  1.47300000E+02  4.75500000E+01
  1.67600000E+01  6.20700000E+00  6.88200000E-01  1.75200000E+00  2.38400000E-01
  7.37600000E-02  3.44600000E+01  7.74900000E+00  2.28000000E+00  7.15600000E-01
  2.14000000E-01  5.97400000E-02  2.31400000E+00  6.45000000E-01  2.14000000E-01
  1.42800000E+00  5.00000000E-01  4.56100000E+05  6.83300000E+04  1.55500000E+04
  4.40500000E+03  1.43900000E+03  5.20400000E+02  2.03100000E+02  8.39600000E+01
  3.62000000E+01  1.58300000E+01  6.33400000E+00  4.40500000E+03  1.43900000E+03
  5.20400000E+02  2.03100000E+02  8.39600000E+01  3.62000000E+01  1.58300000E+01
  6.33400000E+00  2.69400000E+00  1.43900000E+03  2.03100000E+02  8.39600000E+01
  3.62000000E+01  1.58300000E+01  6.33400000E+00  2.69400000E+00  4.31300000E-01
  9.76800000E-01  1.62500000E-01  5.91000000E-02  6.63300000E+02  1.56800000E+02
  4.99800000E+01  1.84200000E+01  7.24000000E+00  2.92200000E+00  1.56800000E+02
  4.99800000E+01  1.84200000E+01  7.24000000E+00  2.92200000E+00  3.81800000E-01
  1.02200000E+00  1.30100000E-01  4.19000000E-02  1.04600000E+00  3.44000000E-01
  1.35000000E-01  7.06000000E-01  3.12000000E-01  4.56100000E+05  6.83300000E+04
  1.55500000E+04  4.40500000E+03  1.43900000E+03  5.20400000E+02  2.03100000E+02
  8.39600000E+01  3.62000000E+01  1.58300000E+01  6.33400000E+00  4.40500000E+03
  1.43900000E+03  5.20400000E+02  2.03100000E+02  8.39600000E+01  3.62000000E+01
  1.58300000E+01  6.33400000E+00  2.69400000E+00  1.43900000E+03  2.03100000E+02
  8.39600000E+01  3.62000000E+01  1.58300000E+01  6.33400000E+00  2.69400000E+00
  4.31300000E-01  9.76800000E-01  1.62500000E-01  5.91000000E-02  6.63300000E+02
  1.56800000E+02  4.99800000E+01  1.84200000E+01  7.24000000E+00  2.92200000E+00
  1.56800000E+02  4.99800000E+01  1.84200000E+01  7.24000000E+00  2.92200000E+00
  3.81800000E-01  1.02200000E+00  1.30100000E-01  4.19000000E-02  1.04600000E+00
  3.44000000E-01  1.35000000E-01  7.06000000E-01  3.12000000E-01  3.38700000E+01
  5.09500000E+00  1.15900000E+00  3.25800000E-01  1.02700000E-01  2.52600000E-02
  1.40700000E+00  3.88000000E-01  1.02000000E-01  1.05700000E+00  2.47000000E-01
Contraction coefficients                   R   N=         140
  5.19808943E-04  4.02025621E-03  2.07128267E-02  8.10105536E-02  2.35962985E-01
  4.42653446E-01  3.57064423E-01 -4.42115008E-05 -1.22591041E-03 -1.05517725E-02
 -6.74452633E-02 -1.71198607E-01  1.07329856E+00  1.00000000E+00  1.00000000E+00
  1.00000000E+00  4.11634896E-02  2.57762836E-01  8.02419274E-01  1.00000000E+00
  1.00000000E+00  1.00000000E+00  1.00000000E+00  1.00000000E+00  1.00000000E+00
  1.00000000E+00  1.00000000E+00  4.93229477E-05  3.83207967E-04  2.00947816E-03
  8.38950124E-03  2.94843950E-02  8.78759948E-02  2.11589759E-01  3.65611554E-01
  3.41246350E-01  1.02162570E-01  2.14249949E-03 -2.21747925E-06 -1.71189708E-04
 -1.27922846E-03 -9.32956265E-03 -3.98910062E-02 -1.05536085E-01  9.36202446E-03
  5.10511140E-01  5.73150737E-01  4.03949245E-06  2.12481765E-04  8.59484452E-04
  4.63248159E-03  4.47343490E-04 -7.38438245E-02 -3.62271994E-01  1.16620337E+00
  1.00000000E+00  1.00000000E+00  1.00000000E+00  2.47206402E-03  1.97550234E-02
  9.09917355E-02  2.63187834E-01  4.49078073E-01  3.60183072E-01  3.03427809E-05
 -1.22475826E-03 -6.01429772E-03 -2.76401323E-02  4.35105612E-04  1.00307272E+00
  1.00000000E+00  1.00000000E+00  1.00000000E+00  1.00000000E+00  1.00000000E+00
  1.00000000E+00  1.00000000E+00  1.00000000E+00  4.93229477E-05  3.83207967E-04
  2.00947816E-03  8.38950124E-03  2.94843950E-02  8.78759948E-02  2.11589759E-01
  3.65611554E-01  3.41246350E-01  1.02162570E-01  2.14249949E-03 -2.21747925E-06
 -1.71189708E-04 -1.27922846E-03 -9.32956265E-03 -3.98910062E-02 -1.05536085E-01
  9.36202446E-03  5.10511140E-01  5.73150737E-01  4.03949245E-06  2.12481765E-04
  8.59484452E-04  4.63248159E-03  4.47343490E-04 -7.38438245E-02 -3.62271994E-01
  1.16620337E+00  1.00000000E+00  1.00000000E+00  1.00000000E+00  2.47206402E-03
  1.97550234E-02  9.09917355E-02  2.63187834E-01  4.49078073E-01  3.60183072E-01
  3.03427809E-05 -1.22475826E-03 -6.01429772E-03 -2.76401323E-02  4.35105612E-04
  1.00307272E+00  1.00000000E+00  1.00000000E+00  1.00000000E+00  1.00000000E+00
  1.00000000E+00  1.00000000E+00  1.00000000E+00  1.00000000E+00  2.54948632E-02
  1.90362766E-01  8.52162022E-01  1.00000000E+00  1.00000000E+00  1.00000000E+00
  1.00000000E+00  1.00000000E+00  1.00000000E+00  1.00000000E+00  1.00000000E+00
Coordinates of each shell                  R   N=         165
  0.00000000E+00  0.00000000E+00  0.00000000E+00  0.00000000E+00  0.00000000E+00
  0.00000000E+00  0.00000000E+00  0.00000000E+00  0.00000000E+00  0.00000000E+00
  0.00000000E+00  0.00000000E+00  0.00000000E+00  0.00000000E+00  0.00000000E+00
  0.00000000E+00  0.00000000E+00  0.00000000E+00  0.00000000E+00  0.00000000E+00
  0.00000000E+00  0.00000000E+00  0.00000000E+00  0.00000000E+00  0.00000000E+00
  0.00000000E+00  0.00000000E+00  0.00000000E+00  0.00000000E+00  0.00000000E+00
  0.00000000E+00  0.00000000E+00  0.00000000E+00  0.00000000E+00  0.00000000E+00
  0.00000000E+00  0.00000000E+00  0.00000000E+00  0.00000000E+00  0.00000000E+00
  0.00000000E+00  0.00000000E+00  5.48904212E+00  0.00000000E+00  0.00000000E+00
  5.48904212E+00  0.00000000E+00  0.00000000E+00  5.48904212E+00  0.00000000E+00
  0.00000000E+00  5.48904212E+00  0.00000000E+00  0.00000000E+00  5.48904212E+00
  0.00000000E+00  0.00000000E+00  5.48904212E+00  0.00000000E+00  0.00000000E+00
  5.48904212E+00  0.00000000E+00  0.00000000E+00  5.48904212E+00  0.00000000E+00
  0.00000000E+00  5.48904212E+00  0.00000000E+00  0.00000000E+00  5.48904212E+00
  0.00000000E+00  0.00000000E+00  5.48904212E+00  0.00000000E+00  0.00000000E+00
  5.48904212E+00  0.00000000E+00  0.00000000E+00  5.48904212E+00  0.00000000E+00
  0.00000000E+00  5.48904212E+00  0.00000000E+00  0.00000000E+00  5.48904212E+00
  0.00000000E+00  0.00000000E+00  5.48904212E+00  0.00000000E+00  0.00000000E+00
 -7.43959853E-01  3.09168378E+00  0.00000000E+00 -7.43959853E-01  3.09168378E+00
  0.00000000E+00 -7.43959853E-01  3.09168378E+00  0.00000000E+00 -7.43959853E-01
  3.09168378E+00  0.00000000E+00 -7.43959853E-01  3.09168378E+00  0.00000000E+00
 -7.43959853E-01  3.09168378E+00  0.00000000E+00 -7.43959853E-01  3.09168378E+00
  0.00000000E+00 -7.43959853E-01  3.09168378E+00  0.00000000E+00 -7.43959853E-01
  3.09168378E+00  0.00000000E+00 -7.43959853E-01  3.09168378E+00  0.00000000E+00
 -7.43959853E-01  3.09168378E+00  0.00000000E+00 -7.43959853E-01  3.09168378E+00
  0.00000000E+00 -7.43959853E-01  3.09168378E+00  0.00000000E+00 -7.43959853E-01
  3.09168378E+00  0.00000000E+00 -7.43959853E-01  3.09168378E+00  0.00000000E+00
 -7.43959853E-01  3.09168378E+00  0.00000000E+00  1.94344348E+00  0.00000000E+00
  0.00000000E+00  1.94344348E+00  0.00000000E+00  0.00000000E+00  1.94344348E+00
  0.00000000E+00  0.00000000E+00  1.94344348E+00  0.00000000E+00  0.00000000E+00
  1.94344348E+00  0.00000000E+00  0.00000000E+00  1.94344348E+00  0.00000000E+00
  0.00000000E+00  1.94344348E+00  0.00000000E+00  0.00000000E+00  1.94344348E+00
  0.00000000E+00  0.00000000E+00  1.94344348E+00  0.00000000E+00  0.00000000E+00
Num ILSW                                   I              100
ILSW                                       I   N=         100
           0           0           0           0           2           0
           0           0           0           0           0          -1
           5           0           0           0           0           0
           0           0           0           0           0           0
           1           1           0           0           0           0
           0           0      100000           0          -1           0
           0           0           0           0           0           0
           0           0           0           1           0           0
           0 -2000000000           1           0           0           0
           0           0           4          52           0           0
           0           0           0           0           0           0
           0           0           0           4           0           1
           0           0           0           0           0           0
           0           0           0           0           0           0
           0           0           0           0           0           0
           0           0           0           0           0           0
           0           0           0           0
Num RLSW                                   I               52
RLSW                                       R   N=          52
  1.00000000E+00  1.00000000E+00  1.00000000E+00  1.00000000E+00  1.00000000E+00
  0.00000000E+00  0.00000000E+00  1.00000000E+00  0.00000000E+00  0.00000000E+00
  0.00000000E+00  0.00000000E+00  1.00000000E+00  0.00000000E+00  0.00000000E+00
  0.00000000E+00  0.00000000E+00  1.00000000E+00  0.00000000E+00  0.00000000E+00
  0.00000000E+00  0.00000000E+00  1.00000000E+00  0.00000000E+00  0.00000000E+00
  0.00000000E+00  0.00000000E+00  1.00000000E+00  0.00000000E+00  0.00000000E+00
  0.00000000E+00  0.00000000E+00  1.00000000E+00  0.00000000E+00  0.00000000E+00
  0.00000000E+00  0.00000000E+00  0.00000000E+00  1.00000000E+00  1.00000000E+00
  0.00000000E+00  1.00000000E+00  0.00000000E+00  0.00000000E+00  0.00000000E+00
  0.00000000E+00  0.00000000E+00  0.00000000E+00  0.00000000E+00  0.00000000E+00
  0.00000000E+00  0.00000000E+00
MxBond                                     I                2
NBond                                      I   N=           4
           2           0           1           1
IBond                                      I   N=           8
           3           4           0           0           1           0
           1           0
RBond                                      R   N=           8
  1.00000000E+00  1.00000000E+00  0.00000000E+00  0.00000000E+00  1.00000000E+00
  0.00000000E+00  1.00000000E+00  0.00000000E+00
Virial Ratio                               R      2.000160091573831E+00
SCF Energy                                 R     -9.945238813915449E+02
MP2 Energy                                 R     -9.951921257351055E+02
Total Energy                               R     -9.951921257351055E+02
Post-SCF wavefunction norm                 R      1.103873145446677E+00
RMS Density                                R      3.890071848282503E-09
Job Status                                 I                1
Nuclear derivative order                   I                0
External E-field                           R   N=          35
  0.00000000E+00  0.00000000E+00  0.00000000E+00  0.00000000E+00  0.00000000E+00
  0.00000000E+00  0.00000000E+00  0.00000000E+00  0.00000000E+00  0.00000000E+00
  0.00000000E+00  0.00000000E+00  0.00000000E+00  0.00000000E+00  0.00000000E+00
  0.00000000E+00  0.00000000E+00  0.00000000E+00  0.00000000E+00  0.00000000E+00
  0.00000000E+00  0.00000000E+00  0.00000000E+00  0.00000000E+00  0.00000000E+00
  0.00000000E+00  0.00000000E+00  0.00000000E+00  0.00000000E+00  0.00000000E+00
  0.00000000E+00  0.00000000E+00  0.00000000E+00  0.00000000E+00  0.00000000E+00
IOpCl                                      I                0
IROHF                                      I                0
Alpha Orbital Energies                     R   N=         169
 -1.04722042E+02 -1.04549931E+02 -2.04482138E+01 -1.04415762E+01 -1.02748381E+01
 -7.90874247E+00 -7.90616107E+00 -7.90606921E+00 -7.74101290E+00 -7.74083079E+00
 -7.74082434E+00 -1.21496645E+00 -8.85281796E-01 -7.90054733E-01 -5.26724925E-01
 -4.31101971E-01 -4.23084217E-01 -2.99794201E-01 -2.70565590E-01 -2.05950270E-01
 -1.97816204E-01 -1.97776737E-01  1.61277994E-01  1.86695046E-01  2.25822926E-01
  2.35566315E-01  2.58188278E-01  2.72658923E-01  2.74858292E-01  2.96414543E-01
  3.10772836E-01  3.27443479E-01  3.37453258E-01  3.50255312E-01  3.85806945E-01
  4.53085800E-01  4.62880762E-01  5.15989940E-01  5.25212270E-01  5.38696538E-01
  5.65265526E-01  5.68927096E-01  5.85873814E-01  6.00271214E-01  6.05886638E-01
  6.52258116E-01  6.60833594E-01  6.84084463E-01  6.85361448E-01  7.53154583E-01
  7.85221866E-01  7.89870799E-01  8.30674188E-01  8.75053027E-01  8.84168228E-01
  9.00324200E-01  9.10878905E-01  9.22757127E-01  9.67130195E-01  1.00845585E+00
  1.04893088E+00  1.05747480E+00  1.06369352E+00  1.08965230E+00  1.09414827E+00
  1.10277381E+00  1.14232459E+00  1.15038680E+00  1.17086589E+00  1.18581245E+00
  1.18823154E+00  1.21511530E+00  1.22866917E+00  1.24606095E+00  1.29564884E+00
  1.32554396E+00  1.33074433E+00  1.37705042E+00  1.40877437E+00  1.42545788E+00
  1.42948181E+00  1.47654466E+00  1.48529597E+00  1.50176210E+00  1.54397627E+00
  1.61901422E+00  1.65748629E+00  1.67608038E+00  1.68678200E+00  1.72644971E+00
  1.74566163E+00  1.79763054E+00  1.80847510E+00  1.84345666E+00  1.86444308E+00
  1.91489812E+00  1.94480736E+00  2.01018459E+00  2.29645661E+00  2.39646695E+00
  2.50947338E+00  2.51922588E+00  2.53901182E+00  2.59742488E+00  2.60286104E+00
  2.62704000E+00  2.66933782E+00  2.69044241E+00  2.71320603E+00  2.72648533E+00
  2.74043498E+00  2.77398538E+00  2.78126781E+00  2.80167024E+00  2.80211928E+00
  2.82216543E+00  2.89346567E+00  2.92071164E+00  2.99266004E+00  2.99307004E+00
  3.04483606E+00  3.09602174E+00  3.15217860E+00  3.16476750E+00  3.20496102E+00
  3.22630181E+00  3.24319606E+00  3.28556266E+00  3.30594373E+00  3.32456767E+00
  3.33850438E+00  3.34082426E+00  3.39969601E+00  3.40572922E+00  3.41725674E+00
  3.47394655E+00  3.51333006E+00  3.54491089E+00  3.56414294E+00  3.59736876E+00
  3.70573595E+00  3.95723867E+00  4.26423296E+00  4.31295820E+00  4.47260297E+00
  4.54784478E+00  4.59851298E+00  4.79571904E+00  4.99272933E+00  5.17497770E+00
  5.37541309E+00  5.37962051E+00  5.66075972E+00  6.39209649E+00  6.58979900E+00
  6.69461577E+00  6.86610531E+00  6.91228220E+00  6.92792970E+00  7.01989950E+00
  7.26423382E+00  7.31846395E+00  7.35593966E+00  7.45997528E+00  7.57683470E+00
  7.77499148E+00  7.84714198E+00  8.37810219E+00  1.44433728E+01
Alpha MO coefficients                      R   N=       28561
  4.99208964E-06  2.80473938E-05  2.54796643E-06 -1.56358030E-04 -1.09123641E-04
  5.47624766E-07  2.89811844E-06  1.19144435E-15 -5.17494494E-06 -8.56564760E-06
 -2.29220850E-15  4.69991689E-05 -1.48277063E-04 -1.88280607E-14  1.01273839E-05
 -3.77720262E-05 -3.95580534E-15 -2.21684929E-06  6.56407625E-16 -4.97189981E-16
 -3.06310932E-06 -1.55343872E-06  1.48233848E-05 -3.64549051E-15  8.66915246E-16
  2.01815110E-05  1.02971190E-05  2.49478204E-05 -7.01225934E-15 -3.74270139E-15
  5.90817718E-05  1.33248048E-05 -1.78217100E-16 -3.10932159E-07 -5.76338009E-08
  9.55882730E-16 -2.26845435E-16 -1.83078503E-06  1.02552941E-06  2.25698996E-15
 -2.49201937E-06  1.31467631E-05 -2.14859123E-15  6.84214590E-17 -4.64985252E-06
  8.88662352E-06  1.37887505E-07  1.85425898E-06  4.95054859E-06 -5.75773104E-07
 -2.21617733E-05 -1.02822545E-05  3.62448570E-07  6.97427837E-10 -1.61298902E-17
  4.74424227E-06  9.76480901E-07  4.76671938E-16 -1.43307159E-06  3.51232454E-08
 -2.26578761E-16  1.72116317E-05 -8.25043755E-06  3.75726309E-15  3.47467228E-06
 -1.52023171E-07 -3.78340577E-16 -3.30953822E-07  2.79226061E-16  2.28152515E-16
  1.77120097E-07 -6.85503225E-07  2.04832834E-06 -2.07415191E-15 -8.14422160E-17
 -2.43400879E-06  1.82976114E-06  3.21134678E-06 -2.84672780E-15 -1.53684578E-16
 -4.36095576E-06  5.26221609E-06  1.04702997E-15  1.75920144E-07 -1.43666294E-07
 -2.39390438E-16 -7.84778037E-16  1.43249219E-07  7.17867534E-07 -2.29837933E-15
 -1.36167330E-06  7.41595346E-07  2.33202889E-15  6.07904035E-16  4.53666647E-08
 -3.15046034E-06  9.99534815E-01  1.95487128E-03  1.85875468E-04 -4.18669044E-04
  6.93476863E-05  7.45454242E-05  1.76313605E-05 -7.44635023E-05 -1.44148394E-16
  3.81880235E-05 -1.33851381E-04 -1.02518656E-15 -1.84311956E-05  7.10998497E-05
  6.10575015E-16  1.04405812E-06 -5.51682788E-05  4.40148689E-15  2.40820226E-06
 -1.13178841E-05  6.10366724E-16 -3.56610147E-06 -3.00525480E-16  2.90970951E-16
 -4.80817616E-06 -3.24705641E-06 -2.85528942E-05  7.23595532E-16 -8.06441715E-16
 -4.33503649E-05 -2.42958021E-05 -2.07092444E-07 -1.83708666E-16 -2.76588131E-15
 -1.03050041E-05  1.89658820E-06  2.50249411E-16 -2.14685790E-06  6.23941842E-06
  9.86719120E-16 -1.44721083E-16 -4.59413914E-06  3.83433207E-06 -7.84772467E-16
  6.52049798E-07  2.85483008E-06 -1.59897221E-15 -4.85168281E-16 -4.52362625E-06
  7.61821177E-06 -1.81062573E-06 -1.57421531E-05  6.54111492E-05 -6.98348448E-06
  6.48758941E-07 -2.56105646E-06 -9.36346561E-16 -1.13954773E-05  1.43458234E-05
  1.16474300E-14 -3.48065677E-07  2.61468629E-05  5.17258137E-15 -5.58526416E-07
 -8.02934804E-16  3.97508861E-17 -3.91055997E-07 -9.24919790E-07 -1.60663934E-05
 -1.32911591E-14  7.45091312E-16  1.10341399E-05  1.56342381E-06  2.66579167E-06
  1.45452241E-05 -8.61502253E-07  1.76599130E-05  7.87484280E-05 -1.82789278E-07
  9.47647723E-08 -7.72276852E-16  5.44904716E-06 -4.01724340E-07  7.00648263E-16
 -6.33111242E-05  7.89383081E-07  3.16857628E-17  5.60764712E-06 -9.03820191E-07
 -1.25780174E-15 -6.94419517E-07  1.75801638E-15  3.97230271E-17  1.06945469E-06
  2.20844195E-08  2.58931707E-06 -7.51680893E-16  3.56058431E-16 -3.93654946E-06
 -7.64547496E-08  1.77956676E-05  9.30902554E-16 -2.04910643E-15 -3.16418631E-05
 -5.27059049E-07  1.84711199E-16 -7.23088525E-07  1.29643268E-07 -3.86860519E-16
 -1.65689589E-16  4.35765047E-07 -1.04424291E-07 -3.28482807E-16  4.27059999E-06
 -2.92232617E-07  9.71204518E-16 -4.05373895E-16 -4.10905547E-06  4.41725543E-08
  9.99531947E-01  1.98835399E-03  2.22630943E-04 -4.29902953E-04 -1.80201776E-04
 -5.22226128E-05 -1.15220830E-05 -4.44472289E-07 -1.64537635E-16 -3.62452305E-05
 -2.18926999E-07 -7.30073329E-16  1.50556786E-05  3.58899612E-07  5.14429735E-16
  9.24917901E-05 -1.96525869E-06  1.01578656E-15  1.10372665E-05  3.42479501E-07
  1.06467398E-16 -6.27985181E-07 -7.44965437E-17  9.21904935E-17  6.57573197E-07
 -2.20802496E-07 -2.24522907E-06  2.32983312E-16  3.07498169E-17  5.27426907E-06
  7.10328155E-07  1.30911314E-05 -9.07542572E-16 -2.79384327E-16 -2.41521264E-05
  4.76875559E-07  1.93293983E-16  1.41246045E-06  1.12367700E-07 -5.05491314E-16
 -1.95799290E-16 -1.93867537E-06  2.12279615E-08 -2.47190559E-16 -3.26293862E-06
 -1.49503123E-07  4.79049781E-16  3.75472512E-16  4.08959017E-06 -2.60482090E-07
  3.89393867E-08  8.22402711E-07  1.85915293E-06 -1.07088202E-06 -1.75567068E-06
 -1.60442032E-05  2.95809997E-07  5.33991441E-08  9.84263185E-17  4.50787606E-06
  8.46944184E-07  8.46531195E-16 -1.14688543E-06 -1.16560008E-07 -2.52178512E-16
 -1.09296508E-05  5.33902314E-06  7.20338253E-16 -1.40816960E-06  4.51150882E-06
  3.62660219E-16 -1.68725921E-07  2.89882208E-17 -1.86153168E-17  9.12113274E-08
 -2.21880992E-07 -1.77202585E-07  4.40600745E-16 -4.68544169E-16  5.87074293E-07
 -3.98456397E-07  3.54353992E-06 -6.06127756E-17 -4.34766027E-16 -3.16826794E-06
  5.23203707E-06 -3.13451735E-16 -7.49235419E-07  7.51915308E-08 -1.97441760E-16
 -2.93089576E-16  6.63639852E-08 -4.85701684E-07  2.36976610E-16  2.11789692E-06
  1.07107074E-07  1.46057695E-16  1.01116681E-16 -5.34054631E-07  1.56443795E-06
  1.36034165E-06  8.56178848E-05  2.08705822E-05  1.52841171E-06 -6.03977647E-07
 -3.78280500E-07 -8.47869149E-16 -1.62519641E-06  1.51039322E-06 -5.56453229E-16
  1.49723087E-04  1.10038184E-05 -7.87931956E-16  6.83077503E-07 -2.23879497E-16
  2.54082001E-16 -8.90366507E-07 -2.70019338E-07  1.40174679E-05 -4.56527985E-16
  1.14224406E-15 -2.96497152E-05 -3.13999640E-07  9.76805608E-01 -9.24926807E-03
  4.33898292E-02  1.54546163E-03  6.77062570E-04  8.25434536E-04  1.58290266E-03
 -3.40788776E-16 -1.06171341E-03 -1.20759508E-03  7.58593066E-16 -2.16489141E-04
  3.58376362E-04  3.09718323E-15 -1.98443726E-04  2.33749737E-04  1.20882229E-15
  3.90525839E-05 -3.23041168E-16  4.52965189E-17  1.00278195E-04  4.05586261E-05
  4.76939123E-04  6.07983865E-16  8.47090256E-18  8.67047788E-06  1.57293134E-04
 -1.55692626E-04  2.93482313E-15 -1.19434968E-15 -1.44361370E-04 -1.19348766E-04
  3.56288118E-16  1.20133288E-05  1.95175032E-05 -5.04161278E-16  1.12804599E-16
 -5.30065954E-06  9.78342098E-06 -2.43472984E-16  3.35318059E-05  1.68092440E-05
  1.26555276E-15  3.78219744E-16 -1.24387208E-04 -5.24621797E-05 -2.91890705E-07
  2.11232174E-06  6.18450807E-06  3.98383126E-05 -1.23534906E-03 -7.01281177E-04
  1.06346377E-05  9.07188057E-07  3.00857665E-17  3.32533225E-04  1.16852724E-06
 -8.93367674E-17 -3.75441852E-05 -4.09616552E-06 -5.60187792E-17  7.66448407E-04
  6.58376792E-05 -5.34792812E-16  1.16013884E-04 -8.68943065E-06  4.94932030E-16
  1.50323067E-05 -2.14144350E-16  7.83423248E-17 -2.03387193E-05  9.96973238E-06
  3.16004337E-05  7.65473235E-16 -2.91271604E-16 -7.16453758E-05 -2.99573472E-05
  4.32563220E-05 -6.00168451E-17  5.75209100E-17 -8.10761012E-05 -3.24748878E-05
 -8.28945172E-17 -1.71076185E-05  8.03150952E-07  3.49966221E-16  9.61748206E-17
  1.53127988E-05 -7.75307272E-06  2.87919120E-16  6.79757134E-05 -6.35840457E-06
 -5.67355401E-16  7.53871659E-17 -6.38946817E-05  3.35437785E-05  4.31407148E-06
  7.10199339E-05  7.68753158E-05 -2.93328889E-04  2.37900532E-04 -7.31855818E-04
 -5.78736373E-07 -1.28123505E-05  1.43736373E-16  8.19203563E-05 -6.56752152E-04
  7.85930819E-16 -4.97248934E-05  2.75220171E-04 -5.09365166E-16  9.71110339E-05
  2.85638087E-04  6.39232140E-16 -1.41935002E-05  1.60617652E-04 -5.19333192E-16
  1.70943026E-05 -6.74791134E-17  2.49327649E-16  1.52931066E-06  5.78564279E-06
 -3.39403336E-04  3.06282613E-16 -1.08023167E-15 -4.76540655E-04 -1.82620761E-04
  1.19265659E-04 -3.04226748E-16 -1.50053675E-17  2.20866361E-04 -3.51754971E-05
 -3.97015370E-16 -2.53399773E-05  1.64457235E-04  2.29715072E-16 -4.01973229E-16
 -1.25529934E-04  1.93646736E-04 -1.41532106E-17 -5.13078492E-05  1.08204102E-04
 -6.22868577E-16  2.54788564E-16 -6.61146330E-05  6.36552841E-05  2.65755252E-04
  1.16243104E-03  1.63031604E-03  1.96101078E-04 -2.43996487E-04  3.90862806E-05
 -9.47614267E-17 -1.34304057E-03  4.24537292E-05 -2.93637129E-15  1.32065737E-03
 -1.43840048E-04 -2.55748972E-15 -1.46016744E-05  1.96598946E-17 -1.02460121E-15
  1.68025097E-05 -6.52188012E-05 -5.56040593E-04  2.96259976E-15  8.77937041E-16
  1.15010906E-03 -7.22164121E-05 -6.70577990E-05 -4.42778823E-05 -1.07922909E-04
  2.90144788E-03  2.62827631E-03 -2.72709371E-05  4.29834640E-05  2.44999892E-16
 -2.47939181E-05  5.54854024E-04 -3.16288256E-16 -4.68021465E-04  2.31186283E-03
  6.11421700E-15 -1.99775746E-04  9.62224390E-04  6.43938535E-16 -2.12939083E-05
 -6.31823715E-16 -3.72905448E-16 -4.38007763E-05 -3.14208780E-05 -2.18942905E-04
  1.86285302E-15 -1.11875452E-16 -2.42758864E-04 -6.37777498E-05 -2.70390743E-04
  1.94392296E-15  8.64865113E-16 -7.46281026E-04  8.24374068E-05 -1.98395530E-16
  4.88268988E-06 -2.18069047E-05 -4.05075727E-16 -5.01874286E-16  5.41170434E-05
 -4.06147920E-05 -5.15279402E-16 -1.16413264E-05 -6.05032808E-05  1.48381375E-15