title                                                                   
SP        RMP2-FC                                                     Aug-CC-pVTZ         
Number of atoms                            I                4
Info1-9                                    I   N=           9
          43          13           0           0           0         110
           1           2           1
Full Title                                 C   N=           1
title       
Route                                      C   N=           4
#p SP NoSymm mp2/aug-cc-pvtz density=current    
Charge                                     I               -1
Multiplicity                               I                1
Number of electrons                        I               44
Number of alpha electrons                  I               22
Number of beta electrons                   I               22
Number of basis functions                  I              169
Number of independent functions            I              169
Number of point charges in /Mol/           I                0
Number of translation vectors              I                0
Atomic numbers                             I   N=           4
           8          17          17           1
Nuclear charges                            R   N=           4
  8.00000000E+00  1.70000000E+01  1.70000000E+01  1.00000000E+00
Current cartesian coordinates              R   N=          12
  0.00000000E+00  0.00000000E+00  0.00000000E+00  5.48904212E+00  0.00000000E+00
  0.00000000E+00 -7.43959929E-01  3.09168378E+00  0.00000000E+00  4.74415668E-01
  0.00000000E+00  1.77054338E+00
Number of symbols in /Mol/                 I                0
Force Field                                I                0
Atom Types                                 C   N=           4
                                                
Int Atom Types                             I   N=           4
           0           0           0           0
MM charges                                 R   N=           4
  0.00000000E+00  0.00000000E+00  0.00000000E+00  0.00000000E+00
Integer atomic weights                     I   N=           4
          16          35          35           1
Real atomic weights                        R   N=           4
  1.59949146E+01  3.49688527E+01  3.49688527E+01  1.00782504E+00
Atom fragment info                         I   N=           4
           0           0           0           0
Atom residue num                           I   N=           4
           0           0           0           0
Nuclear spins                              I   N=           4
           0           3           3           1
Nuclear ZEff                               R   N=           4
 -5.60000000E+00 -1.42400000E+01 -1.42400000E+01 -1.00000000E+00
Nuclear ZNuc                               R   N=           4
  8.00000000E+00  1.70000000E+01  1.70000000E+01  1.00000000E+00
Nuclear QMom                               R   N=           4
  0.00000000E+00 -8.16500000E+00 -8.16500000E+00  0.00000000E+00
Nuclear GFac                               R   N=           4
  0.00000000E+00  8.21874000E-01  8.21874000E-01  2.79284600E+00
MicOpt                                     I   N=           4
          -1          -1          -1          -1
Number of residues                         I                0
Number of secondary structures             I                0
Number of contracted shells                I               55
Number of primitive shells                 I              140
Pure/Cartesian d shells                    I                0
Pure/Cartesian f shells                    I                0
Highest angular momentum                   I                3
Largest degree of contraction              I               11
Shell types                                I   N=          55
           0           0           0           0           0           1
           1           1           1          -2          -2          -2
          -3          -3           0           0           0           0
           0           0           1           1           1           1
           1          -2          -2          -2          -3          -3
           0           0           0           0           0           0
           1           1           1           1           1          -2
          -2          -2          -3          -3           0           0
           0           0           1           1           1          -2
          -2
Number of primitives per shell             I   N=          55
           7           6           1           1           1           3
           1           1           1           1           1           1
           1           1          11           9           8           1
           1           1           6           6           1           1
           1           1           1           1           1           1
          11           9           8           1           1           1
           6           6           1           1           1           1
           1           1           1           1           3           1
           1           1           1           1           1           1
           1
Shell to atom map                          I   N=          55
           1           1           1           1           1           1
           1           1           1           1           1           1
           1           1           2           2           2           2
           2           2           2           2           2           2
           2           2           2           2           2           2
           3           3           3           3           3           3
           3           3           3           3           3           3
           3           3           3           3           4           4
           4           4           4           4           4           4
           4
Primitive exponents                        R   N=         140
  1.53300000E+04  2.29900000E+03  5.22400000E+02  1.47300000E+02  4.75500000E+01
  1.67600000E+01  6.20700000E+00  5.22400000E+02  1.47300000E+02  4.75500000E+01
  1.67600000E+01  6.20700000E+00  6.88200000E-01  1.75200000E+00  2.38400000E-01
  7.37600000E-02  3.44600000E+01  7.74900000E+00  2.28000000E+00  7.15600000E-01
  2.14000000E-01  5.97400000E-02  2.31400000E+00  6.45000000E-01  2.14000000E-01
  1.42800000E+00  5.00000000E-01  4.56100000E+05  6.83300000E+04  1.55500000E+04
  4.40500000E+03  1.43900000E+03  5.20400000E+02  2.03100000E+02  8.39600000E+01
  3.62000000E+01  1.58300000E+01  6.33400000E+00  4.40500000E+03  1.43900000E+03
  5.20400000E+02  2.03100000E+02  8.39600000E+01  3.62000000E+01  1.58300000E+01
  6.33400000E+00  2.69400000E+00  1.43900000E+03  2.03100000E+02  8.39600000E+01
  3.62000000E+01  1.58300000E+01  6.33400000E+00  2.69400000E+00  4.31300000E-01
  9.76800000E-01  1.62500000E-01  5.91000000E-02  6.63300000E+02  1.56800000E+02
  4.99800000E+01  1.84200000E+01  7.24000000E+00  2.92200000E+00  1.56800000E+02
  4.99800000E+01  1.84200000E+01  7.24000000E+00  2.92200000E+00  3.81800000E-01
  1.02200000E+00  1.30100000E-01  4.19000000E-02  1.04600000E+00  3.44000000E-01
  1.35000000E-01  7.06000000E-01  3.12000000E-01  4.56100000E+05  6.83300000E+04
  1.55500000E+04  4.40500000E+03  1.43900000E+03  5.20400000E+02  2.03100000E+02
  8.39600000E+01  3.62000000E+01  1.58300000E+01  6.33400000E+00  4.40500000E+03
  1.43900000E+03  5.20400000E+02  2.03100000E+02  8.39600000E+01  3.62000000E+01
  1.58300000E+01  6.33400000E+00  2.69400000E+00  1.43900000E+03  2.03100000E+02
  8.39600000E+01  3.62000000E+01  1.58300000E+01  6.33400000E+00  2.69400000E+00
  4.31300000E-01  9.76800000E-01  1.62500000E-01  5.91000000E-02  6.63300000E+02
  1.56800000E+02  4.99800000E+01  1.84200000E+01  7.24000000E+00  2.92200000E+00
  1.56800000E+02  4.99800000E+01  1.84200000E+01  7.24000000E+00  2.92200000E+00
  3.81800000E-01  1.02200000E+00  1.30100000E-01  4.19000000E-02  1.04600000E+00
  3.44000000E-01  1.35000000E-01  7.06000000E-01  3.12000000E-01  3.38700000E+01
  5.09500000E+00  1.15900000E+00  3.25800000E-01  1.02700000E-01  2.52600000E-02
  1.40700000E+00  3.88000000E-01  1.02000000E-01  1.05700000E+00  2.47000000E-01
Contraction coefficients                   R   N=         140
  5.19808943E-04  4.02025621E-03  2.07128267E-02  8.10105536E-02  2.35962985E-01
  4.42653446E-01  3.57064423E-01 -4.42115008E-05 -1.22591041E-03 -1.05517725E-02
 -6.74452633E-02 -1.71198607E-01  1.07329856E+00  1.00000000E+00  1.00000000E+00
  1.00000000E+00  4.11634896E-02  2.57762836E-01  8.02419274E-01  1.00000000E+00
  1.00000000E+00  1.00000000E+00  1.00000000E+00  1.00000000E+00  1.00000000E+00
  1.00000000E+00  1.00000000E+00  4.93229477E-05  3.83207967E-04  2.00947816E-03
  8.38950124E-03  2.94843950E-02  8.78759948E-02  2.11589759E-01  3.65611554E-01
  3.41246350E-01  1.02162570E-01  2.14249949E-03 -2.21747925E-06 -1.71189708E-04
 -1.27922846E-03 -9.32956265E-03 -3.98910062E-02 -1.05536085E-01  9.36202446E-03
  5.10511140E-01  5.73150737E-01  4.03949245E-06  2.12481765E-04  8.59484452E-04
  4.63248159E-03  4.47343490E-04 -7.38438245E-02 -3.62271994E-01  1.16620337E+00
  1.00000000E+00  1.00000000E+00  1.00000000E+00  2.47206402E-03  1.97550234E-02
  9.09917355E-02  2.63187834E-01  4.49078073E-01  3.60183072E-01  3.03427809E-05
 -1.22475826E-03 -6.01429772E-03 -2.76401323E-02  4.35105612E-04  1.00307272E+00
  1.00000000E+00  1.00000000E+00  1.00000000E+00  1.00000000E+00  1.00000000E+00
  1.00000000E+00  1.00000000E+00  1.00000000E+00  4.93229477E-05  3.83207967E-04
  2.00947816E-03  8.38950124E-03  2.94843950E-02  8.78759948E-02  2.11589759E-01
  3.65611554E-01  3.41246350E-01  1.02162570E-01  2.14249949E-03 -2.21747925E-06
 -1.71189708E-04 -1.27922846E-03 -9.32956265E-03 -3.98910062E-02 -1.05536085E-01
  9.36202446E-03  5.10511140E-01  5.73150737E-01  4.03949245E-06  2.12481765E-04
  8.59484452E-04  4.63248159E-03  4.47343490E-04 -7.38438245E-02 -3.62271994E-01
  1.16620337E+00  1.00000000E+00  1.00000000E+00  1.00000000E+00  2.47206402E-03
  1.97550234E-02  9.09917355E-02  2.63187834E-01  4.49078073E-01  3.60183072E-01
  3.03427809E-05 -1.22475826E-03 -6.01429772E-03 -2.76401323E-02  4.35105612E-04
  1.00307272E+00  1.00000000E+00  1.00000000E+00  1.00000000E+00  1.00000000E+00
  1.00000000E+00  1.00000000E+00  1.00000000E+00  1.00000000E+00  2.54948632E-02
  1.90362766E-01  8.52162022E-01  1.00000000E+00  1.00000000E+00  1.00000000E+00
  1.00000000E+00  1.00000000E+00  1.00000000E+00  1.00000000E+00  1.00000000E+00
Coordinates of each shell                  R   N=         165
  0.00000000E+00  0.00000000E+00  0.00000000E+00  0.00000000E+00  0.00000000E+00
  0.00000000E+00  0.00000000E+00  0.00000000E+00  0.00000000E+00  0.00000000E+00
  0.00000000E+00  0.00000000E+00  0.00000000E+00  0.00000000E+00  0.00000000E+00
  0.00000000E+00  0.00000000E+00  0.00000000E+00  0.00000000E+00  0.00000000E+00
  0.00000000E+00  0.00000000E+00  0.00000000E+00  0.00000000E+00  0.00000000E+00
  0.00000000E+00  0.00000000E+00  0.00000000E+00  0.00000000E+00  0.00000000E+00
  0.00000000E+00  0.00000000E+00  0.00000000E+00  0.00000000E+00  0.00000000E+00
  0.00000000E+00  0.00000000E+00  0.00000000E+00  0.00000000E+00  0.00000000E+00
  0.00000000E+00  0.00000000E+00  5.48904212E+00  0.00000000E+00  0.00000000E+00
  5.48904212E+00  0.00000000E+00  0.00000000E+00  5.48904212E+00  0.00000000E+00
  0.00000000E+00  5.48904212E+00  0.00000000E+00  0.00000000E+00  5.48904212E+00
  0.00000000E+00  0.00000000E+00  5.48904212E+00  0.00000000E+00  0.00000000E+00
  5.48904212E+00  0.00000000E+00  0.00000000E+00  5.48904212E+00  0.00000000E+00
  0.00000000E+00  5.48904212E+00  0.00000000E+00  0.00000000E+00  5.48904212E+00
  0.00000000E+00  0.00000000E+00  5.48904212E+00  0.00000000E+00  0.00000000E+00
  5.48904212E+00  0.00000000E+00  0.00000000E+00  5.48904212E+00  0.00000000E+00
  0.00000000E+00  5.48904212E+00  0.00000000E+00  0.00000000E+00  5.48904212E+00
  0.00000000E+00  0.00000000E+00  5.48904212E+00  0.00000000E+00  0.00000000E+00
 -7.43959929E-01  3.09168378E+00  0.00000000E+00 -7.43959929E-01  3.09168378E+00
  0.00000000E+00 -7.43959929E-01  3.09168378E+00  0.00000000E+00 -7.43959929E-01
  3.09168378E+00  0.00000000E+00 -7.43959929E-01  3.09168378E+00  0.00000000E+00
 -7.43959929E-01  3.09168378E+00  0.00000000E+00 -7.43959929E-01  3.09168378E+00
  0.00000000E+00 -7.43959929E-01  3.09168378E+00  0.00000000E+00 -7.43959929E-01
  3.09168378E+00  0.00000000E+00 -7.43959929E-01  3.09168378E+00  0.00000000E+00
 -7.43959929E-01  3.09168378E+00  0.00000000E+00 -7.43959929E-01  3.09168378E+00
  0.00000000E+00 -7.43959929E-01  3.09168378E+00  0.00000000E+00 -7.43959929E-01
  3.09168378E+00  0.00000000E+00 -7.43959929E-01  3.09168378E+00  0.00000000E+00
 -7.43959929E-01  3.09168378E+00  0.00000000E+00  4.74415668E-01  0.00000000E+00
  1.77054338E+00  4.74415668E-01  0.00000000E+00  1.77054338E+00  4.74415668E-01
  0.00000000E+00  1.77054338E+00  4.74415668E-01  0.00000000E+00  1.77054338E+00
  4.74415668E-01  0.00000000E+00  1.77054338E+00  4.74415668E-01  0.00000000E+00
  1.77054338E+00  4.74415668E-01  0.00000000E+00  1.77054338E+00  4.74415668E-01
  0.00000000E+00  1.77054338E+00  4.74415668E-01  0.00000000E+00  1.77054338E+00
Num ILSW                                   I              100
ILSW                                       I   N=         100
           0           0           0           0           2           0
           0           0           0           0           0          -1
           5           0           0           0           0           0
           0           0           0           0           0           0
           1           1           0           0           0           0
           0           0      100000           0          -1           0
           0           0           0           0           0           0
           0           0           0           1           0           0
           0 -2000000000           1           0           0           0
           0           0           4          52           0           0
           0           0           0           0           0           0
           0           0           0           4           0           1
           0           0           0           0           0           0
           0           0           0           0           0           0
           0           0           0           0           0           0
           0           0           0           0           0           0
           0           0           0           0
Num RLSW                                   I               52
RLSW                                       R   N=          52
  1.00000000E+00  1.00000000E+00  1.00000000E+00  1.00000000E+00  1.00000000E+00
  0.00000000E+00  0.00000000E+00  1.00000000E+00  0.00000000E+00  0.00000000E+00
  0.00000000E+00  0.00000000E+00  1.00000000E+00  0.00000000E+00  0.00000000E+00
  0.00000000E+00  0.00000000E+00  1.00000000E+00  0.00000000E+00  0.00000000E+00
  0.00000000E+00  0.00000000E+00  1.00000000E+00  0.00000000E+00  0.00000000E+00
  0.00000000E+00  0.00000000E+00  1.00000000E+00  0.00000000E+00  0.00000000E+00
  0.00000000E+00  0.00000000E+00  1.00000000E+00  0.00000000E+00  0.00000000E+00
  0.00000000E+00  0.00000000E+00  0.00000000E+00  1.00000000E+00  1.00000000E+00
  0.00000000E+00  1.00000000E+00  0.00000000E+00  0.00000000E+00  0.00000000E+00
  0.00000000E+00  0.00000000E+00  0.00000000E+00  0.00000000E+00  0.00000000E+00
  0.00000000E+00  0.00000000E+00
MxBond                                     I                2
NBond                                      I   N=           4
           2           0           1           1
IBond                                      I   N=           8
           3           4           0           0           1           0
           1           0
RBond                                      R   N=           8
  1.00000000E+00  1.00000000E+00  0.00000000E+00  0.00000000E+00  1.00000000E+00
  0.00000000E+00  1.00000000E+00  0.00000000E+00
Virial Ratio                               R      2.000078216673981E+00
SCF Energy                                 R     -9.944888302203610E+02
MP2 Energy                                 R     -9.951524556802456E+02
Total Energy                               R     -9.951524556802456E+02
Post-SCF wavefunction norm                 R      1.103529795755560E+00
RMS Density                                R      6.246426788823594E-09
Job Status                                 I                1
Nuclear derivative order                   I                0
External E-field                           R   N=          35
  0.00000000E+00  0.00000000E+00  0.00000000E+00  0.00000000E+00  0.00000000E+00
  0.00000000E+00  0.00000000E+00  0.00000000E+00  0.00000000E+00  0.00000000E+00
  0.00000000E+00  0.00000000E+00  0.00000000E+00  0.00000000E+00  0.00000000E+00
  0.00000000E+00  0.00000000E+00  0.00000000E+00  0.00000000E+00  0.00000000E+00
  0.00000000E+00  0.00000000E+00  0.00000000E+00  0.00000000E+00  0.00000000E+00
  0.00000000E+00  0.00000000E+00  0.00000000E+00  0.00000000E+00  0.00000000E+00
  0.00000000E+00  0.00000000E+00  0.00000000E+00  0.00000000E+00  0.00000000E+00
IOpCl                                      I                0
IROHF                                      I                0
Alpha Orbital Energies                     R   N=         169
 -1.04742785E+02 -1.04510027E+02 -2.04892031E+01 -1.04627522E+01 -1.02343686E+01
 -7.92995727E+00 -7.92718566E+00 -7.92697327E+00 -7.70042889E+00 -7.70038664E+00
 -7.70035583E+00 -1.26461888E+00 -9.08666223E-01 -7.41987245E-01 -5.67110554E-01
 -4.63057694E-01 -4.53284873E-01 -3.22415806E-01 -2.94875757E-01 -1.58733663E-01
 -1.57581627E-01 -1.54697450E-01  1.43897834E-01  1.75861825E-01  2.19644837E-01
  2.32328278E-01  2.66148855E-01  2.70239332E-01  2.80981056E-01  2.93102624E-01
  2.97404929E-01  3.06158500E-01  3.17924151E-01  3.54607334E-01  3.93879276E-01
  4.18838268E-01  4.42596378E-01  4.63262891E-01  5.28580829E-01  5.34499990E-01
  5.50044093E-01  5.58619216E-01  5.72442893E-01  5.85939171E-01  6.01320943E-01
  6.15798094E-01  6.43557110E-01  6.61086646E-01  6.67093313E-01  6.79614416E-01
  7.55742983E-01  8.04165041E-01  8.46246920E-01  8.53902874E-01  8.63456858E-01
  8.94867209E-01  9.05135729E-01  9.16744865E-01  9.42463890E-01  9.69115380E-01
  1.02726270E+00  1.05586306E+00  1.07111417E+00  1.08544607E+00  1.10231162E+00
  1.13037873E+00  1.15196737E+00  1.16288904E+00  1.17067783E+00  1.19225208E+00
  1.19997722E+00  1.21644844E+00  1.22671742E+00  1.23075249E+00  1.25356912E+00
  1.25779201E+00  1.26139531E+00  1.28686832E+00  1.31537465E+00  1.38462439E+00
  1.39107887E+00  1.43937517E+00  1.45703185E+00  1.47148439E+00  1.48188785E+00
  1.50689399E+00  1.51786482E+00  1.54239831E+00  1.60325583E+00  1.64193014E+00
  1.64993349E+00  1.69205229E+00  1.71496636E+00  1.73339659E+00  1.75346464E+00
  1.86477358E+00  1.93074425E+00  2.00536980E+00  2.11324780E+00  2.29378127E+00
  2.42952445E+00  2.45947513E+00  2.47993865E+00  2.52865915E+00  2.56481106E+00
  2.59832253E+00  2.63215998E+00  2.66828707E+00  2.68904946E+00  2.69708158E+00
  2.71565516E+00  2.75197331E+00  2.77527429E+00  2.80292598E+00  2.82992084E+00
  2.83345762E+00  2.87264778E+00  2.88289498E+00  2.90192186E+00  2.94311370E+00
  2.99214893E+00  2.99913853E+00  3.02028780E+00  3.09526157E+00  3.14734544E+00
  3.17576932E+00  3.21021337E+00  3.23031167E+00  3.23601149E+00  3.29163402E+00
  3.30498814E+00  3.36718234E+00  3.37102057E+00  3.40093185E+00  3.40875740E+00
  3.42431654E+00  3.50298783E+00  3.52279074E+00  3.56772847E+00  3.58494722E+00
  3.64948289E+00  3.92620680E+00  3.94842027E+00  4.33471966E+00  4.42515399E+00
  4.52609968E+00  4.59355265E+00  4.76723708E+00  4.91528627E+00  5.03874847E+00
  5.39106824E+00  5.46421537E+00  5.67291619E+00  5.80013265E+00  6.38702890E+00
  6.62301303E+00  6.81292489E+00  6.90052364E+00  6.92801183E+00  6.98697361E+00
  7.35224022E+00  7.36411584E+00  7.39379425E+00  7.41607488E+00  7.48250024E+00
  7.64411574E+00  7.68232776E+00  8.41778882E+00  1.48773137E+01
Alpha MO coefficients                      R   N=       28561
  7.25379542E-06  3.94301949E-05  3.97002528E-07 -1.26480964E-04 -5.80877033E-05
 -1.77415640E-07  3.15170261E-06  2.07897288E-07  1.17008829E-06 -9.33756969E-06
  2.26771530E-06  4.49434093E-05 -1.35807491E-04  6.24968278E-06  1.53494502E-05
 -2.51174147E-05  7.10228562E-06 -1.56844684E-06  7.06622514E-08  5.10944071E-08
 -2.70710159E-06 -1.73885835E-06  1.48354082E-05  1.63422376E-06  2.18559800E-07
  1.98417316E-05  1.15054985E-05  2.77285159E-05  7.60268011E-06 -9.43614129E-06
  5.06166106E-05  2.01464505E-05  3.29995674E-07  3.02604322E-09  1.53709721E-06
 -5.80633779E-07  2.20172374E-07 -8.18751228E-07  2.21784853E-07  1.37841999E-07
 -9.49913122E-07  8.16600113E-06  3.14008759E-06 -3.85622015E-07 -8.71100414E-06
  1.23338527E-05  1.18640485E-07  1.83699256E-06  4.74903743E-06 -1.25531809E-06
 -4.23189943E-06 -1.00276060E-05  4.26381356E-08 -1.01724168E-07  2.20005868E-08
 -1.64531467E-06 -1.04261721E-06  3.57093911E-07 -3.30797101E-07  3.86673642E-07
 -7.94298957E-08  1.03019485E-05  1.81874973E-06 -1.12697831E-06  3.01430037E-06
  2.57173353E-07  1.77490354E-08 -4.07242983E-07 -8.92987683E-08 -2.88403753E-08
  8.84612175E-07  1.81143269E-08  9.90804790E-07  1.28614825E-07  6.46873074E-08
 -2.02823412E-06  4.65445062E-07  2.57451558E-06  8.17242528E-07 -7.44149588E-08
 -4.49344184E-06 -1.86687428E-06 -9.49283012E-08  2.41758990E-07  3.18830161E-07
  1.59678598E-07  7.20449890E-08 -1.17924309E-06 -1.15097066E-06  3.07997139E-07
 -1.55816237E-06 -5.76331981E-07 -4.75863202E-07 -1.36883509E-07  3.64417303E-06
  2.10497030E-06  9.99534782E-01  1.95509193E-03  1.86136386E-04 -4.18567406E-04
  6.48352935E-05  5.81111869E-05  1.39247097E-05 -7.69158077E-05  2.49673853E-06
  3.24433931E-05 -1.35667857E-04  5.60774574E-06 -1.50673656E-05  7.27766955E-05
 -2.83859057E-06  9.10729450E-06 -4.45961060E-05 -2.60623288E-06 -5.61812530E-08
 -9.74204285E-06 -1.58882927E-06 -3.73315180E-06 -4.61072060E-08  2.40755383E-07
 -5.90962089E-06 -3.23809126E-06 -2.72437691E-05  9.27920930E-07 -2.81848623E-06
 -4.27420213E-05 -2.28769528E-05 -3.06173554E-06 -2.13397286E-06  1.73141850E-06
 -3.25050044E-06  8.62529045E-07 -3.79394985E-07 -1.10324837E-06  5.15501636E-06
 -6.68156284E-07 -1.05904180E-06 -5.51741226E-06  5.51263790E-06 -1.78837807E-07
 -1.47283733E-06  4.53237308E-06  3.22143240E-07  1.70060391E-06 -2.23556368E-06
  4.27171843E-06  3.58102072E-07 -1.39989780E-05 -1.12090772E-05 -4.40135856E-06
  1.06663029E-06 -4.48639510E-07  1.73262309E-06 -9.14504307E-06  9.93413640E-06
  3.90396228E-06  1.97190463E-06  6.06993716E-06  1.99679924E-06 -2.65572091E-06
 -6.26657491E-08  6.50785972E-07 -1.56235455E-06 -3.10034048E-07 -8.53033384E-08
  7.06857034E-07  2.41096378E-06  1.19259004E-06  2.08750426E-07  2.30718518E-07
  1.50003177E-06 -3.83138093E-08 -1.65949435E-06  1.79853495E-05  8.77081774E-07
  1.50723059E-07 -2.99374660E-07 -2.91024992E-06 -5.38218647E-07  1.70410852E-06
  8.69233840E-06  4.83195849E-06 -2.92979055E-06 -3.44882964E-06  6.77844540E-06
  3.55802804E-06 -2.96563949E-08 -1.23553422E-07  3.45398876E-08  2.86932073E-07
  8.23564624E-09  5.66441197E-07  8.33673991E-07 -5.43379880E-09 -1.45226834E-06
 -3.19796649E-08 -5.78488258E-06  3.54321990E-06  2.34634526E-08  4.72944457E-06
 -1.16094682E-06  1.64522651E-07  1.31319679E-07  8.67609692E-08  2.07286905E-07
 -5.10227639E-08 -7.39579067E-07 -8.88414440E-08 -8.62436894E-07  2.96767767E-07
 -2.12399920E-07 -7.62676173E-08  2.72650990E-07  2.08483813E-06  1.79936985E-07
  9.99531382E-01  1.97115806E-03  1.86914147E-04 -4.14465833E-04 -1.17798026E-04
  3.11297303E-05  1.39027719E-06 -2.64372574E-07  3.07503486E-06 -6.86218067E-06
  9.27064236E-08  2.96961259E-06  1.22433462E-06  9.88300553E-08 -2.34058932E-06
  1.83907710E-05 -6.27500518E-07 -4.41172821E-06 -7.97969133E-06  1.26875338E-06
  3.20511255E-07 -1.90917852E-07 -2.57540990E-07 -2.98463813E-08  3.63085797E-07
 -1.22189921E-07  7.17827365E-07 -4.04664121E-07  5.56017212E-08 -6.70466183E-07
  4.60379745E-07  2.57052860E-06  3.34046945E-06 -1.52805974E-07 -6.13746098E-06
 -4.49965490E-07 -4.94912317E-07  1.13262890E-06  5.26645329E-08  6.75944182E-07
 -4.69823982E-08 -1.80534911E-06  5.72167543E-08  1.20211672E-06 -2.46985539E-06
 -8.85677702E-08 -1.65330702E-06  9.31228351E-08  4.02246230E-06 -1.39564448E-07
  7.70351358E-08  1.02419030E-06  2.68159937E-06 -4.52778568E-07 -8.74837064E-06
 -1.91365545E-05 -2.18777761E-07 -9.12141893E-08  1.33260858E-07 -1.61890133E-06
 -5.19332593E-07  1.42458996E-06  8.57925416E-07  2.91062905E-07 -5.37518845E-07
 -5.34274071E-07  9.98168948E-06 -2.28728183E-06 -4.61407446E-06  3.12377235E-06
  2.12932463E-07 -1.02868096E-07 -3.76157860E-08  1.43802514E-07  2.21842289E-07
 -3.23466440E-07  9.29118048E-07  1.76568225E-07 -7.24401451E-07  1.41021546E-07
  8.72354661E-07  1.57579880E-06 -7.88907033E-07  7.76754897E-07  1.25040429E-06
 -1.05261065E-06 -1.26507546E-07  3.88765535E-07 -1.27792219E-07  2.99328225E-08
 -1.53997345E-08  1.42486644E-07 -4.28348074E-09  1.96111990E-07 -4.34548766E-07
 -5.37583214E-07 -2.53113133E-07  7.06789182E-08 -7.81296749E-07 -3.95557723E-07
  8.10264964E-07 -5.64882455E-06  1.60770529E-05 -4.74726265E-06  1.47628045E-07
  1.66963964E-07  1.87011608E-07 -5.16148832E-06 -6.62720370E-07  3.07468928E-06
  5.18295147E-06  2.75700925E-06 -7.59940930E-06 -1.48407992E-07  4.36554841E-07
  2.03734086E-07 -8.16069299E-07 -1.25109678E-07 -2.93061124E-06 -1.39910115E-06
 -4.51565478E-07  4.57607828E-06  2.16960598E-07  9.76852345E-01 -9.06715209E-03
  4.33593368E-02  2.09503924E-03 -1.50498449E-04 -1.96565404E-04  1.45234757E-03
  1.45077904E-03  5.80308101E-05 -1.14741112E-03 -1.37490973E-03 -2.86385308E-04
  8.71467058E-04 -2.62904511E-04 -1.91203658E-04  1.21670413E-04 -1.19512884E-04
  9.01920730E-05  7.98538844E-06  1.87673136E-05  8.60822355E-05  4.91853809E-05
 -3.20505981E-04 -2.25901378E-04  1.46903124E-07  3.52877062E-04  1.97777896E-04
 -1.46981844E-04 -9.03415147E-06  7.96551166E-05 -2.77642637E-04 -1.94382080E-04
 -1.78673622E-05 -9.36199464E-06 -1.01714234E-05  1.47824131E-05 -2.28690709E-06
 -1.47109627E-05  1.91258585E-05 -1.34764317E-04 -6.58428359E-05 -1.46510172E-05
 -4.18268686E-05 -2.52262884E-05  1.06303283E-05 -2.27949259E-05 -2.27683200E-06
 -2.72255439E-05 -7.81659350E-05  1.44523999E-05  6.94326337E-05  3.61550723E-04
  1.26811279E-06 -6.43999953E-08 -2.21520190E-06  5.31740022E-05 -2.26851618E-06
 -3.43472733E-05 -5.78979102E-06  8.76669084E-08  8.63127600E-06 -2.77443589E-04
  1.83436438E-05  1.05097637E-04 -1.04944003E-04 -1.26111506E-05  1.66730458E-05
  1.35775907E-06  3.10790378E-06  1.69933169E-07 -6.17677056E-07  2.26879207E-06
 -1.10347825E-05  4.91897816E-07 -8.64128822E-07  6.92437542E-06 -7.71158902E-06
 -3.10439782E-05 -8.95846227E-05  6.13320310E-06  1.08764025E-04 -1.25890836E-06
  1.09957288E-05  1.79849934E-05 -3.81124894E-06 -1.10689456E-05  2.37251698E-07
 -5.59620276E-06  1.05355529E-06 -3.03036893E-05 -2.44902181E-05  6.37119150E-06
  3.46771653E-05 -1.30369932E-06 -8.40662488E-06  1.51525442E-06  3.02007754E-06
  5.04527033E-05  3.24688245E-05 -2.49433235E-04 -1.13863799E-04 -2.71787875E-04
 -2.65159337E-06  6.84809660E-07 -6.19494602E-06  6.61202979E-05 -4.31683641E-04
 -1.07197366E-04 -4.35495484E-05  2.22284868E-04  2.92169318E-05  1.22626620E-04
  3.93597287E-04  2.53279472E-04  1.43058426E-06  6.19526625E-05  3.70055657E-05
  1.17741331E-05 -1.55436187E-06  1.30210242E-06  1.37689505E-05  1.17701215E-05
 -2.71040528E-04 -1.09899040E-05  5.77396061E-05 -4.07637669E-04 -2.12468034E-04
  2.04477496E-04  9.11891996E-05 -1.32561047E-04  2.81965350E-04  1.14022706E-05
  1.01332982E-05 -4.42746381E-05  1.69026763E-04  9.32437219E-06  1.48537692E-05
 -1.30133717E-04  1.74579287E-04  3.04289107E-06 -3.95870126E-06  5.64155401E-05
  9.26913105E-06 -2.91134432E-05 -9.02416089E-05  5.58861027E-05  5.05809425E-04
  1.67549372E-03 -3.08016730E-04 -2.42664934E-05 -1.00223178E-04  6.34707178E-05
 -2.73672632E-04 -2.61411819E-04 -1.29794571E-04 -1.04042730E-03 -2.96671712E-04
 -3.41530649E-04  4.67091532E-05 -5.72899865E-05  1.90465118E-07 -6.61607782E-05
  2.44829033E-05 -1.01511786E-05  4.61522152E-04  3.03274778E-04  6.36902712E-05
  4.29532986E-05  4.30301780E-05 -8.65897489E-05 -1.63795494E-04 -1.03044835E-04
  2.27276315E-03  1.30327630E-03 -1.95788010E-05  4.19143188E-05 -1.20613005E-05
 -1.24049912E-04  5.77670973E-04 -1.24529026E-05 -5.86509774E-04  2.01202256E-03
  1.28051270E-05 -3.41238839E-04  5.69726957E-04 -1.66641179E-04 -3.76453954E-05
 -1.69724524E-06 -4.92846787E-06 -5.00221151E-05 -2.29319196E-05 -1.44652512E-04
 -3.99873535E-06  2.20201372E-05 -2.46627487E-04 -1.39687457E-04 -2.63528013E-04
 -8.97772806E-05  1.56152467E-04 -6.07347048E-04 -1.95837945E-04  2.94663582E-06
  1.37022011E-05 -4.69868310E-05  5.53921446E-06 -5.29616527E-06  3.21940866E-05
 -2.88951859E-05  4.76844341E-05 -1.62867638E-05  8.43270183E-05 -1.16563713E-05
  3.60893928E-05 -1.44537841E-05 -1.26025619E-06 -1.24498628E-06 -1.83827983E-05
 -4.90118279E-05  1.17542391E-05 -1.88803985E-05  3.28814761E-04  2.54639729E-06
  2.46011331E-06 -1.14724204E-06  5.58775519E-05  1.87066407E-05 -1.39170087E-05
 -7.41289376E-06 -8.58418927E-06  4.47762606E-06 -2.09799206E-04 -2.70369451E-05
  3.44919478E-05 -1.28881519E-04  4.81279357E-05 -1.86772869E-05  1.34340722E-06
  1.12863648E-06  8.94490960E-07 -9.47176412E-06 -1.69767526E-06  2.73259929E-06
 -1.12285728E-06 -2.69456244E-06  1.89568946E-05 -2.31813323E-06 -7.84602847E-05
 -1.63531719E-05  4.61365928E-06  8.65970894E-05  5.62590187E-06  2.25892547E-06