 Entering Gaussian System, Link 0=g16
 Input=clhocl_15_opt.gjf
 Output=clhocl_15_opt.log
 Initial command:
 /sw/contrib/gaussian/g16/B01/g16/l1.exe "/scr/Gau-452323.inp" -scrdir="/scr/"
 Entering Link 1 = /sw/contrib/gaussian/g16/B01/g16/l1.exe PID=    452324.
  
 Copyright (c) 1988-2017, Gaussian, Inc.  All Rights Reserved.
  
 This is part of the Gaussian(R) 16 program.  It is based on
 the Gaussian(R) 09 system (copyright 2009, Gaussian, Inc.),
 the Gaussian(R) 03 system (copyright 2003, Gaussian, Inc.),
 the Gaussian(R) 98 system (copyright 1998, Gaussian, Inc.),
 the Gaussian(R) 94 system (copyright 1995, Gaussian, Inc.),
 the Gaussian 92(TM) system (copyright 1992, Gaussian, Inc.),
 the Gaussian 90(TM) system (copyright 1990, Gaussian, Inc.),
 the Gaussian 88(TM) system (copyright 1988, Gaussian, Inc.),
 the Gaussian 86(TM) system (copyright 1986, Carnegie Mellon
 University), and the Gaussian 82(TM) system (copyright 1983,
 Carnegie Mellon University). Gaussian is a federally registered
 trademark of Gaussian, Inc.
  
 This software contains proprietary and confidential information,
 including trade secrets, belonging to Gaussian, Inc.
  
 This software is provided under written license and may be
 used, copied, transmitted, or stored only in accord with that
 written license.
  
 The following legend is applicable only to US Government
 contracts under FAR:
  
                    RESTRICTED RIGHTS LEGEND
  
 Use, reproduction and disclosure by the US Government is
 subject to restrictions as set forth in subparagraphs (a)
 and (c) of the Commercial Computer Software - Restricted
 Rights clause in FAR 52.227-19.
  
 Gaussian, Inc.
 340 Quinnipiac St., Bldg. 40, Wallingford CT 06492
  
  
 ---------------------------------------------------------------
 Warning -- This program may not be used in any manner that
 competes with the business of Gaussian, Inc. or will provide
 assistance to any competitor of Gaussian, Inc.  The licensee
 of this program is prohibited from giving any competitor of
 Gaussian, Inc. access to this program.  By using this program,
 the user acknowledges that Gaussian, Inc. is engaged in the
 business of creating and licensing software in the field of
 computational chemistry and represents and warrants to the
 licensee that it is not a competitor of Gaussian, Inc. and that
 it will not use this program in any manner prohibited above.
 ---------------------------------------------------------------
  

 Cite this work as:
 Gaussian 16, Revision B.01,
 M. J. Frisch, G. W. Trucks, H. B. Schlegel, G. E. Scuseria, 
 M. A. Robb, J. R. Cheeseman, G. Scalmani, V. Barone, 
 G. A. Petersson, H. Nakatsuji, X. Li, M. Caricato, A. V. Marenich, 
 J. Bloino, B. G. Janesko, R. Gomperts, B. Mennucci, H. P. Hratchian, 
 J. V. Ortiz, A. F. Izmaylov, J. L. Sonnenberg, D. Williams-Young, 
 F. Ding, F. Lipparini, F. Egidi, J. Goings, B. Peng, A. Petrone, 
 T. Henderson, D. Ranasinghe, V. G. Zakrzewski, J. Gao, N. Rega, 
 G. Zheng, W. Liang, M. Hada, M. Ehara, K. Toyota, R. Fukuda, 
 J. Hasegawa, M. Ishida, T. Nakajima, Y. Honda, O. Kitao, H. Nakai, 
 T. Vreven, K. Throssell, J. A. Montgomery, Jr., J. E. Peralta, 
 F. Ogliaro, M. J. Bearpark, J. J. Heyd, E. N. Brothers, K. N. Kudin, 
 V. N. Staroverov, T. A. Keith, R. Kobayashi, J. Normand, 
 K. Raghavachari, A. P. Rendell, J. C. Burant, S. S. Iyengar, 
 J. Tomasi, M. Cossi, J. M. Millam, M. Klene, C. Adamo, R. Cammi, 
 J. W. Ochterski, R. L. Martin, K. Morokuma, O. Farkas, 
 J. B. Foresman, and D. J. Fox, Gaussian, Inc., Wallingford CT, 2016.
 
 ******************************************
 Gaussian 16:  ES64L-G16RevB.01 20-Dec-2017
                15-Sep-2021 
 ******************************************
 %nproc=28
 Will use up to   28 processors via shared memory.
 %mem=120GB
 %chk=/gscratch/ilahie/mccoygrp/coire_hocl/clhocl/clhocl_15_opt.chk
 -------------------------------------------------
 #p opt=(z-matrix) mp2/aug-cc-pvtz density=current
 -------------------------------------------------
 1/10=7,18=40,38=1/1,3;
 2/12=2,17=6,18=5,29=3,40=1/2;
 3/5=16,6=1,7=10,11=9,25=1,30=1,71=1/1,2,3;
 4//1;
 5/5=2,38=5/2;
 8/6=4,10=1/1;
 9/15=2,16=-3/6;
 10/5=1/2;
 6/7=2,8=2,9=2,10=2,22=-1/1;
 7/12=2,29=1/1,2,3,16;
 1/10=7,18=40/3(2);
 2/29=3/2;
 99//99;
 2/29=3/2;
 3/5=16,6=1,7=10,11=9,25=1,30=1,71=1/1,2,3;
 4/5=5,16=3,69=1/1;
 5/5=2,38=5/2;
 8/6=4,10=1/1;
 9/15=2,16=-3/6;
 10/5=1/2;
 7/12=2/1,2,3,16;
 1/18=40/3(-8);
 2/29=3/2;
 6/7=2,8=2,9=2,10=2,22=-1/1;
 99/9=10/99;
 Leave Link    1 at Wed Sep 15 12:00:17 2021, MaxMem= 16106127360 cpu:               0.7 elap:               0.0
 (Enter /sw/contrib/gaussian/g16/B01/g16/l101.exe)
 -----
 title
 -----
 Symbolic Z-matrix:
 Charge = -1 Multiplicity = 1
 O
 X                    1     10. 
 Cl                   1    r1       2     90. 
 Cl                   1    r2       2     90.      3    a1       0
 H                    1    r3       2    oop      3    a1       0
       Variables:
  r1                    1.685                    
  r2                    3.07067                  
  r3                    1.01773                  
  a1                  103.50791                  
  OOP                  75.      -1        0.     
 
 ITRead=  0  0  0  0
 MicOpt= -1 -1 -1 -1
 NAtoms=      4 NQM=        4 NQMF=       0 NMMI=      0 NMMIF=      0
                NMic=       0 NMicF=      0.
                    Isotopes and Nuclear Properties:
 (Nuclear quadrupole moments (NQMom) in fm**2, nuclear magnetic moments (NMagM)
  in nuclear magnetons)

  Atom         1           2           3           4
 IAtWgt=          16          35          35           1
 AtmWgt=  15.9949146  34.9688527  34.9688527   1.0078250
 NucSpn=           0           3           3           1
 AtZEff=  -0.0000000  -0.0000000  -0.0000000  -0.0000000
 NQMom=    0.0000000  -8.1650000  -8.1650000   0.0000000
 NMagM=    0.0000000   0.8218740   0.8218740   2.7928460
 AtZNuc=   8.0000000  17.0000000  17.0000000   1.0000000
 Leave Link  101 at Wed Sep 15 12:00:17 2021, MaxMem= 16106127360 cpu:               2.5 elap:               0.1
 (Enter /sw/contrib/gaussian/g16/B01/g16/l103.exe)

 GradGradGradGradGradGradGradGradGradGradGradGradGradGradGradGradGradGrad
 Berny optimization.
 Initialization pass.
                       ----------------------------
                       !    Initial Parameters    !
                       ! (Angstroms and Degrees)  !
 ----------------------                            ----------------------
 !      Name          Value   Derivative information (Atomic Units)     !
 ------------------------------------------------------------------------
 !       r1          1.685    estimate D2E/DX2                          !
 !       r2          3.0707   estimate D2E/DX2                          !
 !       r3          1.0177   estimate D2E/DX2                          !
 !       a1        103.5079   estimate D2E/DX2                          !
 !       OOP        75.0      Frozen                                    !
 ------------------------------------------------------------------------
 Trust Radius=3.00D-01 FncErr=1.00D-07 GrdErr=1.00D-07 EigMax=2.50D+02 EigMin=1.00D-04
 Number of steps in this run=     20 maximum allowed number of steps=    100.
 GradGradGradGradGradGradGradGradGradGradGradGradGradGradGradGradGradGrad

 Leave Link  103 at Wed Sep 15 12:00:17 2021, MaxMem= 16106127360 cpu:               1.0 elap:               0.1
 (Enter /sw/contrib/gaussian/g16/B01/g16/l202.exe)
 ---------------------------------------------------------------------------------------------------
                            Z-MATRIX (ANGSTROMS AND DEGREES)
   CD    Cent   Atom    N1       Length/X        N2       Alpha/Y        N3        Beta/Z          J
 ---------------------------------------------------------------------------------------------------
      1      1  O 
      2         X        1  10.000000(     1)
      3      2  Cl       1   1.685000(     2)      2   90.000(     5)
      4      3  Cl       1   3.070672(     3)      2   90.000(     6)      3  103.508(     8)      0
      5      4  H        1   1.017728(     4)      2   75.000(     7)      3  103.508(     9)      0
 ---------------------------------------------------------------------------------------------------
                         Z-Matrix orientation:                         
 ---------------------------------------------------------------------
 Center     Atomic      Atomic             Coordinates (Angstroms)
 Number     Number       Type             X           Y           Z
 ---------------------------------------------------------------------
      1          8           0        0.000000    0.000000    0.000000
      2         -1           0        0.000000    0.000000   10.000000
      3         17           0        1.685000    0.000000    0.000000
      4         17           0       -0.717246   -2.985731    0.000000
      5          1           0       -0.229620   -0.955856    0.263407
 ---------------------------------------------------------------------
                    Distance matrix (angstroms):
                    1          2          3          4          5
     1  O    0.000000
     2  X   10.000000   0.000000
     3  Cl   1.685000  10.140968   0.000000
     4  Cl   3.070672  10.460833   3.832150   0.000000
     5  H    1.017728   9.786093   2.156111   2.104175   0.000000
 Stoichiometry    Cl2HO(1-)
 Framework group  C1[X(Cl2HO)]
 Deg. of freedom     6
 Full point group                 C1      NOp   1
 Largest Abelian subgroup         C1      NOp   1
 Largest concise Abelian subgroup C1      NOp   1
                         Standard orientation:                         
 ---------------------------------------------------------------------
 Center     Atomic      Atomic             Coordinates (Angstroms)
 Number     Number       Type             X           Y           Z
 ---------------------------------------------------------------------
      1          8           0        0.762672    1.003283   -0.021129
      2         17           0        1.737516   -0.370927    0.000033
      3         17           0       -2.087603   -0.138947   -0.004650
      4          1           0       -0.149899    0.641607    0.247523
 ---------------------------------------------------------------------
 Rotational constants (GHZ):          22.9142724           1.8902503           1.7470200
 Leave Link  202 at Wed Sep 15 12:00:17 2021, MaxMem= 16106127360 cpu:               0.6 elap:               0.0
 (Enter /sw/contrib/gaussian/g16/B01/g16/l301.exe)
 Standard basis: Aug-CC-pVTZ (5D, 7F)
 Ernie: Thresh=  0.10000D-02 Tol=  0.10000D-05 Strict=F.
 Ernie:  29 primitive shells out of 169 were deleted.
 There are   198 symmetry adapted cartesian basis functions of A   symmetry.
 There are   169 symmetry adapted basis functions of A   symmetry.
   169 basis functions,   327 primitive gaussians,   198 cartesian basis functions
    22 alpha electrons       22 beta electrons
       nuclear repulsion energy       118.6632918619 Hartrees.
 IExCor=    0 DFT=F Ex=HF Corr=None ExCW=0 ScaHFX=  1.000000
 ScaDFX=  1.000000  1.000000  1.000000  1.000000 ScalE2=  1.000000  1.000000
 IRadAn=      5 IRanWt=     -1 IRanGd=            0 ICorTp=0 IEmpDi=  4
 NAtoms=    4 NActive=    4 NUniq=    4 SFac= 1.00D+00 NAtFMM=   60 NAOKFM=F Big=F
 Integral buffers will be    131072 words long.
 Raffenetti 1 integral format.
 Two-electron integral symmetry is turned on.
 Leave Link  301 at Wed Sep 15 12:00:17 2021, MaxMem= 16106127360 cpu:               2.2 elap:               0.1
 (Enter /sw/contrib/gaussian/g16/B01/g16/l302.exe)
 NPDir=0 NMtPBC=     1 NCelOv=     1 NCel=       1 NClECP=     1 NCelD=      1
         NCelK=      1 NCelE2=     1 NClLst=     1 CellRange=     0.0.
 One-electron integrals computed using PRISM.
 One-electron integral symmetry used in STVInt
 NBasis=   169 RedAO= T EigKep=  2.66D-04  NBF=   169
 NBsUse=   169 1.00D-06 EigRej= -1.00D+00 NBFU=   169
 Leave Link  302 at Wed Sep 15 12:00:17 2021, MaxMem= 16106127360 cpu:               3.6 elap:               0.2
 (Enter /sw/contrib/gaussian/g16/B01/g16/l303.exe)
 DipDrv:  MaxL=1.
 Leave Link  303 at Wed Sep 15 12:00:18 2021, MaxMem= 16106127360 cpu:               1.8 elap:               0.1
 (Enter /sw/contrib/gaussian/g16/B01/g16/l401.exe)
 ExpMin= 2.53D-02 ExpMax= 4.56D+05 ExpMxC= 1.44D+03 IAcc=3 IRadAn=         5 AccDes= 0.00D+00
 Harris functional with IExCor=  205 and IRadAn=       5 diagonalized for initial guess.
 HarFok:  IExCor=  205 AccDes= 0.00D+00 IRadAn=         5 IDoV= 1 UseB2=F ITyADJ=14
 ICtDFT=  3500011 ScaDFX=  1.000000  1.000000  1.000000  1.000000
 FoFCou: FMM=F IPFlag=           0 FMFlag=      100000 FMFlg1=           0
         NFxFlg=           0 DoJE=T BraDBF=F KetDBF=T FulRan=T
         wScrn=  0.000000 ICntrl=       500 IOpCl=  0 I1Cent=   200000004 NGrid=           0
         NMat0=    1 NMatS0=      1 NMatT0=    0 NMatD0=    1 NMtDS0=    0 NMtDT0=    0
 Petite list used in FoFCou.
 Harris En= -993.817918338763    
 JPrj=0 DoOrth=F DoCkMO=F.
 Leave Link  401 at Wed Sep 15 12:00:18 2021, MaxMem= 16106127360 cpu:               7.9 elap:               0.3
 (Enter /sw/contrib/gaussian/g16/B01/g16/l502.exe)
 Keep R1 ints in memory in canonical form, NReq=117118192.
 FoFCou: FMM=F IPFlag=           0 FMFlag=           0 FMFlg1=           0
         NFxFlg=           0 DoJE=F BraDBF=F KetDBF=F FulRan=T
         wScrn=  0.000000 ICntrl=       600 IOpCl=  0 I1Cent=           0 NGrid=           0
         NMat0=    1 NMatS0=  14365 NMatT0=    0 NMatD0=    1 NMtDS0=    0 NMtDT0=    0
 Symmetry not used in FoFCou.
 Two-electron integral symmetry not used.
 Closed shell SCF:
 Using DIIS extrapolation, IDIIS=  1040.
 NGot= 16106127360 LenX= 16002857927 LenY= 16002818282
 Requested convergence on RMS density matrix=1.00D-08 within 128 cycles.
 Requested convergence on MAX density matrix=1.00D-06.
 Requested convergence on             energy=1.00D-06.
 No special actions if energy rises.

 Cycle   1  Pass 1  IDiag  1:
 E= -994.396555868182    
 DIIS: error= 2.74D-02 at cycle   1 NSaved=   1.
 NSaved= 1 IEnMin= 1 EnMin= -994.396555868182     IErMin= 1 ErrMin= 2.74D-02
 ErrMax= 2.74D-02  0.00D+00 EMaxC= 1.00D-01 BMatC= 4.18D-01 BMatP= 4.18D-01
 IDIUse=3 WtCom= 7.26D-01 WtEn= 2.74D-01
 Coeff-Com:  0.100D+01
 Coeff-En:   0.100D+01
 Coeff:      0.100D+01
 Gap=     0.554 Goal=   None    Shift=    0.000
 GapD=    0.554 DampG=2.000 DampE=0.500 DampFc=1.0000 IDamp=-1.
 RMSDP=2.10D-03 MaxDP=7.07D-02              OVMax= 1.18D-01

 Cycle   2  Pass 1  IDiag  1:
 E= -994.490120348212     Delta-E=       -0.093564480029 Rises=F Damp=F
 DIIS: error= 2.06D-02 at cycle   2 NSaved=   2.
 NSaved= 2 IEnMin= 2 EnMin= -994.490120348212     IErMin= 2 ErrMin= 2.06D-02
 ErrMax= 2.06D-02  0.00D+00 EMaxC= 1.00D-01 BMatC= 4.60D-02 BMatP= 4.18D-01
 IDIUse=3 WtCom= 7.94D-01 WtEn= 2.06D-01
 Coeff-Com:  0.160D+00 0.840D+00
 Coeff-En:   0.000D+00 0.100D+01
 Coeff:      0.127D+00 0.873D+00
 Gap=     0.366 Goal=   None    Shift=    0.000
 RMSDP=9.54D-04 MaxDP=3.86D-02 DE=-9.36D-02 OVMax= 7.65D-02

 Cycle   3  Pass 1  IDiag  1:
 E= -994.512672897790     Delta-E=       -0.022552549579 Rises=F Damp=F
 DIIS: error= 9.47D-03 at cycle   3 NSaved=   3.
 NSaved= 3 IEnMin= 3 EnMin= -994.512672897790     IErMin= 3 ErrMin= 9.47D-03
 ErrMax= 9.47D-03  0.00D+00 EMaxC= 1.00D-01 BMatC= 1.39D-02 BMatP= 4.60D-02
 IDIUse=3 WtCom= 9.05D-01 WtEn= 9.47D-02
 Coeff-Com: -0.149D-01 0.345D+00 0.670D+00
 Coeff-En:   0.000D+00 0.137D+00 0.863D+00
 Coeff:     -0.135D-01 0.326D+00 0.688D+00
 Gap=     0.353 Goal=   None    Shift=    0.000
 RMSDP=3.55D-04 MaxDP=1.25D-02 DE=-2.26D-02 OVMax= 3.54D-02

 Cycle   4  Pass 1  IDiag  1:
 E= -994.522100205902     Delta-E=       -0.009427308112 Rises=F Damp=F
 DIIS: error= 1.41D-03 at cycle   4 NSaved=   4.
 NSaved= 4 IEnMin= 4 EnMin= -994.522100205902     IErMin= 4 ErrMin= 1.41D-03
 ErrMax= 1.41D-03  0.00D+00 EMaxC= 1.00D-01 BMatC= 1.79D-04 BMatP= 1.39D-02
 IDIUse=3 WtCom= 9.86D-01 WtEn= 1.41D-02
 Coeff-Com: -0.418D-02 0.262D-01 0.119D+00 0.859D+00
 Coeff-En:   0.000D+00 0.000D+00 0.000D+00 0.100D+01
 Coeff:     -0.412D-02 0.258D-01 0.117D+00 0.861D+00
 Gap=     0.346 Goal=   None    Shift=    0.000
 RMSDP=5.41D-05 MaxDP=1.35D-03 DE=-9.43D-03 OVMax= 3.02D-03

 Cycle   5  Pass 1  IDiag  1:
 E= -994.522279600816     Delta-E=       -0.000179394914 Rises=F Damp=F
 DIIS: error= 2.62D-04 at cycle   5 NSaved=   5.
 NSaved= 5 IEnMin= 5 EnMin= -994.522279600816     IErMin= 5 ErrMin= 2.62D-04
 ErrMax= 2.62D-04  0.00D+00 EMaxC= 1.00D-01 BMatC= 1.48D-05 BMatP= 1.79D-04
 IDIUse=3 WtCom= 9.97D-01 WtEn= 2.62D-03
 Coeff-Com:  0.949D-03-0.393D-01-0.692D-01 0.933D-02 0.110D+01
 Coeff-En:   0.000D+00 0.000D+00 0.000D+00 0.000D+00 0.100D+01
 Coeff:      0.946D-03-0.392D-01-0.690D-01 0.930D-02 0.110D+01
 Gap=     0.348 Goal=   None    Shift=    0.000
 RMSDP=3.10D-05 MaxDP=7.81D-04 DE=-1.79D-04 OVMax= 3.00D-03

 Cycle   6  Pass 1  IDiag  1:
 E= -994.522316536448     Delta-E=       -0.000036935631 Rises=F Damp=F
 DIIS: error= 1.37D-04 at cycle   6 NSaved=   6.
 NSaved= 6 IEnMin= 6 EnMin= -994.522316536448     IErMin= 6 ErrMin= 1.37D-04
 ErrMax= 1.37D-04  0.00D+00 EMaxC= 1.00D-01 BMatC= 1.90D-06 BMatP= 1.48D-05
 IDIUse=3 WtCom= 9.99D-01 WtEn= 1.37D-03
 Coeff-Com:  0.264D-03 0.839D-02 0.150D-01-0.731D-01-0.411D+00 0.146D+01
 Coeff-En:   0.000D+00 0.000D+00 0.000D+00 0.000D+00 0.000D+00 0.100D+01
 Coeff:      0.264D-03 0.838D-02 0.150D-01-0.730D-01-0.410D+00 0.146D+01
 Gap=     0.348 Goal=   None    Shift=    0.000
 RMSDP=1.58D-05 MaxDP=3.90D-04 DE=-3.69D-05 OVMax= 1.54D-03

 Cycle   7  Pass 1  IDiag  1:
 E= -994.522323258623     Delta-E=       -0.000006722175 Rises=F Damp=F
 DIIS: error= 3.17D-05 at cycle   7 NSaved=   7.
 NSaved= 7 IEnMin= 7 EnMin= -994.522323258623     IErMin= 7 ErrMin= 3.17D-05
 ErrMax= 3.17D-05  0.00D+00 EMaxC= 1.00D-01 BMatC= 1.18D-07 BMatP= 1.90D-06
 IDIUse=1 WtCom= 1.00D+00 WtEn= 0.00D+00
 Coeff-Com: -0.180D-03-0.686D-03-0.497D-03 0.277D-01 0.860D-01-0.601D+00
 Coeff-Com:  0.149D+01
 Coeff:     -0.180D-03-0.686D-03-0.497D-03 0.277D-01 0.860D-01-0.601D+00
 Coeff:      0.149D+01
 Gap=     0.348 Goal=   None    Shift=    0.000
 RMSDP=4.92D-06 MaxDP=1.45D-04 DE=-6.72D-06 OVMax= 4.82D-04

 Cycle   8  Pass 1  IDiag  1:
 E= -994.522323796255     Delta-E=       -0.000000537632 Rises=F Damp=F
 DIIS: error= 6.62D-06 at cycle   8 NSaved=   8.
 NSaved= 8 IEnMin= 8 EnMin= -994.522323796255     IErMin= 8 ErrMin= 6.62D-06
 ErrMax= 6.62D-06  0.00D+00 EMaxC= 1.00D-01 BMatC= 8.56D-09 BMatP= 1.18D-07
 IDIUse=1 WtCom= 1.00D+00 WtEn= 0.00D+00
 Coeff-Com:  0.909D-05-0.716D-03-0.112D-02 0.204D-02 0.216D-01-0.441D-01
 Coeff-Com: -0.137D+00 0.116D+01
 Coeff:      0.909D-05-0.716D-03-0.112D-02 0.204D-02 0.216D-01-0.441D-01
 Coeff:     -0.137D+00 0.116D+01
 Gap=     0.348 Goal=   None    Shift=    0.000
 RMSDP=1.08D-06 MaxDP=2.95D-05 DE=-5.38D-07 OVMax= 1.23D-04

 Cycle   9  Pass 1  IDiag  1:
 E= -994.522323827164     Delta-E=       -0.000000030910 Rises=F Damp=F
 DIIS: error= 3.46D-06 at cycle   9 NSaved=   9.
 NSaved= 9 IEnMin= 9 EnMin= -994.522323827164     IErMin= 9 ErrMin= 3.46D-06
 ErrMax= 3.46D-06  0.00D+00 EMaxC= 1.00D-01 BMatC= 1.26D-09 BMatP= 8.56D-09
 IDIUse=1 WtCom= 1.00D+00 WtEn= 0.00D+00
 Coeff-Com:  0.176D-04 0.229D-03 0.354D-03-0.379D-02-0.159D-01 0.870D-01
 Coeff-Com: -0.164D+00-0.227D+00 0.132D+01
 Coeff:      0.176D-04 0.229D-03 0.354D-03-0.379D-02-0.159D-01 0.870D-01
 Coeff:     -0.164D+00-0.227D+00 0.132D+01
 Gap=     0.348 Goal=   None    Shift=    0.000
 RMSDP=5.50D-07 MaxDP=1.29D-05 DE=-3.09D-08 OVMax= 6.59D-05

 Cycle  10  Pass 1  IDiag  1:
 E= -994.522323833384     Delta-E=       -0.000000006220 Rises=F Damp=F
 DIIS: error= 1.67D-06 at cycle  10 NSaved=  10.
 NSaved=10 IEnMin=10 EnMin= -994.522323833384     IErMin=10 ErrMin= 1.67D-06
 ErrMax= 1.67D-06  0.00D+00 EMaxC= 1.00D-01 BMatC= 1.95D-10 BMatP= 1.26D-09
 IDIUse=1 WtCom= 1.00D+00 WtEn= 0.00D+00
 Coeff-Com: -0.313D-05 0.374D-04 0.144D-04 0.587D-03 0.116D-02-0.142D-01
 Coeff-Com:  0.592D-01-0.151D+00-0.225D+00 0.133D+01
 Coeff:     -0.313D-05 0.374D-04 0.144D-04 0.587D-03 0.116D-02-0.142D-01
 Coeff:      0.592D-01-0.151D+00-0.225D+00 0.133D+01
 Gap=     0.348 Goal=   None    Shift=    0.000
 RMSDP=2.41D-07 MaxDP=6.42D-06 DE=-6.22D-09 OVMax= 2.87D-05

 Cycle  11  Pass 1  IDiag  1:
 E= -994.522323834345     Delta-E=       -0.000000000961 Rises=F Damp=F
 DIIS: error= 5.04D-07 at cycle  11 NSaved=  11.
 NSaved=11 IEnMin=11 EnMin= -994.522323834345     IErMin=11 ErrMin= 5.04D-07
 ErrMax= 5.04D-07  0.00D+00 EMaxC= 1.00D-01 BMatC= 1.50D-11 BMatP= 1.95D-10
 IDIUse=1 WtCom= 1.00D+00 WtEn= 0.00D+00
 Coeff-Com: -0.262D-05-0.230D-04-0.249D-04 0.413D-03 0.149D-02-0.823D-02
 Coeff-Com:  0.121D-01 0.420D-01-0.100D+00-0.262D+00 0.131D+01
 Coeff:     -0.262D-05-0.230D-04-0.249D-04 0.413D-03 0.149D-02-0.823D-02
 Coeff:      0.121D-01 0.420D-01-0.100D+00-0.262D+00 0.131D+01
 Gap=     0.348 Goal=   None    Shift=    0.000
 RMSDP=7.29D-08 MaxDP=2.04D-06 DE=-9.61D-10 OVMax= 8.37D-06

 Cycle  12  Pass 1  IDiag  1:
 E= -994.522323834423     Delta-E=       -0.000000000078 Rises=F Damp=F
 DIIS: error= 9.49D-08 at cycle  12 NSaved=  12.
 NSaved=12 IEnMin=12 EnMin= -994.522323834423     IErMin=12 ErrMin= 9.49D-08
 ErrMax= 9.49D-08  0.00D+00 EMaxC= 1.00D-01 BMatC= 7.32D-13 BMatP= 1.50D-11
 IDIUse=1 WtCom= 1.00D+00 WtEn= 0.00D+00
 Coeff-Com:  0.626D-06 0.230D-07 0.445D-06-0.912D-04-0.263D-03 0.192D-02
 Coeff-Com: -0.491D-02 0.146D-02 0.291D-01-0.338D-01-0.200D+00 0.121D+01
 Coeff:      0.626D-06 0.230D-07 0.445D-06-0.912D-04-0.263D-03 0.192D-02
 Coeff:     -0.491D-02 0.146D-02 0.291D-01-0.338D-01-0.200D+00 0.121D+01
 Gap=     0.348 Goal=   None    Shift=    0.000
 RMSDP=1.28D-08 MaxDP=2.93D-07 DE=-7.75D-11 OVMax= 1.14D-06

 Cycle  13  Pass 1  IDiag  1:
 E= -994.522323834424     Delta-E=       -0.000000000002 Rises=F Damp=F
 DIIS: error= 2.14D-08 at cycle  13 NSaved=  13.
 NSaved=13 IEnMin=13 EnMin= -994.522323834424     IErMin=13 ErrMin= 2.14D-08
 ErrMax= 2.14D-08  0.00D+00 EMaxC= 1.00D-01 BMatC= 8.36D-14 BMatP= 7.32D-13
 IDIUse=1 WtCom= 1.00D+00 WtEn= 0.00D+00
 Coeff-Com:  0.179D-06 0.213D-05 0.188D-05-0.286D-04-0.109D-03 0.569D-03
 Coeff-Com: -0.613D-03-0.436D-02 0.719D-02 0.286D-01-0.118D+00-0.753D-01
 Coeff-Com:  0.116D+01
 Coeff:      0.179D-06 0.213D-05 0.188D-05-0.286D-04-0.109D-03 0.569D-03
 Coeff:     -0.613D-03-0.436D-02 0.719D-02 0.286D-01-0.118D+00-0.753D-01
 Coeff:      0.116D+01
 Gap=     0.348 Goal=   None    Shift=    0.000
 RMSDP=4.13D-09 MaxDP=8.46D-08 DE=-1.59D-12 OVMax= 3.42D-07

 SCF Done:  E(RHF) =  -994.522323834     A.U. after   13 cycles
            NFock= 13  Conv=0.41D-08     -V/T= 2.0002
 KE= 9.943076459290D+02 PE=-2.614861898467D+03 EE= 5.073686368416D+02
 Leave Link  502 at Wed Sep 15 12:00:21 2021, MaxMem= 16106127360 cpu:              21.9 elap:               2.8
 (Enter /sw/contrib/gaussian/g16/B01/g16/l801.exe)
 ExpMin= 2.53D-02 ExpMax= 4.56D+05 ExpMxC= 1.44D+03 IAcc=3 IRadAn=         5 AccDes= 0.00D+00
 HarFok:  IExCor=  205 AccDes= 0.00D+00 IRadAn=         5 IDoV=-2 UseB2=F ITyADJ=14
 ICtDFT= 12500011 ScaDFX=  1.000000  1.000000  1.000000  1.000000
 Largest valence mixing into a core orbital is  4.47D-04
 Largest core mixing into a valence orbital is  1.75D-04
 Range of M.O.s used for correlation:    12   169
 NBasis=   169 NAE=    22 NBE=    22 NFC=    11 NFV=     0
 NROrb=    158 NOA=    11 NOB=    11 NVA=   147 NVB=   147

 **** Warning!!: The largest alpha MO coefficient is  0.13627568D+02

 Leave Link  801 at Wed Sep 15 12:00:21 2021, MaxMem= 16106127360 cpu:               1.8 elap:               0.1
 (Enter /sw/contrib/gaussian/g16/B01/g16/l906.exe)
 Frozen-core derivative calculation, NFC=  11 NFV=   0.
 FulOut=F Deriv=T AODrv=T NAtomX=     4
   MMem=         144  MDisk=          11 MDiskD=          11
  W3Min=      736164 MinDsk=     1250177 NBas6D=         198
 NBas2D=       20187    NTT=       19701    LW2=     3500000
    MDV= 16105749574 MDiskM=      406660 NBas2p=       20007
 Fully direct method using O(ONN) memory.
 IMap=   1   2   3   4   5   6   7   8   9  10  11  12  13  14  15  16  17  18  19  20
 IMap=  21  22
 JobTyp=1 Pass  1:  I=  12 to  22 NPSUse= 28 ParTrn=T ParDer=T DoDerP=T.
 Spin components of T(2) and E(2):
     alpha-alpha T2 =       0.2917705067D-01 E2=     -0.8371587872D-01
     alpha-beta  T2 =       0.1597250053D+00 E2=     -0.4979537821D+00
     beta-beta   T2 =       0.2917705067D-01 E2=     -0.8371587872D-01
 The integrals were generated   1 times.
 ANorm=    0.1103666212D+01
 E2 =    -0.6653855395D+00 EUMP2 =    -0.99518770937392D+03
 Leave Link  906 at Wed Sep 15 12:00:31 2021, MaxMem= 16106127360 cpu:             285.8 elap:              10.3
 (Enter /sw/contrib/gaussian/g16/B01/g16/l1002.exe)
 Minotr:  Closed shell wavefunction.
          Computing MP2/KS-MP2 derivatives.
          Using Z-Vector for PSCF gradient.
          Skipping F1 and S1 gradient terms here.
          IDoAtm=1111
          Frozen-core window.
          Direct CPHF calculation.
          Differentiating once with respect to electric field.
                with respect to dipole field.
          Differentiating once with respect to nuclear coordinates.
          Requested convergence is 1.0D-10 RMS, and 1.0D-09 maximum.
          NewPWx=F KeepS1=T KeepF1=T KeepIn=T MapXYZ=F SortEE=F KeepMc=T.
 Keep R1 ints in memory in canonical form, NReq=117121599.
 FoFCou: FMM=F IPFlag=           0 FMFlag=           0 FMFlg1=           0
         NFxFlg=           0 DoJE=F BraDBF=F KetDBF=F FulRan=T
         wScrn=  0.000000 ICntrl=       600 IOpCl=  0 I1Cent=           0 NGrid=           0
         NMat0=    1 NMatS0=  14365 NMatT0=    0 NMatD0=    1 NMtDS0=    0 NMtDT0=    0
 Symmetry not used in FoFCou.
 Two-electron integral symmetry not used.
          MDV=   16106127360 using IRadAn=       5.
          Solving linear equations separately, MaxMat=       0.
          There are     1 degrees of freedom in the 1st order CPHF.  IDoFFX=0 NUNeed=     1.
 LinEq1:  Iter=  0 NonCon=     1 RMS=3.06D-03 Max=3.80D-02 NDo=     1
 AX will form     1 AO Fock derivatives at one time.
 LinEq1:  Iter=  1 NonCon=     1 RMS=3.82D-04 Max=4.70D-03 NDo=     1
 LinEq1:  Iter=  2 NonCon=     1 RMS=1.58D-04 Max=2.90D-03 NDo=     1
 LinEq1:  Iter=  3 NonCon=     1 RMS=6.21D-05 Max=8.88D-04 NDo=     1
 LinEq1:  Iter=  4 NonCon=     1 RMS=2.58D-05 Max=6.10D-04 NDo=     1
 LinEq1:  Iter=  5 NonCon=     1 RMS=6.07D-06 Max=8.54D-05 NDo=     1
 LinEq1:  Iter=  6 NonCon=     1 RMS=1.85D-06 Max=3.49D-05 NDo=     1
 LinEq1:  Iter=  7 NonCon=     1 RMS=5.54D-07 Max=1.23D-05 NDo=     1
 LinEq1:  Iter=  8 NonCon=     1 RMS=1.17D-07 Max=1.77D-06 NDo=     1
 LinEq1:  Iter=  9 NonCon=     1 RMS=2.57D-08 Max=2.87D-07 NDo=     1
 LinEq1:  Iter= 10 NonCon=     1 RMS=6.21D-09 Max=1.22D-07 NDo=     1
 LinEq1:  Iter= 11 NonCon=     1 RMS=1.58D-09 Max=3.12D-08 NDo=     1
 LinEq1:  Iter= 12 NonCon=     1 RMS=4.96D-10 Max=8.10D-09 NDo=     1
 LinEq1:  Iter= 13 NonCon=     1 RMS=1.14D-10 Max=1.35D-09 NDo=     1
 LinEq1:  Iter= 14 NonCon=     0 RMS=2.53D-11 Max=3.24D-10 NDo=     1
 Linear equations converged to 1.000D-10 1.000D-09 after    14 iterations.
 End of Minotr F.D. properties file   721 does not exist.
 End of Minotr F.D. properties file   722 does not exist.
 End of Minotr F.D. properties file   788 does not exist.
 Leave Link 1002 at Wed Sep 15 12:00:35 2021, MaxMem= 16106127360 cpu:              26.6 elap:               3.5
 (Enter /sw/contrib/gaussian/g16/B01/g16/l601.exe)
 Copying SCF densities to generalized density rwf, IOpCl= 0 IROHF=0.

 **********************************************************************

            Population analysis using the MP2 Density.

 **********************************************************************

 Orbital symmetries:
       Occupied  (A) (A) (A) (A) (A) (A) (A) (A) (A) (A) (A) (A)
                 (A) (A) (A) (A) (A) (A) (A) (A) (A) (A)
       Virtual   (A) (A) (A) (A) (A) (A) (A) (A) (A) (A) (A) (A)
                 (A) (A) (A) (A) (A) (A) (A) (A) (A) (A) (A) (A)
                 (A) (A) (A) (A) (A) (A) (A) (A) (A) (A) (A) (A)
                 (A) (A) (A) (A) (A) (A) (A) (A) (A) (A) (A) (A)
                 (A) (A) (A) (A) (A) (A) (A) (A) (A) (A) (A) (A)
                 (A) (A) (A) (A) (A) (A) (A) (A) (A) (A) (A) (A)
                 (A) (A) (A) (A) (A) (A) (A) (A) (A) (A) (A) (A)
                 (A) (A) (A) (A) (A) (A) (A) (A) (A) (A) (A) (A)
                 (A) (A) (A) (A) (A) (A) (A) (A) (A) (A) (A) (A)
                 (A) (A) (A) (A) (A) (A) (A) (A) (A) (A) (A) (A)
                 (A) (A) (A) (A) (A) (A) (A) (A) (A) (A) (A) (A)
                 (A) (A) (A) (A) (A) (A) (A) (A) (A) (A) (A) (A)
                 (A) (A) (A)
 The electronic state is 1-A.
 Alpha  occ. eigenvalues -- -104.73337-104.54264 -20.46681 -10.45287 -10.26698
 Alpha  occ. eigenvalues --   -7.92005  -7.91738  -7.91727  -7.73311  -7.73300
 Alpha  occ. eigenvalues --   -7.73299  -1.23057  -0.89701  -0.77725  -0.53980
 Alpha  occ. eigenvalues --   -0.44474  -0.43621  -0.30951  -0.28303  -0.19639
 Alpha  occ. eigenvalues --   -0.18886  -0.18865
 Alpha virt. eigenvalues --    0.15910   0.18230   0.22514   0.23178   0.26027
 Alpha virt. eigenvalues --    0.27341   0.27746   0.28698   0.31084   0.31448
 Alpha virt. eigenvalues --    0.33490   0.34723   0.39539   0.43218   0.45864
 Alpha virt. eigenvalues --    0.50095   0.51087   0.53907   0.55249   0.57311
 Alpha virt. eigenvalues --    0.57884   0.59517   0.60160   0.64825   0.66170
 Alpha virt. eigenvalues --    0.66795   0.67809   0.72998   0.76988   0.78110
 Alpha virt. eigenvalues --    0.84145   0.86771   0.89004   0.89540   0.90613
 Alpha virt. eigenvalues --    0.90884   0.96421   0.98107   1.01624   1.06682
 Alpha virt. eigenvalues --    1.07007   1.09266   1.09629   1.10056   1.13075
 Alpha virt. eigenvalues --    1.14635   1.17286   1.18793   1.19358   1.19567
 Alpha virt. eigenvalues --    1.20906   1.23068   1.26638   1.29799   1.31058
 Alpha virt. eigenvalues --    1.35033   1.38861   1.41501   1.43215   1.43450
 Alpha virt. eigenvalues --    1.46938   1.47962   1.51016   1.57542   1.61032
 Alpha virt. eigenvalues --    1.62900   1.66278   1.67343   1.68307   1.74203
 Alpha virt. eigenvalues --    1.80544   1.83368   1.84551   1.88094   1.92740
 Alpha virt. eigenvalues --    1.97328   2.23159   2.39417   2.46067   2.49790
 Alpha virt. eigenvalues --    2.51430   2.55133   2.59712   2.61852   2.64411
 Alpha virt. eigenvalues --    2.67612   2.70464   2.71621   2.71907   2.75006
 Alpha virt. eigenvalues --    2.76754   2.78623   2.80142   2.81743   2.89703
 Alpha virt. eigenvalues --    2.91079   2.91817   2.95682   3.05559   3.07034
 Alpha virt. eigenvalues --    3.08270   3.10397   3.19074   3.20874   3.21652
 Alpha virt. eigenvalues --    3.26019   3.29433   3.32685   3.33639   3.34381
 Alpha virt. eigenvalues --    3.36741   3.38746   3.40301   3.49854   3.50304
 Alpha virt. eigenvalues --    3.53141   3.54989   3.56364   3.61419   3.91749
 Alpha virt. eigenvalues --    4.17262   4.31506   4.46410   4.54343   4.56332
 Alpha virt. eigenvalues --    4.75733   4.97439   5.05372   5.32574   5.40154
 Alpha virt. eigenvalues --    5.65240   6.20934   6.51596   6.56748   6.86171
 Alpha virt. eigenvalues --    6.89941   6.91722   6.98861   7.28529   7.31872
 Alpha virt. eigenvalues --    7.34466   7.43324   7.53737   7.73540   7.78145
 Alpha virt. eigenvalues --    8.33485  14.30725
          Condensed to atoms (all electrons):
               1          2          3          4
     1  O    8.598188  -0.113407  -0.069675   0.057318
     2  Cl  -0.113407  17.050750   0.004375   0.000146
     3  Cl  -0.069675   0.004375  17.868033   0.075957
     4  H    0.057318   0.000146   0.075957   0.573601
 Mulliken charges:
               1
     1  O   -0.472423
     2  Cl   0.058136
     3  Cl  -0.878691
     4  H    0.292977
 Sum of Mulliken charges =  -1.00000
 Mulliken charges with hydrogens summed into heavy atoms:
               1
     1  O   -0.179445
     2  Cl   0.058136
     3  Cl  -0.878691
 Electronic spatial extent (au):  <R**2>=            601.8599
 Charge=             -1.0000 electrons
 Dipole moment (field-independent basis, Debye):
    X=              6.1507    Y=             -0.1919    Z=              0.2600  Tot=              6.1591
 Quadrupole moment (field-independent basis, Debye-Ang):
   XX=            -56.9572   YY=            -37.2887   ZZ=            -36.6684
   XY=             -2.8328   XZ=             -0.0328   YZ=              0.2470
 Traceless Quadrupole moment (field-independent basis, Debye-Ang):
   XX=            -13.3191   YY=              6.3494   ZZ=              6.9697
   XY=             -2.8328   XZ=             -0.0328   YZ=              0.2470
 Octapole moment (field-independent basis, Debye-Ang**2):
  XXX=             54.1194  YYY=              0.2334  ZZZ=             -0.2639  XYY=              7.0777
  XXY=              0.3344  XXZ=             -0.9913  XZZ=              6.5789  YZZ=              1.0587
  YYZ=             -0.0231  XYZ=             -0.2485
 Hexadecapole moment (field-independent basis, Debye-Ang**3):
 XXXX=           -823.1058 YYYY=            -98.7783 ZZZZ=            -50.5469 XXXY=            -10.6841
 XXXZ=              0.9049 YYYX=             -7.2261 YYYZ=             -0.1220 ZZZX=              0.1538
 ZZZY=              0.0464 XXYY=           -136.9556 XXZZ=           -134.6347 YYZZ=            -25.5022
 XXYZ=             -0.0435 YYXZ=             -0.1398 ZZXY=             -0.1512
 N-N= 1.186632918619D+02 E-N=-2.614937243037D+03  KE= 9.949737087088D+02
 No NMR shielding tensors so no spin-rotation constants.
 Leave Link  601 at Wed Sep 15 12:00:35 2021, MaxMem= 16106127360 cpu:               3.8 elap:               0.2
 (Enter /sw/contrib/gaussian/g16/B01/g16/l701.exe)
 ... and contract with generalized density number  2.
 Compute integral first derivatives.
 Leave Link  701 at Wed Sep 15 12:00:35 2021, MaxMem= 16106127360 cpu:               7.2 elap:               0.3
 (Enter /sw/contrib/gaussian/g16/B01/g16/l702.exe)
 L702 exits ... SP integral derivatives will be done elsewhere.
 Leave Link  702 at Wed Sep 15 12:00:35 2021, MaxMem= 16106127360 cpu:               0.5 elap:               0.0
 (Enter /sw/contrib/gaussian/g16/B01/g16/l703.exe)
 Integral derivatives from FoFJK, PRISM(SPDF).
 Compute integral first derivatives, UseDBF=F ICtDFT=           0.
 Calling FoFJK, ICntrl=  10002127 FMM=F ISym2X=0 I1Cent= 0 IOpClX= 0 NMat=1 NMatS=1 NMatT=0.
 FoFJK:  IHMeth= 1 ICntrl=10002127 DoSepK=F KAlg= 0 I1Cent=           0 FoldK=F
 IRaf=         0 NMat=       1 IRICut=       1 DoRegI=T DoRafI=F ISym2E= 0 IDoP0=0 IntGTp=1.
 FoFCou: FMM=F IPFlag=           0 FMFlag=      100000 FMFlg1=         800
         NFxFlg=           0 DoJE=F BraDBF=F KetDBF=F FulRan=T
         wScrn=  0.000000 ICntrl=  10002127 IOpCl=  0 I1Cent=           0 NGrid=           0
         NMat0=    1 NMatS0=      1 NMatT0=    0 NMatD0=    1 NMtDS0=    0 NMtDT0=    0
 Symmetry not used in FoFCou.
 Leave Link  703 at Wed Sep 15 12:00:37 2021, MaxMem= 16106127360 cpu:              34.8 elap:               1.3
 (Enter /sw/contrib/gaussian/g16/B01/g16/l716.exe)
 Dipole        = 2.41985295D+00-7.54881788D-02 1.02282597D-01
 ***** Axes restored to original set *****
 -------------------------------------------------------------------
 Center     Atomic                   Forces (Hartrees/Bohr)
 Number     Number              X              Y              Z
 -------------------------------------------------------------------
      1        8          -0.002800117   -0.007901156    0.008434342
      2       17           0.000441220    0.000239589    0.000150305
      3       17           0.001168702    0.006709182    0.003918874
      4        1           0.001190194    0.000952384   -0.012503520
 -------------------------------------------------------------------
 Cartesian Forces:  Max     0.012503520 RMS     0.005493025
 -----------------------------------------------------------------------------------------------
                       Internal Coordinate Forces (Hartree/Bohr or radian)
  Cent   Atom   N1       Length/X         N2         Alpha/Y        N3         Beta/Z          J
 -----------------------------------------------------------------------------------------------
      1  O 
         X        1   0.000000(     1)
      2  Cl       1   0.000441(     2)      2  -0.000479(     5)
      3  Cl       1  -0.006797(     3)      2  -0.022740(     6)      3   0.002500(     8)     0
      4  H        1  -0.004399(     4)      2   0.022628(     7)      3  -0.001737(     9)     0
 -----------------------------------------------------------------------------------------------
 Internal  Forces:  Max     0.022740165 RMS     0.011077465
 Force constants in Cartesian coordinates: 
                1             2             3             4             5 
      1  0.451337D+00
      2  0.520412D-01  0.477040D+00
      3 -0.810758D-02 -0.108556D+00  0.812650D-01
      4 -0.377580D+00  0.000000D+00  0.000000D+00  0.377580D+00
      5  0.381151D-01 -0.479137D-01  0.744776D-02  0.000000D+00  0.394370D-01
      6 -0.903392D-02  0.528494D-02 -0.117796D-01  0.000000D+00 -0.465286D-02
      7 -0.854335D-02  0.978454D-02 -0.143365D-02  0.000000D+00 -0.132415D-01
      8 -0.325791D-02 -0.244557D-01  0.344397D-03  0.000000D+00  0.318095D-02
      9 -0.358160D-03  0.346428D-02  0.357010D-02  0.000000D+00 -0.329504D-03
     10 -0.652137D-01 -0.618258D-01  0.954122D-02  0.000000D+00 -0.248735D-01
     11 -0.868984D-01 -0.404670D+00  0.100764D+00  0.000000D+00  0.529584D-02
     12  0.174997D-01  0.998068D-01 -0.730555D-01  0.000000D+00 -0.246540D-02
                6             7             8             9            10 
      6  0.441705D-02
      7  0.462030D-03  0.829023D-02
      8 -0.110991D-03  0.331871D-02  0.213080D-01
      9  0.178109D-02  0.249123D-03 -0.598455D-04  0.571212D-02
     10  0.857189D-02  0.253125D-03 -0.608070D-04  0.109037D-03  0.649605D-01
     11 -0.521085D-03  0.138292D-03 -0.332211D-04 -0.307493D-02  0.867601D-01
     12  0.558146D-02  0.722492D-03 -0.173560D-03 -0.110633D-01 -0.182221D-01
               11            12 
     11  0.399407D+00
     12 -0.971678D-01  0.785374D-01
 Force constants in internal coordinates: 
                1             2             3             4             5 
      1  0.000000D+00
      2  0.000000D+00  0.377580D+00
      3  0.000000D+00  0.000000D+00  0.221053D-01
      4  0.000000D+00  0.000000D+00  0.000000D+00  0.447026D+00
      5  0.000000D+00  0.000000D+00  0.000000D+00  0.000000D+00  0.447847D-01
      6  0.000000D+00  0.000000D+00  0.000000D+00  0.000000D+00  0.329091D-01
      7  0.000000D+00  0.000000D+00  0.000000D+00  0.000000D+00  0.353861D-01
      8  0.000000D+00  0.000000D+00  0.000000D+00  0.000000D+00  0.877980D-02
      9  0.000000D+00  0.000000D+00  0.000000D+00  0.000000D+00  0.500222D-01
                6             7             8             9 
      6  0.192337D+00
      7 -0.127821D+00  0.192637D+00
      8  0.862704D-02  0.858489D-02  0.252302D+00
      9  0.888529D-02  0.184139D-01  0.237050D-02  0.151149D+00
 Leave Link  716 at Wed Sep 15 12:00:37 2021, MaxMem= 16106127360 cpu:               1.2 elap:               0.1
 (Enter /sw/contrib/gaussian/g16/B01/g16/l103.exe)

 GradGradGradGradGradGradGradGradGradGradGradGradGradGradGradGradGradGrad
 Berny optimization.
 Search for a local minimum.
 Step number   1 out of a maximum of   20
 All quantities printed in internal units (Hartrees-Bohrs-Radians)
 Second derivative matrix not updated -- first step.
 The second derivative matrix:
                          r1        r2        r3        a1        OOP
           r1           0.37758
           r2          -0.00000   0.02211
           r3           0.00000   0.00000   0.44703
           a1           0.00000  -0.00000  -0.00000   0.40819
           OOP          0.00000   0.00000  -0.00000   0.02700   0.19264
 ITU=  0
     Eigenvalues ---    0.02211   0.37758   0.40819   0.447031000.00000
 RFO step:  Lambda=-1.96421321D-03 EMin= 2.21052598D-02
 Linear search not attempted -- first point.
 Variable       Old X    -DE/DX   Delta X   Delta X   Delta X     New X
                                 (Linear)    (Quad)   (Total)
    r1        3.18419   0.00044   0.00000   0.00116   0.00116   3.18535
    r2        5.80273  -0.00680   0.00000  -0.28237  -0.28237   5.52036
    r3        1.92323  -0.00440   0.00000  -0.00980  -0.00980   1.91343
    a1        1.80655   0.00076   0.00000   0.00186   0.00186   1.80841
   OOP        1.30900   0.02263   0.00000   0.00000   0.00000   1.30900
         Item               Value     Threshold  Converged?
 Maximum Force            0.006797     0.000450     NO 
 RMS     Force            0.004072     0.000300     NO 
 Maximum Displacement     0.282373     0.001800     NO 
 RMS     Displacement     0.126361     0.001200     NO 
 Predicted change in Energy=-1.060510D-03
 Lowest energy point so far.  Saving SCF results.
 GradGradGradGradGradGradGradGradGradGradGradGradGradGradGradGradGradGrad

 Leave Link  103 at Wed Sep 15 12:00:37 2021, MaxMem= 16106127360 cpu:               1.0 elap:               0.1
 (Enter /sw/contrib/gaussian/g16/B01/g16/l202.exe)
 ---------------------------------------------------------------------------------------------------
                            Z-MATRIX (ANGSTROMS AND DEGREES)
   CD    Cent   Atom    N1       Length/X        N2       Alpha/Y        N3        Beta/Z          J
 ---------------------------------------------------------------------------------------------------
      1      1  O 
      2         X        1  10.000000(     1)
      3      2  Cl       1   1.685615(     2)      2   90.000(     5)
      4      3  Cl       1   2.921247(     3)      2   90.000(     6)      3  103.614(     8)      0
      5      4  H        1   1.012543(     4)      2   75.000(     7)      3  103.614(     9)      0
 ---------------------------------------------------------------------------------------------------
                         Z-Matrix orientation:                         
 ---------------------------------------------------------------------
 Center     Atomic      Atomic             Coordinates (Angstroms)
 Number     Number       Type             X           Y           Z
 ---------------------------------------------------------------------
      1          8           0        0.000000    0.000000    0.000000
      2         -1           0        0.000000    0.000000   10.000000
      3         17           0        1.685615    0.000000    0.000000
      4         17           0       -0.687626   -2.839164    0.000000
      5          1           0       -0.230219   -0.950560    0.262065
 ---------------------------------------------------------------------
                    Distance matrix (angstroms):
                    1          2          3          4          5
     1  O    0.000000
     2  X   10.000000   0.000000
     3  Cl   1.685615  10.141070   0.000000
     4  Cl   2.921247  10.417950   3.700423   0.000000
     5  H    1.012543   9.786927   2.154684   1.960798   0.000000
 Stoichiometry    Cl2HO(1-)
 Framework group  C1[X(Cl2HO)]
 Deg. of freedom     6
 Full point group                 C1      NOp   1
 RotChk:  IX=0 Diff= 3.10D-02
 Largest Abelian subgroup         C1      NOp   1
 Largest concise Abelian subgroup C1      NOp   1
                         Standard orientation:                         
 ---------------------------------------------------------------------
 Center     Atomic      Atomic             Coordinates (Angstroms)
 Number     Number       Type             X           Y           Z
 ---------------------------------------------------------------------
      1          8           0        0.686776    0.994716   -0.020606
      2         17           0        1.691855   -0.358314    0.000032
      3         17           0       -2.002472   -0.146063   -0.004847
      4          1           0       -0.213713    0.616687    0.246706
 ---------------------------------------------------------------------
 Rotational constants (GHZ):          23.5067923           2.0380426           1.8763763
 Leave Link  202 at Wed Sep 15 12:00:37 2021, MaxMem= 16106127360 cpu:               2.5 elap:               0.1
 (Enter /sw/contrib/gaussian/g16/B01/g16/l301.exe)
 Standard basis: Aug-CC-pVTZ (5D, 7F)
 Ernie: Thresh=  0.10000D-02 Tol=  0.10000D-05 Strict=F.
 Ernie:  29 primitive shells out of 169 were deleted.
 There are   198 symmetry adapted cartesian basis functions of A   symmetry.
 There are   169 symmetry adapted basis functions of A   symmetry.
   169 basis functions,   327 primitive gaussians,   198 cartesian basis functions
    22 alpha electrons       22 beta electrons
       nuclear repulsion energy       121.6038638307 Hartrees.
 IExCor=    0 DFT=F Ex=HF Corr=None ExCW=0 ScaHFX=  1.000000
 ScaDFX=  1.000000  1.000000  1.000000  1.000000 ScalE2=  1.000000  1.000000
 IRadAn=      5 IRanWt=     -1 IRanGd=            0 ICorTp=0 IEmpDi=  4
 NAtoms=    4 NActive=    4 NUniq=    4 SFac= 1.00D+00 NAtFMM=   60 NAOKFM=F Big=F
 Integral buffers will be    131072 words long.
 Raffenetti 1 integral format.
 Two-electron integral symmetry is turned on.
 Leave Link  301 at Wed Sep 15 12:00:37 2021, MaxMem= 16106127360 cpu:               2.1 elap:               0.1
 (Enter /sw/contrib/gaussian/g16/B01/g16/l302.exe)
 NPDir=0 NMtPBC=     1 NCelOv=     1 NCel=       1 NClECP=     1 NCelD=      1
         NCelK=      1 NCelE2=     1 NClLst=     1 CellRange=     0.0.
 One-electron integrals computed using PRISM.
 One-electron integral symmetry used in STVInt
 NBasis=   169 RedAO= T EigKep=  2.51D-04  NBF=   169
 NBsUse=   169 1.00D-06 EigRej= -1.00D+00 NBFU=   169
 Leave Link  302 at Wed Sep 15 12:00:37 2021, MaxMem= 16106127360 cpu:               3.9 elap:               0.2
 (Enter /sw/contrib/gaussian/g16/B01/g16/l303.exe)
 DipDrv:  MaxL=1.
 Leave Link  303 at Wed Sep 15 12:00:37 2021, MaxMem= 16106127360 cpu:               3.6 elap:               0.2
 (Enter /sw/contrib/gaussian/g16/B01/g16/l401.exe)
 Initial guess from the checkpoint file:  "/gscratch/ilahie/mccoygrp/coire_hocl/clhocl/clhocl_15_opt.chk"
 B after Tr=     0.000000    0.000000    0.000000
         Rot=    0.999991   -0.000375    0.000080   -0.004183 Ang=  -0.48 deg.
 Guess basis will be translated and rotated to current coordinates.
 JPrj=2 DoOrth=T DoCkMO=T.
 Generating alternative initial guess.
 ExpMin= 2.53D-02 ExpMax= 4.56D+05 ExpMxC= 1.44D+03 IAcc=3 IRadAn=         5 AccDes= 0.00D+00
 Harris functional with IExCor=  205 and IRadAn=       5 diagonalized for initial guess.
 HarFok:  IExCor=  205 AccDes= 0.00D+00 IRadAn=         5 IDoV= 1 UseB2=F ITyADJ=14
 ICtDFT=  3500011 ScaDFX=  1.000000  1.000000  1.000000  1.000000
 FoFCou: FMM=F IPFlag=           0 FMFlag=      100000 FMFlg1=           0
         NFxFlg=           0 DoJE=T BraDBF=F KetDBF=T FulRan=T
         wScrn=  0.000000 ICntrl=       500 IOpCl=  0 I1Cent=   200000004 NGrid=           0
         NMat0=    1 NMatS0=      1 NMatT0=    0 NMatD0=    1 NMtDS0=    0 NMtDT0=    0
 Petite list used in FoFCou.
 Harris En= -993.820304546319    
 Leave Link  401 at Wed Sep 15 12:00:38 2021, MaxMem= 16106127360 cpu:               8.4 elap:               0.3
 (Enter /sw/contrib/gaussian/g16/B01/g16/l502.exe)
 Keep R1 ints in memory in canonical form, NReq=117119507.
 FoFCou: FMM=F IPFlag=           0 FMFlag=           0 FMFlg1=           0
         NFxFlg=           0 DoJE=F BraDBF=F KetDBF=F FulRan=T
         wScrn=  0.000000 ICntrl=       600 IOpCl=  0 I1Cent=           0 NGrid=           0
         NMat0=    1 NMatS0=  14365 NMatT0=    0 NMatD0=    1 NMtDS0=    0 NMtDT0=    0
 Symmetry not used in FoFCou.
 Two-electron integral symmetry not used.
 Closed shell SCF:
 Using DIIS extrapolation, IDIIS=  1040.
 NGot= 16106127360 LenX= 16002857927 LenY= 16002818282
 Requested convergence on RMS density matrix=1.00D-08 within 128 cycles.
 Requested convergence on MAX density matrix=1.00D-06.
 Requested convergence on             energy=1.00D-06.
 No special actions if energy rises.

 Cycle   1  Pass 1  IDiag  1:
 E= -994.521184297637    
 DIIS: error= 1.66D-03 at cycle   1 NSaved=   1.
 NSaved= 1 IEnMin= 1 EnMin= -994.521184297637     IErMin= 1 ErrMin= 1.66D-03
 ErrMax= 1.66D-03  0.00D+00 EMaxC= 1.00D-01 BMatC= 4.79D-04 BMatP= 4.79D-04
 IDIUse=3 WtCom= 9.83D-01 WtEn= 1.66D-02
 Coeff-Com:  0.100D+01
 Coeff-En:   0.100D+01
 Coeff:      0.100D+01
 Gap=     0.710 Goal=   None    Shift=    0.000
 GapD=    0.710 DampG=2.000 DampE=1.000 DampFc=2.0000 IDamp=-1.
 RMSDP=2.04D-04 MaxDP=9.32D-03              OVMax= 1.03D-02

 Cycle   2  Pass 1  IDiag  1:
 E= -994.521821406164     Delta-E=       -0.000637108527 Rises=F Damp=F
 DIIS: error= 4.75D-04 at cycle   2 NSaved=   2.
 NSaved= 2 IEnMin= 2 EnMin= -994.521821406164     IErMin= 2 ErrMin= 4.75D-04
 ErrMax= 4.75D-04  0.00D+00 EMaxC= 1.00D-01 BMatC= 3.29D-05 BMatP= 4.79D-04
 IDIUse=3 WtCom= 9.95D-01 WtEn= 4.75D-03
 Coeff-Com: -0.977D-01 0.110D+01
 Coeff-En:   0.000D+00 0.100D+01
 Coeff:     -0.972D-01 0.110D+01
 Gap=     0.352 Goal=   None    Shift=    0.000
 RMSDP=4.55D-05 MaxDP=1.90D-03 DE=-6.37D-04 OVMax= 3.50D-03

 Cycle   3  Pass 1  IDiag  1:
 E= -994.521881132298     Delta-E=       -0.000059726134 Rises=F Damp=F
 DIIS: error= 2.22D-04 at cycle   3 NSaved=   3.
 NSaved= 3 IEnMin= 3 EnMin= -994.521881132298     IErMin= 3 ErrMin= 2.22D-04
 ErrMax= 2.22D-04  0.00D+00 EMaxC= 1.00D-01 BMatC= 7.99D-06 BMatP= 3.29D-05
 IDIUse=3 WtCom= 9.98D-01 WtEn= 2.22D-03
 Coeff-Com: -0.742D-01 0.293D+00 0.781D+00
 Coeff-En:   0.000D+00 0.000D+00 0.100D+01
 Coeff:     -0.740D-01 0.293D+00 0.781D+00
 Gap=     0.352 Goal=   None    Shift=    0.000
 RMSDP=1.41D-05 MaxDP=3.92D-04 DE=-5.97D-05 OVMax= 1.13D-03

 Cycle   4  Pass 1  IDiag  1:
 E= -994.521891560144     Delta-E=       -0.000010427846 Rises=F Damp=F
 DIIS: error= 8.49D-05 at cycle   4 NSaved=   4.
 NSaved= 4 IEnMin= 4 EnMin= -994.521891560144     IErMin= 4 ErrMin= 8.49D-05
 ErrMax= 8.49D-05  0.00D+00 EMaxC= 1.00D-01 BMatC= 1.25D-06 BMatP= 7.99D-06
 IDIUse=1 WtCom= 1.00D+00 WtEn= 0.00D+00
 Coeff-Com:  0.913D-02-0.151D+00 0.956D-01 0.105D+01
 Coeff:      0.913D-02-0.151D+00 0.956D-01 0.105D+01
 Gap=     0.352 Goal=   None    Shift=    0.000
 RMSDP=9.99D-06 MaxDP=2.49D-04 DE=-1.04D-05 OVMax= 7.55D-04

 Cycle   5  Pass 1  IDiag  1:
 E= -994.521894283257     Delta-E=       -0.000002723112 Rises=F Damp=F
 DIIS: error= 2.15D-05 at cycle   5 NSaved=   5.
 NSaved= 5 IEnMin= 5 EnMin= -994.521894283257     IErMin= 5 ErrMin= 2.15D-05
 ErrMax= 2.15D-05  0.00D+00 EMaxC= 1.00D-01 BMatC= 1.09D-07 BMatP= 1.25D-06
 IDIUse=1 WtCom= 1.00D+00 WtEn= 0.00D+00
 Coeff-Com:  0.946D-02-0.424D-01-0.957D-01-0.215D-02 0.113D+01
 Coeff:      0.946D-02-0.424D-01-0.957D-01-0.215D-02 0.113D+01
 Gap=     0.352 Goal=   None    Shift=    0.000
 RMSDP=4.05D-06 MaxDP=1.17D-04 DE=-2.72D-06 OVMax= 3.10D-04

 Cycle   6  Pass 1  IDiag  1:
 E= -994.521894654062     Delta-E=       -0.000000370805 Rises=F Damp=F
 DIIS: error= 4.64D-06 at cycle   6 NSaved=   6.
 NSaved= 6 IEnMin= 6 EnMin= -994.521894654062     IErMin= 6 ErrMin= 4.64D-06
 ErrMax= 4.64D-06  0.00D+00 EMaxC= 1.00D-01 BMatC= 9.57D-09 BMatP= 1.09D-07
 IDIUse=1 WtCom= 1.00D+00 WtEn= 0.00D+00
 Coeff-Com: -0.190D-02 0.195D-01 0.638D-02-0.108D+00-0.105D+00 0.119D+01
 Coeff:     -0.190D-02 0.195D-01 0.638D-02-0.108D+00-0.105D+00 0.119D+01
 Gap=     0.352 Goal=   None    Shift=    0.000
 RMSDP=1.19D-06 MaxDP=2.64D-05 DE=-3.71D-07 OVMax= 7.97D-05

 Cycle   7  Pass 1  IDiag  1:
 E= -994.521894685692     Delta-E=       -0.000000031630 Rises=F Damp=F
 DIIS: error= 2.02D-06 at cycle   7 NSaved=   7.
 NSaved= 7 IEnMin= 7 EnMin= -994.521894685692     IErMin= 7 ErrMin= 2.02D-06
 ErrMax= 2.02D-06  0.00D+00 EMaxC= 1.00D-01 BMatC= 8.61D-10 BMatP= 9.57D-09
 IDIUse=1 WtCom= 1.00D+00 WtEn= 0.00D+00
 Coeff-Com: -0.389D-03 0.105D-02 0.531D-02 0.481D-02-0.574D-01-0.115D+00
 Coeff-Com:  0.116D+01
 Coeff:     -0.389D-03 0.105D-02 0.531D-02 0.481D-02-0.574D-01-0.115D+00
 Coeff:      0.116D+01
 Gap=     0.352 Goal=   None    Shift=    0.000
 RMSDP=4.11D-07 MaxDP=9.72D-06 DE=-3.16D-08 OVMax= 2.87D-05

 Cycle   8  Pass 1  IDiag  1:
 E= -994.521894689401     Delta-E=       -0.000000003709 Rises=F Damp=F
 DIIS: error= 1.11D-06 at cycle   8 NSaved=   8.
 NSaved= 8 IEnMin= 8 EnMin= -994.521894689401     IErMin= 8 ErrMin= 1.11D-06
 ErrMax= 1.11D-06  0.00D+00 EMaxC= 1.00D-01 BMatC= 2.18D-10 BMatP= 8.61D-10
 IDIUse=1 WtCom= 1.00D+00 WtEn= 0.00D+00
 Coeff-Com:  0.472D-03-0.387D-02-0.219D-02 0.159D-01 0.394D-01-0.182D+00
 Coeff-Com: -0.290D+00 0.142D+01
 Coeff:      0.472D-03-0.387D-02-0.219D-02 0.159D-01 0.394D-01-0.182D+00
 Coeff:     -0.290D+00 0.142D+01
 Gap=     0.352 Goal=   None    Shift=    0.000
 RMSDP=2.44D-07 MaxDP=4.75D-06 DE=-3.71D-09 OVMax= 2.52D-05

 Cycle   9  Pass 1  IDiag  1:
 E= -994.521894690526     Delta-E=       -0.000000001125 Rises=F Damp=F
 DIIS: error= 4.73D-07 at cycle   9 NSaved=   9.
 NSaved= 9 IEnMin= 9 EnMin= -994.521894690526     IErMin= 9 ErrMin= 4.73D-07
 ErrMax= 4.73D-07  0.00D+00 EMaxC= 1.00D-01 BMatC= 3.67D-11 BMatP= 2.18D-10
 IDIUse=1 WtCom= 1.00D+00 WtEn= 0.00D+00
 Coeff-Com: -0.151D-03 0.168D-02 0.250D-03-0.914D-02-0.744D-02 0.114D+00
 Coeff-Com: -0.888D-01-0.674D+00 0.166D+01
 Coeff:     -0.151D-03 0.168D-02 0.250D-03-0.914D-02-0.744D-02 0.114D+00
 Coeff:     -0.888D-01-0.674D+00 0.166D+01
 Gap=     0.352 Goal=   None    Shift=    0.000
 RMSDP=1.42D-07 MaxDP=2.71D-06 DE=-1.13D-09 OVMax= 1.62D-05

 Cycle  10  Pass 1  IDiag  1:
 E= -994.521894690774     Delta-E=       -0.000000000247 Rises=F Damp=F
 DIIS: error= 1.37D-07 at cycle  10 NSaved=  10.
 NSaved=10 IEnMin=10 EnMin= -994.521894690774     IErMin=10 ErrMin= 1.37D-07
 ErrMax= 1.37D-07  0.00D+00 EMaxC= 1.00D-01 BMatC= 3.96D-12 BMatP= 3.67D-11
 IDIUse=1 WtCom= 1.00D+00 WtEn= 0.00D+00
 Coeff-Com: -0.535D-04 0.420D-03 0.169D-03-0.138D-02-0.515D-02 0.173D-01
 Coeff-Com:  0.393D-01-0.122D+00-0.149D+00 0.122D+01
 Coeff:     -0.535D-04 0.420D-03 0.169D-03-0.138D-02-0.515D-02 0.173D-01
 Coeff:      0.393D-01-0.122D+00-0.149D+00 0.122D+01
 Gap=     0.352 Goal=   None    Shift=    0.000
 RMSDP=3.99D-08 MaxDP=7.45D-07 DE=-2.47D-10 OVMax= 4.84D-06

 Cycle  11  Pass 1  IDiag  1:
 E= -994.521894690796     Delta-E=       -0.000000000022 Rises=F Damp=F
 DIIS: error= 6.34D-08 at cycle  11 NSaved=  11.
 NSaved=11 IEnMin=11 EnMin= -994.521894690796     IErMin=11 ErrMin= 6.34D-08
 ErrMax= 6.34D-08  0.00D+00 EMaxC= 1.00D-01 BMatC= 6.32D-13 BMatP= 3.96D-12
 IDIUse=1 WtCom= 1.00D+00 WtEn= 0.00D+00
 Coeff-Com:  0.269D-04-0.279D-03-0.101D-03 0.151D-02 0.170D-02-0.179D-01
 Coeff-Com:  0.250D-02 0.121D+00-0.227D+00-0.193D+00 0.131D+01
 Coeff:      0.269D-04-0.279D-03-0.101D-03 0.151D-02 0.170D-02-0.179D-01
 Coeff:      0.250D-02 0.121D+00-0.227D+00-0.193D+00 0.131D+01
 Gap=     0.352 Goal=   None    Shift=    0.000
 RMSDP=1.66D-08 MaxDP=3.70D-07 DE=-2.23D-11 OVMax= 1.81D-06

 Cycle  12  Pass 1  IDiag  1:
 E= -994.521894690796     Delta-E=        0.000000000000 Rises=F Damp=F
 DIIS: error= 2.16D-08 at cycle  12 NSaved=  12.
 NSaved=12 IEnMin=11 EnMin= -994.521894690796     IErMin=12 ErrMin= 2.16D-08
 ErrMax= 2.16D-08  0.00D+00 EMaxC= 1.00D-01 BMatC= 8.23D-14 BMatP= 6.32D-13
 IDIUse=1 WtCom= 1.00D+00 WtEn= 0.00D+00
 Coeff-Com:  0.182D-05 0.293D-05-0.286D-04-0.108D-03 0.478D-03 0.164D-02
 Coeff-Com: -0.910D-02-0.396D-02 0.696D-01-0.136D+00-0.271D+00 0.135D+01
 Coeff:      0.182D-05 0.293D-05-0.286D-04-0.108D-03 0.478D-03 0.164D-02
 Coeff:     -0.910D-02-0.396D-02 0.696D-01-0.136D+00-0.271D+00 0.135D+01
 Gap=     0.352 Goal=   None    Shift=    0.000
 RMSDP=5.54D-09 MaxDP=1.60D-07 DE= 0.00D+00 OVMax= 5.09D-07

 SCF Done:  E(RHF) =  -994.521894691     A.U. after   12 cycles
            NFock= 12  Conv=0.55D-08     -V/T= 2.0002
 KE= 9.943616812093D+02 PE=-2.620929439758D+03 EE= 5.104420000270D+02
 Leave Link  502 at Wed Sep 15 12:00:41 2021, MaxMem= 16106127360 cpu:              22.7 elap:               3.2
 (Enter /sw/contrib/gaussian/g16/B01/g16/l801.exe)
 ExpMin= 2.53D-02 ExpMax= 4.56D+05 ExpMxC= 1.44D+03 IAcc=3 IRadAn=         5 AccDes= 0.00D+00
 HarFok:  IExCor=  205 AccDes= 0.00D+00 IRadAn=         5 IDoV=-2 UseB2=F ITyADJ=14
 ICtDFT= 12500011 ScaDFX=  1.000000  1.000000  1.000000  1.000000
 Largest valence mixing into a core orbital is  4.47D-04
 Largest core mixing into a valence orbital is  1.73D-04
 Range of M.O.s used for correlation:    12   169
 NBasis=   169 NAE=    22 NBE=    22 NFC=    11 NFV=     0
 NROrb=    158 NOA=    11 NOB=    11 NVA=   147 NVB=   147

 **** Warning!!: The largest alpha MO coefficient is  0.14176003D+02

 Leave Link  801 at Wed Sep 15 12:00:41 2021, MaxMem= 16106127360 cpu:               1.3 elap:               0.1
 (Enter /sw/contrib/gaussian/g16/B01/g16/l906.exe)
 Frozen-core derivative calculation, NFC=  11 NFV=   0.
 FulOut=F Deriv=T AODrv=T NAtomX=     4
   MMem=         143  MDisk=          11 MDiskD=          11
  W3Min=      736164 MinDsk=     1250177 NBas6D=         198
 NBas2D=       20187    NTT=       19701    LW2=     3500000
    MDV= 16105748584 MDiskM=      406660 NBas2p=       20117
 Fully direct method using O(ONN) memory.
 IMap=   1   2   3   4   5   6   7   8   9  10  11  12  13  14  15  16  17  18  19  20
 IMap=  21  22
 JobTyp=1 Pass  1:  I=  12 to  22 NPSUse= 28 ParTrn=T ParDer=T DoDerP=T.
 Spin components of T(2) and E(2):
     alpha-alpha T2 =       0.2929764161D-01 E2=     -0.8414882184D-01
     alpha-beta  T2 =       0.1596177601D+00 E2=     -0.4986588236D+00
     beta-beta   T2 =       0.2929764161D-01 E2=     -0.8414882184D-01
 The integrals were generated   1 times.
 ANorm=    0.1103726888D+01
 E2 =    -0.6669564673D+00 EUMP2 =    -0.99518885115812D+03
 Leave Link  906 at Wed Sep 15 12:00:51 2021, MaxMem= 16106127360 cpu:             292.2 elap:              10.5
 (Enter /sw/contrib/gaussian/g16/B01/g16/l1002.exe)
 Minotr:  Closed shell wavefunction.
          Computing MP2/KS-MP2 derivatives.
          Using Z-Vector for PSCF gradient.
          Skipping F1 and S1 gradient terms here.
          IDoAtm=1111
          Frozen-core window.
          Direct CPHF calculation.
          Differentiating once with respect to electric field.
                with respect to dipole field.
          Differentiating once with respect to nuclear coordinates.
          Requested convergence is 1.0D-10 RMS, and 1.0D-09 maximum.
          NewPWx=F KeepS1=T KeepF1=T KeepIn=T MapXYZ=F SortEE=F KeepMc=T.
 Keep R1 ints in memory in canonical form, NReq=117123755.
 FoFCou: FMM=F IPFlag=           0 FMFlag=           0 FMFlg1=           0
         NFxFlg=           0 DoJE=F BraDBF=F KetDBF=F FulRan=T
         wScrn=  0.000000 ICntrl=       600 IOpCl=  0 I1Cent=           0 NGrid=           0
         NMat0=    1 NMatS0=  14365 NMatT0=    0 NMatD0=    1 NMtDS0=    0 NMtDT0=    0
 Symmetry not used in FoFCou.
 Two-electron integral symmetry not used.
          MDV=   16106127360 using IRadAn=       5.
          Solving linear equations separately, MaxMat=       0.
          There are     1 degrees of freedom in the 1st order CPHF.  IDoFFX=0 NUNeed=     1.
 LinEq1:  Iter=  0 NonCon=     1 RMS=3.09D-03 Max=3.82D-02 NDo=     1
 AX will form     1 AO Fock derivatives at one time.
 LinEq1:  Iter=  1 NonCon=     1 RMS=3.87D-04 Max=5.12D-03 NDo=     1
 LinEq1:  Iter=  2 NonCon=     1 RMS=1.63D-04 Max=3.28D-03 NDo=     1
 LinEq1:  Iter=  3 NonCon=     1 RMS=6.33D-05 Max=9.18D-04 NDo=     1
 LinEq1:  Iter=  4 NonCon=     1 RMS=2.66D-05 Max=6.60D-04 NDo=     1
 LinEq1:  Iter=  5 NonCon=     1 RMS=6.27D-06 Max=1.02D-04 NDo=     1
 LinEq1:  Iter=  6 NonCon=     1 RMS=1.94D-06 Max=4.15D-05 NDo=     1
 LinEq1:  Iter=  7 NonCon=     1 RMS=6.00D-07 Max=1.41D-05 NDo=     1
 LinEq1:  Iter=  8 NonCon=     1 RMS=1.27D-07 Max=1.59D-06 NDo=     1
 LinEq1:  Iter=  9 NonCon=     1 RMS=2.74D-08 Max=3.71D-07 NDo=     1
 LinEq1:  Iter= 10 NonCon=     1 RMS=7.13D-09 Max=7.23D-08 NDo=     1
 LinEq1:  Iter= 11 NonCon=     1 RMS=1.85D-09 Max=3.02D-08 NDo=     1
 LinEq1:  Iter= 12 NonCon=     1 RMS=4.21D-10 Max=8.87D-09 NDo=     1
 LinEq1:  Iter= 13 NonCon=     1 RMS=1.24D-10 Max=2.55D-09 NDo=     1
 LinEq1:  Iter= 14 NonCon=     0 RMS=3.88D-11 Max=5.96D-10 NDo=     1
 Linear equations converged to 1.000D-10 1.000D-09 after    14 iterations.
 End of Minotr F.D. properties file   721 does not exist.
 End of Minotr F.D. properties file   722 does not exist.
 End of Minotr F.D. properties file   788 does not exist.
 Leave Link 1002 at Wed Sep 15 12:00:55 2021, MaxMem= 16106127360 cpu:              25.7 elap:               3.5
 (Enter /sw/contrib/gaussian/g16/B01/g16/l701.exe)
 ... and contract with generalized density number  2.
 Compute integral first derivatives.
 Leave Link  701 at Wed Sep 15 12:00:55 2021, MaxMem= 16106127360 cpu:               4.2 elap:               0.2
 (Enter /sw/contrib/gaussian/g16/B01/g16/l702.exe)
 L702 exits ... SP integral derivatives will be done elsewhere.
 Leave Link  702 at Wed Sep 15 12:00:55 2021, MaxMem= 16106127360 cpu:               1.4 elap:               0.1
 (Enter /sw/contrib/gaussian/g16/B01/g16/l703.exe)
 Integral derivatives from FoFJK, PRISM(SPDF).
 Compute integral first derivatives, UseDBF=F ICtDFT=           0.
 Calling FoFJK, ICntrl=  10002127 FMM=F ISym2X=0 I1Cent= 0 IOpClX= 0 NMat=1 NMatS=1 NMatT=0.
 FoFJK:  IHMeth= 1 ICntrl=10002127 DoSepK=F KAlg= 0 I1Cent=           0 FoldK=F
 IRaf=         0 NMat=       1 IRICut=       1 DoRegI=T DoRafI=F ISym2E= 0 IDoP0=0 IntGTp=1.
 FoFCou: FMM=F IPFlag=           0 FMFlag=      100000 FMFlg1=         800
         NFxFlg=           0 DoJE=F BraDBF=F KetDBF=F FulRan=T
         wScrn=  0.000000 ICntrl=  10002127 IOpCl=  0 I1Cent=           0 NGrid=           0
         NMat0=    1 NMatS0=      1 NMatT0=    0 NMatD0=    1 NMtDS0=    0 NMtDT0=    0
 Symmetry not used in FoFCou.
 Leave Link  703 at Wed Sep 15 12:00:57 2021, MaxMem= 16106127360 cpu:              35.4 elap:               1.3
 (Enter /sw/contrib/gaussian/g16/B01/g16/l716.exe)
 Dipole        = 2.19543207D+00-8.93252427D-02 9.40331233D-02
 ***** Axes restored to original set *****
 -------------------------------------------------------------------
 Center     Atomic                   Forces (Hartrees/Bohr)
 Number     Number              X              Y              Z
 -------------------------------------------------------------------
      1        8           0.001317397    0.005126027    0.006525044
      2       17          -0.000707615    0.000348197    0.000215669
      3       17          -0.000510527    0.000663276    0.004244337
      4        1          -0.000099256   -0.006137499   -0.010985050
 -------------------------------------------------------------------
 Cartesian Forces:  Max     0.010985050 RMS     0.004549005
 -----------------------------------------------------------------------------------------------
                       Internal Coordinate Forces (Hartree/Bohr or radian)
  Cent   Atom   N1       Length/X         N2         Alpha/Y        N3         Beta/Z          J
 -----------------------------------------------------------------------------------------------
      1  O 
         X        1   0.000000(     1)
      2  Cl       1  -0.000708(     2)      2  -0.000687(     5)
      3  Cl       1  -0.000524(     3)      2  -0.023430(     6)      3   0.003601(     8)     0
      4  H        1   0.002941(     4)      2   0.023269(     7)      3  -0.002492(     9)     0
 -----------------------------------------------------------------------------------------------
 Internal  Forces:  Max     0.023430256 RMS     0.011152862
 Leave Link  716 at Wed Sep 15 12:00:57 2021, MaxMem= 16106127360 cpu:               1.1 elap:               0.1
 (Enter /sw/contrib/gaussian/g16/B01/g16/l103.exe)

 GradGradGradGradGradGradGradGradGradGradGradGradGradGradGradGradGradGrad
 Berny optimization.
 Search for a local minimum.
 Step number   2 out of a maximum of   20
 All quantities printed in internal units (Hartrees-Bohrs-Radians)
 Update second derivatives using D2CorN and points    1    2
 DE= -1.14D-03 DEPred=-1.06D-03 R= 1.08D+00
 TightC=F SS=  1.41D+00  RLast= 2.83D-01 DXNew= 5.0454D-01 8.4766D-01
 Trust test= 1.08D+00 RLast= 2.83D-01 DXMaxT set to 5.05D-01
 The second derivative matrix:
                          r1        r2        r3        a1        OOP
           r1           0.37759
           r2          -0.00126   0.02221
           r3          -0.00007   0.00524   0.44739
           a1           0.00000   0.00195   0.00003   0.40817
           OOP         -0.00001   0.00122   0.00004   0.02699   0.19264
 ITU=  1  0
     Eigenvalues ---    0.02213   0.37759   0.40818   0.447451000.00000
 RFO step:  Lambda=-3.00634756D-05 EMin= 2.21331604D-02
 Quartic linear search produced a step of  0.04809.
 Variable       Old X    -DE/DX   Delta X   Delta X   Delta X     New X
                                 (Linear)    (Quad)   (Total)
    r1        3.18535  -0.00071   0.00006  -0.00204  -0.00199   3.18336
    r2        5.52036  -0.00052  -0.01358  -0.00707  -0.02065   5.49971
    r3        1.91343   0.00294  -0.00047   0.00745   0.00698   1.92041
    a1        1.80841   0.00111   0.00009   0.00279   0.00288   1.81129
   OOP        1.30900   0.02327   0.00000   0.00000   0.00000   1.30900
         Item               Value     Threshold  Converged?
 Maximum Force            0.002941     0.000450     NO 
 RMS     Force            0.001632     0.000300     NO 
 Maximum Displacement     0.020648     0.001800     NO 
 RMS     Displacement     0.009872     0.001200     NO 
 Predicted change in Energy=-1.880850D-05
 Lowest energy point so far.  Saving SCF results.
 GradGradGradGradGradGradGradGradGradGradGradGradGradGradGradGradGradGrad

 Leave Link  103 at Wed Sep 15 12:00:57 2021, MaxMem= 16106127360 cpu:               0.4 elap:               0.0
 (Enter /sw/contrib/gaussian/g16/B01/g16/l202.exe)
 ---------------------------------------------------------------------------------------------------
                            Z-MATRIX (ANGSTROMS AND DEGREES)
   CD    Cent   Atom    N1       Length/X        N2       Alpha/Y        N3        Beta/Z          J
 ---------------------------------------------------------------------------------------------------
      1      1  O 
      2         X        1  10.000000(     1)
      3      2  Cl       1   1.684563(     2)      2   90.000(     5)
      4      3  Cl       1   2.910321(     3)      2   90.000(     6)      3  103.779(     8)      0
      5      4  H        1   1.016238(     4)      2   75.000(     7)      3  103.779(     9)      0
 ---------------------------------------------------------------------------------------------------
                         Z-Matrix orientation:                         
 ---------------------------------------------------------------------
 Center     Atomic      Atomic             Coordinates (Angstroms)
 Number     Number       Type             X           Y           Z
 ---------------------------------------------------------------------
      1          8           0        0.000000    0.000000    0.000000
      2         -1           0        0.000000    0.000000   10.000000
      3         17           0        1.684563    0.000000    0.000000
      4         17           0       -0.693194   -2.826561    0.000000
      5          1           0       -0.233805   -0.953359    0.263022
 ---------------------------------------------------------------------
                    Distance matrix (angstroms):
                    1          2          3          4          5
     1  O    0.000000
     2  X   10.000000   0.000000
     3  Cl   1.684563  10.140895   0.000000
     4  Cl   2.910321  10.414892   3.693667   0.000000
     5  H    1.016238   9.786333   2.158289   1.946562   0.000000
 Stoichiometry    Cl2HO(1-)
 Framework group  C1[X(Cl2HO)]
 Deg. of freedom     6
 Full point group                 C1      NOp   1
 RotChk:  IX=0 Diff= 5.16D-03
 Largest Abelian subgroup         C1      NOp   1
 Largest concise Abelian subgroup C1      NOp   1
                         Standard orientation:                         
 ---------------------------------------------------------------------
 Center     Atomic      Atomic             Coordinates (Angstroms)
 Number     Number       Type             X           Y           Z
 ---------------------------------------------------------------------
      1          8           0        0.680825    0.992104   -0.020612
      2         17           0        1.690201   -0.356409    0.000033
      3         17           0       -1.997492   -0.146464   -0.004902
      4          1           0       -0.222661    0.612011    0.247679
 ---------------------------------------------------------------------
 Rotational constants (GHZ):          23.6515969           2.0464438           1.8844267
 Leave Link  202 at Wed Sep 15 12:00:57 2021, MaxMem= 16106127360 cpu:               0.3 elap:               0.0
 (Enter /sw/contrib/gaussian/g16/B01/g16/l301.exe)
 Standard basis: Aug-CC-pVTZ (5D, 7F)
 Ernie: Thresh=  0.10000D-02 Tol=  0.10000D-05 Strict=F.
 Ernie:  29 primitive shells out of 169 were deleted.
 There are   198 symmetry adapted cartesian basis functions of A   symmetry.
 There are   169 symmetry adapted basis functions of A   symmetry.
   169 basis functions,   327 primitive gaussians,   198 cartesian basis functions
    22 alpha electrons       22 beta electrons
       nuclear repulsion energy       121.8099761626 Hartrees.
 IExCor=    0 DFT=F Ex=HF Corr=None ExCW=0 ScaHFX=  1.000000
 ScaDFX=  1.000000  1.000000  1.000000  1.000000 ScalE2=  1.000000  1.000000
 IRadAn=      5 IRanWt=     -1 IRanGd=            0 ICorTp=0 IEmpDi=  4
 NAtoms=    4 NActive=    4 NUniq=    4 SFac= 1.00D+00 NAtFMM=   60 NAOKFM=F Big=F
 Integral buffers will be    131072 words long.
 Raffenetti 1 integral format.
 Two-electron integral symmetry is turned on.
 Leave Link  301 at Wed Sep 15 12:00:57 2021, MaxMem= 16106127360 cpu:               1.9 elap:               0.1
 (Enter /sw/contrib/gaussian/g16/B01/g16/l302.exe)
 NPDir=0 NMtPBC=     1 NCelOv=     1 NCel=       1 NClECP=     1 NCelD=      1
         NCelK=      1 NCelE2=     1 NClLst=     1 CellRange=     0.0.
 One-electron integrals computed using PRISM.
 One-electron integral symmetry used in STVInt
 NBasis=   169 RedAO= T EigKep=  2.52D-04  NBF=   169
 NBsUse=   169 1.00D-06 EigRej= -1.00D+00 NBFU=   169
 Leave Link  302 at Wed Sep 15 12:00:57 2021, MaxMem= 16106127360 cpu:               4.3 elap:               0.2
 (Enter /sw/contrib/gaussian/g16/B01/g16/l303.exe)
 DipDrv:  MaxL=1.
 Leave Link  303 at Wed Sep 15 12:00:57 2021, MaxMem= 16106127360 cpu:               0.7 elap:               0.0
 (Enter /sw/contrib/gaussian/g16/B01/g16/l401.exe)
 Initial guess from the checkpoint file:  "/gscratch/ilahie/mccoygrp/coire_hocl/clhocl/clhocl_15_opt.chk"
 B after Tr=    -0.000000    0.000000   -0.000000
         Rot=    1.000000   -0.000064    0.000014   -0.000420 Ang=  -0.05 deg.
 Guess basis will be translated and rotated to current coordinates.
 JPrj=2 DoOrth=T DoCkMO=T.
 Generating alternative initial guess.
 ExpMin= 2.53D-02 ExpMax= 4.56D+05 ExpMxC= 1.44D+03 IAcc=3 IRadAn=         5 AccDes= 0.00D+00
 Harris functional with IExCor=  205 and IRadAn=       5 diagonalized for initial guess.
 HarFok:  IExCor=  205 AccDes= 0.00D+00 IRadAn=         5 IDoV= 1 UseB2=F ITyADJ=14
 ICtDFT=  3500011 ScaDFX=  1.000000  1.000000  1.000000  1.000000
 FoFCou: FMM=F IPFlag=           0 FMFlag=      100000 FMFlg1=           0
         NFxFlg=           0 DoJE=T BraDBF=F KetDBF=T FulRan=T
         wScrn=  0.000000 ICntrl=       500 IOpCl=  0 I1Cent=   200000004 NGrid=           0
         NMat0=    1 NMatS0=      1 NMatT0=    0 NMatD0=    1 NMtDS0=    0 NMtDT0=    0
 Petite list used in FoFCou.
 Harris En= -993.820292602105    
 Leave Link  401 at Wed Sep 15 12:00:57 2021, MaxMem= 16106127360 cpu:               9.0 elap:               0.4
 (Enter /sw/contrib/gaussian/g16/B01/g16/l502.exe)
 Keep R1 ints in memory in canonical form, NReq=117119639.
 FoFCou: FMM=F IPFlag=           0 FMFlag=           0 FMFlg1=           0
         NFxFlg=           0 DoJE=F BraDBF=F KetDBF=F FulRan=T
         wScrn=  0.000000 ICntrl=       600 IOpCl=  0 I1Cent=           0 NGrid=           0
         NMat0=    1 NMatS0=  14365 NMatT0=    0 NMatD0=    1 NMtDS0=    0 NMtDT0=    0
 Symmetry not used in FoFCou.
 Two-electron integral symmetry not used.
 Closed shell SCF:
 Using DIIS extrapolation, IDIIS=  1040.
 NGot= 16106127360 LenX= 16002857927 LenY= 16002818282
 Requested convergence on RMS density matrix=1.00D-08 within 128 cycles.
 Requested convergence on MAX density matrix=1.00D-06.
 Requested convergence on             energy=1.00D-06.
 No special actions if energy rises.

 Cycle   1  Pass 1  IDiag  1:
 E= -994.521599004807    
 DIIS: error= 2.86D-04 at cycle   1 NSaved=   1.
 NSaved= 1 IEnMin= 1 EnMin= -994.521599004807     IErMin= 1 ErrMin= 2.86D-04
 ErrMax= 2.86D-04  0.00D+00 EMaxC= 1.00D-01 BMatC= 1.61D-05 BMatP= 1.61D-05
 IDIUse=3 WtCom= 9.97D-01 WtEn= 2.86D-03
 Coeff-Com:  0.100D+01
 Coeff-En:   0.100D+01
 Coeff:      0.100D+01
 Gap=     0.714 Goal=   None    Shift=    0.000
 RMSDP=3.27D-05 MaxDP=1.12D-03              OVMax= 1.54D-03

 Cycle   2  Pass 1  IDiag  1:
 E= -994.521617101693     Delta-E=       -0.000018096885 Rises=F Damp=F
 DIIS: error= 7.89D-05 at cycle   2 NSaved=   2.
 NSaved= 2 IEnMin= 2 EnMin= -994.521617101693     IErMin= 2 ErrMin= 7.89D-05
 ErrMax= 7.89D-05  0.00D+00 EMaxC= 1.00D-01 BMatC= 1.18D-06 BMatP= 1.61D-05
 IDIUse=1 WtCom= 1.00D+00 WtEn= 0.00D+00
 Coeff-Com: -0.434D-01 0.104D+01
 Coeff:     -0.434D-01 0.104D+01
 Gap=     0.353 Goal=   None    Shift=    0.000
 RMSDP=8.10D-06 MaxDP=3.18D-04 DE=-1.81D-05 OVMax= 5.99D-04

 Cycle   3  Pass 1  IDiag  1:
 E= -994.521618815070     Delta-E=       -0.000001713378 Rises=F Damp=F
 DIIS: error= 5.17D-05 at cycle   3 NSaved=   3.
 NSaved= 3 IEnMin= 3 EnMin= -994.521618815070     IErMin= 3 ErrMin= 5.17D-05
 ErrMax= 5.17D-05  0.00D+00 EMaxC= 1.00D-01 BMatC= 3.85D-07 BMatP= 1.18D-06
 IDIUse=1 WtCom= 1.00D+00 WtEn= 0.00D+00
 Coeff-Com: -0.820D-01 0.339D+00 0.743D+00
 Coeff:     -0.820D-01 0.339D+00 0.743D+00
 Gap=     0.353 Goal=   None    Shift=    0.000
 RMSDP=2.89D-06 MaxDP=8.44D-05 DE=-1.71D-06 OVMax= 1.96D-04

 Cycle   4  Pass 1  IDiag  1:
 E= -994.521619237773     Delta-E=       -0.000000422703 Rises=F Damp=F
 DIIS: error= 1.54D-05 at cycle   4 NSaved=   4.
 NSaved= 4 IEnMin= 4 EnMin= -994.521619237773     IErMin= 4 ErrMin= 1.54D-05
 ErrMax= 1.54D-05  0.00D+00 EMaxC= 1.00D-01 BMatC= 3.22D-08 BMatP= 3.85D-07
 IDIUse=1 WtCom= 1.00D+00 WtEn= 0.00D+00
 Coeff-Com:  0.943D-03-0.109D+00 0.449D-01 0.106D+01
 Coeff:      0.943D-03-0.109D+00 0.449D-01 0.106D+01
 Gap=     0.353 Goal=   None    Shift=    0.000
 RMSDP=1.67D-06 MaxDP=4.39D-05 DE=-4.23D-07 OVMax= 1.33D-04

 Cycle   5  Pass 1  IDiag  1:
 E= -994.521619323103     Delta-E=       -0.000000085330 Rises=F Damp=F
 DIIS: error= 4.04D-06 at cycle   5 NSaved=   5.
 NSaved= 5 IEnMin= 5 EnMin= -994.521619323103     IErMin= 5 ErrMin= 4.04D-06
 ErrMax= 4.04D-06  0.00D+00 EMaxC= 1.00D-01 BMatC= 3.43D-09 BMatP= 3.22D-08
 IDIUse=1 WtCom= 1.00D+00 WtEn= 0.00D+00
 Coeff-Com:  0.875D-02-0.248D-01-0.973D-01-0.152D+00 0.126D+01
 Coeff:      0.875D-02-0.248D-01-0.973D-01-0.152D+00 0.126D+01
 Gap=     0.353 Goal=   None    Shift=    0.000
 RMSDP=7.95D-07 MaxDP=2.41D-05 DE=-8.53D-08 OVMax= 8.07D-05

 Cycle   6  Pass 1  IDiag  1:
 E= -994.521619337549     Delta-E=       -0.000000014446 Rises=F Damp=F
 DIIS: error= 1.09D-06 at cycle   6 NSaved=   6.
 NSaved= 6 IEnMin= 6 EnMin= -994.521619337549     IErMin= 6 ErrMin= 1.09D-06
 ErrMax= 1.09D-06  0.00D+00 EMaxC= 1.00D-01 BMatC= 2.61D-10 BMatP= 3.43D-09
 IDIUse=1 WtCom= 1.00D+00 WtEn= 0.00D+00
 Coeff-Com: -0.149D-02 0.117D-01 0.167D-01-0.446D-01-0.253D+00 0.127D+01
 Coeff:     -0.149D-02 0.117D-01 0.167D-01-0.446D-01-0.253D+00 0.127D+01
 Gap=     0.353 Goal=   None    Shift=    0.000
 RMSDP=2.35D-07 MaxDP=8.03D-06 DE=-1.44D-08 OVMax= 2.86D-05

 Cycle   7  Pass 1  IDiag  1:
 E= -994.521619338787     Delta-E=       -0.000000001239 Rises=F Damp=F
 DIIS: error= 5.55D-07 at cycle   7 NSaved=   7.
 NSaved= 7 IEnMin= 7 EnMin= -994.521619338787     IErMin= 7 ErrMin= 5.55D-07
 ErrMax= 5.55D-07  0.00D+00 EMaxC= 1.00D-01 BMatC= 3.98D-11 BMatP= 2.61D-10
 IDIUse=1 WtCom= 1.00D+00 WtEn= 0.00D+00
 Coeff-Com: -0.513D-03-0.394D-03 0.905D-02 0.280D-01-0.122D+00-0.108D+00
 Coeff-Com:  0.119D+01
 Coeff:     -0.513D-03-0.394D-03 0.905D-02 0.280D-01-0.122D+00-0.108D+00
 Coeff:      0.119D+01
 Gap=     0.353 Goal=   None    Shift=    0.000
 RMSDP=9.32D-08 MaxDP=2.63D-06 DE=-1.24D-09 OVMax= 1.06D-05

 Cycle   8  Pass 1  IDiag  1:
 E= -994.521619338968     Delta-E=       -0.000000000181 Rises=F Damp=F
 DIIS: error= 2.87D-07 at cycle   8 NSaved=   8.
 NSaved= 8 IEnMin= 8 EnMin= -994.521619338968     IErMin= 8 ErrMin= 2.87D-07
 ErrMax= 2.87D-07  0.00D+00 EMaxC= 1.00D-01 BMatC= 7.72D-12 BMatP= 3.98D-11
 IDIUse=1 WtCom= 1.00D+00 WtEn= 0.00D+00
 Coeff-Com:  0.467D-03-0.269D-02-0.459D-02 0.266D-02 0.726D-01-0.160D+00
 Coeff-Com: -0.455D+00 0.155D+01
 Coeff:      0.467D-03-0.269D-02-0.459D-02 0.266D-02 0.726D-01-0.160D+00
 Coeff:     -0.455D+00 0.155D+01
 Gap=     0.353 Goal=   None    Shift=    0.000
 RMSDP=5.54D-08 MaxDP=1.12D-06 DE=-1.81D-10 OVMax= 5.39D-06

 Cycle   9  Pass 1  IDiag  1:
 E= -994.521619339012     Delta-E=       -0.000000000044 Rises=F Damp=F
 DIIS: error= 7.28D-08 at cycle   9 NSaved=   9.
 NSaved= 9 IEnMin= 9 EnMin= -994.521619339012     IErMin= 9 ErrMin= 7.28D-08
 ErrMax= 7.28D-08  0.00D+00 EMaxC= 1.00D-01 BMatC= 7.79D-13 BMatP= 7.72D-12
 IDIUse=1 WtCom= 1.00D+00 WtEn= 0.00D+00
 Coeff-Com:  0.353D-04 0.249D-03-0.663D-03-0.359D-02 0.974D-02 0.335D-01
 Coeff-Com: -0.132D+00-0.153D+00 0.125D+01
 Coeff:      0.353D-04 0.249D-03-0.663D-03-0.359D-02 0.974D-02 0.335D-01
 Coeff:     -0.132D+00-0.153D+00 0.125D+01
 Gap=     0.353 Goal=   None    Shift=    0.000
 RMSDP=1.76D-08 MaxDP=3.04D-07 DE=-4.37D-11 OVMax= 1.42D-06

 Cycle  10  Pass 1  IDiag  1:
 E= -994.521619339017     Delta-E=       -0.000000000005 Rises=F Damp=F
 DIIS: error= 1.90D-08 at cycle  10 NSaved=  10.
 NSaved=10 IEnMin=10 EnMin= -994.521619339017     IErMin=10 ErrMin= 1.90D-08
 ErrMax= 1.90D-08  0.00D+00 EMaxC= 1.00D-01 BMatC= 7.93D-14 BMatP= 7.79D-13
 IDIUse=1 WtCom= 1.00D+00 WtEn= 0.00D+00
 Coeff-Com: -0.514D-04 0.256D-03 0.472D-03 0.140D-03-0.882D-02 0.113D-01
 Coeff-Com:  0.693D-01-0.143D+00-0.185D+00 0.126D+01
 Coeff:     -0.514D-04 0.256D-03 0.472D-03 0.140D-03-0.882D-02 0.113D-01
 Coeff:      0.693D-01-0.143D+00-0.185D+00 0.126D+01
 Gap=     0.353 Goal=   None    Shift=    0.000
 RMSDP=5.53D-09 MaxDP=1.61D-07 DE=-5.00D-12 OVMax= 5.51D-07

 SCF Done:  E(RHF) =  -994.521619339     A.U. after   10 cycles
            NFock= 10  Conv=0.55D-08     -V/T= 2.0002
 KE= 9.943622871170D+02 PE=-2.621357099971D+03 EE= 5.106632173521D+02
 Leave Link  502 at Wed Sep 15 12:01:00 2021, MaxMem= 16106127360 cpu:              21.6 elap:               2.4
 (Enter /sw/contrib/gaussian/g16/B01/g16/l801.exe)
 ExpMin= 2.53D-02 ExpMax= 4.56D+05 ExpMxC= 1.44D+03 IAcc=3 IRadAn=         5 AccDes= 0.00D+00
 HarFok:  IExCor=  205 AccDes= 0.00D+00 IRadAn=         5 IDoV=-2 UseB2=F ITyADJ=14
 ICtDFT= 12500011 ScaDFX=  1.000000  1.000000  1.000000  1.000000
 Largest valence mixing into a core orbital is  4.47D-04
 Largest core mixing into a valence orbital is  1.73D-04
 Range of M.O.s used for correlation:    12   169
 NBasis=   169 NAE=    22 NBE=    22 NFC=    11 NFV=     0
 NROrb=    158 NOA=    11 NOB=    11 NVA=   147 NVB=   147

[...]
 Spin components of T(2) and E(2):
     alpha-alpha T2 =       0.2933348362D-01 E2=     -0.8423847509D-01
     alpha-beta  T2 =       0.1596745450D+00 E2=     -0.4988479245D+00
     beta-beta   T2 =       0.2933348362D-01 E2=     -0.8423847509D-01
 The integrals were generated   1 times.
 ANorm=    0.1103785084D+01
 E2 =    -0.6673248747D+00 EUMP2 =    -0.99518887800719D+03
 Leave Link  906 at Wed Sep 15 12:01:29 2021, MaxMem= 16106127360 cpu:             294.7 elap:              10.6
 (Enter /sw/contrib/gaussian/g16/B01/g16/l1002.exe)
 Minotr:  Closed shell wavefunction.
          Computing MP2/KS-MP2 derivatives.
          Using Z-Vector for PSCF gradient.
          Skipping F1 and S1 gradient terms here.
          IDoAtm=1111
          Frozen-core window.
          Direct CPHF calculation.
          Differentiating once with respect to electric field.
                with respect to dipole field.
          Differentiating once with respect to nuclear coordinates.
          Requested convergence is 1.0D-10 RMS, and 1.0D-09 maximum.
          NewPWx=F KeepS1=T KeepF1=T KeepIn=T MapXYZ=F SortEE=F KeepMc=T.
 Keep R1 ints in memory in canonical form, NReq=117123799.
 FoFCou: FMM=F IPFlag=           0 FMFlag=           0 FMFlg1=           0
         NFxFlg=           0 DoJE=F BraDBF=F KetDBF=F FulRan=T
         wScrn=  0.000000 ICntrl=       600 IOpCl=  0 I1Cent=           0 NGrid=           0
         NMat0=    1 NMatS0=  14365 NMatT0=    0 NMatD0=    1 NMtDS0=    0 NMtDT0=    0
 Symmetry not used in FoFCou.
 Two-electron integral symmetry not used.
          MDV=   16106127360 using IRadAn=       5.
          Solving linear equations separately, MaxMat=       0.
          There are     1 degrees of freedom in the 1st order CPHF.  IDoFFX=0 NUNeed=     1.
 LinEq1:  Iter=  0 NonCon=     1 RMS=3.09D-03 Max=3.83D-02 NDo=     1
 AX will form     1 AO Fock derivatives at one time.
 LinEq1:  Iter=  1 NonCon=     1 RMS=3.87D-04 Max=5.14D-03 NDo=     1
 LinEq1:  Iter=  2 NonCon=     1 RMS=1.62D-04 Max=3.23D-03 NDo=     1
 LinEq1:  Iter=  3 NonCon=     1 RMS=6.29D-05 Max=8.93D-04 NDo=     1
 LinEq1:  Iter=  4 NonCon=     1 RMS=2.65D-05 Max=6.62D-04 NDo=     1
 LinEq1:  Iter=  5 NonCon=     1 RMS=6.30D-06 Max=1.03D-04 NDo=     1
 LinEq1:  Iter=  6 NonCon=     1 RMS=1.95D-06 Max=4.19D-05 NDo=     1
 LinEq1:  Iter=  7 NonCon=     1 RMS=6.04D-07 Max=1.41D-05 NDo=     1
 LinEq1:  Iter=  8 NonCon=     1 RMS=1.28D-07 Max=1.58D-06 NDo=     1
 LinEq1:  Iter=  9 NonCon=     1 RMS=2.79D-08 Max=3.76D-07 NDo=     1
 LinEq1:  Iter= 10 NonCon=     1 RMS=7.43D-09 Max=6.97D-08 NDo=     1
 LinEq1:  Iter= 11 NonCon=     1 RMS=1.88D-09 Max=2.79D-08 NDo=     1
 LinEq1:  Iter= 12 NonCon=     1 RMS=4.12D-10 Max=8.00D-09 NDo=     1
 LinEq1:  Iter= 13 NonCon=     1 RMS=1.19D-10 Max=2.52D-09 NDo=     1
 LinEq1:  Iter= 14 NonCon=     0 RMS=3.81D-11 Max=6.83D-10 NDo=     1
 Linear equations converged to 1.000D-10 1.000D-09 after    14 iterations.
 End of Minotr F.D. properties file   721 does not exist.
 End of Minotr F.D. properties file   722 does not exist.
 End of Minotr F.D. properties file   788 does not exist.
 Leave Link 1002 at Wed Sep 15 12:01:33 2021, MaxMem= 16106127360 cpu:              25.1 elap:               3.4
 (Enter /sw/contrib/gaussian/g16/B01/g16/l701.exe)
 ... and contract with generalized density number  2.
 Compute integral first derivatives.
 Leave Link  701 at Wed Sep 15 12:01:33 2021, MaxMem= 16106127360 cpu:               5.2 elap:               0.2
 (Enter /sw/contrib/gaussian/g16/B01/g16/l702.exe)
 L702 exits ... SP integral derivatives will be done elsewhere.
 Leave Link  702 at Wed Sep 15 12:01:33 2021, MaxMem= 16106127360 cpu:               0.5 elap:               0.0
 (Enter /sw/contrib/gaussian/g16/B01/g16/l703.exe)
 Integral derivatives from FoFJK, PRISM(SPDF).
 Compute integral first derivatives, UseDBF=F ICtDFT=           0.
 Calling FoFJK, ICntrl=  10002127 FMM=F ISym2X=0 I1Cent= 0 IOpClX= 0 NMat=1 NMatS=1 NMatT=0.
 FoFJK:  IHMeth= 1 ICntrl=10002127 DoSepK=F KAlg= 0 I1Cent=           0 FoldK=F
 IRaf=         0 NMat=       1 IRICut=       1 DoRegI=T DoRafI=F ISym2E= 0 IDoP0=0 IntGTp=1.
 FoFCou: FMM=F IPFlag=           0 FMFlag=      100000 FMFlg1=         800
         NFxFlg=           0 DoJE=F BraDBF=F KetDBF=F FulRan=T
         wScrn=  0.000000 ICntrl=  10002127 IOpCl=  0 I1Cent=           0 NGrid=           0
         NMat0=    1 NMatS0=      1 NMatT0=    0 NMatD0=    1 NMtDS0=    0 NMtDT0=    0
 Symmetry not used in FoFCou.
 Leave Link  703 at Wed Sep 15 12:01:34 2021, MaxMem= 16106127360 cpu:              34.8 elap:               1.3
 (Enter /sw/contrib/gaussian/g16/B01/g16/l716.exe)
 Dipole        = 2.16385551D+00-9.22853483D-02 9.36528949D-02
 ***** Axes restored to original set *****
 -------------------------------------------------------------------
 Center     Atomic                   Forces (Hartrees/Bohr)
 Number     Number              X              Y              Z
 -------------------------------------------------------------------
      1        8          -0.000139682    0.003382514    0.007199656
      2       17          -0.000134767    0.000125058    0.000287921
      3       17          -0.000659689    0.000148799    0.004338169
      4        1           0.000934138   -0.003656371   -0.011825746
 -------------------------------------------------------------------
 Cartesian Forces:  Max     0.011825746 RMS     0.004442031
 -----------------------------------------------------------------------------------------------
                       Internal Coordinate Forces (Hartree/Bohr or radian)
  Cent   Atom   N1       Length/X         N2         Alpha/Y        N3         Beta/Z          J
 -----------------------------------------------------------------------------------------------
      1  O 
         X        1   0.000000(     1)
      2  Cl       1  -0.000135(     2)      2  -0.000916(     5)
      3  Cl       1   0.000014(     3)      2  -0.023848(     6)      3   0.003717(     8)     0
      4  H        1   0.000150(     4)      2   0.023628(     7)      3  -0.003319(     9)     0
 -----------------------------------------------------------------------------------------------
 Internal  Forces:  Max     0.023848153 RMS     0.011317225
 Leave Link  716 at Wed Sep 15 12:01:34 2021, MaxMem= 16106127360 cpu:               0.8 elap:               0.1
 (Enter /sw/contrib/gaussian/g16/B01/g16/l103.exe)

 GradGradGradGradGradGradGradGradGradGradGradGradGradGradGradGradGradGrad
 Berny optimization.
 Search for a local minimum.
 Step number   4 out of a maximum of   20
 All quantities printed in internal units (Hartrees-Bohrs-Radians)
 Update second derivatives using D2CorN and points    1    2    3    4
 DE= -3.62D-06 DEPred=-2.43D-06 R= 1.49D+00
 TightC=F SS=  1.41D+00  RLast= 4.82D-03 DXNew= 8.4853D-01 1.4467D-02
 Trust test= 1.49D+00 RLast= 4.82D-03 DXMaxT set to 5.05D-01
 The second derivative matrix:
                          r1        r2        r3        a1        OOP
           r1           0.36613
           r2          -0.01762   0.04955
           r3           0.02716   0.04090   0.38325
           a1           0.02643   0.04620  -0.06387   0.34856
           OOP          0.00434   0.01792  -0.01245   0.01882   0.19264
 ITU=  1  1  1  0
     Eigenvalues ---    0.03317   0.29886   0.38276   0.432691000.00000
 RFO step:  Lambda=-2.70197753D-07 EMin= 3.31730551D-02
 Quartic linear search produced a step of  0.38271.
 Variable       Old X    -DE/DX   Delta X   Delta X   Delta X     New X
                                 (Linear)    (Quad)   (Total)
    r1        3.18217  -0.00013  -0.00046  -0.00016  -0.00062   3.18155
    r2        5.49729   0.00001  -0.00093   0.00009  -0.00084   5.49644
    r3        1.92359   0.00015   0.00122  -0.00042   0.00080   1.92439
    a1        1.81372   0.00040   0.00093   0.00067   0.00160   1.81531
   OOP        1.30900   0.02363   0.00000   0.00000   0.00000   1.30900
         Item               Value     Threshold  Converged?
 Maximum Force            0.000398     0.000450     YES
 RMS     Force            0.000223     0.000300     YES
 Maximum Displacement     0.001599     0.001800     YES
 RMS     Displacement     0.000926     0.001200     YES
 Predicted change in Energy=-3.922089D-07
 Optimization completed.
    -- Stationary point found.
                       ----------------------------
                       !   Optimized Parameters   !
                       ! (Angstroms and Degrees)  !
 ----------------------                            ----------------------
 !      Name          Value   Derivative information (Atomic Units)     !
 ------------------------------------------------------------------------
 !       r1          1.6839   -DE/DX =   -0.0001                        !
 !       r2          2.909    -DE/DX =    0.0                           !
 !       r3          1.0179   -DE/DX =    0.0002                        !
 !       a1        103.9183   -DE/DX =    0.0004                        !
 !       OOP        75.0      -DE/DX =    0.0236                        !
 ------------------------------------------------------------------------
 Lowest energy point so far.  Saving SCF results.
 Largest change from initial coordinates is atom    3       0.082 Angstoms.
 GradGradGradGradGradGradGradGradGradGradGradGradGradGradGradGradGradGrad

 Leave Link  103 at Wed Sep 15 12:01:34 2021, MaxMem= 16106127360 cpu:               0.4 elap:               0.0
 (Enter /sw/contrib/gaussian/g16/B01/g16/l202.exe)
 ---------------------------------------------------------------------------------------------------
                            Z-MATRIX (ANGSTROMS AND DEGREES)
   CD    Cent   Atom    N1       Length/X        N2       Alpha/Y        N3        Beta/Z          J
 ---------------------------------------------------------------------------------------------------
      1      1  O 
      2         X        1  10.000000(     1)
      3      2  Cl       1   1.683932(     2)      2   90.000(     5)
      4      3  Cl       1   2.909038(     3)      2   90.000(     6)      3  103.918(     8)      0
      5      4  H        1   1.017918(     4)      2   75.000(     7)      3  103.918(     9)      0
 ---------------------------------------------------------------------------------------------------
                         Z-Matrix orientation:                         
 ---------------------------------------------------------------------
 Center     Atomic      Atomic             Coordinates (Angstroms)
 Number     Number       Type             X           Y           Z
 ---------------------------------------------------------------------
      1          8           0        0.000000    0.000000    0.000000
      2         -1           0        0.000000    0.000000   10.000000
      3         17           0        1.683932    0.000000    0.000000
      4         17           0       -0.699733   -2.823628    0.000000
      5          1           0       -0.236505   -0.954366    0.263457
 ---------------------------------------------------------------------
                    Distance matrix (angstroms):
                    1          2          3          4          5
     1  O    0.000000
     2  X   10.000000   0.000000
     3  Cl   1.683932  10.140790   0.000000
     4  Cl   2.909038  10.414533   3.695231   0.000000
     5  H    1.017918   9.786063   2.160625   1.943742   0.000000
 Stoichiometry    Cl2HO(1-)
 Framework group  C1[X(Cl2HO)]
 Deg. of freedom     6
 Full point group                 C1      NOp   1
 RotChk:  IX=0 Diff= 1.64D-16
 Largest Abelian subgroup         C1      NOp   1
 Largest concise Abelian subgroup C1      NOp   1
                         Standard orientation:                         
 ---------------------------------------------------------------------
 Center     Atomic      Atomic             Coordinates (Angstroms)
 Number     Number       Type             X           Y           Z
 ---------------------------------------------------------------------
      1          8           0        0.679675    0.990462   -0.020626
      2         17           0        1.691362   -0.355528    0.000033
      3         17           0       -1.997947   -0.146462   -0.004921
      4          1           0       -0.225471    0.610135    0.248109
 ---------------------------------------------------------------------
 Rotational constants (GHZ):          23.7360579           2.0449749           1.8837180
 Leave Link  202 at Wed Sep 15 12:01:34 2021, MaxMem= 16106127360 cpu:               0.3 elap:               0.0
 (Enter /sw/contrib/gaussian/g16/B01/g16/l601.exe)
 Copying SCF densities to generalized density rwf, IOpCl= 0 IROHF=0.

 **********************************************************************

            Population analysis using the MP2 Density.

 **********************************************************************

 Orbital symmetries:
       Occupied  (A) (A) (A) (A) (A) (A) (A) (A) (A) (A) (A) (A)
                 (A) (A) (A) (A) (A) (A) (A) (A) (A) (A)
       Virtual   (A) (A) (A) (A) (A) (A) (A) (A) (A) (A) (A) (A)
                 (A) (A) (A) (A) (A) (A) (A) (A) (A) (A) (A) (A)
                 (A) (A) (A) (A) (A) (A) (A) (A) (A) (A) (A) (A)
                 (A) (A) (A) (A) (A) (A) (A) (A) (A) (A) (A) (A)
                 (A) (A) (A) (A) (A) (A) (A) (A) (A) (A) (A) (A)
                 (A) (A) (A) (A) (A) (A) (A) (A) (A) (A) (A) (A)
                 (A) (A) (A) (A) (A) (A) (A) (A) (A) (A) (A) (A)
                 (A) (A) (A) (A) (A) (A) (A) (A) (A) (A) (A) (A)
                 (A) (A) (A) (A) (A) (A) (A) (A) (A) (A) (A) (A)
                 (A) (A) (A) (A) (A) (A) (A) (A) (A) (A) (A) (A)
                 (A) (A) (A) (A) (A) (A) (A) (A) (A) (A) (A) (A)
                 (A) (A) (A) (A) (A) (A) (A) (A) (A) (A) (A) (A)
                 (A) (A) (A)
 The electronic state is 1-A.
 Alpha  occ. eigenvalues -- -104.72539-104.54557 -20.45364 -10.44491 -10.27037
 Alpha  occ. eigenvalues --   -7.91208  -7.90947  -7.90937  -7.73652  -7.73636
 Alpha  occ. eigenvalues --   -7.73636  -1.22071  -0.88932  -0.78418  -0.53194
 Alpha  occ. eigenvalues --   -0.43532  -0.42696  -0.30267  -0.27451  -0.20093
 Alpha  occ. eigenvalues --   -0.19337  -0.19288
 Alpha virt. eigenvalues --    0.16034   0.18533   0.22578   0.23405   0.25880
 Alpha virt. eigenvalues --    0.27312   0.27704   0.29408   0.31316   0.31721
 Alpha virt. eigenvalues --    0.33922   0.34908   0.39691   0.43865   0.46403
 Alpha virt. eigenvalues --    0.50749   0.52183   0.54261   0.55831   0.57735
 Alpha virt. eigenvalues --    0.58768   0.60223   0.60822   0.65462   0.66107
 Alpha virt. eigenvalues --    0.66995   0.68060   0.73529   0.77636   0.78735
 Alpha virt. eigenvalues --    0.83758   0.86648   0.89565   0.90082   0.91202
 Alpha virt. eigenvalues --    0.91493   0.96656   0.99777   1.02610   1.06421
 Alpha virt. eigenvalues --    1.07529   1.09278   1.10133   1.10279   1.14133
 Alpha virt. eigenvalues --    1.15733   1.18411   1.18805   1.19394   1.21207
 Alpha virt. eigenvalues --    1.22517   1.24631   1.28300   1.30247   1.33115
 Alpha virt. eigenvalues --    1.36838   1.40207   1.42747   1.43270   1.44299
 Alpha virt. eigenvalues --    1.48792   1.51455   1.53628   1.59855   1.63899
 Alpha virt. eigenvalues --    1.65890   1.68689   1.69144   1.72592   1.74941
 Alpha virt. eigenvalues --    1.82676   1.85649   1.86131   1.89721   1.94287
 Alpha virt. eigenvalues --    1.98573   2.25922   2.41022   2.47818   2.51671
 Alpha virt. eigenvalues --    2.52875   2.56699   2.61206   2.63873   2.65899
 Alpha virt. eigenvalues --    2.68823   2.71264   2.72392   2.73244   2.75918
 Alpha virt. eigenvalues --    2.78033   2.79089   2.80174   2.82285   2.91103
 Alpha virt. eigenvalues --    2.92555   2.93767   2.97851   3.05295   3.10055
 Alpha virt. eigenvalues --    3.10688   3.13031   3.21030   3.22311   3.22748
 Alpha virt. eigenvalues --    3.27090   3.29994   3.33139   3.33651   3.35970
 Alpha virt. eigenvalues --    3.39082   3.40044   3.41511   3.50216   3.51489
 Alpha virt. eigenvalues --    3.53945   3.56737   3.59198   3.66025   3.93563
 Alpha virt. eigenvalues --    4.26087   4.33012   4.48377   4.55691   4.57838
 Alpha virt. eigenvalues --    4.77231   4.98567   5.11758   5.33788   5.46442
 Alpha virt. eigenvalues --    5.66991   6.29090   6.54601   6.59467   6.88287
 Alpha virt. eigenvalues --    6.90979   6.93233   7.00830   7.31728   7.33317
 Alpha virt. eigenvalues --    7.35786   7.45096   7.56311   7.77947   7.80964
 Alpha virt. eigenvalues --    8.35967  14.42481
          Condensed to atoms (all electrons):
               1          2          3          4
     1  O    8.634303  -0.119085  -0.091567   0.054366
     2  Cl  -0.119085  17.071123   0.003835  -0.000423
     3  Cl  -0.091567   0.003835  17.863337   0.072807
     4  H    0.054366  -0.000423   0.072807   0.591372
 Mulliken charges:
               1
     1  O   -0.478017
     2  Cl   0.044551
     3  Cl  -0.848412
     4  H    0.281878
 Sum of Mulliken charges =  -1.00000
 Mulliken charges with hydrogens summed into heavy atoms:
               1
     1  O   -0.196139
     2  Cl   0.044551
     3  Cl  -0.848412
 Electronic spatial extent (au):  <R**2>=            563.7696
 Charge=             -1.0000 electrons
 Dipole moment (field-independent basis, Debye):
    X=              5.5000    Y=             -0.2346    Z=              0.2380  Tot=              5.5101
 Quadrupole moment (field-independent basis, Debye-Ang):
   XX=            -54.9551   YY=            -37.3577   ZZ=            -36.5733
   XY=             -2.7390   XZ=             -0.0260   YZ=              0.2345
 Traceless Quadrupole moment (field-independent basis, Debye-Ang):
   XX=            -11.9931   YY=              5.6043   ZZ=              6.3888
   XY=             -2.7390   XZ=             -0.0260   YZ=              0.2345
 Octapole moment (field-independent basis, Debye-Ang**2):
  XXX=             46.8056  YYY=              0.2193  ZZZ=             -0.2775  XYY=              6.2356
  XXY=              0.5028  XXZ=             -1.0152  XZZ=              5.8019  YZZ=              1.0589
  YYZ=             -0.0551  XYZ=             -0.2741
 Hexadecapole moment (field-independent basis, Debye-Ang**3):
 XXXX=           -754.4428 YYYY=            -97.4072 ZZZZ=            -50.0945 XXXY=            -10.0384
 XXXZ=              1.1292 YYYX=             -6.9067 YYYZ=             -0.1342 ZZZX=              0.1865
 ZZZY=              0.0537 XXYY=           -127.4799 XXZZ=           -125.3017 YYZZ=            -25.1336
 XXYZ=              0.0426 YYXZ=             -0.1145 ZZXY=             -0.1740
 N-N= 1.218146865554D+02 E-N=-2.621422440497D+03  KE= 9.950194700501D+02
 No NMR shielding tensors so no spin-rotation constants.
 Leave Link  601 at Wed Sep 15 12:01:35 2021, MaxMem= 16106127360 cpu:               3.9 elap:               0.2
 (Enter /sw/contrib/gaussian/g16/B01/g16/l9999.exe)
 1\1\GINC-N2398\POpt\RMP2-FC\Aug-CC-pVTZ\Cl2H1O1(1-)\CGAVINH\15-Sep-202
 1\1\\#p opt=(z-matrix) mp2/aug-cc-pvtz density=current\\title\\-1,1\O\
 X,1,10.\Cl,1,r1,2,90.\Cl,1,r2,2,90.,3,a1,0\H,1,r3,2,OOP,3,a1,0\\r1=1.6
 8393208\r2=2.90903803\r3=1.01791829\a1=103.91826996\OOP=75.\\Version=E
 S64L-G16RevB.01\State=1-A\HF=-994.5215531\MP2=-995.188878\RMSD=6.282e-
 09\RMSF=4.442e-03\Dipole=2.1638555,-0.0922853,0.0936529\Quadrupole=-8.
 9165628,4.166672,4.7498909,-2.0363969,-0.0193491,0.1743374\PG=C01 [X(C
 l2H1O1)]\\@


 A politician is a person who can make waves and then
 make you think he's the only one who can save the ship.
 -- Ivern Ball
 Job cpu time:       0 days  0 hours 26 minutes 54.3 seconds.
 Elapsed time:       0 days  0 hours  1 minutes 17.2 seconds.
 File lengths (MBytes):  RWF=     19 Int=      0 D2E=      0 Chk=      8 Scr=      1
 Normal termination of Gaussian 16 at Wed Sep 15 12:01:35 2021.
