title                                                                   
SP        RMP2-FC                                                     Aug-CC-pVTZ         
Number of atoms                            I                4
Info1-9                                    I   N=           9
          40          13           0           0           0         110
           1           2           1
Full Title                                 C   N=           1
title       
Route                                      C   N=           5
#p pop=NBO SP NoSymm mp2/aug-cc-pvtz density=current        
Charge                                     I               -1
Multiplicity                               I                1
Number of electrons                        I               44
Number of alpha electrons                  I               22
Number of beta electrons                   I               22
Number of basis functions                  I              169
Number of independent functions            I              169
Number of point charges in /Mol/           I                0
Number of translation vectors              I                0
Atomic numbers                             I   N=           4
           8          17          17           1
Nuclear charges                            R   N=           4
  8.00000000E+00  1.70000000E+01  1.70000000E+01  1.00000000E+00
Current cartesian coordinates              R   N=          12
  0.00000000E+00  0.00000000E+00  0.00000000E+00  5.48904212E+00  0.00000000E+00
  0.00000000E+00 -7.43959853E-01  3.09168378E+00  0.00000000E+00  1.18868597E+00
  0.00000000E+00  1.41662078E+00
Number of symbols in /Mol/                 I                0
Force Field                                I                0
Atom Types                                 C   N=           4
                                                
Int Atom Types                             I   N=           4
           0           0           0           0
MM charges                                 R   N=           4
  0.00000000E+00  0.00000000E+00  0.00000000E+00  0.00000000E+00
Integer atomic weights                     I   N=           4
          16          35          35           1
Real atomic weights                        R   N=           4
  1.59949146E+01  3.49688527E+01  3.49688527E+01  1.00782504E+00
Atom fragment info                         I   N=           4
           0           0           0           0
Atom residue num                           I   N=           4
           0           0           0           0
Nuclear spins                              I   N=           4
           0           3           3           1
Nuclear ZEff                               R   N=           4
 -5.60000000E+00 -1.42400000E+01 -1.42400000E+01 -1.00000000E+00
Nuclear ZNuc                               R   N=           4
  8.00000000E+00  1.70000000E+01  1.70000000E+01  1.00000000E+00
Nuclear QMom                               R   N=           4
  0.00000000E+00 -8.16500000E+00 -8.16500000E+00  0.00000000E+00
Nuclear GFac                               R   N=           4
  0.00000000E+00  8.21874000E-01  8.21874000E-01  2.79284600E+00
MicOpt                                     I   N=           4
          -1          -1          -1          -1
Number of residues                         I                0
Number of secondary structures             I                0
Number of contracted shells                I               55
Number of primitive shells                 I              140
Pure/Cartesian d shells                    I                0
Pure/Cartesian f shells                    I                0
Highest angular momentum                   I                3
Largest degree of contraction              I               11
Shell types                                I   N=          55
           0           0           0           0           0           1
           1           1           1          -2          -2          -2
          -3          -3           0           0           0           0
           0           0           1           1           1           1
           1          -2          -2          -2          -3          -3
           0           0           0           0           0           0
           1           1           1           1           1          -2
          -2          -2          -3          -3           0           0
           0           0           1           1           1          -2
          -2
Number of primitives per shell             I   N=          55
           7           6           1           1           1           3
           1           1           1           1           1           1
           1           1          11           9           8           1
           1           1           6           6           1           1
           1           1           1           1           1           1
          11           9           8           1           1           1
           6           6           1           1           1           1
           1           1           1           1           3           1
           1           1           1           1           1           1
           1
Shell to atom map                          I   N=          55
           1           1           1           1           1           1
           1           1           1           1           1           1
           1           1           2           2           2           2
           2           2           2           2           2           2
           2           2           2           2           2           2
           3           3           3           3           3           3
           3           3           3           3           3           3
           3           3           3           3           4           4
           4           4           4           4           4           4
           4
Primitive exponents                        R   N=         140
  1.53300000E+04  2.29900000E+03  5.22400000E+02  1.47300000E+02  4.75500000E+01
  1.67600000E+01  6.20700000E+00  5.22400000E+02  1.47300000E+02  4.75500000E+01
  1.67600000E+01  6.20700000E+00  6.88200000E-01  1.75200000E+00  2.38400000E-01
  7.37600000E-02  3.44600000E+01  7.74900000E+00  2.28000000E+00  7.15600000E-01
  2.14000000E-01  5.97400000E-02  2.31400000E+00  6.45000000E-01  2.14000000E-01
  1.42800000E+00  5.00000000E-01  4.56100000E+05  6.83300000E+04  1.55500000E+04
  4.40500000E+03  1.43900000E+03  5.20400000E+02  2.03100000E+02  8.39600000E+01
  3.62000000E+01  1.58300000E+01  6.33400000E+00  4.40500000E+03  1.43900000E+03
  5.20400000E+02  2.03100000E+02  8.39600000E+01  3.62000000E+01  1.58300000E+01
  6.33400000E+00  2.69400000E+00  1.43900000E+03  2.03100000E+02  8.39600000E+01
  3.62000000E+01  1.58300000E+01  6.33400000E+00  2.69400000E+00  4.31300000E-01
  9.76800000E-01  1.62500000E-01  5.91000000E-02  6.63300000E+02  1.56800000E+02
  4.99800000E+01  1.84200000E+01  7.24000000E+00  2.92200000E+00  1.56800000E+02
  4.99800000E+01  1.84200000E+01  7.24000000E+00  2.92200000E+00  3.81800000E-01
  1.02200000E+00  1.30100000E-01  4.19000000E-02  1.04600000E+00  3.44000000E-01
  1.35000000E-01  7.06000000E-01  3.12000000E-01  4.56100000E+05  6.83300000E+04
  1.55500000E+04  4.40500000E+03  1.43900000E+03  5.20400000E+02  2.03100000E+02
  8.39600000E+01  3.62000000E+01  1.58300000E+01  6.33400000E+00  4.40500000E+03
  1.43900000E+03  5.20400000E+02  2.03100000E+02  8.39600000E+01  3.62000000E+01
  1.58300000E+01  6.33400000E+00  2.69400000E+00  1.43900000E+03  2.03100000E+02
  8.39600000E+01  3.62000000E+01  1.58300000E+01  6.33400000E+00  2.69400000E+00
  4.31300000E-01  9.76800000E-01  1.62500000E-01  5.91000000E-02  6.63300000E+02
  1.56800000E+02  4.99800000E+01  1.84200000E+01  7.24000000E+00  2.92200000E+00
  1.56800000E+02  4.99800000E+01  1.84200000E+01  7.24000000E+00  2.92200000E+00
  3.81800000E-01  1.02200000E+00  1.30100000E-01  4.19000000E-02  1.04600000E+00
  3.44000000E-01  1.35000000E-01  7.06000000E-01  3.12000000E-01  3.38700000E+01
  5.09500000E+00  1.15900000E+00  3.25800000E-01  1.02700000E-01  2.52600000E-02
  1.40700000E+00  3.88000000E-01  1.02000000E-01  1.05700000E+00  2.47000000E-01
Contraction coefficients                   R   N=         140
  5.19808943E-04  4.02025621E-03  2.07128267E-02  8.10105536E-02  2.35962985E-01
  4.42653446E-01  3.57064423E-01 -4.42115008E-05 -1.22591041E-03 -1.05517725E-02
 -6.74452633E-02 -1.71198607E-01  1.07329856E+00  1.00000000E+00  1.00000000E+00
  1.00000000E+00  4.11634896E-02  2.57762836E-01  8.02419274E-01  1.00000000E+00
  1.00000000E+00  1.00000000E+00  1.00000000E+00  1.00000000E+00  1.00000000E+00
  1.00000000E+00  1.00000000E+00  4.93229477E-05  3.83207967E-04  2.00947816E-03
  8.38950124E-03  2.94843950E-02  8.78759948E-02  2.11589759E-01  3.65611554E-01
  3.41246350E-01  1.02162570E-01  2.14249949E-03 -2.21747925E-06 -1.71189708E-04
 -1.27922846E-03 -9.32956265E-03 -3.98910062E-02 -1.05536085E-01  9.36202446E-03
  5.10511140E-01  5.73150737E-01  4.03949245E-06  2.12481765E-04  8.59484452E-04
  4.63248159E-03  4.47343490E-04 -7.38438245E-02 -3.62271994E-01  1.16620337E+00
  1.00000000E+00  1.00000000E+00  1.00000000E+00  2.47206402E-03  1.97550234E-02
  9.09917355E-02  2.63187834E-01  4.49078073E-01  3.60183072E-01  3.03427809E-05
 -1.22475826E-03 -6.01429772E-03 -2.76401323E-02  4.35105612E-04  1.00307272E+00
  1.00000000E+00  1.00000000E+00  1.00000000E+00  1.00000000E+00  1.00000000E+00
  1.00000000E+00  1.00000000E+00  1.00000000E+00  4.93229477E-05  3.83207967E-04
  2.00947816E-03  8.38950124E-03  2.94843950E-02  8.78759948E-02  2.11589759E-01
  3.65611554E-01  3.41246350E-01  1.02162570E-01  2.14249949E-03 -2.21747925E-06
 -1.71189708E-04 -1.27922846E-03 -9.32956265E-03 -3.98910062E-02 -1.05536085E-01
  9.36202446E-03  5.10511140E-01  5.73150737E-01  4.03949245E-06  2.12481765E-04
  8.59484452E-04  4.63248159E-03  4.47343490E-04 -7.38438245E-02 -3.62271994E-01
  1.16620337E+00  1.00000000E+00  1.00000000E+00  1.00000000E+00  2.47206402E-03
  1.97550234E-02  9.09917355E-02  2.63187834E-01  4.49078073E-01  3.60183072E-01
  3.03427809E-05 -1.22475826E-03 -6.01429772E-03 -2.76401323E-02  4.35105612E-04
  1.00307272E+00  1.00000000E+00  1.00000000E+00  1.00000000E+00  1.00000000E+00
  1.00000000E+00  1.00000000E+00  1.00000000E+00  1.00000000E+00  2.54948632E-02
  1.90362766E-01  8.52162022E-01  1.00000000E+00  1.00000000E+00  1.00000000E+00
  1.00000000E+00  1.00000000E+00  1.00000000E+00  1.00000000E+00  1.00000000E+00
Coordinates of each shell                  R   N=         165
  0.00000000E+00  0.00000000E+00  0.00000000E+00  0.00000000E+00  0.00000000E+00
  0.00000000E+00  0.00000000E+00  0.00000000E+00  0.00000000E+00  0.00000000E+00
  0.00000000E+00  0.00000000E+00  0.00000000E+00  0.00000000E+00  0.00000000E+00
  0.00000000E+00  0.00000000E+00  0.00000000E+00  0.00000000E+00  0.00000000E+00
  0.00000000E+00  0.00000000E+00  0.00000000E+00  0.00000000E+00  0.00000000E+00
  0.00000000E+00  0.00000000E+00  0.00000000E+00  0.00000000E+00  0.00000000E+00
  0.00000000E+00  0.00000000E+00  0.00000000E+00  0.00000000E+00  0.00000000E+00
  0.00000000E+00  0.00000000E+00  0.00000000E+00  0.00000000E+00  0.00000000E+00
  0.00000000E+00  0.00000000E+00  5.48904212E+00  0.00000000E+00  0.00000000E+00
  5.48904212E+00  0.00000000E+00  0.00000000E+00  5.48904212E+00  0.00000000E+00
  0.00000000E+00  5.48904212E+00  0.00000000E+00  0.00000000E+00  5.48904212E+00
  0.00000000E+00  0.00000000E+00  5.48904212E+00  0.00000000E+00  0.00000000E+00
  5.48904212E+00  0.00000000E+00  0.00000000E+00  5.48904212E+00  0.00000000E+00
  0.00000000E+00  5.48904212E+00  0.00000000E+00  0.00000000E+00  5.48904212E+00
  0.00000000E+00  0.00000000E+00  5.48904212E+00  0.00000000E+00  0.00000000E+00
  5.48904212E+00  0.00000000E+00  0.00000000E+00  5.48904212E+00  0.00000000E+00
  0.00000000E+00  5.48904212E+00  0.00000000E+00  0.00000000E+00  5.48904212E+00
  0.00000000E+00  0.00000000E+00  5.48904212E+00  0.00000000E+00  0.00000000E+00
 -7.43959853E-01  3.09168378E+00  0.00000000E+00 -7.43959853E-01  3.09168378E+00
  0.00000000E+00 -7.43959853E-01  3.09168378E+00  0.00000000E+00 -7.43959853E-01
  3.09168378E+00  0.00000000E+00 -7.43959853E-01  3.09168378E+00  0.00000000E+00
 -7.43959853E-01  3.09168378E+00  0.00000000E+00 -7.43959853E-01  3.09168378E+00
  0.00000000E+00 -7.43959853E-01  3.09168378E+00  0.00000000E+00 -7.43959853E-01
  3.09168378E+00  0.00000000E+00 -7.43959853E-01  3.09168378E+00  0.00000000E+00
 -7.43959853E-01  3.09168378E+00  0.00000000E+00 -7.43959853E-01  3.09168378E+00
  0.00000000E+00 -7.43959853E-01  3.09168378E+00  0.00000000E+00 -7.43959853E-01
  3.09168378E+00  0.00000000E+00 -7.43959853E-01  3.09168378E+00  0.00000000E+00
 -7.43959853E-01  3.09168378E+00  0.00000000E+00  1.18868597E+00  0.00000000E+00
  1.41662078E+00  1.18868597E+00  0.00000000E+00  1.41662078E+00  1.18868597E+00
  0.00000000E+00  1.41662078E+00  1.18868597E+00  0.00000000E+00  1.41662078E+00
  1.18868597E+00  0.00000000E+00  1.41662078E+00  1.18868597E+00  0.00000000E+00
  1.41662078E+00  1.18868597E+00  0.00000000E+00  1.41662078E+00  1.18868597E+00
  0.00000000E+00  1.41662078E+00  1.18868597E+00  0.00000000E+00  1.41662078E+00
Num ILSW                                   I              100
ILSW                                       I   N=         100
           0           0           0           0           2           0
           0           0           0           0           0          -1
           5           0           0           0           0           0
           0           0           0           0           0           0
           1           1           0           0           0           0
           0           0      100000           0          -1           0
           0           0           0           0           0           0
           0           0           0           1           0           0
           0 -2000000000           1           0           0           0
           0           0           4          52           0           0
           0           0           0           0           0           0
           0           0           0           4           0           1
           0           0           0           0           0           0
           0           0           0           0           0           0
           0           0           0           0           0           0
           0           0           0           0           0           0
           0           0           0           0
Num RLSW                                   I               52
RLSW                                       R   N=          52
  1.00000000E+00  1.00000000E+00  1.00000000E+00  1.00000000E+00  1.00000000E+00
  0.00000000E+00  0.00000000E+00  1.00000000E+00  0.00000000E+00  0.00000000E+00
  0.00000000E+00  0.00000000E+00  1.00000000E+00  0.00000000E+00  0.00000000E+00
  0.00000000E+00  0.00000000E+00  1.00000000E+00  0.00000000E+00  0.00000000E+00
  0.00000000E+00  0.00000000E+00  1.00000000E+00  0.00000000E+00  0.00000000E+00
  0.00000000E+00  0.00000000E+00  1.00000000E+00  0.00000000E+00  0.00000000E+00
  0.00000000E+00  0.00000000E+00  1.00000000E+00  0.00000000E+00  0.00000000E+00
  0.00000000E+00  0.00000000E+00  0.00000000E+00  1.00000000E+00  1.00000000E+00
  0.00000000E+00  1.00000000E+00  0.00000000E+00  0.00000000E+00  0.00000000E+00
  0.00000000E+00  0.00000000E+00  0.00000000E+00  0.00000000E+00  0.00000000E+00
  0.00000000E+00  0.00000000E+00
MxBond                                     I                2
NBond                                      I   N=           4
           2           0           1           1
IBond                                      I   N=           8
           3           4           0           0           1           0
           1           0
RBond                                      R   N=           8
  1.00000000E+00  1.00000000E+00  0.00000000E+00  0.00000000E+00  1.00000000E+00
  0.00000000E+00  1.00000000E+00  0.00000000E+00
Virial Ratio                               R      2.000115789844911E+00
SCF Energy                                 R     -9.945034728417102E+02
MP2 Energy                                 R     -9.951673070212145E+02
Total Energy                               R     -9.951673070212145E+02
Post-SCF wavefunction norm                 R      1.103376569227618E+00
RMS Density                                R      5.903860833145308E-09
Job Status                                 I                1
Nuclear derivative order                   I                0
External E-field                           R   N=          35
  0.00000000E+00  0.00000000E+00  0.00000000E+00  0.00000000E+00  0.00000000E+00
  0.00000000E+00  0.00000000E+00  0.00000000E+00  0.00000000E+00  0.00000000E+00
  0.00000000E+00  0.00000000E+00  0.00000000E+00  0.00000000E+00  0.00000000E+00
  0.00000000E+00  0.00000000E+00  0.00000000E+00  0.00000000E+00  0.00000000E+00
  0.00000000E+00  0.00000000E+00  0.00000000E+00  0.00000000E+00  0.00000000E+00
  0.00000000E+00  0.00000000E+00  0.00000000E+00  0.00000000E+00  0.00000000E+00
  0.00000000E+00  0.00000000E+00  0.00000000E+00  0.00000000E+00  0.00000000E+00
IOpCl                                      I                0
IROHF                                      I                0
Alpha Orbital Energies                     R   N=         169
 -1.04737621E+02 -1.04522554E+02 -2.04775666E+01 -1.04573549E+01 -1.02470148E+01
 -7.92455102E+00 -7.92182968E+00 -7.92165477E+00 -7.71310927E+00 -7.71302660E+00
 -7.71300482E+00 -1.25018088E+00 -9.03758427E-01 -7.56034959E-01 -5.56376399E-01
 -4.54492266E-01 -4.45368015E-01 -3.15919412E-01 -2.88929220E-01 -1.73330945E-01
 -1.70168058E-01 -1.68206118E-01  1.52080891E-01  1.79251643E-01  2.21967234E-01
  2.32033036E-01  2.64292369E-01  2.75649849E-01  2.79450910E-01  2.88754379E-01
  2.98739881E-01  3.17723339E-01  3.25638803E-01  3.52438813E-01  4.01645345E-01
  4.15370736E-01  4.57188084E-01  4.76288951E-01  5.27915558E-01  5.38381207E-01
  5.56926529E-01  5.71578316E-01  5.81816724E-01  5.87104785E-01  6.10678156E-01
  6.22314215E-01  6.49189335E-01  6.62791782E-01  6.69901549E-01  6.81710712E-01
  7.58354788E-01  7.99575002E-01  8.48472216E-01  8.69295093E-01  8.84461819E-01
  8.96908930E-01  9.04542665E-01  9.25680768E-01  9.52084544E-01  9.72264519E-01
  1.02267771E+00  1.05383370E+00  1.07768166E+00  1.08588487E+00  1.10426281E+00
  1.11887681E+00  1.12478833E+00  1.16363242E+00  1.19337507E+00  1.20127137E+00
  1.20179584E+00  1.21834095E+00  1.22711161E+00  1.23151984E+00  1.25781222E+00
  1.27249719E+00  1.28792263E+00  1.32145846E+00  1.33032364E+00  1.39048026E+00
  1.40965522E+00  1.43860685E+00  1.44430763E+00  1.48191808E+00  1.49773427E+00
  1.52210169E+00  1.54774445E+00  1.56297684E+00  1.64622699E+00  1.66853378E+00
  1.69024277E+00  1.70548117E+00  1.75425934E+00  1.78571137E+00  1.82951873E+00
  1.86642559E+00  1.95535738E+00  1.98460686E+00  2.11832940E+00  2.35050091E+00
  2.42706858E+00  2.47938646E+00  2.49262374E+00  2.52976545E+00  2.59503260E+00
  2.60776971E+00  2.64037430E+00  2.67597818E+00  2.69006029E+00  2.69894788E+00
  2.71785472E+00  2.74376256E+00  2.77493777E+00  2.81095132E+00  2.82366414E+00
  2.82519849E+00  2.88325337E+00  2.89784114E+00  2.92356766E+00  2.97873690E+00
  2.98604291E+00  2.99892650E+00  3.00349032E+00  3.09771592E+00  3.15872644E+00
  3.20165616E+00  3.21147132E+00  3.23041703E+00  3.25048312E+00  3.29344150E+00
  3.31351657E+00  3.35868273E+00  3.35998559E+00  3.40210294E+00  3.42921996E+00
  3.46513673E+00  3.48757840E+00  3.52250958E+00  3.56375624E+00  3.57749673E+00
  3.63058029E+00  3.91490644E+00  4.02202679E+00  4.36999378E+00  4.47907160E+00
  4.53980796E+00  4.63307524E+00  4.74050471E+00  4.91365089E+00  5.01911954E+00
  5.37789514E+00  5.47061732E+00  5.69014951E+00  6.04702857E+00  6.39086619E+00
  6.65420184E+00  6.85034883E+00  6.90603592E+00  6.92163246E+00  6.98527590E+00
  7.34149131E+00  7.37176293E+00  7.38223274E+00  7.46080524E+00  7.48475372E+00
  7.70530525E+00  7.71936932E+00  8.40738656E+00  1.46667848E+01
Alpha MO coefficients                      R   N=       28561
  6.70632330E-06  3.64518654E-05  7.94595301E-07 -1.27453130E-04 -6.78129043E-05
 -1.57287090E-07  3.23406897E-06  3.71407758E-07  9.08070460E-07 -9.79996500E-06
 -6.43953785E-07  5.23211246E-05 -1.46447584E-04  7.75130253E-06  1.59661193E-05
 -2.77429374E-05  5.55919716E-06 -1.85028940E-06  1.50849029E-07  2.05439292E-07
 -2.75586982E-06 -1.50636237E-06  1.35769750E-05  9.81361672E-07 -1.12779712E-06
  2.04747937E-05  1.01995491E-05  2.72330669E-05  1.07499836E-05 -1.08470799E-05
  5.53546645E-05  1.66976269E-05  6.95041618E-08 -1.05307486E-07  1.05453436E-06
 -8.13072078E-07  7.44823267E-07 -1.08404595E-06  3.69257982E-07 -3.45452681E-07
 -1.64176963E-06  8.94461190E-06  4.20448831E-06 -2.95320291E-06 -7.12688009E-06
  1.15589020E-05  1.76301372E-07  2.63736944E-06  6.81573816E-06 -1.66734285E-06
 -8.71191830E-06 -1.40255552E-05  4.63947299E-08 -8.14988444E-08  3.88609709E-08
 -1.68428007E-06 -8.45704993E-07  5.22196556E-07 -4.08851252E-07  2.99739409E-07
 -1.23128965E-07  1.53596972E-05  1.33008388E-06 -3.04154527E-06  4.02091251E-06
  1.48167731E-09 -1.23227863E-07 -4.00239476E-07 -2.97475464E-08 -1.08365985E-07
  8.68127798E-07  7.49353552E-08  1.15998427E-06  2.49157562E-07  4.00952837E-07
 -2.35485332E-06  2.47110328E-07  3.05208797E-06  1.92444012E-06 -8.03159357E-07
 -5.98351705E-06 -1.50512948E-06  9.78729348E-08  7.96479747E-08  4.03455565E-07
 -9.21027829E-08 -2.78303180E-07 -9.86504713E-07 -1.12246301E-06  7.31031221E-08
 -1.28358081E-06 -7.41715918E-07 -2.04997881E-07  4.49591966E-07  3.50819058E-06
  2.16631070E-06  9.99534837E-01  1.95453344E-03  1.85661042E-04 -4.18130539E-04
  6.85315199E-05  6.31707827E-05  1.54801871E-05 -7.64941500E-05  2.67443094E-06
  3.47375817E-05 -1.35668605E-04  4.68325481E-06 -1.64470508E-05  7.24995054E-05
 -2.59568321E-06  7.81777710E-06 -4.91336402E-05 -2.04520028E-06  5.94058844E-07
 -1.05842462E-05 -1.30982382E-06 -3.67376042E-06  1.17187924E-07 -8.20717235E-08
 -5.66880794E-06 -3.30455997E-06 -2.78205523E-05  8.31460247E-07 -1.96499828E-06
 -4.26161068E-05 -2.35073265E-05 -2.62391075E-06 -3.13320727E-06  4.62693858E-07
 -5.53010345E-06  7.08275174E-07 -5.33964657E-07 -1.25611867E-06  5.49985560E-06
  2.47239777E-08 -1.31369595E-06 -5.46523324E-06  4.84663664E-06  4.25785852E-07
 -1.35259290E-06  3.88004846E-06 -8.18300613E-07  2.26920942E-06 -2.54549429E-06
  5.26433613E-06 -4.50585160E-07 -2.58462454E-05  5.51947201E-06 -4.18999867E-06
  9.67250500E-07 -1.73637500E-06  8.81944944E-07 -6.83094351E-06  1.59750240E-05
  3.04593271E-06  7.80423289E-06  1.04300643E-05 -2.63098784E-06 -1.30440587E-06
 -3.33002423E-07 -1.18416257E-07 -2.00078136E-06 -6.99759438E-07 -3.32257765E-06
  6.68439427E-07 -1.70098531E-07  4.30441317E-06 -3.21819243E-06  3.93608564E-07
  2.09104287E-06 -6.02930985E-07 -1.06102002E-06  5.96780945E-06  3.42503303E-07
  1.60970716E-07 -1.13182367E-07  2.99229281E-08 -7.22960567E-07  1.36147484E-06
  2.25518921E-05  5.83031719E-06  3.02813150E-06 -5.16044402E-06  5.88852953E-06
  4.95950134E-06  3.09996465E-07 -4.26326254E-07 -1.11370445E-08  3.23807992E-07
  1.66499388E-07 -8.20953058E-07  3.06450971E-06  1.20863523E-07 -8.85150831E-07
 -5.60811260E-07 -7.58557470E-06  8.94767550E-06  1.31987589E-06  8.94259579E-06
  1.08465768E-06  5.33484956E-07  1.67119182E-07  3.20869104E-08  1.53432611E-07
 -5.84634922E-08 -5.73668292E-07  2.65302928E-08 -2.99845141E-06  4.30643605E-07
 -1.37470903E-07  9.09201755E-07  4.68145162E-07  1.92815688E-06 -1.28095908E-07
  9.99531655E-01  1.97723249E-03  2.00665418E-04 -4.19061093E-04 -1.38729914E-04
  9.64952658E-06 -1.65979194E-06 -3.24372171E-07  4.53662188E-06 -1.29901928E-05
  2.82298025E-07  4.94005652E-06  3.78252849E-06  1.06090909E-07 -3.38660655E-06
  4.90190557E-05 -1.72195617E-06 -1.33098683E-05 -4.11051857E-06  6.82518337E-07
 -4.78553096E-07 -3.66166577E-07 -8.65854583E-07 -7.26671497E-08  1.07411375E-06
 -1.68974105E-07  1.07476852E-06  7.51468673E-07  2.19245138E-07 -2.19755107E-06
  4.96292561E-07  8.20185761E-06  9.68659151E-06 -6.35744017E-07 -1.72197596E-05
  5.38436412E-07 -1.04447885E-06  1.38390863E-06  5.32522175E-08  1.48830335E-06
 -1.08287369E-07 -2.70705469E-06  2.56245111E-07  3.14006886E-06 -3.59296237E-06
 -5.24700270E-08 -4.46878075E-06  2.45183670E-07  7.34210480E-06 -6.49893333E-07
  1.53031081E-07  2.27371014E-06  5.85128358E-06 -1.10321756E-06 -1.73237366E-05
 -1.83354890E-05 -2.09984535E-07 -1.28011458E-08  7.02219020E-08 -1.53392992E-06
  4.49722318E-07  5.32769450E-07  8.56623636E-07 -9.63618338E-08 -2.59427226E-07
 -8.13236443E-06  1.16591992E-05 -4.47175300E-06 -2.60088087E-06  2.17254474E-06
 -9.64361707E-07 -1.68495540E-07 -2.11754434E-07  4.20770466E-08  3.15182950E-07
 -4.31329880E-07  1.36817016E-06  4.69401512E-07  4.25289156E-07  2.47506371E-07
  1.85509763E-06  1.96689498E-06 -2.53447210E-06  1.32488917E-06 -7.36037843E-07
  1.26326237E-06  7.16038171E-08  3.33476131E-07 -1.83600793E-07  1.66364236E-07
 -1.43114437E-08  3.00233895E-07 -4.23994873E-07  1.35519327E-07 -8.35250705E-08
 -5.38574924E-07  1.31487611E-07  3.29289915E-07 -6.45460348E-07  4.74872410E-07
  3.90261910E-08 -3.51568903E-05  8.11730501E-05 -1.45134928E-06 -3.37579214E-07
  8.19617396E-09  9.04892063E-07 -9.21475669E-07 -1.30101221E-06  8.10774773E-06
  1.78844749E-05  9.66305971E-06 -2.58070417E-05 -6.51660056E-07 -5.71870500E-07
  4.79528025E-07 -1.69650184E-07 -7.18169303E-09 -8.63098078E-06 -2.69571598E-06
 -2.19799307E-06  1.48256922E-05 -5.18694836E-07  9.76840864E-01 -9.05746144E-03
  4.33755613E-02  2.29760275E-03  1.71550091E-04  3.74125246E-04  1.51860612E-03
  1.17862019E-03 -4.70050556E-04 -1.19079703E-03 -1.07019987E-03 -3.50102969E-04
  8.34408667E-04 -2.07518671E-04 -1.24742159E-04  1.05745404E-04 -1.08637159E-04
  6.66419780E-05  3.33852843E-05  5.01017719E-06  9.61662958E-05  4.60677968E-05
 -6.33930847E-06 -4.65713842E-04 -2.03473934E-05  2.10859849E-04  1.90915819E-04
 -1.61018066E-04 -5.99928523E-05  6.41706516E-05 -2.63907591E-04 -1.95277507E-04
 -5.64661097E-06 -1.53157639E-05  3.22086921E-06  6.76590079E-06 -1.40958807E-05
 -1.15602393E-05  1.44838668E-05 -8.94348276E-06 -1.19399740E-04 -1.56409937E-05
 -1.02675666E-04 -2.86551971E-05 -1.51616899E-05 -3.73008134E-05 -4.27075399E-06
 -5.23067081E-05 -1.51302920E-04  1.81508714E-05  3.38684358E-04  3.96274115E-04
 -4.65802746E-06  3.32367393E-07  8.77332991E-07 -2.03746504E-06  1.21437509E-06
  3.71763335E-06  1.95431514E-05 -1.46374876E-06 -3.14268632E-06 -4.32420067E-04
  2.33467925E-05  7.06404363E-05 -8.77585976E-05 -1.02723459E-05  1.50011696E-05
  4.97413886E-06  3.90681543E-06  1.34603760E-06 -7.56752276E-06  3.96168331E-06
 -2.57993096E-05 -1.76557487E-05 -4.75067851E-06  5.04768050E-05 -1.36679291E-05
 -9.46081027E-05 -2.82001981E-05  1.25618549E-05  1.14771719E-04  6.34307759E-06
  8.73946668E-06 -2.84357372E-06 -5.11755575E-06  7.53039697E-06  1.25484549E-06
 -2.12215244E-05  3.17847486E-06 -2.46957044E-05  3.73236642E-05  8.69537656E-06
 -7.32233879E-06 -1.97238287E-06  1.06283566E-05 -3.75175767E-06  3.57883457E-06
  5.77346320E-05  5.20608775E-05 -2.56608562E-04 -1.52959031E-04 -3.17934397E-04
 -5.53109310E-06 -5.92427761E-07 -5.07420536E-06  2.48728628E-05 -4.57149604E-04
 -8.01656302E-05 -3.09059553E-05  2.27690581E-04  2.30518627E-05  2.23443922E-04
  4.45043270E-04  1.42503648E-04 -1.47084663E-05  7.65920844E-05  3.22470577E-05
  1.32587200E-05  3.26291864E-07 -6.50228062E-07  1.16038037E-05  1.16342631E-05
 -2.81547527E-04 -1.31906215E-05  4.80747617E-05 -4.24322037E-04 -1.97933709E-04
  1.50630550E-04  9.22806550E-05 -7.09506665E-05  3.43934490E-04 -2.94838612E-05
  1.12689774E-05 -3.73743978E-05  1.62419566E-04  1.53426708E-06  1.21380807E-05
 -1.28968593E-04  1.85403818E-04 -7.08038777E-06 -1.82591246E-05  8.53277674E-05
  2.36716928E-05 -2.58525130E-05 -8.18622691E-05  4.18278357E-05  4.54718992E-04
  1.71085612E-03 -8.90879722E-04 -4.95556973E-05 -1.87477513E-04  6.06813124E-05
 -1.98553578E-04 -6.42778547E-04 -6.72285023E-05 -7.57735828E-04 -4.45113471E-04
 -2.90183000E-04  3.59481508E-04 -4.38700891E-05 -4.33005761E-05 -5.74312035E-05
  1.85712481E-05 -4.09156888E-05  1.80982338E-04  5.12623469E-04  3.78345478E-05
  1.27901102E-04  5.74778344E-05 -8.35206907E-05 -1.38268062E-04 -1.00396370E-04
  2.27238639E-03  1.48743257E-03 -2.05535593E-05  3.79365947E-05 -9.05513843E-06
 -1.19343375E-04  5.90436953E-04  1.91114131E-05 -7.29953069E-04  2.34761625E-03
 -3.88422806E-05 -3.63705260E-04  6.68588903E-04 -1.40563382E-04 -3.28928446E-05
 -3.86810334E-06 -9.89687370E-06 -4.85362805E-05 -3.00247392E-05 -1.51768050E-04
  1.25140111E-05  7.14277115E-05 -2.55141181E-04 -8.46139107E-05 -2.82152282E-04
 -1.48164230E-04  2.39762590E-04 -7.11368258E-04 -8.70961584E-05 -3.33880101E-06
  1.55814647E-05 -3.69158334E-05  1.55372566E-05 -1.10918783E-05  3.65983459E-05
 -3.02547159E-05  2.95182531E-05  3.86995553E-06  7.17030372E-05 -4.57837097E-05
  1.15743542E-04 -3.26749816E-05  3.75647564E-05 -2.88687781E-06 -4.06856261E-05
 -1.08623968E-04  2.39423268E-05  1.03996135E-04  3.78980087E-04  2.04864587E-06
  1.97612529E-06 -1.06257863E-06  5.75411390E-05  1.30805258E-05 -1.45919966E-05
 -3.82304691E-06 -6.38797744E-06  3.61988429E-06 -3.26504921E-04 -1.17655975E-05
  7.13804437E-05 -1.47439131E-04  5.54920243E-05 -2.34643636E-05  2.28242766E-06
  3.33570534E-06  2.73421990E-06 -1.21683272E-05 -3.27311014E-06 -2.18350768E-06
 -1.16635591E-05 -1.04320753E-05  3.12079585E-05  3.85343684E-06 -9.68195078E-05
 -3.27615676E-05  2.21584380E-05  1.26347460E-04 -9.06768423E-06  6.01272724E-07