title                                                                   
SP        RMP2-FC                                                     Aug-CC-pVTZ         
Number of atoms                            I                4
Info1-9                                    I   N=           9
          40          13           0           0           0         110
           1           2           1
Full Title                                 C   N=           1
title       
Route                                      C   N=           5
#p pop=NBO SP NoSymm mp2/aug-cc-pvtz density=current        
Charge                                     I               -1
Multiplicity                               I                1
Number of electrons                        I               44
Number of alpha electrons                  I               22
Number of beta electrons                   I               22
Number of basis functions                  I              169
Number of independent functions            I              169
Number of point charges in /Mol/           I                0
Number of translation vectors              I                0
Atomic numbers                             I   N=           4
           8          17          17           1
Nuclear charges                            R   N=           4
  8.00000000E+00  1.70000000E+01  1.70000000E+01  1.00000000E+00
Current cartesian coordinates              R   N=          12
  0.00000000E+00  0.00000000E+00  0.00000000E+00  5.48904212E+00  0.00000000E+00
  0.00000000E+00 -7.43959853E-01  3.09168378E+00  0.00000000E+00  1.85835558E+00
  0.00000000E+00  4.97944879E-01
Number of symbols in /Mol/                 I                0
Force Field                                I                0
Atom Types                                 C   N=           4
                                                
Int Atom Types                             I   N=           4
           0           0           0           0
MM charges                                 R   N=           4
  0.00000000E+00  0.00000000E+00  0.00000000E+00  0.00000000E+00
Integer atomic weights                     I   N=           4
          16          35          35           1
Real atomic weights                        R   N=           4
  1.59949146E+01  3.49688527E+01  3.49688527E+01  1.00782504E+00
Atom fragment info                         I   N=           4
           0           0           0           0
Atom residue num                           I   N=           4
           0           0           0           0
Nuclear spins                              I   N=           4
           0           3           3           1
Nuclear ZEff                               R   N=           4
 -5.60000000E+00 -1.42400000E+01 -1.42400000E+01 -1.00000000E+00
Nuclear ZNuc                               R   N=           4
  8.00000000E+00  1.70000000E+01  1.70000000E+01  1.00000000E+00
Nuclear QMom                               R   N=           4
  0.00000000E+00 -8.16500000E+00 -8.16500000E+00  0.00000000E+00
Nuclear GFac                               R   N=           4
  0.00000000E+00  8.21874000E-01  8.21874000E-01  2.79284600E+00
MicOpt                                     I   N=           4
          -1          -1          -1          -1
Number of residues                         I                0
Number of secondary structures             I                0
SymInf integers                            I   N=          26
           1           1           1           1           1           0
           0           0           0           0           0           0
           0           0           0           0           0           0
           0           0           0           0           0           0
           0           0
RotTr to input orientation                 R   N=          12
 -9.19796308E-01  3.92395822E-01 -5.20075430E-04 -3.92358983E-01 -9.19690093E-01
  1.49853548E-02  5.40188242E-03  1.39875303E-02  9.99887578E-01  1.91961909E+00
  1.22229359E+00  1.16976785E-02
Number of contracted shells                I               55
Number of primitive shells                 I              140
Pure/Cartesian d shells                    I                0
Pure/Cartesian f shells                    I                0
Highest angular momentum                   I                3
Largest degree of contraction              I               11
Shell types                                I   N=          55
           0           0           0           0           0           1
           1           1           1          -2          -2          -2
          -3          -3           0           0           0           0
           0           0           1           1           1           1
           1          -2          -2          -2          -3          -3
           0           0           0           0           0           0
           1           1           1           1           1          -2
          -2          -2          -3          -3           0           0
           0           0           1           1           1          -2
          -2
Number of primitives per shell             I   N=          55
           7           6           1           1           1           3
           1           1           1           1           1           1
           1           1          11           9           8           1
           1           1           6           6           1           1
           1           1           1           1           1           1
          11           9           8           1           1           1
           6           6           1           1           1           1
           1           1           1           1           3           1
           1           1           1           1           1           1
           1
Shell to atom map                          I   N=          55
           1           1           1           1           1           1
           1           1           1           1           1           1
           1           1           2           2           2           2
           2           2           2           2           2           2
           2           2           2           2           2           2
           3           3           3           3           3           3
           3           3           3           3           3           3
           3           3           3           3           4           4
           4           4           4           4           4           4
           4
Primitive exponents                        R   N=         140
  1.53300000E+04  2.29900000E+03  5.22400000E+02  1.47300000E+02  4.75500000E+01
  1.67600000E+01  6.20700000E+00  5.22400000E+02  1.47300000E+02  4.75500000E+01
  1.67600000E+01  6.20700000E+00  6.88200000E-01  1.75200000E+00  2.38400000E-01
  7.37600000E-02  3.44600000E+01  7.74900000E+00  2.28000000E+00  7.15600000E-01
  2.14000000E-01  5.97400000E-02  2.31400000E+00  6.45000000E-01  2.14000000E-01
  1.42800000E+00  5.00000000E-01  4.56100000E+05  6.83300000E+04  1.55500000E+04
  4.40500000E+03  1.43900000E+03  5.20400000E+02  2.03100000E+02  8.39600000E+01
  3.62000000E+01  1.58300000E+01  6.33400000E+00  4.40500000E+03  1.43900000E+03
  5.20400000E+02  2.03100000E+02  8.39600000E+01  3.62000000E+01  1.58300000E+01
  6.33400000E+00  2.69400000E+00  1.43900000E+03  2.03100000E+02  8.39600000E+01
  3.62000000E+01  1.58300000E+01  6.33400000E+00  2.69400000E+00  4.31300000E-01
  9.76800000E-01  1.62500000E-01  5.91000000E-02  6.63300000E+02  1.56800000E+02
  4.99800000E+01  1.84200000E+01  7.24000000E+00  2.92200000E+00  1.56800000E+02
  4.99800000E+01  1.84200000E+01  7.24000000E+00  2.92200000E+00  3.81800000E-01
  1.02200000E+00  1.30100000E-01  4.19000000E-02  1.04600000E+00  3.44000000E-01
  1.35000000E-01  7.06000000E-01  3.12000000E-01  4.56100000E+05  6.83300000E+04
  1.55500000E+04  4.40500000E+03  1.43900000E+03  5.20400000E+02  2.03100000E+02
  8.39600000E+01  3.62000000E+01  1.58300000E+01  6.33400000E+00  4.40500000E+03
  1.43900000E+03  5.20400000E+02  2.03100000E+02  8.39600000E+01  3.62000000E+01
  1.58300000E+01  6.33400000E+00  2.69400000E+00  1.43900000E+03  2.03100000E+02
  8.39600000E+01  3.62000000E+01  1.58300000E+01  6.33400000E+00  2.69400000E+00
  4.31300000E-01  9.76800000E-01  1.62500000E-01  5.91000000E-02  6.63300000E+02
  1.56800000E+02  4.99800000E+01  1.84200000E+01  7.24000000E+00  2.92200000E+00
  1.56800000E+02  4.99800000E+01  1.84200000E+01  7.24000000E+00  2.92200000E+00
  3.81800000E-01  1.02200000E+00  1.30100000E-01  4.19000000E-02  1.04600000E+00
  3.44000000E-01  1.35000000E-01  7.06000000E-01  3.12000000E-01  3.38700000E+01
  5.09500000E+00  1.15900000E+00  3.25800000E-01  1.02700000E-01  2.52600000E-02
  1.40700000E+00  3.88000000E-01  1.02000000E-01  1.05700000E+00  2.47000000E-01
Contraction coefficients                   R   N=         140
  5.19808943E-04  4.02025621E-03  2.07128267E-02  8.10105536E-02  2.35962985E-01
  4.42653446E-01  3.57064423E-01 -4.42115008E-05 -1.22591041E-03 -1.05517725E-02
 -6.74452633E-02 -1.71198607E-01  1.07329856E+00  1.00000000E+00  1.00000000E+00
  1.00000000E+00  4.11634896E-02  2.57762836E-01  8.02419274E-01  1.00000000E+00
  1.00000000E+00  1.00000000E+00  1.00000000E+00  1.00000000E+00  1.00000000E+00
  1.00000000E+00  1.00000000E+00  4.93229477E-05  3.83207967E-04  2.00947816E-03
  8.38950124E-03  2.94843950E-02  8.78759948E-02  2.11589759E-01  3.65611554E-01
  3.41246350E-01  1.02162570E-01  2.14249949E-03 -2.21747925E-06 -1.71189708E-04
 -1.27922846E-03 -9.32956265E-03 -3.98910062E-02 -1.05536085E-01  9.36202446E-03
  5.10511140E-01  5.73150737E-01  4.03949245E-06  2.12481765E-04  8.59484452E-04
  4.63248159E-03  4.47343490E-04 -7.38438245E-02 -3.62271994E-01  1.16620337E+00
  1.00000000E+00  1.00000000E+00  1.00000000E+00  2.47206402E-03  1.97550234E-02
  9.09917355E-02  2.63187834E-01  4.49078073E-01  3.60183072E-01  3.03427809E-05
 -1.22475826E-03 -6.01429772E-03 -2.76401323E-02  4.35105612E-04  1.00307272E+00
  1.00000000E+00  1.00000000E+00  1.00000000E+00  1.00000000E+00  1.00000000E+00
  1.00000000E+00  1.00000000E+00  1.00000000E+00  4.93229477E-05  3.83207967E-04
  2.00947816E-03  8.38950124E-03  2.94843950E-02  8.78759948E-02  2.11589759E-01
  3.65611554E-01  3.41246350E-01  1.02162570E-01  2.14249949E-03 -2.21747925E-06
 -1.71189708E-04 -1.27922846E-03 -9.32956265E-03 -3.98910062E-02 -1.05536085E-01
  9.36202446E-03  5.10511140E-01  5.73150737E-01  4.03949245E-06  2.12481765E-04
  8.59484452E-04  4.63248159E-03  4.47343490E-04 -7.38438245E-02 -3.62271994E-01
  1.16620337E+00  1.00000000E+00  1.00000000E+00  1.00000000E+00  2.47206402E-03
  1.97550234E-02  9.09917355E-02  2.63187834E-01  4.49078073E-01  3.60183072E-01
  3.03427809E-05 -1.22475826E-03 -6.01429772E-03 -2.76401323E-02  4.35105612E-04
  1.00307272E+00  1.00000000E+00  1.00000000E+00  1.00000000E+00  1.00000000E+00
  1.00000000E+00  1.00000000E+00  1.00000000E+00  1.00000000E+00  2.54948632E-02
  1.90362766E-01  8.52162022E-01  1.00000000E+00  1.00000000E+00  1.00000000E+00
  1.00000000E+00  1.00000000E+00  1.00000000E+00  1.00000000E+00  1.00000000E+00
Coordinates of each shell                  R   N=         165
  0.00000000E+00  0.00000000E+00  0.00000000E+00  0.00000000E+00  0.00000000E+00
  0.00000000E+00  0.00000000E+00  0.00000000E+00  0.00000000E+00  0.00000000E+00
  0.00000000E+00  0.00000000E+00  0.00000000E+00  0.00000000E+00  0.00000000E+00
  0.00000000E+00  0.00000000E+00  0.00000000E+00  0.00000000E+00  0.00000000E+00
  0.00000000E+00  0.00000000E+00  0.00000000E+00  0.00000000E+00  0.00000000E+00
  0.00000000E+00  0.00000000E+00  0.00000000E+00  0.00000000E+00  0.00000000E+00
  0.00000000E+00  0.00000000E+00  0.00000000E+00  0.00000000E+00  0.00000000E+00
  0.00000000E+00  0.00000000E+00  0.00000000E+00  0.00000000E+00  0.00000000E+00
  0.00000000E+00  0.00000000E+00  5.48904212E+00  0.00000000E+00  0.00000000E+00
  5.48904212E+00  0.00000000E+00  0.00000000E+00  5.48904212E+00  0.00000000E+00
  0.00000000E+00  5.48904212E+00  0.00000000E+00  0.00000000E+00  5.48904212E+00
  0.00000000E+00  0.00000000E+00  5.48904212E+00  0.00000000E+00  0.00000000E+00
  5.48904212E+00  0.00000000E+00  0.00000000E+00  5.48904212E+00  0.00000000E+00
  0.00000000E+00  5.48904212E+00  0.00000000E+00  0.00000000E+00  5.48904212E+00
  0.00000000E+00  0.00000000E+00  5.48904212E+00  0.00000000E+00  0.00000000E+00
  5.48904212E+00  0.00000000E+00  0.00000000E+00  5.48904212E+00  0.00000000E+00
  0.00000000E+00  5.48904212E+00  0.00000000E+00  0.00000000E+00  5.48904212E+00
  0.00000000E+00  0.00000000E+00  5.48904212E+00  0.00000000E+00  0.00000000E+00
 -7.43959853E-01  3.09168378E+00  0.00000000E+00 -7.43959853E-01  3.09168378E+00
  0.00000000E+00 -7.43959853E-01  3.09168378E+00  0.00000000E+00 -7.43959853E-01
  3.09168378E+00  0.00000000E+00 -7.43959853E-01  3.09168378E+00  0.00000000E+00
 -7.43959853E-01  3.09168378E+00  0.00000000E+00 -7.43959853E-01  3.09168378E+00
  0.00000000E+00 -7.43959853E-01  3.09168378E+00  0.00000000E+00 -7.43959853E-01
  3.09168378E+00  0.00000000E+00 -7.43959853E-01  3.09168378E+00  0.00000000E+00
 -7.43959853E-01  3.09168378E+00  0.00000000E+00 -7.43959853E-01  3.09168378E+00
  0.00000000E+00 -7.43959853E-01  3.09168378E+00  0.00000000E+00 -7.43959853E-01
  3.09168378E+00  0.00000000E+00 -7.43959853E-01  3.09168378E+00  0.00000000E+00
 -7.43959853E-01  3.09168378E+00  0.00000000E+00  1.85835558E+00  0.00000000E+00
  4.97944879E-01  1.85835558E+00  0.00000000E+00  4.97944879E-01  1.85835558E+00
  0.00000000E+00  4.97944879E-01  1.85835558E+00  0.00000000E+00  4.97944879E-01
  1.85835558E+00  0.00000000E+00  4.97944879E-01  1.85835558E+00  0.00000000E+00
  4.97944879E-01  1.85835558E+00  0.00000000E+00  4.97944879E-01  1.85835558E+00
  0.00000000E+00  4.97944879E-01  1.85835558E+00  0.00000000E+00  4.97944879E-01
Num ILSW                                   I              100
ILSW                                       I   N=         100
           0           0           0           0           2           0
           0           0           0           0           0          -1
           5           0           0           0           0           0
           0           0           0           0           0           0
           1           1           0           0           0           0
           0           0      100000           0          -1           0
           0           0           0           0           0           0
           0           0           0           1           0           0
           0 -2000000000           1           0           0           0
           0           0           4          52           0           0
           0           0           0           0           0           0
           0           0           0           4           0           1
           0           0           0           0           0           0
           0           0           0           0           0           0
           0           0           0           0           0           0
           0           0           0           0           0           0
           0           0           0           0
Num RLSW                                   I               52
RLSW                                       R   N=          52
  1.00000000E+00  1.00000000E+00  1.00000000E+00  1.00000000E+00  1.00000000E+00
  0.00000000E+00  0.00000000E+00  1.00000000E+00  0.00000000E+00  0.00000000E+00
  0.00000000E+00  0.00000000E+00  1.00000000E+00  0.00000000E+00  0.00000000E+00
  0.00000000E+00  0.00000000E+00  1.00000000E+00  0.00000000E+00  0.00000000E+00
  0.00000000E+00  0.00000000E+00  1.00000000E+00  0.00000000E+00  0.00000000E+00
  0.00000000E+00  0.00000000E+00  1.00000000E+00  0.00000000E+00  0.00000000E+00
  0.00000000E+00  0.00000000E+00  1.00000000E+00  0.00000000E+00  0.00000000E+00
  0.00000000E+00  0.00000000E+00  0.00000000E+00  1.00000000E+00  1.00000000E+00
  0.00000000E+00  1.00000000E+00  0.00000000E+00  0.00000000E+00  0.00000000E+00
  0.00000000E+00  0.00000000E+00  0.00000000E+00  0.00000000E+00  0.00000000E+00
  0.00000000E+00  0.00000000E+00
MxBond                                     I                2
NBond                                      I   N=           4
           2           0           1           1
IBond                                      I   N=           8
           3           4           0           0           1           0
           1           0
RBond                                      R   N=           8
  1.00000000E+00  1.00000000E+00  0.00000000E+00  0.00000000E+00  1.00000000E+00
  0.00000000E+00  1.00000000E+00  0.00000000E+00
Virial Ratio                               R      2.000156387726290E+00
SCF Energy                                 R     -9.945214550265823E+02
MP2 Energy                                 R     -9.951888689451249E+02
Total Energy                               R     -9.951888689451249E+02
Post-SCF wavefunction norm                 R      1.103771806992209E+00
RMS Density                                R      3.973773529563421E-09
Job Status                                 I                1
Nuclear derivative order                   I                0
External E-field                           R   N=          35
  0.00000000E+00  0.00000000E+00  0.00000000E+00  0.00000000E+00  0.00000000E+00
  0.00000000E+00  0.00000000E+00  0.00000000E+00  0.00000000E+00  0.00000000E+00
  0.00000000E+00  0.00000000E+00  0.00000000E+00  0.00000000E+00  0.00000000E+00
  0.00000000E+00  0.00000000E+00  0.00000000E+00  0.00000000E+00  0.00000000E+00
  0.00000000E+00  0.00000000E+00  0.00000000E+00  0.00000000E+00  0.00000000E+00
  0.00000000E+00  0.00000000E+00  0.00000000E+00  0.00000000E+00  0.00000000E+00
  0.00000000E+00  0.00000000E+00  0.00000000E+00  0.00000000E+00  0.00000000E+00
IOpCl                                      I                0
IROHF                                      I                0
Alpha Orbital Energies                     R   N=         169
 -1.04724881E+02 -1.04545608E+02 -2.04532084E+01 -1.04444330E+01 -1.02704275E+01
 -7.91160446E+00 -7.90899720E+00 -7.90889275E+00 -7.73658333E+00 -7.73641820E+00
 -7.73641653E+00 -1.22092800E+00 -8.88699973E-01 -7.84381526E-01 -5.31778594E-01
 -4.35216387E-01 -4.26980823E-01 -3.02234180E-01 -2.73965978E-01 -2.01045260E-01
 -1.93462267E-01 -1.92968486E-01  1.60415623E-01  1.85511408E-01  2.25721912E-01
  2.34236180E-01  2.58967996E-01  2.73221703E-01  2.77093988E-01  2.94638092E-01
  3.13161065E-01  3.17153839E-01  3.39367636E-01  3.49200187E-01  3.96910387E-01
  4.38932411E-01  4.64292041E-01  5.07941161E-01  5.22476896E-01  5.42559973E-01
  5.58834987E-01  5.77666705E-01  5.87995709E-01  6.02805010E-01  6.08382189E-01
  6.55151707E-01  6.61116048E-01  6.70185131E-01  6.80559368E-01  7.35379414E-01
  7.76662581E-01  7.87677291E-01  8.37225576E-01  8.66207550E-01  8.96231574E-01
  9.00946088E-01  9.12463497E-01  9.15398284E-01  9.66783122E-01  9.98436500E-01
  1.02664754E+00  1.06424219E+00  1.07572217E+00  1.09269998E+00  1.10164531E+00
  1.10304460E+00  1.14217258E+00  1.15771819E+00  1.18427207E+00  1.18836542E+00
  1.19434106E+00  1.21223175E+00  1.22613209E+00  1.24674634E+00  1.28392265E+00
  1.30270331E+00  1.33167264E+00  1.36938042E+00  1.40326418E+00  1.42754328E+00
  1.43295607E+00  1.44401354E+00  1.49002385E+00  1.51582821E+00  1.53763957E+00
  1.59878703E+00  1.63984981E+00  1.66167052E+00  1.68736072E+00  1.69269074E+00
  1.72719416E+00  1.74787655E+00  1.82661145E+00  1.85726604E+00  1.86211247E+00
  1.89811761E+00  1.94313560E+00  1.98775164E+00  2.25992178E+00  2.41127202E+00
  2.47878771E+00  2.51827075E+00  2.52946526E+00  2.56748007E+00  2.61283669E+00
  2.64044204E+00  2.65979472E+00  2.68870505E+00  2.71337452E+00  2.72388767E+00
  2.73340031E+00  2.75971290E+00  2.78109751E+00  2.79215080E+00  2.80180526E+00
  2.82341749E+00  2.91095169E+00  2.92566583E+00  2.93917460E+00  2.97733316E+00
  3.05236796E+00  3.10086859E+00  3.10743925E+00  3.13412303E+00  3.21186578E+00
  3.22369273E+00  3.22946082E+00  3.27132976E+00  3.30042876E+00  3.33147707E+00
  3.33687165E+00  3.36046206E+00  3.39077313E+00  3.40082496E+00  3.41598348E+00
  3.50179218E+00  3.51551678E+00  3.54031802E+00  3.56864571E+00  3.59570216E+00
  3.66300240E+00  3.93538035E+00  4.26294657E+00  4.33069755E+00  4.48434738E+00
  4.55543230E+00  4.57815298E+00  4.77396294E+00  4.98923250E+00  5.11849308E+00
  5.33806596E+00  5.46636798E+00  5.67054964E+00  6.29528553E+00  6.54650980E+00
  6.59839561E+00  6.88435893E+00  6.91113230E+00  6.93209969E+00  7.00873267E+00
  7.31797841E+00  7.33410698E+00  7.35918631E+00  7.45455461E+00  7.56365180E+00
  7.78174752E+00  7.80769915E+00  8.36264493E+00  1.44283451E+01
Alpha MO coefficients                      R   N=       28561
  5.26742044E-06  2.93583409E-05  2.22798932E-06 -1.50006973E-04 -1.01836198E-04
  3.46157467E-07  3.01808851E-06  4.98789250E-07 -3.76376341E-06 -9.04103429E-06
 -2.47734195E-06  5.04872659E-05 -1.51121742E-04  6.03418099E-07  1.16799493E-05
 -3.61341441E-05  1.64167858E-06 -2.12207812E-06  1.89996235E-07  2.59361192E-08
 -3.03591999E-06 -1.44187487E-06  1.41473780E-05 -1.01996946E-06 -2.68455029E-07
  2.05360176E-05  9.73650106E-06  2.50434073E-05  3.82398630E-06 -2.37846159E-06
  5.92738992E-05  1.33103178E-05 -1.53921631E-07 -2.20746904E-07 -2.94212147E-09
 -3.96848876E-07  3.24358194E-07 -1.65627148E-06  9.64345543E-07  2.88534624E-07
 -2.78641239E-06  1.29051594E-05  1.57988869E-06 -1.41429344E-06 -5.11651164E-06
  8.97158952E-06  1.77913726E-07  2.51837606E-06  6.53151018E-06 -1.21818670E-06
 -1.97505054E-05 -1.23544044E-05  2.19820456E-07  9.18164857E-10 -8.98303175E-08
  2.31671419E-06  7.27674967E-07 -9.32126910E-07 -9.56956468E-07  7.11534891E-09
  3.89807721E-07  1.80025170E-05 -5.16373749E-06 -3.67544536E-06  3.92925042E-06
 -2.72502129E-07  2.55595033E-07 -2.14793843E-07 -3.54031464E-07 -7.49266880E-08
  2.85620094E-07 -4.19561187E-07  1.29589881E-06  1.86766367E-06  3.93591204E-07
 -2.13368617E-06  1.01036203E-06  3.27608569E-06  1.76359152E-06 -1.41874252E-06
 -5.25572865E-06  3.22090000E-06 -1.63449454E-07  8.30064635E-09  1.00060891E-08
 -3.01208547E-08 -5.79338295E-07 -1.74507396E-07  2.42781176E-07  9.24836390E-07
 -7.11581034E-07  2.62033036E-07 -6.89924757E-07  1.21531293E-06  9.39914279E-07
 -1.53249260E-06  9.99534806E-01  1.95436196E-03  1.84930845E-04 -4.18167655E-04
  7.16174892E-05  7.48520340E-05  1.73551004E-05 -7.48472492E-05  1.13743282E-06
  3.71401952E-05 -1.34166404E-04  1.89658806E-06 -1.79820368E-05  7.13110554E-05
 -1.06332294E-06  3.60438987E-06 -5.64633636E-05 -2.73440630E-06  2.34344377E-06
 -1.15676707E-05 -7.97980285E-07 -3.60518082E-06  6.73794369E-08 -1.23494203E-07
 -4.92947173E-06 -3.31396471E-06 -2.84305084E-05  3.61383811E-07 -4.61821195E-07
 -4.34968550E-05 -2.38690178E-05 -1.15673580E-06 -2.52859831E-06  1.00109955E-06
 -9.78002601E-06  9.28188236E-07 -4.46786705E-07 -1.95206226E-06  6.14944194E-06
  2.79601633E-07 -6.54449247E-07 -4.69460618E-06  4.03725341E-06  8.91871297E-07
  2.61500493E-07  3.02516918E-06 -7.68860600E-07  1.36710587E-06 -4.16535059E-06
  7.31157703E-06 -1.52638373E-06 -1.83513157E-05  5.16007645E-05 -6.59422188E-06
  6.58376231E-07 -2.53839972E-06  1.04596043E-07 -9.24471022E-06  1.52877819E-05
 -1.05437951E-06  3.46837902E-06  2.20683480E-05 -2.40204713E-06 -5.29892944E-07
  2.88915070E-08 -2.99185571E-08 -6.44739257E-07 -9.63220401E-07 -1.35449355E-05
  3.22582094E-06 -1.18849187E-06  9.26743495E-06 -1.28976313E-06  8.73803738E-07
  5.03266354E-06 -1.42251067E-07 -2.19652637E-07  3.10721010E-05  2.60202708E-07
 -1.75004352E-08 -9.24845584E-08  5.56692688E-07  8.93105790E-08  6.08892400E-07
 -3.05384352E-05 -1.20552828E-06  1.90518517E-05 -2.92283044E-06 -1.98070136E-06
  1.23542522E-05 -4.48325023E-07 -4.46902933E-07 -9.60799233E-08  5.08164082E-07
  1.09611390E-07  2.62797042E-06  3.07414438E-06  3.42202114E-07 -2.87719034E-06
 -3.96715964E-07  1.09704200E-05  3.22720699E-06 -5.22286861E-07 -1.20162149E-05
  2.78636845E-06 -5.63709031E-07  1.37754191E-07  7.53752387E-08  4.05272045E-07
 -1.20151195E-07 -2.16045949E-07 -1.21482185E-07  3.66726590E-07  2.78021286E-06
 -2.23402006E-07  7.36646110E-07  3.48350215E-07 -1.41140445E-06  3.46146272E-07
  9.99531779E-01  1.98404708E-03  2.13720066E-04 -4.25267013E-04 -1.69855744E-04
 -3.09688332E-05 -9.22287363E-06 -3.93030291E-07  3.44095954E-06 -2.53978643E-05
  1.61332786E-07  4.60052805E-06  1.11475851E-05  1.90740417E-07 -2.97675776E-06
  8.11044161E-05 -2.41900847E-06 -1.06234417E-05  5.69034889E-06  3.44478337E-07
 -1.15350127E-06 -6.63737534E-07 -3.00978988E-07 -8.88111699E-08  9.03622448E-07
 -1.60394916E-07 -1.51696353E-07 -9.76685798E-07  2.85069880E-07  1.38774426E-06
  4.47044363E-07  1.19564976E-05  6.58574500E-06 -4.63679750E-07 -2.27393921E-05
  7.51612761E-07 -6.15112911E-07  1.25608658E-06  1.14064503E-07  7.00508470E-07
 -1.12270607E-09 -1.99100876E-06  9.04525554E-08  1.56266887E-06 -3.69446930E-06
 -1.71063893E-07 -1.83630423E-06 -7.23291251E-08  5.38528845E-06 -2.49886217E-07
  1.15381556E-07  1.94613771E-06  4.80524295E-06 -1.54391498E-06 -4.25291432E-06
 -1.27442710E-05  1.19431013E-07 -4.30842086E-08 -2.60822523E-08  2.66500117E-06
 -8.85830690E-07 -1.45802425E-07 -4.04436643E-07  9.47390929E-08  9.99911898E-08
 -1.38883559E-05  4.87443563E-06  4.12899444E-07 -6.73113071E-07  3.17216041E-06
 -2.66765893E-06 -8.61332791E-08  1.32571754E-07 -6.35578373E-08  1.96259678E-07
 -5.08904658E-07 -7.29786651E-08 -3.78655485E-07  8.04483104E-08 -2.43750676E-07
  1.09654127E-06  3.93813598E-06  1.10036741E-07  1.61813428E-07 -4.39602443E-06
  5.20248574E-06 -3.98134244E-07 -1.49289147E-07  6.99837622E-08  1.26851141E-07
  6.72221306E-08  2.27566902E-08 -7.04861814E-07  8.22206926E-07  9.62110582E-07
 -3.34912870E-07 -4.11789602E-07  6.89144686E-08 -7.74392670E-08  2.13129181E-06
 -3.07935626E-07  3.60219066E-05  7.56620210E-05  5.79730955E-07 -2.44519825E-07
 -3.25190471E-07  1.08461816E-06  5.61654325E-06  2.10106524E-07 -1.66864569E-05
  9.35317906E-05  1.36462040E-05 -2.46475079E-05  1.08085585E-06  2.21947777E-06
  2.32637228E-07 -4.06689607E-07 -1.77835339E-08  5.37025035E-06  6.00137828E-06
 -1.32626240E-06 -1.17853684E-05 -1.37441033E-06  9.76810003E-01 -9.21975791E-03
  4.33853431E-02  1.74637113E-03  5.63382103E-04  7.92770758E-04  1.57678787E-03
  3.96563294E-04 -9.81375751E-04 -1.20546171E-03 -4.08590852E-04 -6.97339469E-05
  4.58121979E-04 -1.30260551E-04 -1.73463342E-04  2.03254638E-04 -4.97564670E-05
  4.30225549E-05  1.23819552E-05 -1.44353986E-06  9.91294243E-05  4.07895634E-05
  4.07329139E-04 -2.36235840E-04 -1.01455772E-05  4.21870626E-05  1.62606321E-04
 -1.79707284E-04 -2.70652626E-06 -2.02270238E-05 -9.26044150E-05 -1.21168677E-04
  7.19681209E-06  5.90750855E-06  1.88716054E-05 -2.64469523E-06 -4.84513159E-06
 -8.37848887E-06  9.20825500E-06  3.49635162E-05  9.67505236E-06  9.13986958E-06
 -6.28385192E-05 -1.97120915E-05 -9.45819285E-05 -4.87815501E-05  2.49022278E-07
  9.57444350E-06  2.44754439E-05  2.53157892E-05 -7.70704564E-04 -4.39426505E-04
  5.70284939E-06  3.57767699E-07 -3.12641656E-06  2.11523138E-04 -3.06465590E-06
 -3.44794150E-05 -2.33373422E-05 -1.67735666E-06  1.58158323E-05  5.08884218E-04
  5.47483457E-05 -3.51207875E-04  7.09864812E-05 -8.66275949E-06 -3.03528323E-05
  1.41443962E-05 -1.56042593E-05  4.42095442E-08 -1.31277038E-05  7.35474755E-06
  4.18437355E-06  9.91739610E-05 -1.60442988E-06 -4.86239567E-05 -2.03930954E-05
 -4.09095251E-06  2.37701820E-04  1.21521156E-05 -7.82581441E-05 -2.13541713E-05
 -1.05771562E-05 -2.15466647E-05 -1.30881462E-06  2.03771013E-05  5.15606295E-06
  1.45407003E-06 -4.74687447E-06  6.22212331E-05  8.87337872E-05 -1.70630053E-07
 -9.76162008E-05 -1.18176271E-05 -2.20822863E-05  1.98342892E-05  4.56365615E-06
  7.42516427E-05  8.69873031E-05 -2.89586978E-04  1.44082501E-04 -6.30712654E-04
 -2.52210562E-06 -1.10573052E-05 -1.57689126E-06  6.05735332E-05 -6.27586465E-04
 -2.51860046E-05 -4.21358486E-05  2.67962827E-04  6.99677478E-06  1.32364978E-04
  3.23031154E-04  6.36733958E-05 -1.37282057E-05  1.40896851E-04  3.25728432E-06
  1.56551712E-05 -4.33128475E-06 -9.93431043E-07  4.89213852E-06  6.63098210E-06
 -3.25287737E-04  9.95026799E-06  1.82862284E-05 -4.71976895E-04 -1.84549169E-04
  1.16085661E-04  1.17701634E-05 -4.73831754E-05  2.58423631E-04 -3.45472819E-05
  8.88230006E-06 -2.70203540E-05  1.63606757E-04  2.08009490E-06  5.33255710E-06
 -1.27986791E-04  1.91378685E-04 -1.62715237E-05 -4.66473690E-05  1.03913061E-04
  9.33039877E-06 -1.18613508E-05 -6.63362308E-05  5.77904426E-05  3.00684547E-04
  1.12216204E-03  1.01660585E-03  1.28353263E-04 -2.34674090E-04  4.28731349E-05
 -6.83519296E-05 -1.20802023E-03  2.63487334E-05 -1.90413681E-04  7.87830345E-04
 -1.77244850E-04  2.24667005E-04 -1.22650007E-05 -1.83284735E-06 -1.84116609E-05
  1.12412561E-05 -6.38306669E-05 -4.81866472E-04  3.67256896E-04  3.20847686E-06
  9.85205009E-04 -3.11437075E-05 -7.01776296E-05 -6.12681190E-05 -1.06075139E-04
  2.77016401E-03  2.41222719E-03 -2.51175504E-05  4.06517636E-05 -7.11406594E-06
 -4.65925941E-05  5.67560922E-04  4.07809847E-05 -5.62095093E-04  2.40813774E-03
  6.97856961E-05 -2.42462966E-04  9.12498329E-04 -3.73695257E-05 -2.37178262E-05
 -4.86084742E-06 -3.23438573E-06 -4.42513859E-05 -3.35337380E-05 -2.01480816E-04
  3.51011241E-05  2.58946931E-05 -2.50159205E-04 -5.12582425E-05 -2.67404135E-04
 -2.88813961E-05  4.73025886E-05 -7.56299307E-04  7.03649821E-05 -1.65346115E-06
  4.85113493E-06 -2.14781286E-05  8.81889636E-06 -2.82350933E-06  5.02000681E-05
 -3.95436507E-05 -9.91818997E-06  2.16854454E-06 -5.18914614E-05 -1.38208922E-05