 Entering Gaussian System, Link 0=g16
 Input=ihod_oop_50_sp.gjf
 Output=ihod_oop_50_sp.log
 Initial command:
 /sw/contrib/gaussian/g16/B01/g16/l1.exe "/scr/Gau-239246.inp" -scrdir="/scr/"
 Entering Link 1 = /sw/contrib/gaussian/g16/B01/g16/l1.exe PID=    239247.
  
 Copyright (c) 1988-2017, Gaussian, Inc.  All Rights Reserved.
  
 This is part of the Gaussian(R) 16 program.  It is based on
 the Gaussian(R) 09 system (copyright 2009, Gaussian, Inc.),
 the Gaussian(R) 03 system (copyright 2003, Gaussian, Inc.),
 the Gaussian(R) 98 system (copyright 1998, Gaussian, Inc.),
 the Gaussian(R) 94 system (copyright 1995, Gaussian, Inc.),
 the Gaussian 92(TM) system (copyright 1992, Gaussian, Inc.),
 the Gaussian 90(TM) system (copyright 1990, Gaussian, Inc.),
 the Gaussian 88(TM) system (copyright 1988, Gaussian, Inc.),
 the Gaussian 86(TM) system (copyright 1986, Carnegie Mellon
 University), and the Gaussian 82(TM) system (copyright 1983,
 Carnegie Mellon University). Gaussian is a federally registered
 trademark of Gaussian, Inc.
  
 This software contains proprietary and confidential information,
 including trade secrets, belonging to Gaussian, Inc.
  
 This software is provided under written license and may be
 used, copied, transmitted, or stored only in accord with that
 written license.
  
 The following legend is applicable only to US Government
 contracts under FAR:
  
                    RESTRICTED RIGHTS LEGEND
  
 Use, reproduction and disclosure by the US Government is
 subject to restrictions as set forth in subparagraphs (a)
 and (c) of the Commercial Computer Software - Restricted
 Rights clause in FAR 52.227-19.
  
 Gaussian, Inc.
 340 Quinnipiac St., Bldg. 40, Wallingford CT 06492
  
  
 ---------------------------------------------------------------
 Warning -- This program may not be used in any manner that
 competes with the business of Gaussian, Inc. or will provide
 assistance to any competitor of Gaussian, Inc.  The licensee
 of this program is prohibited from giving any competitor of
 Gaussian, Inc. access to this program.  By using this program,
 the user acknowledges that Gaussian, Inc. is engaged in the
 business of creating and licensing software in the field of
 computational chemistry and represents and warrants to the
 licensee that it is not a competitor of Gaussian, Inc. and that
 it will not use this program in any manner prohibited above.
 ---------------------------------------------------------------
  

 Cite this work as:
 Gaussian 16, Revision B.01,
 M. J. Frisch, G. W. Trucks, H. B. Schlegel, G. E. Scuseria, 
 M. A. Robb, J. R. Cheeseman, G. Scalmani, V. Barone, 
 G. A. Petersson, H. Nakatsuji, X. Li, M. Caricato, A. V. Marenich, 
 J. Bloino, B. G. Janesko, R. Gomperts, B. Mennucci, H. P. Hratchian, 
 J. V. Ortiz, A. F. Izmaylov, J. L. Sonnenberg, D. Williams-Young, 
 F. Ding, F. Lipparini, F. Egidi, J. Goings, B. Peng, A. Petrone, 
 T. Henderson, D. Ranasinghe, V. G. Zakrzewski, J. Gao, N. Rega, 
 G. Zheng, W. Liang, M. Hada, M. Ehara, K. Toyota, R. Fukuda, 
 J. Hasegawa, M. Ishida, T. Nakajima, Y. Honda, O. Kitao, H. Nakai, 
 T. Vreven, K. Throssell, J. A. Montgomery, Jr., J. E. Peralta, 
 F. Ogliaro, M. J. Bearpark, J. J. Heyd, E. N. Brothers, K. N. Kudin, 
 V. N. Staroverov, T. A. Keith, R. Kobayashi, J. Normand, 
 K. Raghavachari, A. P. Rendell, J. C. Burant, S. S. Iyengar, 
 J. Tomasi, M. Cossi, J. M. Millam, M. Klene, C. Adamo, R. Cammi, 
 J. W. Ochterski, R. L. Martin, K. Morokuma, O. Farkas, 
 J. B. Foresman, and D. J. Fox, Gaussian, Inc., Wallingford CT, 2016.
 
 ******************************************
 Gaussian 16:  ES64L-G16RevB.01 20-Dec-2017
                19-Oct-2021 
 ******************************************
 %nproc=28
 Will use up to   28 processors via shared memory.
 %mem=120GB
 %chk=/gscratch/ilahie/mccoygrp/coire_hocl/oop_s_rOH_opt/ihod/ihod_oop_50.chk
 --------------------------------------------------------
 #p pop=NBO SP NoSymm mp2/gen Pseudo=read density=current
 --------------------------------------------------------
 1/30=1,38=1,172=1/1;
 2/12=2,15=1,17=6,18=5,40=1/2;
 3/5=7,11=9,16=1,17=8,25=1,30=1,71=1/1,2,3;
 4//1;
 5/5=2,38=5/2;
 8/6=4,10=1/1;
 9/15=1,16=-3/6;
 10/5=1,13=10,31=1/2;
 6/7=2,8=2,9=2,10=2,22=-1,40=1/1,7;
 99/5=1,9=1/99;
 Leave Link    1 at Tue Oct 19 17:08:43 2021, MaxMem= 16106127360 cpu:               2.3 elap:               0.1
 (Enter /sw/contrib/gaussian/g16/B01/g16/l101.exe)
 -----
 title
 -----
 Symbolic Z-matrix:
 Charge = -1 Multiplicity = 1
 O
 X                    1     10. 
 H(iso=2)             1    r1       2     90. 
 I                    1    r2       2     90.      3    a1       0
 H                    1    r3       2    oop      3    a1       0
       Variables:
  r1                    0.96091                  
  r2                    3.5085                   
  r3                    0.96953                  
  a1                  101.85831                  
  OOP                  40.                       
 
 ITRead=  0  0  0  0
 MicOpt= -1 -1 -1 -1
 NAtoms=      4 NQM=        4 NQMF=       0 NMMI=      0 NMMIF=      0
                NMic=       0 NMicF=      0.
                    Isotopes and Nuclear Properties:
 (Nuclear quadrupole moments (NQMom) in fm**2, nuclear magnetic moments (NMagM)
  in nuclear magnetons)

  Atom         1           2           3           4
 IAtWgt=          16           2         127           1
 AtmWgt=  15.9949146   2.0141018 126.9004000   1.0078250
 NucSpn=           0           2           5           1
 AtZEff=  -0.0000000  -0.0000000  -0.0000000  -0.0000000
 NQMom=    0.0000000   0.2860000 -71.0000000   0.0000000
 NMagM=    0.0000000   0.8574380   2.8132800   2.7928460
 AtZNuc=   8.0000000   1.0000000  53.0000000   1.0000000
 Leave Link  101 at Tue Oct 19 17:08:44 2021, MaxMem= 16106127360 cpu:               2.5 elap:               0.1
 (Enter /sw/contrib/gaussian/g16/B01/g16/l202.exe)
                          Input orientation:                          
 ---------------------------------------------------------------------
 Center     Atomic      Atomic             Coordinates (Angstroms)
 Number     Number       Type             X           Y           Z
 ---------------------------------------------------------------------
      1          8           0        0.000000    0.000000    0.000000
      2          1           0        0.960908    0.000000    0.000000
      3         53           0       -0.720970   -3.433628    0.000000
      4          1           0       -0.128063   -0.609902    0.742703
 ---------------------------------------------------------------------
                    Distance matrix (angstroms):
                    1          2          3          4
     1  O    0.000000
     2  H    0.960908   0.000000
     3  I    3.508504   3.823416   0.000000
     4  H    0.969530   1.452393   2.979358   0.000000
 Symmetry turned off by external request.
 Stoichiometry    H2IO(1-)
 Framework group  C1[X(H2IO)]
 Deg. of freedom     6
 Full point group                 C1      NOp   1
 Rotational constants (GHZ):         240.2143935           2.4848782           2.4722291
 Leave Link  202 at Tue Oct 19 17:08:44 2021, MaxMem= 16106127360 cpu:               0.8 elap:               0.1
 (Enter /sw/contrib/gaussian/g16/B01/g16/l301.exe)
 General basis read from cards:  (5D, 7F)
 Centers:       2      4      1      2      4
 aug-cc-pVTZ
 ****
 Centers:       3
 S 11 1.00
     Exponent=  5.5465000000D+03 Coefficients=  1.5600000000D-04
     Exponent=  8.3821400000D+02 Coefficients=  9.8600000000D-04
     Exponent=  1.8218700000D+02 Coefficients=  2.7920000000D-03
     Exponent=  3.1212300000D+01 Coefficients= -4.3251000000D-02
     Exponent=  1.9531400000D+01 Coefficients=  2.3413400000D-01
     Exponent=  8.2409900000D+00 Coefficients= -7.5094300000D-01
     Exponent=  2.1945500000D+00 Coefficients=  8.8296800000D-01
     Exponent=  1.1091100000D+00 Coefficients=  4.6206100000D-01
     Exponent=  3.7464100000D-01 Coefficients=  2.2286000000D-02
     Exponent=  1.7708000000D-01 Coefficients= -4.3530000000D-03
     Exponent=  8.1061000000D-02 Coefficients=  1.1020000000D-03
 S 11 1.00
     Exponent=  5.5465000000D+03 Coefficients= -7.3000000000D-05
     Exponent=  8.3821400000D+02 Coefficients= -5.0800000000D-04
     Exponent=  1.8218700000D+02 Coefficients= -1.1580000000D-03
     Exponent=  3.1212300000D+01 Coefficients=  1.2193000000D-02
     Exponent=  1.9531400000D+01 Coefficients= -8.7854000000D-02
     Exponent=  8.2409900000D+00 Coefficients=  3.3820000000D-01
     Exponent=  2.1945500000D+00 Coefficients= -5.7655000000D-01
     Exponent=  1.1091100000D+00 Coefficients= -4.0929800000D-01
     Exponent=  3.7464100000D-01 Coefficients=  5.6745900000D-01
     Exponent=  1.7708000000D-01 Coefficients=  6.1248900000D-01
     Exponent=  8.1061000000D-02 Coefficients=  1.4323100000D-01
 S 1 1.00
     Exponent=  3.7464100000D-01 Coefficients=  1.0000000000D+00
 S 1 1.00
     Exponent=  1.7708000000D-01 Coefficients=  1.0000000000D+00
 S 1 1.00
     Exponent=  1.0010000000D-01 Coefficients=  1.0000000000D+00
 S 1 1.00
     Exponent=  4.1200000000D-02 Coefficients=  1.0000000000D+00
 P 9 1.00
     Exponent=  1.8898800000D+02 Coefficients=  5.8500000000D-04
     Exponent=  2.1286800000D+01 Coefficients=  3.6923000000D-02
     Exponent=  1.0039600000D+01 Coefficients= -2.3532400000D-01
     Exponent=  3.4518000000D+00 Coefficients=  3.4148300000D-01
     Exponent=  1.9745600000D+00 Coefficients=  5.3478800000D-01
     Exponent=  1.0242000000D+00 Coefficients=  2.6514100000D-01
     Exponent=  4.4943700000D-01 Coefficients=  2.5787000000D-02
     Exponent=  1.8664800000D-01 Coefficients=  5.2200000000D-04
     Exponent=  7.3481000000D-02 Coefficients=  6.0600000000D-04
 P 9 1.00
     Exponent=  1.8898800000D+02 Coefficients= -2.5600000000D-04
     Exponent=  2.1286800000D+01 Coefficients= -1.1682000000D-02
     Exponent=  1.0039600000D+01 Coefficients=  8.3192000000D-02
     Exponent=  3.4518000000D+00 Coefficients= -1.5697000000D-01
     Exponent=  1.9745600000D+00 Coefficients= -2.2451800000D-01
     Exponent=  1.0242000000D+00 Coefficients= -1.1445100000D-01
     Exponent=  4.4943700000D-01 Coefficients=  3.7535600000D-01
     Exponent=  1.8664800000D-01 Coefficients=  5.7513600000D-01
     Exponent=  7.3481000000D-02 Coefficients=  2.4591700000D-01
 P 1 1.00
     Exponent=  5.9810000000D-01 Coefficients=  1.0000000000D+00
 P 1 1.00
     Exponent=  9.6180000000D-02 Coefficients=  1.0000000000D+00
 P 1 1.00
     Exponent=  3.5900000000D-02 Coefficients=  1.0000000000D+00
 D 9 1.00
     Exponent=  1.3266200000D+02 Coefficients=  5.7200000000D-04
     Exponent=  3.7605400000D+01 Coefficients=  4.4020000000D-03
     Exponent=  1.0389100000D+01 Coefficients= -4.0922000000D-02
     Exponent=  6.4901700000D+00 Coefficients=  9.9661000000D-02
     Exponent=  3.4545100000D+00 Coefficients=  3.2266300000D-01
     Exponent=  1.8441300000D+00 Coefficients=  4.0034300000D-01
     Exponent=  9.6247800000D-01 Coefficients=  2.6830600000D-01
     Exponent=  4.7285300000D-01 Coefficients=  8.4847000000D-02
     Exponent=  1.9320000000D-01 Coefficients=  7.6320000000D-03
 D 1 1.00
     Exponent=  4.7285300000D-01 Coefficients=  1.0000000000D+00
 D 1 1.00
     Exponent=  1.9320000000D-01 Coefficients=  1.0000000000D+00
 D 1 1.00
     Exponent=  7.8200000000D-02 Coefficients=  1.0000000000D+00
 F 1 1.00
     Exponent=  4.0640000000D-01 Coefficients=  1.0000000000D+00
 F 1 1.00
     Exponent=  1.8480000000D-01 Coefficients=  1.0000000000D+00
 ****
 ======================================================================================================
                                       Pseudopotential Parameters
 ======================================================================================================
  Center     Atomic      Valence      Angular      Power
  Number     Number     Electrons     Momentum     of R      Exponent        Coefficient   SO-Coeffient
 ======================================================================================================
    1          8
                                   No pseudopotential on this center.
    2          1
                                   No pseudopotential on this center.
    3         53           25
                                      G and up 
                                                     2        1.0000000        0.00000000    0.00000000
                                      S - G
                                                     2       40.0333760       49.98964900    0.00000000
                                                     2       17.3005760      281.00655600    0.00000000
                                                     2        8.8517200       61.41673900    0.00000000
                                      P - G
                                                     2       15.7201410       67.41623900    0.00000000
                                                     2       15.2082220      134.80769600    0.00000000
                                                     2        8.2941860       14.56654800    0.00000000
                                                     2        7.7539490       28.96842200    0.00000000
                                      D - G
                                                     2       13.8177510       35.53875600    0.00000000
                                                     2       13.5878050       53.33975900    0.00000000
                                                     2        6.9476300        9.71646600    0.00000000
                                                     2        6.9600990       14.97750000    0.00000000
                                      F - G
                                                     2       18.5229500      -20.17661800    0.00000000
                                                     2       18.2510350      -26.08807700    0.00000000
                                                     2        7.5579010       -0.22043400    0.00000000
                                                     2        7.5974040       -0.22164600    0.00000000
    4          1
                                   No pseudopotential on this center.
 ======================================================================================================
 Ernie: Thresh=  0.10000D-02 Tol=  0.10000D-05 Strict=F.
 Ernie:  16 primitive shells out of 135 were deleted.
   191 basis functions,   344 primitive gaussians,   218 cartesian basis functions
    18 alpha electrons       18 beta electrons
       nuclear repulsion energy        47.2023345128 Hartrees.
 IExCor=    0 DFT=F Ex=HF Corr=None ExCW=0 ScaHFX=  1.000000
 ScaDFX=  1.000000  1.000000  1.000000  1.000000 ScalE2=  1.000000  1.000000
 IRadAn=      5 IRanWt=     -1 IRanGd=            0 ICorTp=0 IEmpDi=  4
 NAtoms=    4 NActive=    4 NUniq=    4 SFac= 1.00D+00 NAtFMM=   60 NAOKFM=F Big=F
 Integral buffers will be    131072 words long.
 Raffenetti 1 integral format.
 Two-electron integral symmetry is turned off.
 Leave Link  301 at Tue Oct 19 17:08:44 2021, MaxMem= 16106127360 cpu:               4.6 elap:               0.2
 (Enter /sw/contrib/gaussian/g16/B01/g16/l302.exe)
 NPDir=0 NMtPBC=     1 NCelOv=     1 NCel=       1 NClECP=     1 NCelD=      1
         NCelK=      1 NCelE2=     1 NClLst=     1 CellRange=     0.0.
 One-electron integrals computed using PRISM.
   1 Symmetry operations used in ECPInt.
 ECPInt:  NShTT=    2145 NPrTT=    7341 LenC2=    2146 LenP2D=    6682.
 LDataN:  DoStor=T MaxTD1= 7 Len=  274
 NBasis=   191 RedAO= T EigKep=  4.28D-04  NBF=   191
 NBsUse=   147 1.00D-06 EigRej=  8.93D-16 NBFU=   147
 Leave Link  302 at Tue Oct 19 17:08:44 2021, MaxMem= 16106127360 cpu:               6.4 elap:               0.3
 (Enter /sw/contrib/gaussian/g16/B01/g16/l303.exe)
 DipDrv:  MaxL=1.
 Leave Link  303 at Tue Oct 19 17:08:44 2021, MaxMem= 16106127360 cpu:               2.5 elap:               0.1
 (Enter /sw/contrib/gaussian/g16/B01/g16/l401.exe)
 ExpMin= 2.53D-02 ExpMax= 1.53D+04 ExpMxC= 5.22D+02 IAcc=3 IRadAn=         5 AccDes= 0.00D+00
 Harris functional with IExCor=  205 and IRadAn=       5 diagonalized for initial guess.
 HarFok:  IExCor=  205 AccDes= 0.00D+00 IRadAn=         5 IDoV= 1 UseB2=F ITyADJ=14
 ICtDFT=  3500011 ScaDFX=  1.000000  1.000000  1.000000  1.000000
 Defaulting to unpruned grid for atomic number  53.
 FoFCou: FMM=F IPFlag=           0 FMFlag=      100000 FMFlg1=           0
         NFxFlg=           0 DoJE=T BraDBF=F KetDBF=T FulRan=T
         wScrn=  0.000000 ICntrl=       500 IOpCl=  0 I1Cent=   200000004 NGrid=           0
         NMat0=    1 NMatS0=      1 NMatT0=    0 NMatD0=    1 NMtDS0=    0 NMtDT0=    0
 Symmetry not used in FoFCou.
 Harris En= -372.674567148365    
 JPrj=0 DoOrth=F DoCkMO=F.
 Leave Link  401 at Tue Oct 19 17:08:44 2021, MaxMem= 16106127360 cpu:               6.2 elap:               0.3
 (Enter /sw/contrib/gaussian/g16/B01/g16/l502.exe)
 Keep R1 ints in memory in canonical form, NReq=226099726.
 FoFCou: FMM=F IPFlag=           0 FMFlag=           0 FMFlg1=           0
         NFxFlg=           0 DoJE=F BraDBF=F KetDBF=F FulRan=T
         wScrn=  0.000000 ICntrl=       600 IOpCl=  0 I1Cent=           0 NGrid=           0
         NMat0=    1 NMatS0=  18336 NMatT0=    0 NMatD0=    1 NMtDS0=    0 NMtDT0=    0
 Symmetry not used in FoFCou.
 Two-electron integral symmetry not used.
 Closed shell SCF:
 Using DIIS extrapolation, IDIIS=  1040.
 NGot= 16106127360 LenX= 15937911228 LenY= 15937863263
 Requested convergence on RMS density matrix=1.00D-08 within 128 cycles.
 Requested convergence on MAX density matrix=1.00D-06.
 Requested convergence on             energy=1.00D-06.
 No special actions if energy rises.

 Cycle   1  Pass 1  IDiag  1:
 E= -370.645328106044    
 DIIS: error= 4.48D-02 at cycle   1 NSaved=   1.
 NSaved= 1 IEnMin= 1 EnMin= -370.645328106044     IErMin= 1 ErrMin= 4.48D-02
 ErrMax= 4.48D-02  0.00D+00 EMaxC= 1.00D-01 BMatC= 3.64D-01 BMatP= 3.64D-01
 IDIUse=3 WtCom= 5.52D-01 WtEn= 4.48D-01
 Coeff-Com:  0.100D+01
 Coeff-En:   0.100D+01
 Coeff:      0.100D+01
 Gap=     0.363 Goal=   None    Shift=    0.000
 GapD=    0.363 DampG=1.000 DampE=0.500 DampFc=0.5000 IDamp=-1.
 Damping current iteration by 5.00D-01
 RMSDP=3.23D-03 MaxDP=9.50D-02              OVMax= 1.24D-01

 Cycle   2  Pass 1  IDiag  1:
 E= -370.728869585682     Delta-E=       -0.083541479638 Rises=F Damp=T
 DIIS: error= 1.29D-02 at cycle   2 NSaved=   2.
 NSaved= 2 IEnMin= 2 EnMin= -370.728869585682     IErMin= 2 ErrMin= 1.29D-02
 ErrMax= 1.29D-02  0.00D+00 EMaxC= 1.00D-01 BMatC= 5.74D-02 BMatP= 3.64D-01
 IDIUse=3 WtCom= 8.71D-01 WtEn= 1.29D-01
 Coeff-Com: -0.461D+00 0.146D+01
 Coeff-En:   0.000D+00 0.100D+01
 Coeff:     -0.401D+00 0.140D+01
 Gap=     0.247 Goal=   None    Shift=    0.000
 RMSDP=1.56D-03 MaxDP=7.61D-02 DE=-8.35D-02 OVMax= 6.44D-02

 Cycle   3  Pass 1  IDiag  1:
 E= -370.804134547466     Delta-E=       -0.075264961783 Rises=F Damp=F
 DIIS: error= 5.36D-03 at cycle   3 NSaved=   3.
 NSaved= 3 IEnMin= 3 EnMin= -370.804134547466     IErMin= 3 ErrMin= 5.36D-03
 ErrMax= 5.36D-03  0.00D+00 EMaxC= 1.00D-01 BMatC= 2.35D-03 BMatP= 5.74D-02
 IDIUse=3 WtCom= 9.46D-01 WtEn= 5.36D-02
 Coeff-Com: -0.142D+00 0.287D+00 0.855D+00
 Coeff-En:   0.000D+00 0.000D+00 0.100D+01
 Coeff:     -0.134D+00 0.271D+00 0.863D+00
 Gap=     0.258 Goal=   None    Shift=    0.000
 RMSDP=3.72D-04 MaxDP=1.57D-02 DE=-7.53D-02 OVMax= 1.19D-02

 Cycle   4  Pass 1  IDiag  1:
 E= -370.805692912305     Delta-E=       -0.001558364839 Rises=F Damp=F
 DIIS: error= 9.44D-04 at cycle   4 NSaved=   4.
 NSaved= 4 IEnMin= 4 EnMin= -370.805692912305     IErMin= 4 ErrMin= 9.44D-04
 ErrMax= 9.44D-04  0.00D+00 EMaxC= 1.00D-01 BMatC= 5.16D-05 BMatP= 2.35D-03
 IDIUse=3 WtCom= 9.91D-01 WtEn= 9.44D-03
 Coeff-Com:  0.520D-02-0.239D-01 0.700D-01 0.949D+00
 Coeff-En:   0.000D+00 0.000D+00 0.000D+00 0.100D+01
 Coeff:      0.515D-02-0.237D-01 0.693D-01 0.949D+00
 Gap=     0.261 Goal=   None    Shift=    0.000
 RMSDP=1.03D-04 MaxDP=6.00D-03 DE=-1.56D-03 OVMax= 2.55D-03

 Cycle   5  Pass 1  IDiag  1:
 E= -370.805749029312     Delta-E=       -0.000056117007 Rises=F Damp=F
 DIIS: error= 1.46D-04 at cycle   5 NSaved=   5.
 NSaved= 5 IEnMin= 5 EnMin= -370.805749029312     IErMin= 5 ErrMin= 1.46D-04
 ErrMax= 1.46D-04  0.00D+00 EMaxC= 1.00D-01 BMatC= 4.13D-06 BMatP= 5.16D-05
 IDIUse=3 WtCom= 9.99D-01 WtEn= 1.46D-03
 Coeff-Com:  0.102D-01-0.182D-01-0.602D-01 0.198D-01 0.105D+01
 Coeff-En:   0.000D+00 0.000D+00 0.000D+00 0.000D+00 0.100D+01
 Coeff:      0.102D-01-0.182D-01-0.601D-01 0.197D-01 0.105D+01
 Gap=     0.261 Goal=   None    Shift=    0.000
 RMSDP=3.81D-05 MaxDP=1.56D-03 DE=-5.61D-05 OVMax= 1.03D-03

 Cycle   6  Pass 1  IDiag  1:
 E= -370.805756858354     Delta-E=       -0.000007829042 Rises=F Damp=F
 DIIS: error= 7.53D-05 at cycle   6 NSaved=   6.
 NSaved= 6 IEnMin= 6 EnMin= -370.805756858354     IErMin= 6 ErrMin= 7.53D-05
 ErrMax= 7.53D-05  0.00D+00 EMaxC= 1.00D-01 BMatC= 3.21D-07 BMatP= 4.13D-06
 IDIUse=1 WtCom= 1.00D+00 WtEn= 0.00D+00
 Coeff-Com: -0.359D-02 0.737D-02 0.113D-01-0.989D-01-0.189D+00 0.127D+01
 Coeff:     -0.359D-02 0.737D-02 0.113D-01-0.989D-01-0.189D+00 0.127D+01
 Gap=     0.261 Goal=   None    Shift=    0.000
 RMSDP=1.00D-05 MaxDP=5.82D-04 DE=-7.83D-06 OVMax= 4.76D-04

 Cycle   7  Pass 1  IDiag  1:
 E= -370.805757774035     Delta-E=       -0.000000915682 Rises=F Damp=F
 DIIS: error= 1.32D-05 at cycle   7 NSaved=   7.
 NSaved= 7 IEnMin= 7 EnMin= -370.805757774035     IErMin= 7 ErrMin= 1.32D-05
 ErrMax= 1.32D-05  0.00D+00 EMaxC= 1.00D-01 BMatC= 1.00D-08 BMatP= 3.21D-07
 IDIUse=1 WtCom= 1.00D+00 WtEn= 0.00D+00
 Coeff-Com:  0.378D-03-0.886D-03 0.376D-04 0.229D-01-0.179D-01-0.268D+00
 Coeff-Com:  0.126D+01
 Coeff:      0.378D-03-0.886D-03 0.376D-04 0.229D-01-0.179D-01-0.268D+00
 Coeff:      0.126D+01
 Gap=     0.261 Goal=   None    Shift=    0.000
 RMSDP=2.31D-06 MaxDP=1.05D-04 DE=-9.16D-07 OVMax= 1.07D-04

 Cycle   8  Pass 1  IDiag  1:
 E= -370.805757808291     Delta-E=       -0.000000034256 Rises=F Damp=F
 DIIS: error= 1.78D-06 at cycle   8 NSaved=   8.
 NSaved= 8 IEnMin= 8 EnMin= -370.805757808291     IErMin= 8 ErrMin= 1.78D-06
 ErrMax= 1.78D-06  0.00D+00 EMaxC= 1.00D-01 BMatC= 3.70D-10 BMatP= 1.00D-08
 IDIUse=1 WtCom= 1.00D+00 WtEn= 0.00D+00
 Coeff-Com:  0.133D-03-0.269D-03-0.433D-03 0.344D-02 0.828D-02-0.411D-01
 Coeff-Com: -0.369D-01 0.107D+01
 Coeff:      0.133D-03-0.269D-03-0.433D-03 0.344D-02 0.828D-02-0.411D-01
 Coeff:     -0.369D-01 0.107D+01
 Gap=     0.261 Goal=   None    Shift=    0.000
 RMSDP=5.11D-07 MaxDP=3.00D-05 DE=-3.43D-08 OVMax= 1.68D-05

 Cycle   9  Pass 1  IDiag  1:
 E= -370.805757809347     Delta-E=       -0.000000001056 Rises=F Damp=F
 DIIS: error= 5.34D-07 at cycle   9 NSaved=   9.
 NSaved= 9 IEnMin= 9 EnMin= -370.805757809347     IErMin= 9 ErrMin= 5.34D-07
 ErrMax= 5.34D-07  0.00D+00 EMaxC= 1.00D-01 BMatC= 3.66D-11 BMatP= 3.70D-10
 IDIUse=1 WtCom= 1.00D+00 WtEn= 0.00D+00
 Coeff-Com: -0.333D-04 0.777D-04-0.878D-05-0.193D-02 0.157D-02 0.213D-01
 Coeff-Com: -0.961D-01-0.727D-01 0.115D+01
 Coeff:     -0.333D-04 0.777D-04-0.878D-05-0.193D-02 0.157D-02 0.213D-01
 Coeff:     -0.961D-01-0.727D-01 0.115D+01
 Gap=     0.261 Goal=   None    Shift=    0.000
 RMSDP=1.46D-07 MaxDP=7.61D-06 DE=-1.06D-09 OVMax= 6.26D-06

 Cycle  10  Pass 1  IDiag  1:
 E= -370.805757809463     Delta-E=       -0.000000000116 Rises=F Damp=F
 DIIS: error= 9.50D-08 at cycle  10 NSaved=  10.
 NSaved=10 IEnMin=10 EnMin= -370.805757809463     IErMin=10 ErrMin= 9.50D-08
 ErrMax= 9.50D-08  0.00D+00 EMaxC= 1.00D-01 BMatC= 2.28D-12 BMatP= 3.66D-11
 IDIUse=1 WtCom= 1.00D+00 WtEn= 0.00D+00
 Coeff-Com: -0.872D-05 0.171D-04 0.273D-04-0.207D-03-0.609D-03 0.248D-02
 Coeff-Com:  0.452D-02-0.752D-01 0.148D-01 0.105D+01
 Coeff:     -0.872D-05 0.171D-04 0.273D-04-0.207D-03-0.609D-03 0.248D-02
 Coeff:      0.452D-02-0.752D-01 0.148D-01 0.105D+01
 Gap=     0.261 Goal=   None    Shift=    0.000
 RMSDP=2.88D-08 MaxDP=7.79D-07 DE=-1.16D-10 OVMax= 1.32D-06

 Cycle  11  Pass 1  IDiag  1:
 E= -370.805757809470     Delta-E=       -0.000000000007 Rises=F Damp=F
 DIIS: error= 2.95D-08 at cycle  11 NSaved=  11.
 NSaved=11 IEnMin=11 EnMin= -370.805757809470     IErMin=11 ErrMin= 2.95D-08
 ErrMax= 2.95D-08  0.00D+00 EMaxC= 1.00D-01 BMatC= 1.57D-13 BMatP= 2.28D-12
 IDIUse=1 WtCom= 1.00D+00 WtEn= 0.00D+00
 Coeff-Com:  0.367D-05-0.812D-05-0.265D-05 0.169D-03-0.341D-04-0.177D-02
 Coeff-Com:  0.550D-02 0.164D-01-0.817D-01-0.184D+00 0.125D+01
 Coeff:      0.367D-05-0.812D-05-0.265D-05 0.169D-03-0.341D-04-0.177D-02
 Coeff:      0.550D-02 0.164D-01-0.817D-01-0.184D+00 0.125D+01
 Gap=     0.261 Goal=   None    Shift=    0.000
 RMSDP=1.23D-08 MaxDP=7.16D-07 DE=-7.05D-12 OVMax= 4.84D-07

 Cycle  12  Pass 1  IDiag  1:
 E= -370.805757809469     Delta-E=        0.000000000001 Rises=F Damp=F
 DIIS: error= 5.75D-09 at cycle  12 NSaved=  12.
 NSaved=12 IEnMin=11 EnMin= -370.805757809470     IErMin=12 ErrMin= 5.75D-09
 ErrMax= 5.75D-09  0.00D+00 EMaxC= 1.00D-01 BMatC= 7.88D-15 BMatP= 1.57D-13
 IDIUse=1 WtCom= 1.00D+00 WtEn= 0.00D+00
 Coeff-Com: -0.694D-06 0.169D-05-0.413D-06-0.436D-04 0.471D-04 0.408D-03
 Coeff-Com: -0.184D-02-0.127D-02 0.252D-01 0.226D-02-0.372D+00 0.135D+01
 Coeff:     -0.694D-06 0.169D-05-0.413D-06-0.436D-04 0.471D-04 0.408D-03
 Coeff:     -0.184D-02-0.127D-02 0.252D-01 0.226D-02-0.372D+00 0.135D+01
 Gap=     0.261 Goal=   None    Shift=    0.000
 RMSDP=2.64D-09 MaxDP=1.53D-07 DE= 9.66D-13 OVMax= 8.25D-08

 SCF Done:  E(RHF) =  -370.805757809     A.U. after   12 cycles
            NFock= 12  Conv=0.26D-08     -V/T= 2.9845
 KE= 1.868521068182D+02 PE=-9.082017764820D+02 EE= 3.033415773415D+02
 Leave Link  502 at Tue Oct 19 17:08:49 2021, MaxMem= 16106127360 cpu:              32.4 elap:               4.2
 (Enter /sw/contrib/gaussian/g16/B01/g16/l801.exe)
 ExpMin= 2.53D-02 ExpMax= 1.53D+04 ExpMxC= 5.22D+02 IAcc=3 IRadAn=         5 AccDes= 0.00D+00
 HarFok:  IExCor=  205 AccDes= 0.00D+00 IRadAn=         5 IDoV=-2 UseB2=F ITyADJ=14
 ICtDFT= 12500011 ScaDFX=  1.000000  1.000000  1.000000  1.000000
 Defaulting to unpruned grid for atomic number  53.
 Largest valence mixing into a core orbital is  1.30D-04
 Largest core mixing into a valence orbital is  2.12D-05
 Range of M.O.s used for correlation:     6   147
 NBasis=   191 NAE=    18 NBE=    18 NFC=     5 NFV=     0
 NROrb=    142 NOA=    13 NOB=    13 NVA=   129 NVB=   129

 **** Warning!!: The largest alpha MO coefficient is  0.12180412D+02

 Leave Link  801 at Tue Oct 19 17:08:49 2021, MaxMem= 16106127360 cpu:               1.4 elap:               0.1
 (Enter /sw/contrib/gaussian/g16/B01/g16/l906.exe)
 Frozen-core derivative calculation, NFC=   5 NFV=   0.
 FulOut=F Deriv=T AODrv=F NAtomX=     4
   MMem=         107  MDisk=          13 MDiskD=          13
  W3Min=      576828 MinDsk=     1313419 NBas6D=         218
 NBas2D=       24339    NTT=       23871    LW2=    26219120
    MDV= 16105788697 MDiskM=      369352 NBas2p=       24339
 Fully in-core method, ICMem=   673638917.
 IMap=   1   2   3   4   5   6   7   8   9  10  11  12  13  14  15  16  17  18
 JobTyp=1 Pass  1 fully in-core, NPsUse= 28.
 Compute canonical integrals.
 FoFCou: FMM=F IPFlag=           0 FMFlag=           0 FMFlg1=           0
         NFxFlg=           0 DoJE=F BraDBF=F KetDBF=F FulRan=T
         wScrn=  0.000000 ICntrl=       600 IOpCl=  1 I1Cent=           0 NGrid=           0
         NMat0=    1 NMatS0=  24339 NMatT0=    0 NMatD0=    1 NMtDS0=    0 NMtDT0=    0
 Symmetry not used in FoFCou.
 Spin components of T(2) and E(2):
     alpha-alpha T2 =       0.2151082325D-01 E2=     -0.6685490987D-01
     alpha-beta  T2 =       0.1130705571D+00 E2=     -0.3604010339D+00
     beta-beta   T2 =       0.2151082325D-01 E2=     -0.6685490987D-01
 The integrals were generated   1 times.
 ANorm=    0.1075217282D+01
 E2 =    -0.4941108536D+00 EUMP2 =    -0.37129986866312D+03
 Leave Link  906 at Tue Oct 19 17:08:53 2021, MaxMem= 16106127360 cpu:             132.3 elap:               4.8
 (Enter /sw/contrib/gaussian/g16/B01/g16/l1002.exe)
 Minotr:  Closed shell wavefunction.
          Computing MP2/KS-MP2 derivatives.
          Using Z-Vector for PSCF gradient.
          Skipping F1 and S1 gradient terms here.
          Frozen-core window.
          Direct CPHF calculation.
          Differentiating once with respect to electric field.
                with respect to dipole field.
          Electric field/nuclear overlap derivatives assumed to be zero.
          Requested convergence is 1.0D-10 RMS, and 1.0D-09 maximum.
          NewPWx=F KeepS1=T KeepF1=T KeepIn=T MapXYZ=F SortEE=F KeepMc=T.
 Keep R1 ints in memory in canonical form, NReq=226103602.
 FoFCou: FMM=F IPFlag=           0 FMFlag=           0 FMFlg1=           0
         NFxFlg=           0 DoJE=F BraDBF=F KetDBF=F FulRan=T
         wScrn=  0.000000 ICntrl=       600 IOpCl=  0 I1Cent=           0 NGrid=           0
         NMat0=    1 NMatS0=  18336 NMatT0=    0 NMatD0=    1 NMtDS0=    0 NMtDT0=    0
 Symmetry not used in FoFCou.
 Two-electron integral symmetry not used.
          MDV=   16106127360 using IRadAn=       5.
          Solving linear equations separately, MaxMat=       0.
          There are     1 degrees of freedom in the 1st order CPHF.  IDoFFX=0 NUNeed=     1.
 LinEq1:  Iter=  0 NonCon=     1 RMS=2.62D-03 Max=3.34D-02 NDo=     1
 AX will form     1 AO Fock derivatives at one time.
 LinEq1:  Iter=  1 NonCon=     1 RMS=4.23D-04 Max=3.93D-03 NDo=     1
 LinEq1:  Iter=  2 NonCon=     1 RMS=1.96D-04 Max=2.03D-03 NDo=     1
 LinEq1:  Iter=  3 NonCon=     1 RMS=4.43D-05 Max=4.85D-04 NDo=     1
 LinEq1:  Iter=  4 NonCon=     1 RMS=1.26D-05 Max=1.18D-04 NDo=     1
 LinEq1:  Iter=  5 NonCon=     1 RMS=3.87D-06 Max=3.92D-05 NDo=     1
 LinEq1:  Iter=  6 NonCon=     1 RMS=8.77D-07 Max=8.46D-06 NDo=     1
 LinEq1:  Iter=  7 NonCon=     1 RMS=1.85D-07 Max=1.52D-06 NDo=     1
 LinEq1:  Iter=  8 NonCon=     1 RMS=5.04D-08 Max=4.78D-07 NDo=     1
 LinEq1:  Iter=  9 NonCon=     1 RMS=1.17D-08 Max=1.25D-07 NDo=     1
 LinEq1:  Iter= 10 NonCon=     1 RMS=2.35D-09 Max=1.90D-08 NDo=     1
 LinEq1:  Iter= 11 NonCon=     1 RMS=4.10D-10 Max=3.93D-09 NDo=     1
 LinEq1:  Iter= 12 NonCon=     0 RMS=7.22D-11 Max=7.23D-10 NDo=     1
 Linear equations converged to 1.000D-10 1.000D-09 after    12 iterations.
 End of Minotr F.D. properties file   721 does not exist.
 End of Minotr F.D. properties file   722 does not exist.
 End of Minotr F.D. properties file   788 does not exist.
 Leave Link 1002 at Tue Oct 19 17:08:58 2021, MaxMem= 16106127360 cpu:              37.2 elap:               4.7
 (Enter /sw/contrib/gaussian/g16/B01/g16/l601.exe)
 Copying SCF densities to generalized density rwf, IOpCl= 0 IROHF=0.

 **********************************************************************

            Population analysis using the MP2 Density.

 **********************************************************************

 Alpha  occ. eigenvalues --  -20.41940  -7.45568  -5.28125  -5.28107  -5.28074
 Alpha  occ. eigenvalues --   -2.00869  -2.00866  -2.00832  -2.00811  -2.00803
 Alpha  occ. eigenvalues --   -1.20433  -0.61421  -0.54943  -0.44925  -0.36256
 Alpha  occ. eigenvalues --   -0.13315  -0.13124  -0.12914
 Alpha virt. eigenvalues --    0.13163   0.15772   0.23653   0.24404   0.25951
 Alpha virt. eigenvalues --    0.26444   0.26847   0.29083   0.31582   0.33709
 Alpha virt. eigenvalues --    0.35175   0.36487   0.38103   0.39427   0.40528
 Alpha virt. eigenvalues --    0.41043   0.46718   0.48051   0.50883   0.52427
 Alpha virt. eigenvalues --    0.55007   0.57460   0.61873   0.65777   0.73809
 Alpha virt. eigenvalues --    0.77587   0.78735   0.79409   0.79672   0.80371
 Alpha virt. eigenvalues --    0.81087   0.81268   0.82644   0.83451   0.86889
 Alpha virt. eigenvalues --    0.87424   0.89211   0.89232   0.90698   0.91445
 Alpha virt. eigenvalues --    0.92502   0.94499   0.96277   1.00365   1.02824
 Alpha virt. eigenvalues --    1.06754   1.09151   1.09472   1.13270   1.16608
 Alpha virt. eigenvalues --    1.20892   1.23047   1.24338   1.26044   1.33184
 Alpha virt. eigenvalues --    1.37818   1.40910   1.44614   1.50185   1.64464
 Alpha virt. eigenvalues --    1.67818   1.73302   1.76290   1.76340   1.78049
 Alpha virt. eigenvalues --    1.79255   1.79693   1.83086   1.84895   1.88872
 Alpha virt. eigenvalues --    2.01365   2.04167   2.06425   2.07044   2.08655
 Alpha virt. eigenvalues --    2.10580   2.13879   2.27222   2.30644   2.45144
 Alpha virt. eigenvalues --    2.49159   2.54686   2.59069   2.60785   2.67666
 Alpha virt. eigenvalues --    2.70198   2.84756   2.90046   2.91658   2.95956
 Alpha virt. eigenvalues --    3.08341   3.20768   3.22114   3.57330   3.83776
 Alpha virt. eigenvalues --    3.87316   4.23266   4.25777   4.32215   4.37619
 Alpha virt. eigenvalues --    4.44653   4.52153   4.55191   4.58038   4.70747
 Alpha virt. eigenvalues --    4.91944   5.02806   5.28292   5.33261   5.41572
 Alpha virt. eigenvalues --    5.44388   5.69091   5.75674   6.39780   6.65725
 Alpha virt. eigenvalues --    6.88022   7.14677   7.27724   7.34359   7.43876
 Alpha virt. eigenvalues --    7.48660   7.51916   7.56720   7.68736   7.95439
 Alpha virt. eigenvalues --    8.11195   8.98664  15.86353  59.20207
          Condensed to atoms (all electrons):
               1          2          3          4
     1  O    8.117208   0.205740  -0.057253   0.175476
     2  H    0.205740   0.579595   0.003558   0.019204
     3  I   -0.057253   0.003558  25.988513   0.034502
     4  H    0.175476   0.019204   0.034502   0.552230
 Mulliken charges:
               1
     1  O   -0.441171
     2  H    0.191903
     3  I   -0.969320
     4  H    0.218587
 Sum of Mulliken charges =  -1.00000
 Mulliken charges with hydrogens summed into heavy atoms:
               1
     1  O   -0.030680
     3  I   -0.969320
 Electronic spatial extent (au):  <R**2>=           1239.6813
 Charge=             -1.0000 electrons
 Dipole moment (field-independent basis, Debye):
    X=              4.4134    Y=             14.9674    Z=              0.6879  Tot=             15.6197
 Quadrupole moment (field-independent basis, Debye-Ang):
   XX=            -42.0661   YY=            -97.3391   ZZ=            -40.9207
   XY=            -10.9809   XZ=             -0.1739   YZ=             -0.0994
 Traceless Quadrupole moment (field-independent basis, Debye-Ang):
   XX=             18.0426   YY=            -37.2305   ZZ=             19.1879
   XY=            -10.9809   XZ=             -0.1739   YZ=             -0.0994
 Octapole moment (field-independent basis, Debye-Ang**2):
  XXX=             75.5226  YYY=            546.5739  ZZZ=             -2.0709  XYY=             62.7499
  XXY=            126.1842  XXZ=             -1.1060  XZZ=             23.8768  YZZ=            117.6813
  YYZ=             -3.9272  XYZ=             -0.6238
 Hexadecapole moment (field-independent basis, Debye-Ang**3):
 XXXX=           -185.8326 YYYY=          -3173.5299 ZZZZ=            -80.2439 XXXY=           -259.1598
 XXXZ=              0.7077 YYYX=           -387.2836 YYYZ=             15.2406 ZZZX=              0.5399
 ZZZY=              3.5733 XXYY=           -477.4160 XXZZ=            -44.6013 YYZZ=           -432.1956
 XXYZ=              1.7977 YYXZ=              2.5032 ZZXY=            -84.4564
 N-N= 4.720233451281D+01 E-N=-9.076265545482D+02  KE= 1.870421632305D+02
 No NMR shielding tensors so no spin-rotation constants.
 Leave Link  601 at Tue Oct 19 17:08:59 2021, MaxMem= 16106127360 cpu:               3.9 elap:               0.2
 (Enter /sw/contrib/gaussian/g16/B01/g16/l607.exe)
 ******************************Gaussian NBO Version 3.1******************************
             N A T U R A L   A T O M I C   O R B I T A L   A N D
          N A T U R A L   B O N D   O R B I T A L   A N A L Y S I S
 ******************************Gaussian NBO Version 3.1******************************
       /RESON  / : Allow strongly delocalized NBO set

 Analyzing the MP2 density

 Job title: title                                                           

 Storage needed:    110417 in NPA,    146568 in NBO (********** available)
 GSVD:  LWork=       13161 too small for GESVD, short by       32525 words or       32525 for optimal perf.


 NATURAL POPULATIONS:  Natural atomic orbital occupancies 
                                                          
   NAO  Atom  No  lang   Type(AO)    Occupancy
 --------------------------------------------
     1    O    1  S      Cor( 1S)     1.99992
     2    O    1  S      Val( 2S)     1.89052
     3    O    1  S      Ryd( 3S)     0.00676
     4    O    1  S      Ryd( 4S)     0.00027
     5    O    1  S      Ryd( 5S)     0.00016
     6    O    1  px     Val( 2p)     1.67527
     7    O    1  px     Ryd( 3p)     0.01220
     8    O    1  px     Ryd( 4p)     0.00062
     9    O    1  px     Ryd( 5p)     0.00009
    10    O    1  py     Val( 2p)     1.86301
    11    O    1  py     Ryd( 3p)     0.01718
    12    O    1  py     Ryd( 4p)     0.00057
    13    O    1  py     Ryd( 5p)     0.00025
    14    O    1  pz     Val( 2p)     1.81159
    15    O    1  pz     Ryd( 3p)     0.01591
    16    O    1  pz     Ryd( 4p)     0.00059
    17    O    1  pz     Ryd( 5p)     0.00013
    18    O    1  dxy    Ryd( 3d)     0.00956
    19    O    1  dxy    Ryd( 4d)     0.00079
    20    O    1  dxy    Ryd( 5d)     0.00013
    21    O    1  dxz    Ryd( 3d)     0.01005
    22    O    1  dxz    Ryd( 4d)     0.00071
    23    O    1  dxz    Ryd( 5d)     0.00011
    24    O    1  dyz    Ryd( 3d)     0.00886
    25    O    1  dyz    Ryd( 4d)     0.00056
    26    O    1  dyz    Ryd( 5d)     0.00013
    27    O    1  dx2y2  Ryd( 3d)     0.00881
    28    O    1  dx2y2  Ryd( 4d)     0.00079
    29    O    1  dx2y2  Ryd( 5d)     0.00024
    30    O    1  dz2    Ryd( 3d)     0.00911
    31    O    1  dz2    Ryd( 4d)     0.00056
    32    O    1  dz2    Ryd( 5d)     0.00017
    33    O    1  f(0)   Ryd( 4f)     0.00055
    34    O    1  f(0)   Ryd( 5f)     0.00011
    35    O    1  f(C1)  Ryd( 4f)     0.00042
    36    O    1  f(C1)  Ryd( 5f)     0.00010
    37    O    1  f(S1)  Ryd( 4f)     0.00058
    38    O    1  f(S1)  Ryd( 5f)     0.00011
    39    O    1  f(C2)  Ryd( 4f)     0.00071
    40    O    1  f(C2)  Ryd( 5f)     0.00014
    41    O    1  f(S2)  Ryd( 4f)     0.00055
    42    O    1  f(S2)  Ryd( 5f)     0.00010
    43    O    1  f(C3)  Ryd( 4f)     0.00045
    44    O    1  f(C3)  Ryd( 5f)     0.00011
    45    O    1  f(S3)  Ryd( 4f)     0.00068
    46    O    1  f(S3)  Ryd( 5f)     0.00015

    47    H    2  S      Val( 1S)     0.33048
    48    H    2  S      Ryd( 2S)     0.00054
    49    H    2  S      Ryd( 3S)     0.00027
    50    H    2  S      Ryd( 4S)     0.00005
    51    H    2  px     Ryd( 2p)     0.00072
    52    H    2  px     Ryd( 3p)     0.00065
    53    H    2  px     Ryd( 4p)     0.00005
    54    H    2  py     Ryd( 2p)     0.00090
    55    H    2  py     Ryd( 3p)     0.00017
    56    H    2  py     Ryd( 4p)     0.00007
    57    H    2  pz     Ryd( 2p)     0.00077
    58    H    2  pz     Ryd( 3p)     0.00015
    59    H    2  pz     Ryd( 4p)     0.00006
    60    H    2  dxy    Ryd( 3d)     0.00020
    61    H    2  dxy    Ryd( 4d)     0.00007
    62    H    2  dxz    Ryd( 3d)     0.00014
    63    H    2  dxz    Ryd( 4d)     0.00007
    64    H    2  dyz    Ryd( 3d)     0.00011
    65    H    2  dyz    Ryd( 4d)     0.00006
    66    H    2  dx2y2  Ryd( 3d)     0.00027
    67    H    2  dx2y2  Ryd( 4d)     0.00007
    68    H    2  dz2    Ryd( 3d)     0.00013
    69    H    2  dz2    Ryd( 4d)     0.00007

    70    I    3  S      Cor( 4S)     2.00003
    71    I    3  S      Val( 5S)     1.98061
    72    I    3  S      Ryd( 6S)     0.00505
    73    I    3  S      Ryd( 7S)     0.00069
    74    I    3  S      Ryd( 8S)     0.00012
    75    I    3  S      Ryd( 9S)     0.00000
    76    I    3  px     Cor( 4p)     2.00007
    77    I    3  px     Val( 5p)     1.95113
    78    I    3  px     Ryd( 6p)     0.01158
    79    I    3  px     Ryd( 7p)     0.00077
    80    I    3  px     Ryd( 8p)     0.00009
    81    I    3  py     Cor( 4p)     2.00007
    82    I    3  py     Val( 5p)     1.94861
    83    I    3  py     Ryd( 6p)     0.01101
    84    I    3  py     Ryd( 7p)     0.00073
    85    I    3  py     Ryd( 8p)     0.00010
    86    I    3  pz     Cor( 4p)     2.00007
    87    I    3  pz     Val( 5p)     1.95035
    88    I    3  pz     Ryd( 6p)     0.01156
    89    I    3  pz     Ryd( 7p)     0.00077
    90    I    3  pz     Ryd( 8p)     0.00009
    91    I    3  dxy    Cor( 4d)     1.99677
    92    I    3  dxy    Ryd( 5d)     0.02040
    93    I    3  dxy    Ryd( 6d)     0.00158
    94    I    3  dxy    Ryd( 7d)     0.00018
    95    I    3  dxz    Cor( 4d)     1.99679
    96    I    3  dxz    Ryd( 5d)     0.02035
    97    I    3  dxz    Ryd( 6d)     0.00170
    98    I    3  dxz    Ryd( 7d)     0.00018
    99    I    3  dyz    Cor( 4d)     1.99677
   100    I    3  dyz    Ryd( 5d)     0.02067
   101    I    3  dyz    Ryd( 6d)     0.00157
   102    I    3  dyz    Ryd( 7d)     0.00020
   103    I    3  dx2y2  Cor( 4d)     1.99676
   104    I    3  dx2y2  Ryd( 5d)     0.02025
   105    I    3  dx2y2  Ryd( 6d)     0.00158
   106    I    3  dx2y2  Ryd( 7d)     0.00023
   107    I    3  dz2    Cor( 4d)     1.99678
   108    I    3  dz2    Ryd( 5d)     0.02029
   109    I    3  dz2    Ryd( 6d)     0.00164
   110    I    3  dz2    Ryd( 7d)     0.00019
   111    I    3  f(0)   Ryd( 4f)     0.00277
   112    I    3  f(0)   Ryd( 5f)     0.00045
   113    I    3  f(C1)  Ryd( 4f)     0.00277
   114    I    3  f(C1)  Ryd( 5f)     0.00044
   115    I    3  f(S1)  Ryd( 4f)     0.00275
   116    I    3  f(S1)  Ryd( 5f)     0.00046
   117    I    3  f(C2)  Ryd( 4f)     0.00276
   118    I    3  f(C2)  Ryd( 5f)     0.00046
   119    I    3  f(S2)  Ryd( 4f)     0.00278
   120    I    3  f(S2)  Ryd( 5f)     0.00045
   121    I    3  f(C3)  Ryd( 4f)     0.00274
   122    I    3  f(C3)  Ryd( 5f)     0.00046
   123    I    3  f(S3)  Ryd( 4f)     0.00274
   124    I    3  f(S3)  Ryd( 5f)     0.00047

   125    H    4  S      Val( 1S)     0.30359
   126    H    4  S      Ryd( 2S)     0.00497
   127    H    4  S      Ryd( 3S)     0.00066
   128    H    4  S      Ryd( 4S)     0.00012
   129    H    4  px     Ryd( 2p)     0.00311
   130    H    4  px     Ryd( 3p)     0.00041
   131    H    4  px     Ryd( 4p)     0.00010
   132    H    4  py     Ryd( 2p)     0.00452
   133    H    4  py     Ryd( 3p)     0.00055
   134    H    4  py     Ryd( 4p)     0.00015
   135    H    4  pz     Ryd( 2p)     0.00266
   136    H    4  pz     Ryd( 3p)     0.00051
   137    H    4  pz     Ryd( 4p)     0.00010
   138    H    4  dxy    Ryd( 3d)     0.00017
   139    H    4  dxy    Ryd( 4d)     0.00008
   140    H    4  dxz    Ryd( 3d)     0.00010
   141    H    4  dxz    Ryd( 4d)     0.00007
   142    H    4  dyz    Ryd( 3d)     0.00020
   143    H    4  dyz    Ryd( 4d)     0.00008
   144    H    4  dx2y2  Ryd( 3d)     0.00026
   145    H    4  dx2y2  Ryd( 4d)     0.00009
   146    H    4  dz2    Ryd( 3d)     0.00011
   147    H    4  dz2    Ryd( 4d)     0.00008

 [ 28 electrons found in the effective core potential]

 WARNING:  5 low occupancy (<1.9990e) core orbitals found on  I    3


 Summary of Natural Population Analysis:                  
                                                          
                                       Natural Population 
                Natural  -----------------------------------------------
    Atom  No    Charge         Core      Valence    Rydberg      Total
 -----------------------------------------------------------------------
      O    1   -1.35039      1.99992     7.24039    0.11008     9.35039
      H    2    0.66393      0.00000     0.33048    0.00559     0.33607
      I    3   -0.99086     45.98409     7.83070    0.17607    53.99086
      H    4    0.67732      0.00000     0.30359    0.01909     0.32268
 =======================================================================
   * Total *   -1.00000     47.98401    15.70516    0.31083    64.00000

                                 Natural Population      
 --------------------------------------------------------
   Effective Core            28.00000
   Core                      19.98401 ( 99.9200% of  20)
   Valence                   15.70516 ( 98.1573% of  16)
   Natural Minimal Basis     63.68917 ( 99.5143% of  64)
   Natural Rydberg Basis      0.31083 (  0.4857% of  64)
 --------------------------------------------------------

    Atom  No          Natural Electron Configuration
 ----------------------------------------------------------------------------
      O    1      [core]2S( 1.89)2p( 5.35)3S( 0.01)3p( 0.05)3d( 0.05)
      H    2            1S( 0.33)
      I    3      [core]5S( 1.98)5p( 5.85)6S( 0.01)4f( 0.02)5d( 0.10)6p( 0.03)6d( 0.01)
      H    4            1S( 0.30)2p( 0.01)


 NATURAL BOND ORBITAL ANALYSIS:

                       Occupancies       Lewis Structure    Low   High
           Occ.    -------------------  -----------------   occ   occ
  Cycle   Thresh.   Lewis   Non-Lewis     CR  BD  3C  LP    (L)   (NL)   Dev
 =============================================================================
   1(1)    1.90    63.67813   0.32187     10   2   0   6     0      0    0.01
 -----------------------------------------------------------------------------

 Structure accepted: No low occupancy Lewis orbitals

 WARNING:  5 low occupancy (<1.9990e) core orbitals found on  I    3

 --------------------------------------------------------
   Effective Core           28.00000
   Core                     19.98401 ( 99.920% of  20)
   Valence Lewis            15.69412 ( 98.088% of  16)
  ==================       ============================
   Total Lewis              63.67813 ( 99.497% of  64)
  -----------------------------------------------------
   Valence non-Lewis         0.03926 (  0.061% of  64)
   Rydberg non-Lewis         0.28261 (  0.442% of  64)
  ==================       ============================
   Total non-Lewis           0.32187 (  0.503% of  64)
 --------------------------------------------------------


       (Occupancy)   Bond orbital/ Coefficients/ Hybrids
 ---------------------------------------------------------------------------------
     1. (1.96423) BD ( 1) O   1 - H   2  
                ( 83.96%)   0.9163* O   1 s( 14.31%)p 5.96( 85.28%)d 0.03(  0.41%)
                                                  f 0.00(  0.01%)
                                            0.0001  0.3782  0.0031  0.0038 -0.0026
                                            0.9230 -0.0164  0.0047 -0.0009  0.0185
                                           -0.0054 -0.0005 -0.0017 -0.0074  0.0082
                                            0.0006  0.0018 -0.0125  0.0007  0.0013
                                            0.0234 -0.0046 -0.0000 -0.0046 -0.0017
                                            0.0011  0.0498 -0.0072  0.0043 -0.0273
                                            0.0046 -0.0027 -0.0002  0.0004 -0.0033
                                           -0.0012 -0.0003  0.0000 -0.0000 -0.0004
                                           -0.0069  0.0024  0.0072  0.0004  0.0005
                                           -0.0000
                ( 16.04%)   0.4005* H   2 s( 99.79%)p 0.00(  0.17%)d 0.00(  0.04%)
                                            0.9989 -0.0018  0.0004 -0.0003 -0.0026
                                            0.0406 -0.0010  0.0016  0.0021  0.0003
                                            0.0029  0.0016 -0.0010  0.0033 -0.0014
                                            0.0018  0.0018 -0.0044 -0.0013  0.0177
                                           -0.0029 -0.0078  0.0023
     2. (1.96465) BD ( 1) O   1 - H   4  
                ( 85.38%)   0.9240* O   1 s( 15.21%)p 5.55( 84.41%)d 0.02(  0.37%)
                                                  f 0.00(  0.01%)
                                            0.0001  0.3900 -0.0001  0.0003 -0.0029
                                           -0.1415  0.0102  0.0016 -0.0005 -0.5654
                                            0.0115 -0.0041  0.0011  0.7099 -0.0124
                                            0.0069 -0.0046 -0.0123  0.0039 -0.0003
                                            0.0145 -0.0048  0.0005 -0.0485  0.0012
                                            0.0008 -0.0156  0.0029 -0.0017  0.0268
                                           -0.0036  0.0014 -0.0048  0.0017 -0.0003
                                           -0.0012 -0.0081 -0.0006 -0.0007 -0.0026
                                            0.0017  0.0008 -0.0002  0.0013 -0.0042
                                            0.0025
                ( 14.62%)   0.3824* H   4 s( 99.73%)p 0.00(  0.26%)d 0.00(  0.01%)
                                            0.9986 -0.0105  0.0032 -0.0003  0.0274
                                            0.0004 -0.0024  0.0047  0.0221  0.0028
                                            0.0226 -0.0275 -0.0076  0.0022 -0.0020
                                           -0.0021  0.0024 -0.0078 -0.0012  0.0057
                                            0.0016 -0.0002 -0.0007
     3. (1.99992) CR ( 1) O   1           s(100.00%)
                                            1.0000 -0.0003 -0.0000 -0.0000  0.0000
                                           -0.0000  0.0000 -0.0000  0.0000  0.0000
                                           -0.0000  0.0000 -0.0000 -0.0000  0.0000
                                           -0.0000  0.0000  0.0000 -0.0000  0.0000
                                           -0.0000  0.0000 -0.0000  0.0000  0.0000
                                           -0.0000 -0.0000 -0.0000  0.0000  0.0000
                                            0.0000 -0.0000  0.0000 -0.0000  0.0000
                                            0.0000  0.0000  0.0000  0.0000  0.0000
                                            0.0000 -0.0000 -0.0000 -0.0000 -0.0000
                                           -0.0000
     4. (2.00003) CR ( 1) I   3           s(100.00%)
                                            1.0000 -0.0000  0.0000 -0.0000  0.0000
                                           -0.0000  0.0000 -0.0000 -0.0000 -0.0000
                                            0.0000  0.0000 -0.0000 -0.0000 -0.0000
                                            0.0000 -0.0000 -0.0000 -0.0000 -0.0000
                                           -0.0000  0.0000 -0.0000  0.0000  0.0000
                                            0.0000 -0.0000  0.0000 -0.0000  0.0000
                                           -0.0000  0.0000  0.0000  0.0000  0.0000
                                            0.0000 -0.0000  0.0000 -0.0000  0.0000
                                           -0.0000  0.0000 -0.0000 -0.0000 -0.0000
                                           -0.0000 -0.0000  0.0000 -0.0000 -0.0000
                                           -0.0000  0.0000 -0.0000 -0.0000 -0.0000
     5. (2.00007) CR ( 2) I   3           s(  0.00%)p 1.00(100.00%)
                                            0.0000  0.0000  0.0000 -0.0000  0.0000
                                           -0.0000  1.0000 -0.0000  0.0000 -0.0000
                                            0.0000 -0.0000  0.0000 -0.0000 -0.0000
                                            0.0000  0.0000  0.0000  0.0000 -0.0000
                                            0.0000  0.0000 -0.0000  0.0000  0.0000
                                            0.0000 -0.0000  0.0000 -0.0000 -0.0000
                                            0.0000 -0.0000  0.0000  0.0000 -0.0000
                                            0.0000 -0.0000 -0.0000  0.0000 -0.0000
                                            0.0000 -0.0000 -0.0000  0.0000  0.0000
                                            0.0000  0.0000 -0.0000 -0.0000 -0.0000
                                           -0.0000 -0.0000 -0.0000 -0.0000 -0.0000
     6. (2.00007) CR ( 3) I   3           s(  0.00%)p 1.00(100.00%)
                                            0.0000  0.0000 -0.0000  0.0000 -0.0000
                                            0.0000 -0.0000  0.0000  0.0000  0.0000
                                           -0.0000  1.0000  0.0000  0.0000 -0.0000
                                           -0.0000 -0.0000  0.0000  0.0000  0.0000
                                            0.0000 -0.0000  0.0000 -0.0000  0.0000
                                           -0.0000  0.0000 -0.0000  0.0000 -0.0000
                                            0.0000 -0.0000  0.0000  0.0000 -0.0000
                                           -0.0000  0.0000 -0.0000  0.0000 -0.0000
                                            0.0000 -0.0000 -0.0000  0.0000 -0.0000
                                            0.0000  0.0000 -0.0000 -0.0000  0.0000
                                            0.0000 -0.0000 -0.0000 -0.0000  0.0000
     7. (2.00007) CR ( 4) I   3           s(  0.00%)p 1.00(100.00%)
                                           -0.0000  0.0000  0.0000 -0.0000  0.0000
                                           -0.0000  0.0000  0.0000  0.0000  0.0000
                                           -0.0000 -0.0000  0.0000 -0.0000 -0.0000
                                            0.0000  1.0000 -0.0000  0.0000  0.0000
                                            0.0000 -0.0000  0.0000 -0.0000  0.0000
                                           -0.0000  0.0000 -0.0000 -0.0000 -0.0000
                                            0.0000 -0.0000  0.0000  0.0000 -0.0000
                                           -0.0000  0.0000  0.0000 -0.0000  0.0000
                                           -0.0000 -0.0000 -0.0000 -0.0000 -0.0000
                                           -0.0000 -0.0000 -0.0000 -0.0000  0.0000
                                            0.0000 -0.0000 -0.0000  0.0000  0.0000
     8. (1.99677) CR ( 5) I   3           s(  0.00%)p 0.00(  0.00%)d 1.00(100.00%)
                                            0.0000  0.0000 -0.0000 -0.0000  0.0000
                                            0.0000  0.0000  0.0000  0.0000  0.0000
                                           -0.0000 -0.0000  0.0000  0.0000 -0.0000
                                           -0.0000 -0.0000 -0.0000  0.0000  0.0000
                                            0.0000  1.0000  0.0000 -0.0000  0.0000
                                           -0.0000  0.0000 -0.0000  0.0000 -0.0000
                                            0.0000 -0.0000  0.0000  0.0000 -0.0000
                                           -0.0000  0.0000  0.0000 -0.0000  0.0000
                                           -0.0000 -0.0000 -0.0000 -0.0000 -0.0000
                                           -0.0000 -0.0000 -0.0000 -0.0000  0.0000
                                            0.0000 -0.0000 -0.0000  0.0000  0.0000
     9. (1.99679) CR ( 6) I   3           s(  0.00%)p 0.00(  0.00%)d 1.00(100.00%)
                                            0.0000  0.0000 -0.0000  0.0000 -0.0000
                                            0.0000  0.0000  0.0000  0.0000  0.0000
                                           -0.0000 -0.0000  0.0000  0.0000  0.0000
                                           -0.0000 -0.0000  0.0000  0.0000  0.0000
                                            0.0000 -0.0000  0.0000 -0.0000 -0.0000
                                            1.0000  0.0000 -0.0000  0.0000 -0.0000
                                            0.0000 -0.0000 -0.0000 -0.0000  0.0000
                                           -0.0000  0.0000 -0.0000 -0.0000 -0.0000
                                            0.0000 -0.0000 -0.0000  0.0000  0.0000
                                            0.0000  0.0000 -0.0000  0.0000  0.0000
                                            0.0000 -0.0000  0.0000  0.0000  0.0000
    10. (1.99677) CR ( 7) I   3           s(  0.00%)p 0.00(  0.00%)d 1.00(100.00%)
                                            0.0000  0.0000 -0.0000 -0.0000  0.0000
                                            0.0000 -0.0000  0.0000  0.0000  0.0000
                                           -0.0000 -0.0000  0.0000  0.0000 -0.0000
                                            0.0000 -0.0000  0.0000  0.0000 -0.0000
                                            0.0000 -0.0000  0.0000 -0.0000  0.0000
                                           -0.0000  0.0000 -0.0000  0.0000  1.0000
                                            0.0000 -0.0000  0.0000  0.0000 -0.0000
                                           -0.0000  0.0000 -0.0000 -0.0000 -0.0000
                                            0.0000 -0.0000 -0.0000 -0.0000 -0.0000
                                            0.0000  0.0000 -0.0000 -0.0000  0.0000
                                            0.0000 -0.0000 -0.0000 -0.0000 -0.0000
    11. (1.99676) CR ( 8) I   3           s(  0.00%)p 0.00(  0.00%)d 1.00(100.00%)
                                            0.0000 -0.0000 -0.0000  0.0000 -0.0000
                                            0.0000  0.0000  0.0000 -0.0000  0.0000
                                            0.0000  0.0000 -0.0000  0.0000  0.0000
                                           -0.0000  0.0000  0.0000 -0.0000 -0.0000
                                           -0.0000  0.0000 -0.0000  0.0000 -0.0000
                                           -0.0000  0.0000 -0.0000  0.0000  0.0000
                                           -0.0000  0.0000 -0.0000  1.0000  0.0000
                                           -0.0000 -0.0000 -0.0000  0.0000  0.0000
                                           -0.0000  0.0000  0.0000  0.0000  0.0000
                                            0.0000  0.0000  0.0000  0.0000  0.0000
                                            0.0000  0.0000  0.0000  0.0000  0.0000
    12. (1.99678) CR ( 9) I   3           s(  0.00%)p 0.00(  0.00%)d 1.00(100.00%)
                                            0.0000  0.0000 -0.0000  0.0000 -0.0000
                                            0.0000 -0.0000 -0.0000 -0.0000 -0.0000
                                            0.0000 -0.0000 -0.0000  0.0000  0.0000
                                           -0.0000  0.0000  0.0000 -0.0000  0.0000
                                           -0.0000  0.0000 -0.0000  0.0000 -0.0000
                                           -0.0000  0.0000 -0.0000  0.0000 -0.0000
                                           -0.0000  0.0000 -0.0000 -0.0000 -0.0000
                                            0.0000 -0.0000  1.0000  0.0000 -0.0000
                                            0.0000  0.0000  0.0000  0.0000  0.0000
                                            0.0000  0.0000  0.0000  0.0000 -0.0000
                                           -0.0000  0.0000  0.0000 -0.0000 -0.0000
    13. (1.97270) LP ( 1) O   1           s( 69.88%)p 0.43( 30.00%)d 0.00(  0.11%)
                                                  f 0.00(  0.00%)
                                            0.0002  0.8360  0.0000 -0.0012  0.0022
                                           -0.3499 -0.0102  0.0066 -0.0006  0.3215
                                            0.0093 -0.0041  0.0014 -0.2717 -0.0073
                                            0.0038  0.0007  0.0191 -0.0017 -0.0017
                                           -0.0228  0.0029  0.0012  0.0101 -0.0034
                                            0.0012 -0.0052  0.0077 -0.0056  0.0010
                                           -0.0025  0.0021  0.0024 -0.0009 -0.0008
                                           -0.0014  0.0010 -0.0012 -0.0012  0.0003
                                            0.0030 -0.0007 -0.0005  0.0022  0.0034
                                           -0.0014
    14. (1.96111) LP ( 2) O   1           s(  0.54%)p99.99( 99.10%)d 0.61(  0.33%)
                                                  f 0.05(  0.03%)
                                            0.0000  0.0727 -0.0100 -0.0041 -0.0011
                                           -0.0196 -0.0025  0.0013 -0.0018 -0.7564
                                           -0.0148  0.0034 -0.0025 -0.6465 -0.0160
                                            0.0038 -0.0024 -0.0328  0.0102 -0.0028
                                           -0.0290  0.0081 -0.0019 -0.0137  0.0034
                                           -0.0007 -0.0129 -0.0007  0.0024 -0.0284
                                           -0.0003  0.0036 -0.0018 -0.0005  0.0011
                                           -0.0003  0.0058 -0.0021 -0.0114  0.0040
                                            0.0002  0.0002  0.0005  0.0005 -0.0081
                                            0.0040
    15. (1.98064) LP ( 1) I   3           s( 99.97%)p 0.00(  0.03%)d 0.00(  0.00%)
                                                  f 0.00(  0.00%)
                                            0.0000  0.9998 -0.0000  0.0000 -0.0000
                                           -0.0000 -0.0000 -0.0013  0.0004 -0.0000
                                            0.0001 -0.0000 -0.0183  0.0004 -0.0003
                                            0.0001 -0.0000  0.0018  0.0009 -0.0001
                                            0.0003 -0.0000  0.0007 -0.0003  0.0000
                                           -0.0000  0.0004 -0.0001 -0.0000 -0.0000
                                            0.0021 -0.0007  0.0001  0.0000 -0.0005
                                            0.0001  0.0002 -0.0000 -0.0003  0.0001
                                            0.0000 -0.0005 -0.0005 -0.0000 -0.0001
                                           -0.0000 -0.0000 -0.0006 -0.0006  0.0002
                                            0.0002 -0.0002 -0.0002 -0.0001 -0.0001
    16. (1.95145) LP ( 2) I   3           s(  0.00%)p 1.00( 99.99%)d 0.00(  0.00%)
                                                  f 0.00(  0.00%)
                                           -0.0000  0.0026 -0.0000  0.0001 -0.0001
                                           -0.0000  0.0000  0.8873  0.0004  0.0006
                                           -0.0002 -0.0000  0.0356 -0.0003  0.0002
                                           -0.0003 -0.0000 -0.4598  0.0008  0.0000
                                            0.0000 -0.0000  0.0026 -0.0009  0.0001
                                           -0.0000  0.0021 -0.0012  0.0010  0.0000
                                           -0.0002 -0.0003  0.0005 -0.0000  0.0031
                                           -0.0017  0.0017  0.0000 -0.0023  0.0015
                                           -0.0015 -0.0003 -0.0004 -0.0003 -0.0003
                                           -0.0009 -0.0010  0.0001 -0.0000  0.0011
                                            0.0012 -0.0002 -0.0000  0.0008  0.0009
    17. (1.95131) LP ( 3) I   3           s(  0.02%)p99.99( 99.98%)d 0.18(  0.00%)
                                                  f 0.07(  0.00%)
                                           -0.0000  0.0107  0.0030 -0.0042  0.0040
                                           -0.0001 -0.0000 -0.4033  0.0001 -0.0002
                                           -0.0001  0.0000  0.5434 -0.0032 -0.0007
                                            0.0009 -0.0000 -0.7361  0.0020 -0.0000
                                            0.0001 -0.0000 -0.0006 -0.0001  0.0004
                                            0.0000 -0.0024  0.0015 -0.0015 -0.0000
                                            0.0024 -0.0018  0.0019  0.0000  0.0001
                                            0.0002  0.0006  0.0000 -0.0016  0.0012
                                           -0.0008 -0.0007 -0.0011 -0.0003 -0.0004
                                           -0.0013 -0.0015 -0.0012 -0.0017 -0.0007
                                           -0.0007 -0.0002 -0.0004 -0.0004 -0.0005
    18. (1.94803) LP ( 4) I   3           s(  0.02%)p99.99( 99.96%)d 0.85(  0.02%)
                                                  f 0.07(  0.00%)
                                            0.0000  0.0147 -0.0010  0.0003 -0.0006
                                            0.0001 -0.0000  0.2236  0.0016  0.0003
                                           -0.0004 -0.0000  0.8384  0.0013 -0.0004
                                           -0.0003 -0.0000  0.4966  0.0037  0.0001
                                            0.0002 -0.0000  0.0038 -0.0009  0.0004
                                           -0.0000  0.0032 -0.0011  0.0007 -0.0000
                                            0.0113 -0.0035  0.0019  0.0000 -0.0031
                                           -0.0006  0.0017 -0.0000  0.0001 -0.0010
                                            0.0012 -0.0017 -0.0015  0.0000 -0.0000
                                            0.0008  0.0006 -0.0021 -0.0019  0.0011
                                            0.0008 -0.0006 -0.0004 -0.0001 -0.0000
    19. (0.01985) RY*( 1) O   1           s(  0.06%)p99.99( 96.82%)d55.08(  3.03%)
                                                  f 1.75(  0.10%)
                                           -0.0000 -0.0006  0.0221  0.0074  0.0030
                                           -0.0005  0.0134 -0.0031  0.0042 -0.0247
                                            0.7570  0.0262 -0.0027 -0.0201  0.6268
                                            0.0186 -0.0009  0.1170 -0.0273  0.0051
                                            0.0932 -0.0211  0.0035  0.0391 -0.0089
                                            0.0012  0.0249  0.0002 -0.0049  0.0664
                                           -0.0027 -0.0073 -0.0013  0.0008  0.0036
                                           -0.0005 -0.0066  0.0057  0.0172 -0.0116
                                            0.0023 -0.0015  0.0031 -0.0017  0.0167
                                           -0.0120
    20. (0.01564) RY*( 2) O   1           s( 13.24%)p 6.22( 82.36%)d 0.32(  4.25%)
                                                  f 0.01(  0.14%)
                                           -0.0000 -0.0167  0.3635  0.0003  0.0060
                                            0.0103 -0.5778  0.0038 -0.0033 -0.0054
                                            0.4477  0.0144 -0.0125  0.0059 -0.5371
                                           -0.0162  0.0083  0.1064 -0.0048 -0.0075
                                           -0.1640  0.0152  0.0052  0.0298 -0.0142
                                            0.0026 -0.0232  0.0384 -0.0185 -0.0056
                                           -0.0191  0.0118  0.0115 -0.0073 -0.0126
                                           -0.0018 -0.0071 -0.0029 -0.0188  0.0060
                                            0.0156 -0.0064  0.0075  0.0071  0.0138
                                           -0.0066
    21. (0.00984) RY*( 3) O   1           s(  0.15%)p99.99( 93.79%)d39.10(  5.83%)
                                                  f 1.52(  0.23%)
                                           -0.0000  0.0007  0.0161  0.0315  0.0154
                                            0.0287  0.7602 -0.0120 -0.0029  0.0130
                                            0.3703  0.0123 -0.0193 -0.0163 -0.4688
                                           -0.0186  0.0308  0.1005 -0.0091  0.0046
                                           -0.0502  0.0064 -0.0046 -0.0960 -0.0261
                                            0.0040 -0.1404 -0.0896  0.0433  0.0395
                                            0.0608 -0.0268  0.0026 -0.0024  0.0111
                                            0.0072 -0.0184  0.0030 -0.0260  0.0100
                                            0.0052  0.0006 -0.0146 -0.0105  0.0217
                                           -0.0113
    22. (0.00667) RY*( 4) O   1           s( 43.53%)p 0.05(  2.33%)d 1.23( 53.46%)
                                                  f 0.02(  0.68%)
                                            0.0000  0.0128  0.6593 -0.0202 -0.0014
                                           -0.0067  0.1254 -0.0106 -0.0042  0.0013
                                           -0.0654  0.0040 -0.0164 -0.0152  0.0491
                                           -0.0107 -0.0074 -0.4621 -0.0290  0.0110
                                            0.4214  0.0214 -0.0086  0.2732  0.0451
                                           -0.0015 -0.1840 -0.0339  0.0081  0.1734
                                            0.0135 -0.0032 -0.0008 -0.0026  0.0378
                                           -0.0063  0.0064  0.0055  0.0270 -0.0058
                                           -0.0407  0.0175 -0.0356  0.0031 -0.0341
                                            0.0114
    23. (0.00632) RY*( 5) O   1           s(  1.46%)p 0.58(  0.84%)d66.07( 96.33%)
                                                  f 0.94(  1.37%)
                                           -0.0000  0.0035  0.1205 -0.0038 -0.0057
                                           -0.0037 -0.0269 -0.0089  0.0075 -0.0090
                                           -0.0813 -0.0080  0.0074  0.0036  0.0261
                                            0.0018 -0.0047  0.4767  0.0523 -0.0095
                                            0.4323  0.0484 -0.0126 -0.0356  0.0037
                                           -0.0015 -0.4011 -0.0348  0.0006 -0.6138
                                           -0.0604  0.0067 -0.0804  0.0359  0.0079
                                           -0.0032  0.0253 -0.0106  0.0050  0.0012
                                            0.0035 -0.0027  0.0012 -0.0036  0.0652
                                           -0.0286
    24. (0.00588) RY*( 6) O   1           s(  0.07%)p42.76(  2.89%)d99.99( 96.04%)
                                                  f14.88(  1.00%)
                                            0.0000  0.0007  0.0259 -0.0018  0.0002
                                           -0.0024 -0.0043 -0.0010 -0.0072 -0.0378
                                           -0.1233 -0.0177 -0.0132 -0.0325 -0.1015
                                           -0.0179 -0.0016  0.5858  0.0898 -0.0189
                                            0.4143  0.0637 -0.0127  0.1469  0.0188
                                            0.0005  0.3209  0.0357 -0.0010  0.5499
                                            0.0661 -0.0054  0.0271 -0.0145  0.0346
                                           -0.0128 -0.0365  0.0156  0.0570 -0.0246
                                            0.0150 -0.0051  0.0275 -0.0101  0.0328
                                           -0.0109
    25. (0.00578) RY*( 7) O   1           s(  4.92%)p 1.43(  7.03%)d17.66( 86.94%)
                                                  f 0.23(  1.11%)
                                           -0.0000  0.0090  0.2210 -0.0081 -0.0147
                                            0.0309  0.1235  0.0131 -0.0082 -0.0321
                                           -0.1529 -0.0252  0.0060  0.0324  0.1659
                                            0.0163 -0.0005  0.3286  0.0292 -0.0055
                                           -0.5662 -0.0623  0.0143  0.6115  0.0936
                                           -0.0113 -0.2221 -0.0486  0.0114  0.0296
                                            0.0128 -0.0090  0.0459 -0.0178 -0.0185
                                            0.0124  0.0402 -0.0148 -0.0105  0.0033
                                            0.0679 -0.0291 -0.0062 -0.0035  0.0247
                                           -0.0091
    26. (0.00329) RY*( 8) O   1           s( 36.04%)p 0.24(  8.68%)d 1.52( 54.68%)
                                                  f 0.02(  0.59%)
                                            0.0000 -0.0080  0.6002 -0.0024 -0.0097
                                           -0.0172  0.1617 -0.0224 -0.0108  0.0029
                                           -0.1514  0.0112 -0.0247 -0.0057  0.1880
                                           -0.0217  0.0162  0.1843  0.0320 -0.0006
                                           -0.2514 -0.0503  0.0026 -0.4950 -0.1260
                                            0.0004  0.3963  0.0969  0.0047 -0.1313
                                           -0.0377 -0.0017 -0.0051  0.0042 -0.0270
                                            0.0321 -0.0294  0.0293 -0.0038  0.0114
                                            0.0037 -0.0078  0.0286 -0.0366 -0.0063
                                            0.0009
    27. (0.00287) RY*( 9) O   1           s(  0.21%)p27.68(  5.88%)d99.99( 92.29%)
                                                  f 7.60(  1.61%)
                                           -0.0000 -0.0010  0.0387  0.0238  0.0074
                                            0.0442 -0.1324  0.0701 -0.0206  0.0216
                                           -0.1048  0.0391 -0.0269 -0.0259  0.1298
                                           -0.0473  0.0226  0.1030  0.0333  0.0000
                                           -0.1144 -0.0346  0.0015 -0.4656 -0.1011
                                           -0.0017 -0.6459 -0.1375 -0.0063  0.4729
                                            0.1009 -0.0010  0.0234 -0.0094  0.0371
                                           -0.0217 -0.0554  0.0378 -0.0593  0.0345
                                           -0.0126 -0.0004 -0.0455  0.0285  0.0337
                                           -0.0168
    28. (0.00064) RY*(10) O   1           s(  2.92%)p15.92( 46.49%)d15.63( 45.66%)
                                                  f 1.69(  4.92%)
                                            0.0000 -0.0047 -0.0140  0.1529  0.0750
                                           -0.0031  0.0112  0.3579 -0.1426 -0.0004
                                           -0.0142  0.2389 -0.3176 -0.0046 -0.0357
                                            0.3937 -0.0443  0.0143  0.0586  0.0214
                                            0.0390 -0.3000  0.0090  0.0555 -0.1912
                                            0.0729  0.0283 -0.1900 -0.0593  0.0172
                                           -0.5223 -0.0493  0.0564 -0.0284  0.0217
                                           -0.0153 -0.1712  0.0094  0.0512 -0.0526
                                           -0.0475  0.0334 -0.0306  0.0341 -0.0644
                                            0.0128
    29. (0.00058) RY*(11) O   1           s(  2.69%)p 7.83( 21.02%)d23.01( 61.81%)
                                                  f 5.39( 14.49%)
                                           -0.0000  0.0038 -0.0090  0.1616  0.0257
                                           -0.0012 -0.0260 -0.4148 -0.0040 -0.0163
                                           -0.0508 -0.0998 -0.1495 -0.0072 -0.0060
                                           -0.0437  0.0175  0.0354 -0.7040 -0.1257
                                            0.0234 -0.1852 -0.0385  0.0384 -0.2370
                                            0.0145 -0.0090 -0.0827 -0.0059  0.0129
                                           -0.0456 -0.0446  0.0659 -0.0094  0.0258
                                            0.0160 -0.1413 -0.0031  0.1350 -0.0356
                                            0.0682  0.0020  0.0813 -0.0147  0.2958
                                           -0.0322
    30. (0.00056) RY*(12) O   1           s( 10.76%)p 4.80( 51.62%)d 2.84( 30.59%)
                                                  f 0.65(  7.04%)
                                           -0.0000 -0.0055 -0.0187  0.3066  0.1149
                                            0.0027  0.0194  0.2030 -0.0417 -0.0032
                                            0.0166 -0.6041 -0.3015  0.0017  0.0190
                                           -0.1163  0.0534 -0.0410  0.1677  0.0268
                                            0.0137  0.0974  0.0557  0.0753 -0.3261
                                            0.0478 -0.0619  0.3693 -0.0081 -0.0327
                                            0.0824  0.0136  0.1562 -0.0289 -0.1090
                                           -0.0304 -0.1242 -0.0308 -0.0961 -0.0255
                                           -0.0525  0.0225  0.0342  0.0329  0.0225
                                            0.0071
    31. (0.00054) RY*(13) O   1           s(  2.71%)p11.85( 32.08%)d17.05( 46.13%)
                                                  f 7.05( 19.09%)
                                           -0.0000  0.0043 -0.0023  0.1629  0.0226
                                            0.0009 -0.0186 -0.4960 -0.0282  0.0036
                                           -0.0121  0.1762 -0.0880  0.0092  0.0333
                                            0.1731  0.0596 -0.0067  0.1760  0.0676
                                           -0.0179  0.5430  0.1386  0.0282 -0.2169
                                           -0.0005  0.0048 -0.2134 -0.0147 -0.0071
                                           -0.1114 -0.0725  0.3081 -0.0266 -0.0825
                                            0.0197 -0.0100 -0.0083 -0.2066 -0.0106
                                            0.0780 -0.0010 -0.0604 -0.0238 -0.1857
                                            0.0160
    32. (0.00049) RY*(14) O   1           s(  3.44%)p 9.59( 32.96%)d13.87( 47.66%)
                                                  f 4.64( 15.95%)
                                            0.0000  0.0002  0.0225  0.1729  0.0628
                                           -0.0080 -0.0530 -0.2225 -0.0628  0.0059
                                            0.0180 -0.4698 -0.1853 -0.0058  0.0051
                                            0.1321  0.0196  0.0121  0.1282  0.0527
                                           -0.0228 -0.1387 -0.0588 -0.0944  0.4366
                                            0.1391  0.0698 -0.4419 -0.0443 -0.0294
                                            0.1099 -0.0115 -0.1324 -0.0061  0.1148
                                            0.0513 -0.1160 -0.0007  0.1585 -0.0003
                                           -0.0333 -0.0094 -0.1853 -0.0606 -0.2198
                                            0.0022
    33. (0.00046) RY*(15) O   1           s(  0.27%)p71.85( 19.73%)d43.92( 12.06%)
                                                  f99.99( 67.94%)
                                            0.0000 -0.0040  0.0309  0.0004  0.0422
                                           -0.0020  0.0032  0.1363  0.0277 -0.0010
                                           -0.0022 -0.1446  0.0516  0.0024  0.0016
                                            0.3854  0.0760 -0.0029 -0.0922 -0.0312
                                           -0.0021  0.1200  0.0259 -0.0903  0.2901
                                            0.0487  0.0283 -0.0187 -0.0022  0.0013
                                           -0.0125 -0.0014  0.4482  0.0436  0.0862
                                            0.0166  0.3430  0.0737 -0.1109  0.0273
                                           -0.3057 -0.0386 -0.0062 -0.0061  0.4867
                                            0.0307
    34. (0.00043) RY*(16) O   1           s(  0.16%)p 8.43(  1.34%)d24.63(  3.91%)
                                                  f99.99( 94.60%)
                                            0.0000 -0.0010  0.0028  0.0120  0.0379
                                            0.0038  0.0013  0.0772  0.0257  0.0024
                                            0.0120 -0.0791 -0.0115 -0.0014 -0.0043
[...]
   123. (0.00000) RY*(42) I   3           s( 99.90%)p 0.00(  0.09%)d 0.00(  0.01%)
                                                  f 0.00(  0.00%)
   124. (0.00649) RY*( 1) H   4           s( 69.43%)p 0.43( 29.97%)d 0.01(  0.60%)
                                           -0.0018  0.8331  0.0068 -0.0114  0.2837
                                           -0.0056  0.0131 -0.3679  0.0396 -0.0223
                                            0.2735  0.0754  0.0334  0.0408 -0.0097
                                           -0.0155 -0.0000  0.0291  0.0122 -0.0157
                                            0.0088 -0.0507  0.0092
   125. (0.00487) RY*( 2) H   4           s(  2.76%)p34.61( 95.61%)d 0.59(  1.63%)
                                           -0.0172  0.1403 -0.0873  0.0042  0.2880
                                           -0.0198  0.0166  0.8426  0.0139 -0.0015
                                            0.3860  0.1115 -0.0304  0.0233  0.0030
                                           -0.0036 -0.0119 -0.0832 -0.0135  0.0595
                                           -0.0494 -0.0294 -0.0405
   126. (0.00256) RY*( 3) H   4           s(  3.76%)p24.83( 93.29%)d 0.79(  2.95%)
                                            0.0163  0.1877  0.0249 -0.0381 -0.8663
                                            0.0055 -0.0117  0.0920  0.1211 -0.0131
                                            0.3951  0.0528  0.0123  0.0447 -0.0277
                                            0.0714  0.0064  0.0586  0.0263 -0.1292
                                            0.0041 -0.0097 -0.0261
   127. (0.00141) RY*( 4) H   4           s( 23.41%)p 3.21( 75.08%)d 0.06(  1.50%)
                                            0.0273  0.4547  0.1126  0.1180 -0.1880
                                            0.0933  0.0133  0.3466  0.0520 -0.0448
                                           -0.7577  0.0867  0.0125  0.0447 -0.0101
                                            0.0314 -0.0187  0.0716 -0.0369 -0.0165
                                           -0.0056  0.0654  0.0225
   128. (0.00091) RY*( 5) H   4           s( 62.41%)p 0.53( 33.30%)d 0.07(  4.29%)
                                           -0.0188 -0.1188  0.7808 -0.0065  0.1452
                                            0.1673 -0.0121  0.0119  0.5080 -0.1133
                                            0.1051  0.0338 -0.0233  0.0427  0.0139
                                            0.0294 -0.0526  0.1393 -0.0858 -0.0950
                                           -0.0071  0.0240  0.0293
   129. (0.00042) RY*( 6) H   4           s(  0.05%)p99.99( 92.27%)d99.99(  7.68%)
                                            0.0010  0.0107  0.0184  0.0084 -0.0247
                                            0.9075 -0.0434 -0.0117 -0.2852  0.0094
                                            0.0816 -0.0903 -0.0177  0.0466  0.1145
                                            0.0813 -0.1244 -0.1094  0.0503  0.1503
                                            0.0436 -0.0173  0.0124
   130. (0.00030) RY*( 7) H   4           s( 12.85%)p 4.75( 61.03%)d 2.03( 26.12%)
                                           -0.0120  0.0843  0.2578  0.2340 -0.0181
                                           -0.1262  0.1677  0.0801 -0.2574  0.3178
                                            0.0290 -0.6255  0.0100  0.1113  0.0276
                                           -0.0873 -0.0679 -0.1655 -0.0918 -0.3109
                                           -0.0805 -0.2581  0.1740
   131. (0.00022) RY*( 8) H   4           s(  7.45%)p 2.92( 21.75%)d 9.50( 70.80%)
                                           -0.0079  0.0616  0.2499 -0.0907 -0.1079
                                           -0.2174  0.0246 -0.0047 -0.1342 -0.2788
                                            0.0180 -0.2157 -0.1239  0.1995 -0.1007
                                            0.1042  0.1318 -0.2893 -0.0497  0.7172
                                            0.1018  0.0299  0.1339
   132. (0.00019) RY*( 9) H   4           s(  7.54%)p 5.64( 42.53%)d 6.63( 49.94%)
                                           -0.0079 -0.0401 -0.1651  0.2155 -0.0148
                                            0.0498  0.1381 -0.0969  0.3964  0.4646
                                           -0.0353  0.1322  0.0494  0.4022  0.1384
                                            0.1760  0.0435 -0.2913 -0.2292  0.2159
                                           -0.2070 -0.0597 -0.2349
   133. (0.00017) RY*(10) H   4           s(  1.71%)p 4.53(  7.74%)d53.00( 90.55%)
                                           -0.0062  0.0703  0.0206  0.1081 -0.0939
                                            0.0411  0.0318 -0.0219  0.2155  0.1022
                                           -0.0091 -0.0324 -0.0861 -0.7160 -0.0456
                                           -0.3802 -0.1818 -0.3734 -0.1266  0.2028
                                           -0.0248 -0.0425 -0.1194
   134. (0.00014) RY*(11) H   4           s( 34.05%)p 1.27( 43.29%)d 0.67( 22.66%)
                                           -0.0128 -0.0260 -0.2830  0.5095  0.0270
                                            0.0708 -0.2857 -0.0239  0.2700 -0.2790
                                            0.0317 -0.1012 -0.4278  0.0702 -0.0800
                                            0.0581  0.0684 -0.0329 -0.1531 -0.1234
                                            0.2724 -0.1288  0.2769
   135. (0.00010) RY*(12) H   4           s(  0.46%)p99.99( 58.04%)d90.90( 41.50%)
                                           -0.0056  0.0178  0.0592 -0.0266 -0.0012
                                            0.0670 -0.6975  0.0245 -0.0131  0.2445
                                           -0.0048 -0.0945  0.1414  0.1234 -0.4267
                                           -0.3044  0.2531  0.0786  0.0025  0.0897
                                           -0.1887 -0.0161 -0.1046
   136. (0.00010) RY*(13) H   4           s(  9.89%)p 1.60( 15.80%)d 7.51( 74.31%)
   137. (0.00008) RY*(14) H   4           s(  5.57%)p 9.23( 51.39%)d 7.73( 43.05%)
   138. (0.00007) RY*(15) H   4           s(  2.45%)p 2.07(  5.06%)d37.77( 92.49%)
   139. (0.00007) RY*(16) H   4           s(  0.66%)p18.55( 12.26%)d99.99( 87.08%)
   140. (0.00004) RY*(17) H   4           s(  1.78%)p10.04( 17.87%)d45.13( 80.35%)
   141. (0.00005) RY*(18) H   4           s( 35.56%)p 1.54( 54.71%)d 0.27(  9.74%)
   142. (0.00004) RY*(19) H   4           s(  1.73%)p 7.71( 13.31%)d49.21( 84.96%)
   143. (0.00003) RY*(20) H   4           s(  0.04%)p99.99( 19.63%)d99.99( 80.33%)
   144. (0.00003) RY*(21) H   4           s(  3.19%)p 7.31( 23.32%)d23.03( 73.49%)
   145. (0.00001) RY*(22) H   4           s( 13.53%)p 2.40( 32.49%)d 3.99( 53.99%)
   146. (0.01919) BD*( 1) O   1 - H   2  
                ( 16.04%)   0.4005* O   1 s( 14.31%)p 5.96( 85.28%)d 0.03(  0.41%)
                                                  f 0.00(  0.01%)
                                           -0.0001 -0.3782 -0.0031 -0.0038  0.0026
                                           -0.9230  0.0164 -0.0047  0.0009 -0.0185
                                            0.0054  0.0005  0.0017  0.0074 -0.0082
                                           -0.0006 -0.0018  0.0125 -0.0007 -0.0013
                                           -0.0234  0.0046  0.0000  0.0046  0.0017
                                           -0.0011 -0.0498  0.0072 -0.0043  0.0273
                                           -0.0046  0.0027  0.0002 -0.0004  0.0033
                                            0.0012  0.0003 -0.0000  0.0000  0.0004
                                            0.0069 -0.0024 -0.0072 -0.0004 -0.0005
                                            0.0000
                ( 83.96%)  -0.9163* H   2 s( 99.79%)p 0.00(  0.17%)d 0.00(  0.04%)
                                           -0.9989  0.0018 -0.0004  0.0003  0.0026
                                           -0.0406  0.0010 -0.0016 -0.0021 -0.0003
                                           -0.0029 -0.0016  0.0010 -0.0033  0.0014
                                           -0.0018 -0.0018  0.0044  0.0013 -0.0177
                                            0.0029  0.0078 -0.0023
   147. (0.02007) BD*( 1) O   1 - H   4  
                ( 14.62%)   0.3824* O   1 s( 15.21%)p 5.55( 84.41%)d 0.02(  0.37%)
                                                  f 0.00(  0.01%)
                                           -0.0001 -0.3900  0.0001 -0.0003  0.0029
                                            0.1415 -0.0102 -0.0016  0.0005  0.5654
                                           -0.0115  0.0041 -0.0011 -0.7099  0.0124
                                           -0.0069  0.0046  0.0123 -0.0039  0.0003
                                           -0.0145  0.0048 -0.0005  0.0485 -0.0012
                                           -0.0008  0.0156 -0.0029  0.0017 -0.0268
                                            0.0036 -0.0014  0.0048 -0.0017  0.0003
                                            0.0012  0.0081  0.0006  0.0007  0.0026
                                           -0.0017 -0.0008  0.0002 -0.0013  0.0042
                                           -0.0025
                ( 85.38%)  -0.9240* H   4 s( 99.73%)p 0.00(  0.26%)d 0.00(  0.01%)
                                           -0.9986  0.0105 -0.0032  0.0003 -0.0274
                                           -0.0004  0.0024 -0.0047 -0.0221 -0.0028
                                           -0.0226  0.0275  0.0076 -0.0022  0.0020
                                            0.0021 -0.0024  0.0078  0.0012 -0.0057
                                           -0.0016  0.0002  0.0007


 NHO Directionality and "Bond Bending" (deviations from line of nuclear centers)

         [Thresholds for printing:  angular deviation  >  1.0 degree]
                                    hybrid p-character > 25.0%
                                    orbital occupancy  >  0.10e

                                Line of Centers        Hybrid 1              Hybrid 2
                                ---------------  -------------------   ------------------
                NBO               Theta   Phi    Theta   Phi    Dev    Theta   Phi    Dev
 ========================================================================================
     2. BD (   1) O   1 - H   4    40.0  258.1    39.3  256.9   1.1      --     --    --
    13. LP (   1) O   1             --     --    119.6  137.2   --       --     --    --
    14. LP (   2) O   1             --     --    130.6  268.3   --       --     --    --
    16. LP (   2) I   3             --     --    117.3    2.3   --       --     --    --
    17. LP (   3) I   3             --     --    137.4  126.7   --       --     --    --
    18. LP (   4) I   3             --     --     60.0   75.0   --       --     --    --


 Natural Bond Orbitals (Summary):

           NBO                  Occupancy  
 -----------------------------------------------
 Molecular unit  1  (H2O)
     1. BD (   1) O   1 - H   2          1.96423
     2. BD (   1) O   1 - H   4          1.96465
     3. CR (   1) O   1                  1.99992
    13. LP (   1) O   1                  1.97270
    14. LP (   2) O   1                  1.96111
    19. RY*(   1) O   1                  0.01985
    20. RY*(   2) O   1                  0.01564
    21. RY*(   3) O   1                  0.00984
    22. RY*(   4) O   1                  0.00667
    23. RY*(   5) O   1                  0.00632
    24. RY*(   6) O   1                  0.00588
    25. RY*(   7) O   1                  0.00578
    26. RY*(   8) O   1                  0.00329
    27. RY*(   9) O   1                  0.00287
    28. RY*(  10) O   1                  0.00064
    29. RY*(  11) O   1                  0.00058
    30. RY*(  12) O   1                  0.00056
    31. RY*(  13) O   1                  0.00054
    32. RY*(  14) O   1                  0.00049
    33. RY*(  15) O   1                  0.00046
    34. RY*(  16) O   1                  0.00043
    35. RY*(  17) O   1                  0.00044
    36. RY*(  18) O   1                  0.00044
    37. RY*(  19) O   1                  0.00041
    38. RY*(  20) O   1                  0.00041
    39. RY*(  21) O   1                  0.00040
    40. RY*(  22) O   1                  0.00034
    41. RY*(  23) O   1                  0.00028
    42. RY*(  24) O   1                  0.00026
    43. RY*(  25) O   1                  0.00020
    44. RY*(  26) O   1                  0.00016
    45. RY*(  27) O   1                  0.00009
    46. RY*(  28) O   1                  0.00008
    47. RY*(  29) O   1                  0.00009
    48. RY*(  30) O   1                  0.00008
    49. RY*(  31) O   1                  0.00008
    50. RY*(  32) O   1                  0.00007
    51. RY*(  33) O   1                  0.00007
    52. RY*(  34) O   1                  0.00006
    53. RY*(  35) O   1                  0.00005
    54. RY*(  36) O   1                  0.00006
    55. RY*(  37) O   1                  0.00005
    56. RY*(  38) O   1                  0.00003
    57. RY*(  39) O   1                  0.00003
    58. RY*(  40) O   1                  0.00001
    59. RY*(  41) O   1                  0.00000
    60. RY*(   1) H   2                  0.00150
    61. RY*(   2) H   2                  0.00138
    62. RY*(   3) H   2                  0.00062
    63. RY*(   4) H   2                  0.00028
    64. RY*(   5) H   2                  0.00019
    65. RY*(   6) H   2                  0.00014
    66. RY*(   7) H   2                  0.00014
    67. RY*(   8) H   2                  0.00011
    68. RY*(   9) H   2                  0.00011
    69. RY*(  10) H   2                  0.00007
    70. RY*(  11) H   2                  0.00007
    71. RY*(  12) H   2                  0.00006
    72. RY*(  13) H   2                  0.00005
    73. RY*(  14) H   2                  0.00004
    74. RY*(  15) H   2                  0.00003
    75. RY*(  16) H   2                  0.00002
    76. RY*(  17) H   2                  0.00003
    77. RY*(  18) H   2                  0.00001
    78. RY*(  19) H   2                  0.00002
    79. RY*(  20) H   2                  0.00002
    80. RY*(  21) H   2                  0.00001
    81. RY*(  22) H   2                  0.00002
   124. RY*(   1) H   4                  0.00649
   125. RY*(   2) H   4                  0.00487
   126. RY*(   3) H   4                  0.00256
   127. RY*(   4) H   4                  0.00141
   128. RY*(   5) H   4                  0.00091
   129. RY*(   6) H   4                  0.00042
   130. RY*(   7) H   4                  0.00030
   131. RY*(   8) H   4                  0.00022
   132. RY*(   9) H   4                  0.00019
   133. RY*(  10) H   4                  0.00017
   134. RY*(  11) H   4                  0.00014
   135. RY*(  12) H   4                  0.00010
   136. RY*(  13) H   4                  0.00010
   137. RY*(  14) H   4                  0.00008
   138. RY*(  15) H   4                  0.00007
   139. RY*(  16) H   4                  0.00007
   140. RY*(  17) H   4                  0.00004
   141. RY*(  18) H   4                  0.00005
   142. RY*(  19) H   4                  0.00004
   143. RY*(  20) H   4                  0.00003
   144. RY*(  21) H   4                  0.00003
   145. RY*(  22) H   4                  0.00001
   146. BD*(   1) O   1 - H   2          0.01919
   147. BD*(   1) O   1 - H   4          0.02007
       -------------------------------
              Total Lewis    9.86261  ( 98.5360%)
        Valence non-Lewis    0.03926  (  0.3922%)
        Rydberg non-Lewis    0.10728  (  1.0718%)
       -------------------------------
            Total unit  1   10.00914  (100.0000%)
           Charge unit  1   -0.00914

 Molecular unit  2  (I)
     4. CR (   1) I   3                  2.00003
     5. CR (   2) I   3                  2.00007
     6. CR (   3) I   3                  2.00007
     7. CR (   4) I   3                  2.00007
     8. CR (   5) I   3                  1.99677
     9. CR (   6) I   3                  1.99679
    10. CR (   7) I   3                  1.99677
    11. CR (   8) I   3                  1.99676
    12. CR (   9) I   3                  1.99678
    15. LP (   1) I   3                  1.98064
    16. LP (   2) I   3                  1.95145
    17. LP (   3) I   3                  1.95131
    18. LP (   4) I   3                  1.94803
    82. RY*(   1) I   3                  0.02050
    83. RY*(   2) I   3                  0.02043
    84. RY*(   3) I   3                  0.02029
    85. RY*(   4) I   3                  0.02025
    86. RY*(   5) I   3                  0.02019
    87. RY*(   6) I   3                  0.01160
    88. RY*(   7) I   3                  0.01152
    89. RY*(   8) I   3                  0.01095
    90. RY*(   9) I   3                  0.00543
    91. RY*(  10) I   3                  0.00277
    92. RY*(  11) I   3                  0.00277
    93. RY*(  12) I   3                  0.00278
    94. RY*(  13) I   3                  0.00278
    95. RY*(  14) I   3                  0.00276
    96. RY*(  15) I   3                  0.00275
    97. RY*(  16) I   3                  0.00272
    98. RY*(  17) I   3                  0.00170
    99. RY*(  18) I   3                  0.00170
   100. RY*(  19) I   3                  0.00158
   101. RY*(  20) I   3                  0.00153
   102. RY*(  21) I   3                  0.00135
   103. RY*(  22) I   3                  0.00076
   104. RY*(  23) I   3                  0.00076
   105. RY*(  24) I   3                  0.00077
   106. RY*(  25) I   3                  0.00057
   107. RY*(  26) I   3                  0.00043
   108. RY*(  27) I   3                  0.00044
   109. RY*(  28) I   3                  0.00044
   110. RY*(  29) I   3                  0.00044
   111. RY*(  30) I   3                  0.00042
   112. RY*(  31) I   3                  0.00042
   113. RY*(  32) I   3                  0.00042
   114. RY*(  33) I   3                  0.00017
   115. RY*(  34) I   3                  0.00017
   116. RY*(  35) I   3                  0.00017
   117. RY*(  36) I   3                  0.00014
   118. RY*(  37) I   3                  0.00013
   119. RY*(  38) I   3                  0.00008
   120. RY*(  39) I   3                  0.00008
   121. RY*(  40) I   3                  0.00007
   122. RY*(  41) I   3                  0.00008
   123. RY*(  42) I   3                  0.00000
       -------------------------------
              Total Lewis   53.81552  ( 99.6752%)
        Valence non-Lewis    0.00000  (  0.0000%)
        Rydberg non-Lewis    0.17534  (  0.3248%)
       -------------------------------
            Total unit  2   53.99086  (100.0000%)
           Charge unit  2   -0.99086
 Leave Link  607 at Tue Oct 19 17:09:01 2021, MaxMem= 16106127360 cpu:              61.8 elap:               2.2
 (Enter /sw/contrib/gaussian/g16/B01/g16/l9999.exe)
 1\1\GINC-N2398\SP\RMP2-FC\Gen\H2I1O1(1-)\CGAVINH\19-Oct-2021\0\\#p pop
 =NBO SP NoSymm mp2/gen Pseudo=read density=current\\title\\-1,1\O\X,1,
 10.\H,1,0.9609077,2,90.\I,1,3.50850362,2,90.,3,101.85830594,0\H,1,0.96
 953,2,40.,3,101.85830594,0\\Version=ES64L-G16RevB.01\HF=-370.8057578\M
 P2=-371.2998687\RMSD=2.637e-09\Dipole=0.8081778,1.2209624,0.3107417\Qu
 adrupole=13.4142052,-27.6799556,14.2657504,-8.1640259,-0.1292599,-0.07
 39107\PG=C01 [X(H2I1O1)]\\@


 IT IS UNWORTHY OF EXCELLENT MEN TO LOSE HOURS LIKE SLAVES IN THE LABOR
 OF CALCULATION WHICH COULD BE SAFELY RELEGATED TO ANYONE ELSE
 IF A MACHINE WERE USED.
    -- G.W. VON LEIBNIZ
 Job cpu time:       0 days  0 hours  5 minutes  4.8 seconds.
 Elapsed time:       0 days  0 hours  0 minutes 18.3 seconds.
 File lengths (MBytes):  RWF=     16 Int=      0 D2E=      0 Chk=      8 Scr=      1
 Normal termination of Gaussian 16 at Tue Oct 19 17:09:02 2021.
