 Entering Gaussian System, Link 0=g16
 Input=ihod_oop_10_sp.gjf
 Output=ihod_oop_10_sp.log
 Initial command:
 /sw/contrib/gaussian/g16/B01/g16/l1.exe "/scr/Gau-10553.inp" -scrdir="/scr/"
 Entering Link 1 = /sw/contrib/gaussian/g16/B01/g16/l1.exe PID=     10554.
  
 Copyright (c) 1988-2017, Gaussian, Inc.  All Rights Reserved.
  
 This is part of the Gaussian(R) 16 program.  It is based on
 the Gaussian(R) 09 system (copyright 2009, Gaussian, Inc.),
 the Gaussian(R) 03 system (copyright 2003, Gaussian, Inc.),
 the Gaussian(R) 98 system (copyright 1998, Gaussian, Inc.),
 the Gaussian(R) 94 system (copyright 1995, Gaussian, Inc.),
 the Gaussian 92(TM) system (copyright 1992, Gaussian, Inc.),
 the Gaussian 90(TM) system (copyright 1990, Gaussian, Inc.),
 the Gaussian 88(TM) system (copyright 1988, Gaussian, Inc.),
 the Gaussian 86(TM) system (copyright 1986, Carnegie Mellon
 University), and the Gaussian 82(TM) system (copyright 1983,
 Carnegie Mellon University). Gaussian is a federally registered
 trademark of Gaussian, Inc.
  
 This software contains proprietary and confidential information,
 including trade secrets, belonging to Gaussian, Inc.
  
 This software is provided under written license and may be
 used, copied, transmitted, or stored only in accord with that
 written license.
  
 The following legend is applicable only to US Government
 contracts under FAR:
  
                    RESTRICTED RIGHTS LEGEND
  
 Use, reproduction and disclosure by the US Government is
 subject to restrictions as set forth in subparagraphs (a)
 and (c) of the Commercial Computer Software - Restricted
 Rights clause in FAR 52.227-19.
  
 Gaussian, Inc.
 340 Quinnipiac St., Bldg. 40, Wallingford CT 06492
  
  
 ---------------------------------------------------------------
 Warning -- This program may not be used in any manner that
 competes with the business of Gaussian, Inc. or will provide
 assistance to any competitor of Gaussian, Inc.  The licensee
 of this program is prohibited from giving any competitor of
 Gaussian, Inc. access to this program.  By using this program,
 the user acknowledges that Gaussian, Inc. is engaged in the
 business of creating and licensing software in the field of
 computational chemistry and represents and warrants to the
 licensee that it is not a competitor of Gaussian, Inc. and that
 it will not use this program in any manner prohibited above.
 ---------------------------------------------------------------
  

 Cite this work as:
 Gaussian 16, Revision B.01,
 M. J. Frisch, G. W. Trucks, H. B. Schlegel, G. E. Scuseria, 
 M. A. Robb, J. R. Cheeseman, G. Scalmani, V. Barone, 
 G. A. Petersson, H. Nakatsuji, X. Li, M. Caricato, A. V. Marenich, 
 J. Bloino, B. G. Janesko, R. Gomperts, B. Mennucci, H. P. Hratchian, 
 J. V. Ortiz, A. F. Izmaylov, J. L. Sonnenberg, D. Williams-Young, 
 F. Ding, F. Lipparini, F. Egidi, J. Goings, B. Peng, A. Petrone, 
 T. Henderson, D. Ranasinghe, V. G. Zakrzewski, J. Gao, N. Rega, 
 G. Zheng, W. Liang, M. Hada, M. Ehara, K. Toyota, R. Fukuda, 
 J. Hasegawa, M. Ishida, T. Nakajima, Y. Honda, O. Kitao, H. Nakai, 
 T. Vreven, K. Throssell, J. A. Montgomery, Jr., J. E. Peralta, 
 F. Ogliaro, M. J. Bearpark, J. J. Heyd, E. N. Brothers, K. N. Kudin, 
 V. N. Staroverov, T. A. Keith, R. Kobayashi, J. Normand, 
 K. Raghavachari, A. P. Rendell, J. C. Burant, S. S. Iyengar, 
 J. Tomasi, M. Cossi, J. M. Millam, M. Klene, C. Adamo, R. Cammi, 
 J. W. Ochterski, R. L. Martin, K. Morokuma, O. Farkas, 
 J. B. Foresman, and D. J. Fox, Gaussian, Inc., Wallingford CT, 2016.
 
 ******************************************
 Gaussian 16:  ES64L-G16RevB.01 20-Dec-2017
                26-Oct-2021 
 ******************************************
 %nproc=28
 Will use up to   28 processors via shared memory.
 %mem=120GB
 %chk=/gscratch/ilahie/mccoygrp/coire_hocl/oop_s_rOH_opt/ihod/ihod_oop_10.chk
 --------------------------------------------------------
 #p pop=NBO SP NoSymm mp2/gen Pseudo=read density=current
 --------------------------------------------------------
 1/30=1,38=1,172=1/1;
 2/12=2,15=1,17=6,18=5,40=1/2;
 3/5=7,11=9,16=1,17=8,25=1,30=1,71=1/1,2,3;
 4//1;
 5/5=2,38=5/2;
 8/6=4,10=1/1;
 9/15=1,16=-3/6;
 10/5=1,13=10,31=1/2;
 6/7=2,8=2,9=2,10=2,22=-1,40=1/1,7;
 99/5=1,9=1/99;
 Leave Link    1 at Tue Oct 26 12:33:27 2021, MaxMem= 16106127360 cpu:               3.0 elap:               0.1
 (Enter /sw/contrib/gaussian/g16/B01/g16/l101.exe)
 -----
 title
 -----
 Symbolic Z-matrix:
 Charge = -1 Multiplicity = 1
 O
 X                    1     10. 
 H(iso=2)             1    r1       2     90. 
 I                    1    r2       2     90.      3    a1       0
 H                    1    r3       2    oop      3    a1       0
       Variables:
  r1                    0.96091                  
  r2                    3.5085                   
  r3                    0.98151                  
  a1                  101.85832                  
  OOP                  80.                       
 
 ITRead=  0  0  0  0
 MicOpt= -1 -1 -1 -1
 NAtoms=      4 NQM=        4 NQMF=       0 NMMI=      0 NMMIF=      0
                NMic=       0 NMicF=      0.
                    Isotopes and Nuclear Properties:
 (Nuclear quadrupole moments (NQMom) in fm**2, nuclear magnetic moments (NMagM)
  in nuclear magnetons)

  Atom         1           2           3           4
 IAtWgt=          16           2         127           1
 AtmWgt=  15.9949146   2.0141018 126.9004000   1.0078250
 NucSpn=           0           2           5           1
 AtZEff=  -0.0000000  -0.0000000  -0.0000000  -0.0000000
 NQMom=    0.0000000   0.2860000 -71.0000000   0.0000000
 NMagM=    0.0000000   0.8574380   2.8132800   2.7928460
 AtZNuc=   8.0000000   1.0000000  53.0000000   1.0000000
 Leave Link  101 at Tue Oct 26 12:33:27 2021, MaxMem= 16106127360 cpu:               2.5 elap:               0.1
 (Enter /sw/contrib/gaussian/g16/B01/g16/l202.exe)
                          Input orientation:                          
 ---------------------------------------------------------------------
 Center     Atomic      Atomic             Coordinates (Angstroms)
 Number     Number       Type             X           Y           Z
 ---------------------------------------------------------------------
      1          8           0        0.000000    0.000000    0.000000
      2          1           0        0.960908    0.000000    0.000000
      3         53           0       -0.720970   -3.433625    0.000000
      4          1           0       -0.198629   -0.945970    0.170437
 ---------------------------------------------------------------------
                    Distance matrix (angstroms):
                    1          2          3          4
     1  O    0.000000
     2  H    0.960908   0.000000
     3  I    3.508501   3.823414   0.000000
     4  H    0.981510   1.506132   2.547610   0.000000
 Symmetry turned off by external request.
 Stoichiometry    H2IO(1-)
 Framework group  C1[X(H2IO)]
 Deg. of freedom     6
 Full point group                 C1      NOp   1
 Rotational constants (GHZ):         316.8932590           2.5105687           2.4915307
 Leave Link  202 at Tue Oct 26 12:33:28 2021, MaxMem= 16106127360 cpu:               0.6 elap:               0.0
 (Enter /sw/contrib/gaussian/g16/B01/g16/l301.exe)
 General basis read from cards:  (5D, 7F)
 Centers:       1      2      4
 aug-cc-pVTZ
 ****
 Centers:       3
 S 11 1.00
     Exponent=  5.5465000000D+03 Coefficients=  1.5600000000D-04
     Exponent=  8.3821400000D+02 Coefficients=  9.8600000000D-04
     Exponent=  1.8218700000D+02 Coefficients=  2.7920000000D-03
     Exponent=  3.1212300000D+01 Coefficients= -4.3251000000D-02
     Exponent=  1.9531400000D+01 Coefficients=  2.3413400000D-01
     Exponent=  8.2409900000D+00 Coefficients= -7.5094300000D-01
     Exponent=  2.1945500000D+00 Coefficients=  8.8296800000D-01
     Exponent=  1.1091100000D+00 Coefficients=  4.6206100000D-01
     Exponent=  3.7464100000D-01 Coefficients=  2.2286000000D-02
     Exponent=  1.7708000000D-01 Coefficients= -4.3530000000D-03
     Exponent=  8.1061000000D-02 Coefficients=  1.1020000000D-03
 S 11 1.00
     Exponent=  5.5465000000D+03 Coefficients= -7.3000000000D-05
     Exponent=  8.3821400000D+02 Coefficients= -5.0800000000D-04
     Exponent=  1.8218700000D+02 Coefficients= -1.1580000000D-03
     Exponent=  3.1212300000D+01 Coefficients=  1.2193000000D-02
     Exponent=  1.9531400000D+01 Coefficients= -8.7854000000D-02
     Exponent=  8.2409900000D+00 Coefficients=  3.3820000000D-01
     Exponent=  2.1945500000D+00 Coefficients= -5.7655000000D-01
     Exponent=  1.1091100000D+00 Coefficients= -4.0929800000D-01
     Exponent=  3.7464100000D-01 Coefficients=  5.6745900000D-01
     Exponent=  1.7708000000D-01 Coefficients=  6.1248900000D-01
     Exponent=  8.1061000000D-02 Coefficients=  1.4323100000D-01
 S 1 1.00
     Exponent=  3.7464100000D-01 Coefficients=  1.0000000000D+00
 S 1 1.00
     Exponent=  1.7708000000D-01 Coefficients=  1.0000000000D+00
 S 1 1.00
     Exponent=  1.0010000000D-01 Coefficients=  1.0000000000D+00
 S 1 1.00
     Exponent=  4.1200000000D-02 Coefficients=  1.0000000000D+00
 P 9 1.00
     Exponent=  1.8898800000D+02 Coefficients=  5.8500000000D-04
     Exponent=  2.1286800000D+01 Coefficients=  3.6923000000D-02
     Exponent=  1.0039600000D+01 Coefficients= -2.3532400000D-01
     Exponent=  3.4518000000D+00 Coefficients=  3.4148300000D-01
     Exponent=  1.9745600000D+00 Coefficients=  5.3478800000D-01
     Exponent=  1.0242000000D+00 Coefficients=  2.6514100000D-01
     Exponent=  4.4943700000D-01 Coefficients=  2.5787000000D-02
     Exponent=  1.8664800000D-01 Coefficients=  5.2200000000D-04
     Exponent=  7.3481000000D-02 Coefficients=  6.0600000000D-04
 P 9 1.00
     Exponent=  1.8898800000D+02 Coefficients= -2.5600000000D-04
     Exponent=  2.1286800000D+01 Coefficients= -1.1682000000D-02
     Exponent=  1.0039600000D+01 Coefficients=  8.3192000000D-02
     Exponent=  3.4518000000D+00 Coefficients= -1.5697000000D-01
     Exponent=  1.9745600000D+00 Coefficients= -2.2451800000D-01
     Exponent=  1.0242000000D+00 Coefficients= -1.1445100000D-01
     Exponent=  4.4943700000D-01 Coefficients=  3.7535600000D-01
     Exponent=  1.8664800000D-01 Coefficients=  5.7513600000D-01
     Exponent=  7.3481000000D-02 Coefficients=  2.4591700000D-01
 P 1 1.00
     Exponent=  5.9810000000D-01 Coefficients=  1.0000000000D+00
 P 1 1.00
     Exponent=  9.6180000000D-02 Coefficients=  1.0000000000D+00
 P 1 1.00
     Exponent=  3.5900000000D-02 Coefficients=  1.0000000000D+00
 D 9 1.00
     Exponent=  1.3266200000D+02 Coefficients=  5.7200000000D-04
     Exponent=  3.7605400000D+01 Coefficients=  4.4020000000D-03
     Exponent=  1.0389100000D+01 Coefficients= -4.0922000000D-02
     Exponent=  6.4901700000D+00 Coefficients=  9.9661000000D-02
     Exponent=  3.4545100000D+00 Coefficients=  3.2266300000D-01
     Exponent=  1.8441300000D+00 Coefficients=  4.0034300000D-01
     Exponent=  9.6247800000D-01 Coefficients=  2.6830600000D-01
     Exponent=  4.7285300000D-01 Coefficients=  8.4847000000D-02
     Exponent=  1.9320000000D-01 Coefficients=  7.6320000000D-03
 D 1 1.00
     Exponent=  4.7285300000D-01 Coefficients=  1.0000000000D+00
 D 1 1.00
     Exponent=  1.9320000000D-01 Coefficients=  1.0000000000D+00
 D 1 1.00
     Exponent=  7.8200000000D-02 Coefficients=  1.0000000000D+00
 F 1 1.00
     Exponent=  4.0640000000D-01 Coefficients=  1.0000000000D+00
 F 1 1.00
     Exponent=  1.8480000000D-01 Coefficients=  1.0000000000D+00
 ****
 ======================================================================================================
                                       Pseudopotential Parameters
 ======================================================================================================
  Center     Atomic      Valence      Angular      Power
  Number     Number     Electrons     Momentum     of R      Exponent        Coefficient   SO-Coeffient
 ======================================================================================================
    1          8
                                   No pseudopotential on this center.
    2          1
                                   No pseudopotential on this center.
    3         53           25
                                      G and up 
                                                     2        1.0000000        0.00000000    0.00000000
                                      S - G
                                                     2       40.0333760       49.98964900    0.00000000
                                                     2       17.3005760      281.00655600    0.00000000
                                                     2        8.8517200       61.41673900    0.00000000
                                      P - G
                                                     2       15.7201410       67.41623900    0.00000000
                                                     2       15.2082220      134.80769600    0.00000000
                                                     2        8.2941860       14.56654800    0.00000000
                                                     2        7.7539490       28.96842200    0.00000000
                                      D - G
                                                     2       13.8177510       35.53875600    0.00000000
                                                     2       13.5878050       53.33975900    0.00000000
                                                     2        6.9476300        9.71646600    0.00000000
                                                     2        6.9600990       14.97750000    0.00000000
                                      F - G
                                                     2       18.5229500      -20.17661800    0.00000000
                                                     2       18.2510350      -26.08807700    0.00000000
                                                     2        7.5579010       -0.22043400    0.00000000
                                                     2        7.5974040       -0.22164600    0.00000000
    4          1
                                   No pseudopotential on this center.
 ======================================================================================================
 Ernie: Thresh=  0.10000D-02 Tol=  0.10000D-05 Strict=F.
 Ernie:  10 primitive shells out of 113 were deleted.
   147 basis functions,   296 primitive gaussians,   170 cartesian basis functions
    18 alpha electrons       18 beta electrons
       nuclear repulsion energy        47.8885755535 Hartrees.
 IExCor=    0 DFT=F Ex=HF Corr=None ExCW=0 ScaHFX=  1.000000
 ScaDFX=  1.000000  1.000000  1.000000  1.000000 ScalE2=  1.000000  1.000000
 IRadAn=      5 IRanWt=     -1 IRanGd=            0 ICorTp=0 IEmpDi=  4
 NAtoms=    4 NActive=    4 NUniq=    4 SFac= 1.00D+00 NAtFMM=   60 NAOKFM=F Big=F
 Integral buffers will be    131072 words long.
 Raffenetti 1 integral format.
 Two-electron integral symmetry is turned off.
 Leave Link  301 at Tue Oct 26 12:33:28 2021, MaxMem= 16106127360 cpu:               3.1 elap:               0.1
 (Enter /sw/contrib/gaussian/g16/B01/g16/l302.exe)
 NPDir=0 NMtPBC=     1 NCelOv=     1 NCel=       1 NClECP=     1 NCelD=      1
         NCelK=      1 NCelE2=     1 NClLst=     1 CellRange=     0.0.
 One-electron integrals computed using PRISM.
   1 Symmetry operations used in ECPInt.
 ECPInt:  NShTT=    1225 NPrTT=    5557 LenC2=    1226 LenP2D=    4931.
 LDataN:  DoStor=T MaxTD1= 7 Len=  274
 NBasis=   147 RedAO= T EigKep=  2.88D-04  NBF=   147
 NBsUse=   147 1.00D-06 EigRej= -1.00D+00 NBFU=   147
 Leave Link  302 at Tue Oct 26 12:33:28 2021, MaxMem= 16106127360 cpu:               5.8 elap:               0.2
 (Enter /sw/contrib/gaussian/g16/B01/g16/l303.exe)
 DipDrv:  MaxL=1.
 Leave Link  303 at Tue Oct 26 12:33:28 2021, MaxMem= 16106127360 cpu:               1.4 elap:               0.1
 (Enter /sw/contrib/gaussian/g16/B01/g16/l401.exe)
 ExpMin= 2.53D-02 ExpMax= 1.53D+04 ExpMxC= 5.22D+02 IAcc=3 IRadAn=         5 AccDes= 0.00D+00
 Harris functional with IExCor=  205 and IRadAn=       5 diagonalized for initial guess.
 HarFok:  IExCor=  205 AccDes= 0.00D+00 IRadAn=         5 IDoV= 1 UseB2=F ITyADJ=14
 ICtDFT=  3500011 ScaDFX=  1.000000  1.000000  1.000000  1.000000
 Defaulting to unpruned grid for atomic number  53.
 FoFCou: FMM=F IPFlag=           0 FMFlag=      100000 FMFlg1=           0
         NFxFlg=           0 DoJE=T BraDBF=F KetDBF=T FulRan=T
         wScrn=  0.000000 ICntrl=       500 IOpCl=  0 I1Cent=   200000004 NGrid=           0
         NMat0=    1 NMatS0=      1 NMatT0=    0 NMatD0=    1 NMtDS0=    0 NMtDT0=    0
 Symmetry not used in FoFCou.
 Harris En= -372.681711318491    
 JPrj=0 DoOrth=F DoCkMO=F.
 Leave Link  401 at Tue Oct 26 12:33:28 2021, MaxMem= 16106127360 cpu:               6.1 elap:               0.3
 (Enter /sw/contrib/gaussian/g16/B01/g16/l502.exe)
 Keep R1 ints in memory in canonical form, NReq=117069251.
 FoFCou: FMM=F IPFlag=           0 FMFlag=           0 FMFlg1=           0
         NFxFlg=           0 DoJE=F BraDBF=F KetDBF=F FulRan=T
         wScrn=  0.000000 ICntrl=       600 IOpCl=  0 I1Cent=           0 NGrid=           0
         NMat0=    1 NMatS0=  10878 NMatT0=    0 NMatD0=    1 NMtDS0=    0 NMtDT0=    0
 Symmetry not used in FoFCou.
 Two-electron integral symmetry not used.
 Closed shell SCF:
 Using DIIS extrapolation, IDIIS=  1040.
 NGot= 16106127360 LenX= 16046892795 LenY= 16046863454
 Requested convergence on RMS density matrix=1.00D-08 within 128 cycles.
 Requested convergence on MAX density matrix=1.00D-06.
 Requested convergence on             energy=1.00D-06.
 No special actions if energy rises.

 Cycle   1  Pass 1  IDiag  1:
 E= -370.655523535589    
 DIIS: error= 3.13D-02 at cycle   1 NSaved=   1.
 NSaved= 1 IEnMin= 1 EnMin= -370.655523535589     IErMin= 1 ErrMin= 3.13D-02
 ErrMax= 3.13D-02  0.00D+00 EMaxC= 1.00D-01 BMatC= 3.70D-01 BMatP= 3.70D-01
 IDIUse=3 WtCom= 6.87D-01 WtEn= 3.13D-01
 Coeff-Com:  0.100D+01
 Coeff-En:   0.100D+01
 Coeff:      0.100D+01
 Gap=     0.397 Goal=   None    Shift=    0.000
 GapD=    0.397 DampG=1.000 DampE=0.500 DampFc=0.5000 IDamp=-1.
 Damping current iteration by 5.00D-01
 RMSDP=3.57D-03 MaxDP=1.01D-01              OVMax= 1.27D-01

 Cycle   2  Pass 1  IDiag  1:
 E= -370.739328039000     Delta-E=       -0.083804503411 Rises=F Damp=T
 DIIS: error= 1.10D-02 at cycle   2 NSaved=   2.
 NSaved= 2 IEnMin= 2 EnMin= -370.739328039000     IErMin= 2 ErrMin= 1.10D-02
 ErrMax= 1.10D-02  0.00D+00 EMaxC= 1.00D-01 BMatC= 5.71D-02 BMatP= 3.70D-01
 IDIUse=3 WtCom= 8.90D-01 WtEn= 1.10D-01
 Coeff-Com: -0.449D+00 0.145D+01
 Coeff-En:   0.000D+00 0.100D+01
 Coeff:     -0.400D+00 0.140D+01
 Gap=     0.265 Goal=   None    Shift=    0.000
 RMSDP=1.65D-03 MaxDP=8.14D-02 DE=-8.38D-02 OVMax= 6.62D-02

 Cycle   3  Pass 1  IDiag  1:
 E= -370.814499460541     Delta-E=       -0.075171421541 Rises=F Damp=F
 DIIS: error= 3.94D-03 at cycle   3 NSaved=   3.
 NSaved= 3 IEnMin= 3 EnMin= -370.814499460541     IErMin= 3 ErrMin= 3.94D-03
 ErrMax= 3.94D-03  0.00D+00 EMaxC= 1.00D-01 BMatC= 2.51D-03 BMatP= 5.71D-02
 IDIUse=3 WtCom= 9.61D-01 WtEn= 3.94D-02
 Coeff-Com: -0.143D+00 0.289D+00 0.854D+00
 Coeff-En:   0.000D+00 0.000D+00 0.100D+01
 Coeff:     -0.138D+00 0.277D+00 0.860D+00
 Gap=     0.272 Goal=   None    Shift=    0.000
 RMSDP=3.88D-04 MaxDP=1.58D-02 DE=-7.52D-02 OVMax= 1.17D-02

 Cycle   4  Pass 1  IDiag  1:
 E= -370.816187904404     Delta-E=       -0.001688443863 Rises=F Damp=F
 DIIS: error= 5.11D-04 at cycle   4 NSaved=   4.
 NSaved= 4 IEnMin= 4 EnMin= -370.816187904404     IErMin= 4 ErrMin= 5.11D-04
 ErrMax= 5.11D-04  0.00D+00 EMaxC= 1.00D-01 BMatC= 5.39D-05 BMatP= 2.51D-03
 IDIUse=3 WtCom= 9.95D-01 WtEn= 5.11D-03
 Coeff-Com:  0.134D-02-0.171D-01 0.845D-01 0.931D+00
 Coeff-En:   0.000D+00 0.000D+00 0.000D+00 0.100D+01
 Coeff:      0.134D-02-0.170D-01 0.841D-01 0.932D+00
 Gap=     0.274 Goal=   None    Shift=    0.000
 RMSDP=1.01D-04 MaxDP=6.22D-03 DE=-1.69D-03 OVMax= 3.31D-03

 Cycle   5  Pass 1  IDiag  1:
 E= -370.816249081879     Delta-E=       -0.000061177475 Rises=F Damp=F
 DIIS: error= 1.32D-04 at cycle   5 NSaved=   5.
 NSaved= 5 IEnMin= 5 EnMin= -370.816249081879     IErMin= 5 ErrMin= 1.32D-04
 ErrMax= 1.32D-04  0.00D+00 EMaxC= 1.00D-01 BMatC= 4.26D-06 BMatP= 5.39D-05
 IDIUse=3 WtCom= 9.99D-01 WtEn= 1.32D-03
 Coeff-Com:  0.103D-01-0.182D-01-0.625D-01 0.119D-02 0.107D+01
 Coeff-En:   0.000D+00 0.000D+00 0.000D+00 0.000D+00 0.100D+01
 Coeff:      0.103D-01-0.182D-01-0.624D-01 0.119D-02 0.107D+01
 Gap=     0.273 Goal=   None    Shift=    0.000
 RMSDP=4.57D-05 MaxDP=1.57D-03 DE=-6.12D-05 OVMax= 1.40D-03

 Cycle   6  Pass 1  IDiag  1:
 E= -370.816258218394     Delta-E=       -0.000009136515 Rises=F Damp=F
 DIIS: error= 4.54D-05 at cycle   6 NSaved=   6.
 NSaved= 6 IEnMin= 6 EnMin= -370.816258218394     IErMin= 6 ErrMin= 4.54D-05
 ErrMax= 4.54D-05  0.00D+00 EMaxC= 1.00D-01 BMatC= 3.37D-07 BMatP= 4.26D-06
 IDIUse=1 WtCom= 1.00D+00 WtEn= 0.00D+00
 Coeff-Com: -0.373D-02 0.760D-02 0.126D-01-0.884D-01-0.224D+00 0.130D+01
 Coeff:     -0.373D-02 0.760D-02 0.126D-01-0.884D-01-0.224D+00 0.130D+01
 Gap=     0.273 Goal=   None    Shift=    0.000
 RMSDP=1.26D-05 MaxDP=7.77D-04 DE=-9.14D-06 OVMax= 7.08D-04

 Cycle   7  Pass 1  IDiag  1:
 E= -370.816259286040     Delta-E=       -0.000001067646 Rises=F Damp=F
 DIIS: error= 1.01D-05 at cycle   7 NSaved=   7.
 NSaved= 7 IEnMin= 7 EnMin= -370.816259286040     IErMin= 7 ErrMin= 1.01D-05
 ErrMax= 1.01D-05  0.00D+00 EMaxC= 1.00D-01 BMatC= 1.18D-08 BMatP= 3.37D-07
 IDIUse=1 WtCom= 1.00D+00 WtEn= 0.00D+00
 Coeff-Com:  0.457D-03-0.104D-02-0.222D-03 0.238D-01-0.872D-02-0.305D+00
 Coeff-Com:  0.129D+01
 Coeff:      0.457D-03-0.104D-02-0.222D-03 0.238D-01-0.872D-02-0.305D+00
 Coeff:      0.129D+01
 Gap=     0.273 Goal=   None    Shift=    0.000
 RMSDP=2.57D-06 MaxDP=1.18D-04 DE=-1.07D-06 OVMax= 1.37D-04

 Cycle   8  Pass 1  IDiag  1:
 E= -370.816259328545     Delta-E=       -0.000000042505 Rises=F Damp=F
 DIIS: error= 1.95D-06 at cycle   8 NSaved=   8.
 NSaved= 8 IEnMin= 8 EnMin= -370.816259328545     IErMin= 8 ErrMin= 1.95D-06
 ErrMax= 1.95D-06  0.00D+00 EMaxC= 1.00D-01 BMatC= 3.87D-10 BMatP= 1.18D-08
 IDIUse=1 WtCom= 1.00D+00 WtEn= 0.00D+00
 Coeff-Com:  0.105D-03-0.205D-03-0.416D-03 0.180D-02 0.901D-02-0.284D-01
 Coeff-Com: -0.847D-01 0.110D+01
 Coeff:      0.105D-03-0.205D-03-0.416D-03 0.180D-02 0.901D-02-0.284D-01
 Coeff:     -0.847D-01 0.110D+01
 Gap=     0.273 Goal=   None    Shift=    0.000
 RMSDP=4.58D-07 MaxDP=1.96D-05 DE=-4.25D-08 OVMax= 1.51D-05

 Cycle   9  Pass 1  IDiag  1:
 E= -370.816259329623     Delta-E=       -0.000000001077 Rises=F Damp=F
 DIIS: error= 4.12D-07 at cycle   9 NSaved=   9.
 NSaved= 9 IEnMin= 9 EnMin= -370.816259329623     IErMin= 9 ErrMin= 4.12D-07
 ErrMax= 4.12D-07  0.00D+00 EMaxC= 1.00D-01 BMatC= 3.38D-11 BMatP= 3.87D-10
 IDIUse=1 WtCom= 1.00D+00 WtEn= 0.00D+00
 Coeff-Com: -0.417D-04 0.936D-04 0.305D-04-0.195D-02 0.413D-03 0.245D-01
 Coeff-Com: -0.862D-01-0.114D+00 0.118D+01
 Coeff:     -0.417D-04 0.936D-04 0.305D-04-0.195D-02 0.413D-03 0.245D-01
 Coeff:     -0.862D-01-0.114D+00 0.118D+01
 Gap=     0.273 Goal=   None    Shift=    0.000
 RMSDP=1.07D-07 MaxDP=3.71D-06 DE=-1.08D-09 OVMax= 5.44D-06

 Cycle  10  Pass 1  IDiag  1:
 E= -370.816259329721     Delta-E=       -0.000000000098 Rises=F Damp=F
 DIIS: error= 8.98D-08 at cycle  10 NSaved=  10.
 NSaved=10 IEnMin=10 EnMin= -370.816259329721     IErMin=10 ErrMin= 8.98D-08
 ErrMax= 8.98D-08  0.00D+00 EMaxC= 1.00D-01 BMatC= 2.27D-12 BMatP= 3.38D-11
 IDIUse=1 WtCom= 1.00D+00 WtEn= 0.00D+00
 Coeff-Com: -0.921D-05 0.178D-04 0.310D-04-0.197D-03-0.672D-03 0.309D-02
 Coeff-Com:  0.143D-02-0.717D-01 0.478D-01 0.102D+01
 Coeff:     -0.921D-05 0.178D-04 0.310D-04-0.197D-03-0.672D-03 0.309D-02
 Coeff:      0.143D-02-0.717D-01 0.478D-01 0.102D+01
 Gap=     0.273 Goal=   None    Shift=    0.000
 RMSDP=3.16D-08 MaxDP=1.63D-06 DE=-9.80D-11 OVMax= 1.06D-06

 Cycle  11  Pass 1  IDiag  1:
 E= -370.816259329725     Delta-E=       -0.000000000004 Rises=F Damp=F
 DIIS: error= 2.81D-08 at cycle  11 NSaved=  11.
 NSaved=11 IEnMin=11 EnMin= -370.816259329725     IErMin=11 ErrMin= 2.81D-08
 ErrMax= 2.81D-08  0.00D+00 EMaxC= 1.00D-01 BMatC= 1.56D-13 BMatP= 2.27D-12
 IDIUse=1 WtCom= 1.00D+00 WtEn= 0.00D+00
 Coeff-Com:  0.367D-05-0.820D-05-0.217D-05 0.168D-03-0.380D-04-0.201D-02
 Coeff-Com:  0.632D-02 0.143D-01-0.105D+00-0.642D-01 0.115D+01
 Coeff:      0.367D-05-0.820D-05-0.217D-05 0.168D-03-0.380D-04-0.201D-02
 Coeff:      0.632D-02 0.143D-01-0.105D+00-0.642D-01 0.115D+01
 Gap=     0.273 Goal=   None    Shift=    0.000
 RMSDP=1.57D-08 MaxDP=9.92D-07 DE=-4.38D-12 OVMax= 5.48D-07

 Cycle  12  Pass 1  IDiag  1:
 E= -370.816259329726     Delta-E=       -0.000000000001 Rises=F Damp=F
 DIIS: error= 5.59D-09 at cycle  12 NSaved=  12.
 NSaved=12 IEnMin=12 EnMin= -370.816259329726     IErMin=12 ErrMin= 5.59D-09
 ErrMax= 5.59D-09  0.00D+00 EMaxC= 1.00D-01 BMatC= 5.25D-15 BMatP= 1.56D-13
 IDIUse=1 WtCom= 1.00D+00 WtEn= 0.00D+00
 Coeff-Com: -0.653D-06 0.160D-05-0.340D-06-0.393D-04 0.422D-04 0.421D-03
 Coeff-Com: -0.175D-02-0.560D-03 0.253D-01-0.282D-01-0.270D+00 0.127D+01
 Coeff:     -0.653D-06 0.160D-05-0.340D-06-0.393D-04 0.422D-04 0.421D-03
 Coeff:     -0.175D-02-0.560D-03 0.253D-01-0.282D-01-0.270D+00 0.127D+01
 Gap=     0.273 Goal=   None    Shift=    0.000
 RMSDP=3.12D-09 MaxDP=1.82D-07 DE=-1.42D-12 OVMax= 9.19D-08

 SCF Done:  E(RHF) =  -370.816259330     A.U. after   12 cycles
            NFock= 12  Conv=0.31D-08     -V/T= 2.9847
 KE= 1.868411433674D+02 PE=-9.094437820211D+02 EE= 3.038978037704D+02
 Leave Link  502 at Tue Oct 26 12:33:31 2021, MaxMem= 16106127360 cpu:              35.5 elap:               2.3
 (Enter /sw/contrib/gaussian/g16/B01/g16/l801.exe)
 ExpMin= 2.53D-02 ExpMax= 1.53D+04 ExpMxC= 5.22D+02 IAcc=3 IRadAn=         5 AccDes= 0.00D+00
 HarFok:  IExCor=  205 AccDes= 0.00D+00 IRadAn=         5 IDoV=-2 UseB2=F ITyADJ=14
 ICtDFT= 12500011 ScaDFX=  1.000000  1.000000  1.000000  1.000000
 Defaulting to unpruned grid for atomic number  53.
 Largest valence mixing into a core orbital is  1.30D-04
 Largest core mixing into a valence orbital is  2.13D-05
 Range of M.O.s used for correlation:     6   147
 NBasis=   147 NAE=    18 NBE=    18 NFC=     5 NFV=     0
 NROrb=    142 NOA=    13 NOB=    13 NVA=   129 NVB=   129

 **** Warning!!: The largest alpha MO coefficient is  0.15416826D+02

 Leave Link  801 at Tue Oct 26 12:33:31 2021, MaxMem= 16106127360 cpu:               2.1 elap:               0.1
 (Enter /sw/contrib/gaussian/g16/B01/g16/l906.exe)
 Frozen-core derivative calculation, NFC=   5 NFV=   0.
 FulOut=F Deriv=T AODrv=F NAtomX=     4
   MMem=         225  MDisk=          13 MDiskD=          13
  W3Min=      449820 MinDsk=      818995 NBas6D=         170
 NBas2D=       14925    NTT=       14535    LW2=    26219120
    MDV= 16105851631 MDiskM=      473642 NBas2p=       14925
 Fully in-core method, ICMem=   303093605.
 IMap=   1   2   3   4   5   6   7   8   9  10  11  12  13  14  15  16  17  18
 JobTyp=1 Pass  1 fully in-core, NPsUse= 28.
 Compute canonical integrals.
 FoFCou: FMM=F IPFlag=           0 FMFlag=           0 FMFlg1=           0
         NFxFlg=           0 DoJE=F BraDBF=F KetDBF=F FulRan=T
         wScrn=  0.000000 ICntrl=       600 IOpCl=  1 I1Cent=           0 NGrid=           0
         NMat0=    1 NMatS0=  14925 NMatT0=    0 NMatD0=    1 NMtDS0=    0 NMtDT0=    0
 Symmetry not used in FoFCou.
 Spin components of T(2) and E(2):
     alpha-alpha T2 =       0.2162285069D-01 E2=     -0.6737681693D-01
     alpha-beta  T2 =       0.1131475917D+00 E2=     -0.3620114069D+00
     beta-beta   T2 =       0.2162285069D-01 E2=     -0.6737681693D-01
 The integrals were generated   1 times.
 ANorm=    0.1075357286D+01
 E2 =    -0.4967650408D+00 EUMP2 =    -0.37131302437048D+03
 Leave Link  906 at Tue Oct 26 12:33:34 2021, MaxMem= 16106127360 cpu:              83.0 elap:               3.0
 (Enter /sw/contrib/gaussian/g16/B01/g16/l1002.exe)
 Minotr:  Closed shell wavefunction.
          Computing MP2/KS-MP2 derivatives.
          Using Z-Vector for PSCF gradient.
          Skipping F1 and S1 gradient terms here.
          Frozen-core window.
          Direct CPHF calculation.
          Differentiating once with respect to electric field.
                with respect to dipole field.
          Electric field/nuclear overlap derivatives assumed to be zero.
          Requested convergence is 1.0D-10 RMS, and 1.0D-09 maximum.
          NewPWx=F KeepS1=T KeepF1=T KeepIn=T MapXYZ=F SortEE=F KeepMc=T.
 Keep R1 ints in memory in canonical form, NReq=117071983.
 FoFCou: FMM=F IPFlag=           0 FMFlag=           0 FMFlg1=           0
         NFxFlg=           0 DoJE=F BraDBF=F KetDBF=F FulRan=T
         wScrn=  0.000000 ICntrl=       600 IOpCl=  0 I1Cent=           0 NGrid=           0
         NMat0=    1 NMatS0=  10878 NMatT0=    0 NMatD0=    1 NMtDS0=    0 NMtDT0=    0
 Symmetry not used in FoFCou.
 Two-electron integral symmetry not used.
          MDV=   16106127360 using IRadAn=       5.
          Solving linear equations separately, MaxMat=       0.
          There are     1 degrees of freedom in the 1st order CPHF.  IDoFFX=0 NUNeed=     1.
 LinEq1:  Iter=  0 NonCon=     1 RMS=2.66D-03 Max=4.30D-02 NDo=     1
 AX will form     1 AO Fock derivatives at one time.
 LinEq1:  Iter=  1 NonCon=     1 RMS=4.28D-04 Max=5.23D-03 NDo=     1
 LinEq1:  Iter=  2 NonCon=     1 RMS=1.91D-04 Max=2.73D-03 NDo=     1
 LinEq1:  Iter=  3 NonCon=     1 RMS=4.44D-05 Max=6.69D-04 NDo=     1
 LinEq1:  Iter=  4 NonCon=     1 RMS=1.28D-05 Max=1.27D-04 NDo=     1
 LinEq1:  Iter=  5 NonCon=     1 RMS=3.44D-06 Max=3.39D-05 NDo=     1
 LinEq1:  Iter=  6 NonCon=     1 RMS=7.37D-07 Max=1.10D-05 NDo=     1
 LinEq1:  Iter=  7 NonCon=     1 RMS=1.64D-07 Max=2.17D-06 NDo=     1
 LinEq1:  Iter=  8 NonCon=     1 RMS=4.63D-08 Max=5.55D-07 NDo=     1
 LinEq1:  Iter=  9 NonCon=     1 RMS=9.32D-09 Max=1.39D-07 NDo=     1
 LinEq1:  Iter= 10 NonCon=     1 RMS=1.68D-09 Max=1.94D-08 NDo=     1
 LinEq1:  Iter= 11 NonCon=     1 RMS=3.37D-10 Max=4.20D-09 NDo=     1
 LinEq1:  Iter= 12 NonCon=     1 RMS=8.84D-11 Max=1.06D-09 NDo=     1
 LinEq1:  Iter= 13 NonCon=     0 RMS=2.17D-11 Max=2.27D-10 NDo=     1
 Linear equations converged to 1.000D-10 1.000D-09 after    13 iterations.
 End of Minotr F.D. properties file   721 does not exist.
 End of Minotr F.D. properties file   722 does not exist.
 End of Minotr F.D. properties file   788 does not exist.
 Leave Link 1002 at Tue Oct 26 12:33:36 2021, MaxMem= 16106127360 cpu:              33.4 elap:               2.4
 (Enter /sw/contrib/gaussian/g16/B01/g16/l601.exe)
 Copying SCF densities to generalized density rwf, IOpCl= 0 IROHF=0.

 **********************************************************************

            Population analysis using the MP2 Density.

 **********************************************************************

 Alpha  occ. eigenvalues --  -20.40395  -7.46627  -5.29183  -5.29158  -5.29150
 Alpha  occ. eigenvalues --   -2.01928  -2.01914  -2.01907  -2.01878  -2.01878
 Alpha  occ. eigenvalues --   -1.18585  -0.62779  -0.54195  -0.42978  -0.34814
 Alpha  occ. eigenvalues --   -0.14690  -0.14170  -0.14121
 Alpha virt. eigenvalues --    0.13222   0.16931   0.23357   0.24531   0.25317
 Alpha virt. eigenvalues --    0.26990   0.28375   0.29230   0.31544   0.33572
 Alpha virt. eigenvalues --    0.36705   0.37219   0.37512   0.39262   0.40918
 Alpha virt. eigenvalues --    0.41894   0.45011   0.47608   0.53256   0.54980
 Alpha virt. eigenvalues --    0.56844   0.59800   0.66668   0.70866   0.77492
 Alpha virt. eigenvalues --    0.78018   0.78405   0.79596   0.79984   0.80110
 Alpha virt. eigenvalues --    0.82495   0.83551   0.85053   0.86142   0.86434
 Alpha virt. eigenvalues --    0.87688   0.88437   0.88881   0.89728   0.90593
 Alpha virt. eigenvalues --    0.92757   0.97020   0.99908   1.05048   1.06689
 Alpha virt. eigenvalues --    1.09524   1.10182   1.12891   1.14311   1.15725
 Alpha virt. eigenvalues --    1.17864   1.19748   1.29228   1.34456   1.37441
 Alpha virt. eigenvalues --    1.40418   1.50217   1.52734   1.57972   1.67657
 Alpha virt. eigenvalues --    1.72917   1.73666   1.75248   1.75396   1.76943
 Alpha virt. eigenvalues --    1.78159   1.81265   1.84566   1.86977   1.89958
 Alpha virt. eigenvalues --    2.02142   2.04241   2.05708   2.07432   2.09817
 Alpha virt. eigenvalues --    2.12383   2.15064   2.28690   2.44355   2.51636
 Alpha virt. eigenvalues --    2.53511   2.59998   2.61067   2.62784   2.65310
 Alpha virt. eigenvalues --    2.76543   2.86736   2.91378   2.96950   3.01250
 Alpha virt. eigenvalues --    3.08314   3.25411   3.26769   3.76402   3.87057
 Alpha virt. eigenvalues --    4.17092   4.22077   4.31126   4.37221   4.43422
 Alpha virt. eigenvalues --    4.43908   4.54556   4.56051   4.60773   4.74438
 Alpha virt. eigenvalues --    4.93862   5.11046   5.28446   5.35442   5.43390
 Alpha virt. eigenvalues --    5.50556   5.66905   5.80489   6.36851   6.68181
 Alpha virt. eigenvalues --    6.88658   7.09717   7.27870   7.42040   7.43689
 Alpha virt. eigenvalues --    7.46652   7.53009   7.57918   7.79810   8.04702
 Alpha virt. eigenvalues --    8.10983   8.95169  16.09846  59.21755
          Condensed to atoms (all electrons):
               1          2          3          4
     1  O    8.254654   0.211641  -0.054821   0.104164
     2  H    0.211641   0.599910   0.007509   0.010220
     3  I   -0.054821   0.007509  25.923899   0.039757
     4  H    0.104164   0.010220   0.039757   0.584597
 Mulliken charges:
               1
     1  O   -0.515639
     2  H    0.170720
     3  I   -0.916344
     4  H    0.261262
 Sum of Mulliken charges =  -1.00000
 Mulliken charges with hydrogens summed into heavy atoms:
               1
     1  O   -0.083656
     3  I   -0.916344
 Electronic spatial extent (au):  <R**2>=           1236.0850
 Charge=             -1.0000 electrons
 Dipole moment (field-independent basis, Debye):
    X=              4.1722    Y=             13.7352    Z=              0.1132  Tot=             14.3553
 Quadrupole moment (field-independent basis, Debye-Ang):
   XX=            -41.4253   YY=            -92.1096   ZZ=            -41.8436
   XY=             -9.9706   XZ=             -0.0410   YZ=             -0.0387
 Traceless Quadrupole moment (field-independent basis, Debye-Ang):
   XX=             17.0342   YY=            -33.6501   ZZ=             16.6159
   XY=             -9.9706   XZ=             -0.0410   YZ=             -0.0387
 Octapole moment (field-independent basis, Debye-Ang**2):
  XXX=             74.3876  YYY=            525.2750  ZZZ=             -0.7470  XYY=             59.1654
  XXY=            123.8308  XXZ=             -0.2971  XZZ=             23.6418  YZZ=            116.4964
  YYZ=             -1.2050  XYZ=             -0.2015
 Hexadecapole moment (field-independent basis, Debye-Ang**3):
 XXXX=           -180.7445 YYYY=          -3062.1034 ZZZZ=            -76.6439 XXXY=           -254.3201
 XXXZ=              0.2439 YYYX=           -369.5257 YYYZ=              5.3116 ZZZX=              0.2212
 ZZZY=              1.2490 XXYY=           -466.2535 XXZZ=            -43.0926 YYZZ=           -424.2227
 XXYZ=              0.5798 YYXZ=              0.8992 ZZXY=            -83.1244
 N-N= 4.788857555354D+01 E-N=-9.088766150439D+02  KE= 1.870314421009D+02
 No NMR shielding tensors so no spin-rotation constants.
 Leave Link  601 at Tue Oct 26 12:33:36 2021, MaxMem= 16106127360 cpu:               4.0 elap:               0.2
 (Enter /sw/contrib/gaussian/g16/B01/g16/l607.exe)
 ******************************Gaussian NBO Version 3.1******************************
             N A T U R A L   A T O M I C   O R B I T A L   A N D
          N A T U R A L   B O N D   O R B I T A L   A N A L Y S I S
 ******************************Gaussian NBO Version 3.1******************************
       /RESON  / : Allow strongly delocalized NBO set

 Analyzing the MP2 density

 Job title: title                                                           

 Storage needed:     65577 in NPA,     86948 in NBO (********** available)
 GSVD:  LWork=       -1281 too small for GESVD, short by       46116 words or       46116 for optimal perf.


 NATURAL POPULATIONS:  Natural atomic orbital occupancies 
                                                          
   NAO  Atom  No  lang   Type(AO)    Occupancy
 --------------------------------------------
     1    O    1  S      Cor( 1S)     1.99967
     2    O    1  S      Val( 2S)     1.74158
     3    O    1  S      Ryd( 3S)     0.00633
     4    O    1  S      Ryd( 4S)     0.00056
     5    O    1  S      Ryd( 5S)     0.00023
     6    O    1  px     Val( 2p)     1.52575
     7    O    1  px     Ryd( 3p)     0.00990
     8    O    1  px     Ryd( 4p)     0.00057
     9    O    1  px     Ryd( 5p)     0.00008
    10    O    1  py     Val( 2p)     1.66144
    11    O    1  py     Ryd( 3p)     0.01210
    12    O    1  py     Ryd( 4p)     0.00064
    13    O    1  py     Ryd( 5p)     0.00013
    14    O    1  pz     Val( 2p)     1.94284
    15    O    1  pz     Ryd( 3p)     0.02148
    16    O    1  pz     Ryd( 4p)     0.00061
    17    O    1  pz     Ryd( 5p)     0.00000
    18    O    1  dxy    Ryd( 3d)     0.00862
    19    O    1  dxy    Ryd( 4d)     0.00051
    20    O    1  dxy    Ryd( 5d)     0.00012
    21    O    1  dxz    Ryd( 3d)     0.00947
    22    O    1  dxz    Ryd( 4d)     0.00091
    23    O    1  dxz    Ryd( 5d)     0.00018
    24    O    1  dyz    Ryd( 3d)     0.00807
    25    O    1  dyz    Ryd( 4d)     0.00048
    26    O    1  dyz    Ryd( 5d)     0.00014
    27    O    1  dx2y2  Ryd( 3d)     0.01205
    28    O    1  dx2y2  Ryd( 4d)     0.00029
    29    O    1  dx2y2  Ryd( 5d)     0.00014
    30    O    1  dz2    Ryd( 3d)     0.00887
    31    O    1  dz2    Ryd( 4d)     0.00046
    32    O    1  dz2    Ryd( 5d)     0.00012
    33    O    1  f(0)   Ryd( 4f)     0.00083
    34    O    1  f(0)   Ryd( 5f)     0.00014
    35    O    1  f(C1)  Ryd( 4f)     0.00054
    36    O    1  f(C1)  Ryd( 5f)     0.00008
    37    O    1  f(S1)  Ryd( 4f)     0.00063
    38    O    1  f(S1)  Ryd( 5f)     0.00010
    39    O    1  f(C2)  Ryd( 4f)     0.00055
    40    O    1  f(C2)  Ryd( 5f)     0.00012
    41    O    1  f(S2)  Ryd( 4f)     0.00047
    42    O    1  f(S2)  Ryd( 5f)     0.00008
    43    O    1  f(C3)  Ryd( 4f)     0.00041
    44    O    1  f(C3)  Ryd( 5f)     0.00011
    45    O    1  f(S3)  Ryd( 4f)     0.00048
    46    O    1  f(S3)  Ryd( 5f)     0.00013

    47    H    2  S      Val( 1S)     0.54589
    48    H    2  S      Ryd( 2S)     0.00168
    49    H    2  S      Ryd( 3S)     0.00040
    50    H    2  S      Ryd( 4S)     0.00014
    51    H    2  px     Ryd( 3p)     0.00024
    52    H    2  px     Ryd( 2p)     0.00070
    53    H    2  px     Ryd( 4p)     0.00016
    54    H    2  py     Ryd( 2p)     0.00057
    55    H    2  py     Ryd( 3p)     0.00016
    56    H    2  py     Ryd( 4p)     0.00007
    57    H    2  pz     Ryd( 2p)     0.00137
    58    H    2  pz     Ryd( 3p)     0.00016
    59    H    2  pz     Ryd( 4p)     0.00005
    60    H    2  dxy    Ryd( 3d)     0.00011
    61    H    2  dxy    Ryd( 4d)     0.00006
    62    H    2  dxz    Ryd( 3d)     0.00036
    63    H    2  dxz    Ryd( 4d)     0.00008
    64    H    2  dyz    Ryd( 3d)     0.00011
    65    H    2  dyz    Ryd( 4d)     0.00005
    66    H    2  dx2y2  Ryd( 3d)     0.00012
    67    H    2  dx2y2  Ryd( 4d)     0.00005
    68    H    2  dz2    Ryd( 3d)     0.00013
    69    H    2  dz2    Ryd( 4d)     0.00006

    70    I    3  S      Cor( 4S)     2.00002
    71    I    3  S      Val( 5S)     1.97824
    72    I    3  S      Ryd( 6S)     0.00304
    73    I    3  S      Ryd( 7S)     0.00055
    74    I    3  S      Ryd( 8S)     0.00008
    75    I    3  S      Ryd( 9S)     0.00000
    76    I    3  px     Cor( 4p)     2.00006
    77    I    3  px     Val( 5p)     1.94982
    78    I    3  px     Ryd( 6p)     0.01100
    79    I    3  px     Ryd( 7p)     0.00075
    80    I    3  px     Ryd( 8p)     0.00008
    81    I    3  py     Cor( 4p)     2.00001
    82    I    3  py     Val( 5p)     1.91955
    83    I    3  py     Ryd( 6p)     0.00986
    84    I    3  py     Ryd( 7p)     0.00067
    85    I    3  py     Ryd( 8p)     0.00016
    86    I    3  pz     Cor( 4p)     2.00006
    87    I    3  pz     Val( 5p)     1.95122
    88    I    3  pz     Ryd( 6p)     0.01100
    89    I    3  pz     Ryd( 7p)     0.00075
    90    I    3  pz     Ryd( 8p)     0.00008
    91    I    3  dxy    Cor( 4d)     1.99674
    92    I    3  dxy    Ryd( 5d)     0.02025
    93    I    3  dxy    Ryd( 6d)     0.00144
    94    I    3  dxy    Ryd( 7d)     0.00018
    95    I    3  dxz    Cor( 4d)     1.99678
    96    I    3  dxz    Ryd( 5d)     0.02017
    97    I    3  dxz    Ryd( 6d)     0.00166
    98    I    3  dxz    Ryd( 7d)     0.00016
    99    I    3  dyz    Cor( 4d)     1.99676
   100    I    3  dyz    Ryd( 5d)     0.02026
   101    I    3  dyz    Ryd( 6d)     0.00142
   102    I    3  dyz    Ryd( 7d)     0.00018
   103    I    3  dx2y2  Cor( 4d)     1.99671
   104    I    3  dx2y2  Ryd( 5d)     0.01989
   105    I    3  dx2y2  Ryd( 6d)     0.00160
   106    I    3  dx2y2  Ryd( 7d)     0.00019
   107    I    3  dz2    Cor( 4d)     1.99676
   108    I    3  dz2    Ryd( 5d)     0.02008
   109    I    3  dz2    Ryd( 6d)     0.00165
   110    I    3  dz2    Ryd( 7d)     0.00018
   111    I    3  f(0)   Ryd( 4f)     0.00273
   112    I    3  f(0)   Ryd( 5f)     0.00043
   113    I    3  f(C1)  Ryd( 4f)     0.00276
   114    I    3  f(C1)  Ryd( 5f)     0.00043
   115    I    3  f(S1)  Ryd( 4f)     0.00276
   116    I    3  f(S1)  Ryd( 5f)     0.00045
   117    I    3  f(C2)  Ryd( 4f)     0.00272
   118    I    3  f(C2)  Ryd( 5f)     0.00043
   119    I    3  f(S2)  Ryd( 4f)     0.00277
   120    I    3  f(S2)  Ryd( 5f)     0.00044
   121    I    3  f(C3)  Ryd( 4f)     0.00269
   122    I    3  f(C3)  Ryd( 5f)     0.00044
   123    I    3  f(S3)  Ryd( 4f)     0.00273
   124    I    3  f(S3)  Ryd( 5f)     0.00045

   125    H    4  S      Val( 1S)     0.49422
   126    H    4  S      Ryd( 2S)     0.00625
   127    H    4  S      Ryd( 3S)     0.00043
   128    H    4  S      Ryd( 4S)     0.00013
   129    H    4  px     Ryd( 2p)     0.00372
   130    H    4  px     Ryd( 3p)     0.00037
   131    H    4  px     Ryd( 4p)     0.00010
   132    H    4  py     Ryd( 2p)     0.00401
   133    H    4  py     Ryd( 3p)     0.00051
   134    H    4  py     Ryd( 4p)     0.00022
   135    H    4  pz     Ryd( 2p)     0.00408
   136    H    4  pz     Ryd( 3p)     0.00041
   137    H    4  pz     Ryd( 4p)     0.00011
   138    H    4  dxy    Ryd( 3d)     0.00022
   139    H    4  dxy    Ryd( 4d)     0.00009
   140    H    4  dxz    Ryd( 3d)     0.00017
   141    H    4  dxz    Ryd( 4d)     0.00007
   142    H    4  dyz    Ryd( 3d)     0.00023
   143    H    4  dyz    Ryd( 4d)     0.00008
   144    H    4  dx2y2  Ryd( 3d)     0.00024
   145    H    4  dx2y2  Ryd( 4d)     0.00009
   146    H    4  dz2    Ryd( 3d)     0.00019
   147    H    4  dz2    Ryd( 4d)     0.00008

 [ 28 electrons found in the effective core potential]

 WARNING:  5 low occupancy (<1.9990e) core orbitals found on  I    3


 Summary of Natural Population Analysis:                  
                                                          
                                       Natural Population 
                Natural  -----------------------------------------------
    Atom  No    Charge         Core      Valence    Rydberg      Total
 -----------------------------------------------------------------------
      O    1   -0.97900      1.99967     6.87160    0.10772     8.97900
      H    2    0.44727      0.00000     0.54589    0.00684     0.55273
      I    3   -0.95227     45.98390     7.79883    0.16954    53.95227
      H    4    0.48399      0.00000     0.49422    0.02179     0.51601
 =======================================================================
   * Total *   -1.00001     47.98357    15.71054    0.30590    64.00001

                                 Natural Population      
 --------------------------------------------------------
   Effective Core            28.00000
   Core                      19.98357 ( 99.9179% of  20)
   Valence                   15.71054 ( 98.1909% of  16)
   Natural Minimal Basis     63.69411 ( 99.5221% of  64)
   Natural Rydberg Basis      0.30590 (  0.4780% of  64)
 --------------------------------------------------------

    Atom  No          Natural Electron Configuration
 ----------------------------------------------------------------------------
      O    1      [core]2S( 1.74)2p( 5.13)3S( 0.01)3p( 0.04)3d( 0.05)
      H    2            1S( 0.55)
      I    3      [core]5S( 1.98)5p( 5.82)4f( 0.02)5d( 0.10)6p( 0.03)6d( 0.01)
      H    4            1S( 0.49)2S( 0.01)2p( 0.01)


 NATURAL BOND ORBITAL ANALYSIS:
 Warning:  a bond orbital has occupanc of -0.00008

                       Occupancies       Lewis Structure    Low   High
           Occ.    -------------------  -----------------   occ   occ
  Cycle   Thresh.   Lewis   Non-Lewis     CR  BD  3C  LP    (L)   (NL)   Dev
 =============================================================================
   1(1)    1.90    63.64858   0.35142     10   2   0   6     0      0    0.05
 -----------------------------------------------------------------------------

 Structure accepted: No low occupancy Lewis orbitals

 WARNING:  5 low occupancy (<1.9990e) core orbitals found on  I    3

 --------------------------------------------------------
   Effective Core           28.00000
   Core                     19.98357 ( 99.918% of  20)
   Valence Lewis            15.66501 ( 97.906% of  16)
  ==================       ============================
   Total Lewis              63.64858 ( 99.451% of  64)
  -----------------------------------------------------
   Valence non-Lewis         0.07466 (  0.117% of  64)
   Rydberg non-Lewis         0.27676 (  0.432% of  64)
  ==================       ============================
   Total non-Lewis           0.35142 (  0.549% of  64)
 --------------------------------------------------------


       (Occupancy)   Bond orbital/ Coefficients/ Hybrids
 ---------------------------------------------------------------------------------
     1. (1.96621) BD ( 1) O   1 - H   2  
                ( 73.00%)   0.8544* O   1 s( 21.22%)p 3.69( 78.33%)d 0.02(  0.44%)
                                                  f 0.00(  0.01%)
                                            0.0002  0.4606 -0.0085  0.0008 -0.0043
                                            0.8826 -0.0336  0.0084 -0.0014  0.0522
                                           -0.0151  0.0018 -0.0036 -0.0069  0.0031
                                           -0.0003  0.0006 -0.0196  0.0017  0.0019
                                            0.0047 -0.0008  0.0000 -0.0014 -0.0002
                                            0.0006  0.0529 -0.0037  0.0037 -0.0344
                                            0.0013 -0.0001  0.0000  0.0001 -0.0092
                                           -0.0005 -0.0002 -0.0001 -0.0002  0.0000
                                           -0.0021  0.0007  0.0032  0.0032  0.0017
                                           -0.0002
                ( 27.00%)   0.5196* H   2 s( 99.89%)p 0.00(  0.10%)d 0.00(  0.01%)
                                            0.9995  0.0035 -0.0003  0.0001 -0.0009
                                            0.0306 -0.0041  0.0019 -0.0013 -0.0012
                                            0.0003  0.0006 -0.0000  0.0012 -0.0023
                                            0.0004  0.0003 -0.0007 -0.0003  0.0070
                                           -0.0022 -0.0055  0.0006
     2. (1.96761) BD ( 1) O   1 - H   4  
                ( 76.95%)   0.8772* O   1 s( 25.70%)p 2.87( 73.85%)d 0.02(  0.43%)
                                                  f 0.00(  0.01%)
                                           -0.0003 -0.5070  0.0023  0.0006  0.0011
                                            0.2123 -0.0191  0.0004  0.0017  0.8178
                                           -0.0160  0.0080 -0.0040 -0.1551  0.0025
                                           -0.0018  0.0016  0.0047 -0.0056  0.0033
                                           -0.0008  0.0011 -0.0007  0.0217 -0.0011
                                           -0.0009  0.0515 -0.0033 -0.0002  0.0326
                                           -0.0006 -0.0030  0.0042 -0.0002 -0.0019
                                            0.0002 -0.0086  0.0005  0.0026  0.0008
                                           -0.0012 -0.0003 -0.0029 -0.0017  0.0008
                                           -0.0039
                ( 23.05%)   0.4801* H   4 s( 99.90%)p 0.00(  0.10%)d 0.00(  0.01%)
                                           -0.9993 -0.0219 -0.0003  0.0004 -0.0174
                                           -0.0005 -0.0001  0.0046 -0.0228 -0.0085
                                           -0.0049  0.0045  0.0016 -0.0005  0.0029
                                           -0.0000 -0.0006  0.0004  0.0001 -0.0057
                                            0.0016  0.0022  0.0012
     3. (1.99968) CR ( 1) O   1           s(100.00%)
                                            1.0000 -0.0004  0.0000 -0.0000  0.0000
                                           -0.0001  0.0000 -0.0000  0.0000  0.0001
                                           -0.0000  0.0000 -0.0000 -0.0000  0.0000
                                           -0.0000  0.0000 -0.0000 -0.0000  0.0000
                                            0.0000  0.0000 -0.0000  0.0000  0.0000
                                           -0.0000 -0.0000 -0.0000 -0.0000  0.0000
                                           -0.0000 -0.0000  0.0000  0.0000  0.0000
                                            0.0000 -0.0000 -0.0000  0.0000  0.0000
                                           -0.0000 -0.0000 -0.0000 -0.0000 -0.0000
                                           -0.0000
     4. (2.00002) CR ( 1) I   3           s(100.00%)p 0.00(  0.00%)
                                            1.0000  0.0000 -0.0000 -0.0000  0.0000
                                            0.0000 -0.0000  0.0000  0.0000 -0.0000
                                           -0.0000 -0.0000  0.0001 -0.0000 -0.0000
                                            0.0000 -0.0000  0.0000  0.0000 -0.0000
                                            0.0000 -0.0000  0.0000 -0.0000  0.0000
                                           -0.0000  0.0000 -0.0000  0.0000 -0.0000
                                            0.0000 -0.0000  0.0000  0.0000 -0.0000
                                            0.0000  0.0000  0.0000 -0.0000  0.0000
                                            0.0000 -0.0000 -0.0000 -0.0000 -0.0000
                                           -0.0000 -0.0000 -0.0000 -0.0000  0.0000
                                            0.0000 -0.0000 -0.0000 -0.0000 -0.0000
     5. (2.00006) CR ( 2) I   3           s(  0.00%)p 1.00(100.00%)
                                           -0.0000  0.0000  0.0000 -0.0000  0.0000
                                            0.0000  1.0000 -0.0001 -0.0000 -0.0000
                                            0.0000 -0.0000  0.0001 -0.0000 -0.0000
                                            0.0000 -0.0000  0.0000  0.0000 -0.0000
                                            0.0000 -0.0000 -0.0000  0.0000  0.0000
                                           -0.0000 -0.0000  0.0000 -0.0000 -0.0000
                                            0.0000 -0.0000  0.0000  0.0000 -0.0000
                                            0.0000  0.0000  0.0000 -0.0000 -0.0000
                                            0.0000 -0.0000 -0.0000  0.0000  0.0000
                                           -0.0000 -0.0000 -0.0000 -0.0000 -0.0000
                                           -0.0000  0.0000  0.0000 -0.0000 -0.0000
     6. (2.00001) CR ( 3) I   3           s(  0.00%)p 1.00(100.00%)
                                           -0.0000  0.0001 -0.0000 -0.0000  0.0000
                                            0.0000 -0.0000  0.0001  0.0000 -0.0000
                                           -0.0000  1.0000  0.0002 -0.0000 -0.0000
                                            0.0000 -0.0000  0.0000  0.0000 -0.0000
                                            0.0000 -0.0000  0.0000 -0.0000 -0.0000
                                           -0.0000  0.0000 -0.0000  0.0000 -0.0000
                                            0.0000 -0.0000  0.0000  0.0000 -0.0000
                                            0.0000  0.0000  0.0000 -0.0000  0.0000
                                            0.0000 -0.0000 -0.0000 -0.0000 -0.0000
                                           -0.0000 -0.0000 -0.0000 -0.0000  0.0000
                                            0.0000 -0.0000 -0.0000 -0.0000 -0.0000
     7. (2.00006) CR ( 4) I   3           s(  0.00%)p 1.00(100.00%)
                                           -0.0000  0.0000 -0.0000 -0.0000  0.0000
                                           -0.0000 -0.0000  0.0000  0.0000 -0.0000
                                           -0.0000 -0.0000  0.0000 -0.0000 -0.0000
                                            0.0000  1.0000 -0.0001 -0.0000 -0.0000
                                            0.0000 -0.0000  0.0000 -0.0000  0.0000
                                            0.0000 -0.0000  0.0000 -0.0000  0.0000
                                           -0.0000  0.0000  0.0000  0.0000 -0.0000
                                            0.0000  0.0000  0.0000 -0.0000  0.0000
                                           -0.0000  0.0000  0.0000 -0.0000 -0.0000
                                           -0.0000 -0.0000  0.0000  0.0000 -0.0000
                                           -0.0000 -0.0000 -0.0000 -0.0000 -0.0000
     8. (1.99674) CR ( 5) I   3           s(  0.00%)p 0.00(  0.00%)d 1.00(100.00%)
                                           -0.0000  0.0000 -0.0000 -0.0000  0.0000
                                            0.0000 -0.0000  0.0000  0.0000 -0.0000
                                           -0.0000 -0.0000  0.0001 -0.0000 -0.0000
                                            0.0000 -0.0000  0.0000  0.0000 -0.0000
                                            0.0000  1.0000  0.0000 -0.0000 -0.0000
                                           -0.0000  0.0000 -0.0000  0.0000 -0.0000
                                            0.0000 -0.0000  0.0000  0.0000 -0.0000
                                            0.0000  0.0000  0.0000 -0.0000  0.0000
                                            0.0000 -0.0000 -0.0000 -0.0000 -0.0000
                                           -0.0000 -0.0000 -0.0000 -0.0000  0.0000
                                            0.0000 -0.0000 -0.0000 -0.0000 -0.0000
     9. (1.99678) CR ( 6) I   3           s(  0.00%)p 0.00(  0.00%)d 1.00(100.00%)
                                           -0.0000  0.0000 -0.0000  0.0000 -0.0000
                                            0.0000 -0.0000  0.0000  0.0000  0.0000
                                           -0.0000 -0.0000  0.0000 -0.0000 -0.0000
                                            0.0000  0.0000  0.0000  0.0000  0.0000
                                           -0.0000 -0.0000  0.0000 -0.0000 -0.0000
                                            1.0000  0.0000 -0.0000  0.0000 -0.0000
                                            0.0000 -0.0000 -0.0000  0.0000 -0.0000
                                            0.0000  0.0000  0.0000 -0.0000  0.0000
                                            0.0000 -0.0000 -0.0000 -0.0000 -0.0000
                                           -0.0000 -0.0000 -0.0000 -0.0000  0.0000
                                            0.0000 -0.0000 -0.0000 -0.0000 -0.0000
    10. (1.99676) CR ( 7) I   3           s(  0.00%)p 0.00(  0.00%)d 1.00(100.00%)
                                           -0.0000  0.0000 -0.0000 -0.0000  0.0000
                                            0.0000 -0.0000  0.0000  0.0000 -0.0000
                                           -0.0000 -0.0000  0.0000 -0.0000 -0.0000
                                            0.0000  0.0000  0.0000  0.0000  0.0000
                                           -0.0000 -0.0000  0.0000 -0.0000 -0.0000
                                           -0.0000  0.0000 -0.0000  0.0000  1.0000
                                            0.0000 -0.0000 -0.0000  0.0000 -0.0000
                                            0.0000  0.0000  0.0000 -0.0000  0.0000
                                            0.0000 -0.0000 -0.0000 -0.0000 -0.0000
                                           -0.0000 -0.0000 -0.0000 -0.0000  0.0000
                                            0.0000 -0.0000 -0.0000 -0.0000 -0.0000
    11. (1.99671) CR ( 8) I   3           s(  0.00%)p 0.00(  0.00%)d 1.00(100.00%)
                                            0.0000 -0.0001  0.0000  0.0000 -0.0000
                                           -0.0000  0.0000 -0.0000 -0.0000  0.0000
                                            0.0000  0.0000 -0.0002  0.0000  0.0000
                                           -0.0000  0.0000 -0.0000 -0.0000  0.0000
                                           -0.0000  0.0000 -0.0000  0.0000 -0.0000
                                            0.0000 -0.0000  0.0000 -0.0000  0.0000
                                           -0.0000  0.0000 -0.0000  1.0000  0.0000
                                           -0.0000 -0.0000 -0.0000  0.0000 -0.0000
                                           -0.0000  0.0000  0.0000  0.0000  0.0000
                                            0.0000  0.0000  0.0000  0.0000 -0.0000
                                           -0.0000  0.0000  0.0000  0.0000  0.0000
    12. (1.99676) CR ( 9) I   3           s(  0.00%)p 0.00(  0.00%)d 1.00(100.00%)
                                            0.0000 -0.0000  0.0000  0.0000 -0.0000
                                           -0.0000  0.0000 -0.0000 -0.0000  0.0000
                                            0.0000  0.0000 -0.0001  0.0000  0.0000
                                           -0.0000  0.0000 -0.0000 -0.0000  0.0000
                                           -0.0000  0.0000 -0.0000  0.0000  0.0000
                                            0.0000 -0.0000  0.0000 -0.0000  0.0000
                                           -0.0000  0.0000 -0.0000 -0.0000  0.0000
                                           -0.0000 -0.0000  1.0000  0.0000 -0.0000
                                           -0.0000  0.0000  0.0000  0.0000  0.0000
                                            0.0000  0.0000  0.0000  0.0000 -0.0000
                                           -0.0000  0.0000  0.0000  0.0000  0.0000
    13. (1.97021) LP ( 1) O   1           s( 52.99%)p 0.88( 46.88%)d 0.00(  0.12%)
                                                  f 0.00(  0.00%)
                                            0.0002  0.7279  0.0047  0.0001  0.0023
                                           -0.4114 -0.0025  0.0032 -0.0011  0.5372
                                            0.0097 -0.0042 -0.0003 -0.1041 -0.0020
                                            0.0008  0.0002  0.0303 -0.0038 -0.0024
                                           -0.0064  0.0011  0.0001  0.0062 -0.0010
                                            0.0001  0.0063  0.0002 -0.0033  0.0126
                                           -0.0020  0.0015  0.0019 -0.0007  0.0020
                                           -0.0003 -0.0034  0.0013  0.0004  0.0001
                                            0.0009 -0.0002  0.0011 -0.0002  0.0033
                                           -0.0022
    14. (1.96127) LP ( 2) O   1           s(  0.00%)p 1.00( 99.70%)d 0.00(  0.27%)
                                                  f 0.00(  0.03%)
                                           -0.0000  0.0002  0.0019  0.0016 -0.0000
                                           -0.0035  0.0003 -0.0001  0.0003  0.1869
                                            0.0057 -0.0009  0.0002  0.9803  0.0316
                                           -0.0070  0.0030  0.0075 -0.0025  0.0015
                                            0.0396 -0.0129  0.0074 -0.0264  0.0001
                                            0.0057  0.0055 -0.0002 -0.0009  0.0109
                                           -0.0007 -0.0013 -0.0128  0.0049 -0.0006
                                            0.0002 -0.0049  0.0014  0.0052 -0.0034
                                            0.0021 -0.0003 -0.0004 -0.0002  0.0011
                                           -0.0009
    15. (1.97963) LP ( 1) I   3           s( 97.84%)p 0.02(  2.16%)d 0.00(  0.00%)
                                                  f 0.00(  0.00%)
                                            0.0000  0.9892  0.0002  0.0002 -0.0002
                                           -0.0000 -0.0000 -0.0281  0.0003 -0.0001
                                            0.0002 -0.0001 -0.1436  0.0004 -0.0006
                                            0.0001 -0.0000 -0.0123  0.0001 -0.0001
                                            0.0000 -0.0000  0.0006 -0.0002 -0.0001
                                           -0.0000  0.0000 -0.0000 -0.0000 -0.0000
                                            0.0002 -0.0001 -0.0001  0.0000 -0.0010
                                            0.0003  0.0001  0.0000 -0.0008  0.0003
                                            0.0001 -0.0001 -0.0001 -0.0001 -0.0001
                                           -0.0005 -0.0003 -0.0001 -0.0001  0.0001
                                            0.0000 -0.0003 -0.0002 -0.0004 -0.0002
    16. (1.95168) LP ( 2) I   3           s(  0.00%)p 1.00(100.00%)d 0.00(  0.00%)
                                                  f 0.00(  0.00%)
                                           -0.0000  0.0028  0.0001 -0.0007  0.0009
                                           -0.0001  0.0000  0.1259  0.0002  0.0001
                                           -0.0001  0.0000  0.0795 -0.0006 -0.0003
                                            0.0002 -0.0001 -0.9888 -0.0005 -0.0009
                                            0.0000 -0.0000  0.0009 -0.0002 -0.0001
                                            0.0000 -0.0022  0.0011 -0.0008  0.0000
                                           -0.0041  0.0006  0.0016  0.0000  0.0003
                                           -0.0002  0.0006  0.0000 -0.0016  0.0008
                                           -0.0005  0.0015  0.0010 -0.0003 -0.0002
                                           -0.0010 -0.0008  0.0014  0.0007 -0.0010
                                           -0.0008 -0.0003 -0.0001  0.0000  0.0001
    17. (1.95149) LP ( 3) I   3           s(  0.00%)p 1.00( 99.99%)d 0.00(  0.00%)
                                                  f 0.00(  0.00%)
                                           -0.0000  0.0037  0.0010 -0.0022  0.0021
                                           -0.0001 -0.0001 -0.9689 -0.0019 -0.0014
                                            0.0006  0.0000  0.2238 -0.0009 -0.0005
                                            0.0007 -0.0000 -0.1054  0.0000 -0.0001
                                            0.0000  0.0000 -0.0049  0.0008  0.0011
                                            0.0000 -0.0013  0.0007 -0.0005  0.0000
                                           -0.0001 -0.0001  0.0003  0.0000 -0.0039
                                            0.0014 -0.0005 -0.0000  0.0007 -0.0006
                                            0.0009  0.0001  0.0001  0.0007  0.0005
                                           -0.0002 -0.0001 -0.0001 -0.0002 -0.0007
                                           -0.0006  0.0014  0.0006 -0.0018 -0.0013
    18. (1.91690) LP ( 4) I   3           s(  2.15%)p45.42( 97.81%)d 0.01(  0.03%)
                                                  f 0.00(  0.00%)
                                           -0.0001  0.1467 -0.0012 -0.0012  0.0011
                                            0.0002 -0.0001  0.2111  0.0005 -0.0003
                                           -0.0003 -0.0003  0.9605 -0.0023 -0.0022
                                            0.0006 -0.0000  0.1045  0.0008 -0.0001
                                            0.0000 -0.0001  0.0071 -0.0011 -0.0000
                                           -0.0000  0.0011 -0.0003  0.0001 -0.0000
                                            0.0048 -0.0012  0.0004  0.0002 -0.0115
                                            0.0014  0.0015  0.0001 -0.0082  0.0014
                                            0.0002 -0.0011 -0.0006 -0.0008 -0.0004
                                           -0.0033 -0.0018 -0.0013 -0.0007  0.0005
                                            0.0002 -0.0024 -0.0008 -0.0031 -0.0013
    19. (0.02022) RY*( 1) O   1           s(  0.01%)p 1.00( 97.47%)d 0.03(  2.44%)
                                                  f 0.00(  0.08%)
                                            0.0000 -0.0001  0.0058  0.0055 -0.0006
                                            0.0000  0.0007 -0.0005  0.0004 -0.0071
                                            0.1822  0.0070 -0.0041 -0.0393  0.9687
                                            0.0334 -0.0174  0.0259 -0.0069  0.0034
                                            0.1338 -0.0356  0.0180 -0.0575  0.0090
                                            0.0034  0.0114 -0.0023  0.0001  0.0251
                                           -0.0049  0.0007 -0.0174  0.0150  0.0009
                                            0.0003 -0.0055  0.0050  0.0109 -0.0084
                                           -0.0022 -0.0007  0.0009 -0.0005  0.0027
                                           -0.0022
    20. (0.01547) RY*( 2) O   1           s( 21.14%)p 3.57( 75.46%)d 0.15(  3.26%)
                                                  f 0.01(  0.14%)
                                            0.0000 -0.0100  0.4597  0.0053 -0.0031
                                            0.0100 -0.4636 -0.0142  0.0041 -0.0096
                                            0.7211  0.0115 -0.0143  0.0015 -0.1374
                                           -0.0036  0.0036  0.1721 -0.0191 -0.0023
                                           -0.0368  0.0054 -0.0012  0.0145 -0.0029
                                           -0.0015  0.0096  0.0019 -0.0079  0.0266
                                           -0.0113  0.0025  0.0003 -0.0020 -0.0008
                                           -0.0003 -0.0019  0.0048 -0.0060  0.0020
                                            0.0057 -0.0025  0.0216 -0.0072  0.0243
                                           -0.0123
    21. (0.00718) RY*( 3) O   1           s(  6.45%)p 9.75( 62.91%)d 4.65( 30.04%)
                                                  f 0.09(  0.60%)
                                           -0.0000  0.0040  0.2493 -0.0454  0.0171
                                           -0.0583 -0.6350 -0.0224 -0.0104 -0.0292
                                           -0.4611 -0.0215 -0.0034  0.0045  0.0879
                                            0.0077 -0.0109 -0.3891  0.0020 -0.0123
                                            0.0094 -0.0019  0.0026 -0.0145  0.0118
                                           -0.0063  0.3734  0.0608 -0.0299  0.0649
                                            0.0091  0.0010 -0.0005  0.0029 -0.0302
                                            0.0114 -0.0079 -0.0001  0.0036  0.0008
                                           -0.0062  0.0011  0.0067 -0.0055 -0.0639
                                            0.0257
    22. (0.00632) RY*( 4) O   1           s(  0.24%)p 9.27(  2.25%)d99.99( 96.30%)
                                                  f 5.02(  1.22%)
                                            0.0000  0.0022  0.0482  0.0095 -0.0003
                                            0.0117  0.1208  0.0084 -0.0029  0.0110
                                            0.0728  0.0060 -0.0061  0.0064  0.0451
                                            0.0096  0.0013 -0.2050 -0.0152  0.0056
                                           -0.6986 -0.0535  0.0149 -0.6106 -0.0458
                                            0.0090 -0.0035 -0.0030  0.0034  0.2324
                                            0.0194 -0.0041  0.0030 -0.0001  0.0006
                                            0.0014 -0.0226  0.0099 -0.0960  0.0389
                                            0.0120 -0.0053 -0.0185  0.0065 -0.0151
                                            0.0050
    23. (0.00625) RY*( 5) O   1           s( 11.72%)p 0.74(  8.67%)d 6.71( 78.63%)
                                                  f 0.08(  0.97%)
                                            0.0000  0.0142  0.3416  0.0181 -0.0025
                                            0.0159  0.2566  0.0180 -0.0088  0.0334
                                            0.1324  0.0035 -0.0078 -0.0086 -0.0377
                                           -0.0037 -0.0011 -0.7353 -0.0382  0.0142
                                            0.2655  0.0172 -0.0053  0.0765  0.0111
                                           -0.0046 -0.3932 -0.0314  0.0103  0.1051
                                            0.0188 -0.0096 -0.0146  0.0067  0.0017
                                            0.0059  0.0302 -0.0133  0.0103 -0.0017
                                           -0.0215  0.0086 -0.0833  0.0251 -0.0113
                                           -0.0022
    24. (0.00592) RY*( 6) O   1           s(  0.03%)p64.55(  2.16%)d99.99( 97.00%)
                                                  f24.24(  0.81%)
                                            0.0000  0.0009  0.0182  0.0015  0.0004
                                            0.0036  0.0278  0.0020 -0.0013 -0.0079
                                           -0.0223 -0.0011 -0.0065 -0.0425 -0.1350
                                           -0.0099 -0.0074  0.1547  0.0150 -0.0038
                                            0.6275  0.0693 -0.0198 -0.6779 -0.0629
                                            0.0051  0.1133  0.0108  0.0004  0.2639
                                            0.0259 -0.0021 -0.0663  0.0260  0.0152
                                           -0.0056 -0.0341  0.0142  0.0016  0.0010
                                           -0.0339  0.0119  0.0092 -0.0032  0.0035
                                           -0.0008
    25. (0.00567) RY*( 7) O   1           s(  6.95%)p 0.79(  5.49%)d12.51( 86.94%)
                                                  f 0.09(  0.62%)
                                            0.0000  0.0215  0.2627 -0.0054 -0.0019
                                            0.0341  0.1555  0.0145 -0.0078 -0.0392
                                           -0.1625 -0.0175 -0.0104  0.0076  0.0295
                                            0.0020 -0.0008  0.2590  0.0260 -0.0056
                                           -0.0658 -0.0074  0.0021  0.3347  0.0399
                                           -0.0039  0.0241  0.0031  0.0036  0.8210
                                            0.0947 -0.0078  0.0260 -0.0099  0.0486
                                           -0.0178 -0.0430  0.0168  0.0153 -0.0060
                                            0.0168 -0.0064 -0.0000 -0.0005  0.0026
                                            0.0010
    26. (0.00314) RY*( 8) O   1           s( 15.49%)p 1.34( 20.83%)d 4.05( 62.74%)
                                                  f 0.06(  0.95%)
                                            0.0000 -0.0055  0.3935  0.0025  0.0053
                                            0.0302 -0.1639  0.0205 -0.0459  0.0272
                                           -0.4071 -0.0372 -0.0638 -0.0045  0.0759
                                            0.0107 -0.0112  0.3346  0.0707 -0.0026
                                           -0.0568 -0.0110  0.0004 -0.1617 -0.0082
                                           -0.0187 -0.6570 -0.0624 -0.0556 -0.2006
                                           -0.0395 -0.0048 -0.0189  0.0150  0.0190
                                           -0.0105  0.0315 -0.0222 -0.0288  0.0178
                                            0.0079 -0.0069 -0.0030 -0.0080  0.0690
                                           -0.0293
    27. (0.00229) RY*( 9) O   1           s( 36.52%)p 0.69( 25.12%)d 1.03( 37.77%)
                                                  f 0.02(  0.60%)
                                           -0.0000 -0.0057  0.6016  0.0172 -0.0544
                                           -0.0135  0.4837  0.0619 -0.0026 -0.0075
                                           -0.0915 -0.0370 -0.0566  0.0008  0.0153
                                            0.0031 -0.0000  0.1119  0.0455 -0.0160
                                           -0.0220 -0.0091  0.0030 -0.0135 -0.0019
                                           -0.0075  0.4667  0.1047  0.0758 -0.3378
                                           -0.1068 -0.0436 -0.0105  0.0077 -0.0170
                                            0.0350  0.0108 -0.0070 -0.0034  0.0057
                                            0.0075 -0.0020  0.0418 -0.0440 -0.0179
                                           -0.0002
    28. (0.00078) RY*(10) O   1           s( 56.23%)p 0.65( 36.48%)d 0.10(  5.84%)
                                                  f 0.03(  1.45%)
                                            0.0000 -0.0043 -0.0409  0.7486  0.0145
                                           -0.0004 -0.0385 -0.0094 -0.0490  0.0000
                                            0.0050 -0.5933 -0.0867 -0.0017 -0.0002
                                            0.0000  0.0361 -0.0254  0.0404 -0.0724
                                            0.0031  0.0235 -0.0013  0.0141 -0.0033
                                            0.0343  0.0190 -0.0624  0.0872  0.0302
                                           -0.1363  0.1324 -0.0429 -0.0046  0.0091
                                            0.0038 -0.0035  0.0404 -0.0563 -0.0048
                                            0.0270 -0.0002  0.0130  0.0394  0.0597
                                            0.0407
    29. (0.00056) RY*(11) O   1           s(  0.07%)p99.99(  9.54%)d99.99( 74.50%)
                                                  f99.99( 15.89%)
                                            0.0000 -0.0001 -0.0052  0.0230  0.0109
                                           -0.0004 -0.0019 -0.0136  0.0014 -0.0023
                                           -0.0070  0.0306 -0.0181 -0.0137 -0.0594
                                            0.2996 -0.0196  0.0040 -0.1571 -0.0087
                                            0.0313 -0.7580 -0.0184 -0.0328  0.3524
                                            0.0041  0.0082 -0.0681  0.0046  0.0137
                                           -0.1191  0.0070 -0.2940  0.0355  0.0325
                                            0.0020 -0.0713  0.0100  0.2218 -0.0339
                                           -0.1013 -0.0088  0.0286  0.0049  0.0584
                                           -0.0048
    30. (0.00053) RY*(12) O   1           s(  0.75%)p53.32( 40.09%)d62.23( 46.79%)
                                                  f16.45( 12.37%)
                                           -0.0000 -0.0057 -0.0421 -0.0358  0.0666
                                           -0.0058 -0.0321  0.6133 -0.0807  0.0068
                                            0.0554 -0.1170 -0.0111 -0.0011 -0.0090
                                            0.0098 -0.0110 -0.0021  0.5367  0.0191
                                            0.0004 -0.1165 -0.0067 -0.0089  0.1377
                                            0.0073  0.0102  0.0980  0.0028 -0.0303
                                            0.3681  0.0265 -0.1047  0.0001 -0.0056
                                            0.0073  0.1980  0.0009  0.0037 -0.0033
                                           -0.0461  0.0041 -0.2020  0.0114 -0.1737
                                            0.0133
    31. (0.00054) RY*(13) O   1           s(  0.15%)p99.99( 60.07%)d99.99( 29.30%)
                                                  f70.20( 10.48%)
                                           -0.0000 -0.0004 -0.0089  0.0310  0.0212
                                           -0.0001  0.0003  0.0301 -0.0095  0.0021
                                            0.0039  0.1206 -0.0047  0.0110 -0.0147
                                            0.7586  0.0967 -0.0007  0.0680  0.0014
                                            0.0122  0.3595  0.0510 -0.0073  0.3693
                                            0.0434  0.0072 -0.0654  0.0012  0.0057
                                           -0.1171 -0.0039  0.0796  0.0013 -0.0080
                                            0.0019 -0.0471  0.0102 -0.3005  0.0196
                                            0.0462 -0.0040 -0.0148  0.0065 -0.0539
                                            0.0085
    32. (0.00046) RY*(14) O   1           s(  1.44%)p 8.32( 11.98%)d 3.58(  5.16%)
                                                  f56.55( 81.42%)
                                            0.0000  0.0034  0.0037  0.1195 -0.0098
                                            0.0060  0.0099 -0.2859  0.0236  0.0082
                                            0.0050  0.1725  0.0316 -0.0022 -0.0009
                                           -0.0793 -0.0169  0.0172  0.1536  0.0278
                                           -0.0028 -0.0174 -0.0013  0.0122  0.0067
                                            0.0175 -0.0277 -0.0633 -0.0143  0.0350
                                           -0.1408  0.0086 -0.2886 -0.0235  0.1854
                                            0.0094  0.4678  0.0382 -0.1105 -0.0159
                                            0.0393 -0.0005  0.2583  0.0191 -0.6280
                                           -0.0091
    33. (0.00045) RY*(15) O   1           s(  0.13%)p64.98(  8.67%)d45.51(  6.07%)
                                                  f99.99( 85.12%)
                                           -0.0000 -0.0000 -0.0068 -0.0098  0.0345
                                           -0.0023 -0.0063  0.1015 -0.0158 -0.0024
                                           -0.0010  0.0494 -0.0207  0.0010  0.0107
                                           -0.2602 -0.0737 -0.0092  0.0055 -0.0089
                                           -0.0136  0.0846  0.0221  0.0423  0.1769
                                            0.0867  0.0050 -0.0446 -0.0092 -0.0073
                                           -0.0975 -0.0201 -0.1736 -0.0297  0.1939
                                            0.0214 -0.2583 -0.0220 -0.4050 -0.0309
                                           -0.7259 -0.0667  0.1253  0.0166  0.0506
                                            0.0010
    34. (0.00044) RY*(16) O   1           s(  1.22%)p 4.18(  5.08%)d11.99( 14.58%)
                                                  f65.08( 79.12%)
                                           -0.0000  0.0006 -0.0119  0.0665  0.0871
[...]
                                           -0.0062  0.0001 -0.4851  0.0351 -0.0166
                                            0.2184  0.0252 -0.0023 -0.0576  0.0081
                                           -0.0069 -0.0028 -0.0045  0.0021  0.0520
                                            0.0070 -0.0525  0.0017
   127. (0.00249) RY*( 4) H   4           s( 25.68%)p 2.86( 73.39%)d 0.04(  0.93%)
                                           -0.0086  0.4351  0.2544  0.0517 -0.5365
                                            0.0255 -0.0095 -0.5948  0.2055 -0.0257
                                            0.2179  0.0235 -0.0270  0.0376 -0.0369
                                            0.0195 -0.0010  0.0069  0.0013  0.0331
                                            0.0519  0.0413  0.0244
   128. (0.00042) RY*( 5) H   4           s( 11.29%)p 7.31( 82.51%)d 0.55(  6.20%)
                                            0.0017 -0.0279  0.2812 -0.1816  0.0148
                                            0.8687 -0.1204  0.0925 -0.0597  0.0466
                                           -0.0477  0.1955 -0.0301 -0.0155  0.1059
                                            0.0492 -0.0318  0.0737  0.0185  0.1899
                                            0.0303  0.0592  0.0295
   129. (0.00037) RY*( 6) H   4           s(  4.68%)p15.77( 73.77%)d 4.61( 21.55%)
                                            0.0006 -0.0692  0.1741  0.1081  0.0453
                                           -0.2554 -0.0332  0.1098  0.2928 -0.2579
                                           -0.1331  0.6975  0.0269 -0.1142 -0.0965
                                            0.1278 -0.0147  0.3050  0.0949  0.1251
                                            0.0753  0.2252  0.0506
   130. (0.00031) RY*( 7) H   4           s(  3.86%)p13.42( 51.78%)d11.50( 44.36%)
                                            0.0030 -0.0528 -0.0999  0.1606  0.0013
                                            0.0641 -0.1777  0.0309  0.0072 -0.6124
                                            0.0447 -0.3107 -0.0871 -0.1983 -0.1381
                                           -0.0960  0.0445 -0.2530  0.0157  0.4021
                                            0.2750  0.1762  0.2036
   131. (0.00026) RY*( 8) H   4           s(  2.64%)p 4.62( 12.19%)d32.27( 85.17%)
                                           -0.0012  0.0122 -0.0321  0.1588  0.0000
                                            0.1189 -0.2420  0.0203  0.1986  0.0757
                                            0.0203 -0.0187 -0.0537 -0.6600  0.1432
                                           -0.1862 -0.0498 -0.0404  0.0211 -0.5765
                                            0.1137  0.1045 -0.0049
   132. (0.00023) RY*( 9) H   4           s(  6.98%)p 4.42( 30.88%)d 8.90( 62.14%)
                                            0.0021 -0.0192  0.2451 -0.0968  0.0029
                                           -0.0935  0.0171  0.0677 -0.1196 -0.0027
                                            0.1029 -0.4644  0.2337 -0.1477  0.0139
                                            0.0940 -0.0819  0.6852 -0.1174  0.0359
                                           -0.0288  0.3021  0.0853
   133. (0.00019) RY*(10) H   4           s( 41.41%)p 1.00( 41.35%)d 0.42( 17.24%)
                                           -0.0110 -0.1215  0.6005 -0.1966  0.0495
                                           -0.1657  0.1263  0.2329  0.4594  0.1727
                                           -0.0344 -0.2123 -0.1621 -0.0025 -0.0335
                                           -0.1228  0.0008 -0.3496 -0.0840  0.0871
                                           -0.0952  0.0986  0.0227
   134. (0.00017) RY*(11) H   4           s(  3.71%)p10.69( 39.63%)d15.28( 56.66%)
                                           -0.0107 -0.0207 -0.1267  0.1432  0.1057
                                            0.1989 -0.0265  0.0781  0.5245 -0.1320
                                            0.0014 -0.2078  0.0564  0.4226 -0.0362
                                            0.4158  0.0467  0.0963 -0.0240 -0.3453
                                            0.2244 -0.0838  0.1585
   135. (0.00014) RY*(12) H   4           s(  1.13%)p 4.46(  5.03%)d83.29( 93.85%)
                                            0.0029 -0.0024  0.1043  0.0195 -0.0360
                                           -0.0931 -0.0589 -0.0088 -0.1652  0.0810
                                           -0.0338 -0.0308 -0.0286 -0.3637  0.0584
                                            0.8260  0.1454 -0.2269 -0.1213  0.1041
                                           -0.0204 -0.0925 -0.1151
   136. (0.00015) RY*(13) H   4           s(  0.71%)p12.68(  8.97%)d99.99( 90.33%)
                                            0.0078  0.0210  0.0013  0.0810  0.0497
                                            0.0078  0.1471 -0.0667 -0.2392 -0.0217
                                           -0.0088  0.0536 -0.0201  0.2445  0.2334
                                            0.1099  0.0579 -0.2773  0.0767 -0.2395
                                           -0.0814  0.7874  0.0827
   137. (0.00011) RY*(14) H   4           s(  0.17%)p99.99( 61.90%)d99.99( 37.93%)
                                           -0.0029  0.0046  0.0352  0.0212 -0.0053
                                            0.0276 -0.0246  0.0099  0.1170  0.0578
                                           -0.0249 -0.0700  0.7713 -0.0655 -0.0238
                                            0.0079 -0.0029 -0.2044  0.5566  0.0898
                                           -0.0518 -0.0017 -0.1099
   138. (0.00010) RY*(15) H   4           s(  0.77%)p69.49( 53.32%)d59.83( 45.91%)
                                            0.0017  0.0002 -0.0026  0.0875 -0.0265
                                            0.0424  0.7009  0.0186  0.0726 -0.1823
                                           -0.0011 -0.0080  0.0220 -0.1464  0.5740
                                           -0.0296 -0.0620  0.0429  0.0131  0.0814
                                            0.2477 -0.1619 -0.0848
   139. (0.00010) RY*(16) H   4           s( 79.64%)p 0.10(  7.87%)d 0.16( 12.49%)
   140. (0.00006) RY*(17) H   4           s(  2.02%)p 0.65(  1.31%)d47.92( 96.67%)
   141. (0.00007) RY*(18) H   4           s( 20.53%)p 1.30( 26.75%)d 2.57( 52.72%)
   142. (0.00006) RY*(19) H   4           s(  4.85%)p 0.68(  3.32%)d18.93( 91.83%)
   143. (0.00004) RY*(20) H   4           s(  0.82%)p38.45( 31.52%)d82.52( 67.66%)
   144. (0.00004) RY*(21) H   4           s(  2.55%)p14.35( 36.55%)d23.91( 60.90%)
   145. (0.00003) RY*(22) H   4           s(  5.84%)p 6.99( 40.82%)d 9.14( 53.34%)
   146. (0.02133) BD*( 1) O   1 - H   2  
                ( 27.00%)   0.5196* O   1 s( 21.22%)p 3.69( 78.33%)d 0.02(  0.44%)
                                                  f 0.00(  0.01%)
                                           -0.0002 -0.4606  0.0085 -0.0008  0.0043
                                           -0.8826  0.0336 -0.0084  0.0014 -0.0522
                                            0.0151 -0.0018  0.0036  0.0069 -0.0031
                                            0.0003 -0.0006  0.0196 -0.0017 -0.0019
                                           -0.0047  0.0008 -0.0000  0.0014  0.0002
                                           -0.0006 -0.0529  0.0037 -0.0037  0.0344
                                           -0.0013  0.0001 -0.0000 -0.0001  0.0092
                                            0.0005  0.0002  0.0001  0.0002 -0.0000
                                            0.0021 -0.0007 -0.0032 -0.0032 -0.0017
                                            0.0002
                ( 73.00%)  -0.8544* H   2 s( 99.89%)p 0.00(  0.10%)d 0.00(  0.01%)
                                           -0.9995 -0.0035  0.0003 -0.0001  0.0009
                                           -0.0306  0.0041 -0.0019  0.0013  0.0012
                                           -0.0003 -0.0006  0.0000 -0.0012  0.0023
                                           -0.0004 -0.0003  0.0007  0.0003 -0.0070
                                            0.0022  0.0055 -0.0006
   147. (0.05332) BD*( 1) O   1 - H   4  
                ( 23.05%)   0.4801* O   1 s( 25.70%)p 2.87( 73.85%)d 0.02(  0.43%)
                                                  f 0.00(  0.01%)
                                            0.0003  0.5070 -0.0023 -0.0006 -0.0011
                                           -0.2123  0.0191 -0.0004 -0.0017 -0.8178
                                            0.0160 -0.0080  0.0040  0.1551 -0.0025
                                            0.0018 -0.0016 -0.0047  0.0056 -0.0033
                                            0.0008 -0.0011  0.0007 -0.0217  0.0011
                                            0.0009 -0.0515  0.0033  0.0002 -0.0326
                                            0.0006  0.0030 -0.0042  0.0002  0.0019
                                           -0.0002  0.0086 -0.0005 -0.0026 -0.0008
                                            0.0012  0.0003  0.0029  0.0017 -0.0008
                                            0.0039
                ( 76.95%)  -0.8772* H   4 s( 99.90%)p 0.00(  0.10%)d 0.00(  0.01%)
                                            0.9993  0.0219  0.0003 -0.0004  0.0174
                                            0.0005  0.0001 -0.0046  0.0228  0.0085
                                            0.0049 -0.0045 -0.0016  0.0005 -0.0029
                                            0.0000  0.0006 -0.0004 -0.0001  0.0057
                                           -0.0016 -0.0022 -0.0012


 NHO Directionality and "Bond Bending" (deviations from line of nuclear centers)

         [Thresholds for printing:  angular deviation  >  1.0 degree]
                                    hybrid p-character > 25.0%
                                    orbital occupancy  >  0.10e

                                Line of Centers        Hybrid 1              Hybrid 2
                                ---------------  -------------------   ------------------
                NBO               Theta   Phi    Theta   Phi    Dev    Theta   Phi    Dev
 ========================================================================================
     1. BD (   1) O   1 - H   2    90.0    0.0    90.2    2.4   2.4      --     --    --
     2. BD (   1) O   1 - H   4    80.0  258.1    79.6  256.4   1.8      --     --    --
    13. LP (   1) O   1             --     --     98.8  127.2   --       --     --    --
    14. LP (   2) O   1             --     --     10.8   90.9   --       --     --    --
    16. LP (   2) I   3             --     --    171.5   32.0   --       --     --    --
    17. LP (   3) I   3             --     --     96.0  167.1   --       --     --    --
    18. LP (   4) I   3             --     --     83.9   77.6   --       --     --    --


 Natural Bond Orbitals (Summary):

           NBO                  Occupancy  
 -----------------------------------------------
 Molecular unit  1  (H2O)
     1. BD (   1) O   1 - H   2          1.96621
     2. BD (   1) O   1 - H   4          1.96761
     3. CR (   1) O   1                  1.99968
    13. LP (   1) O   1                  1.97021
    14. LP (   2) O   1                  1.96127
    19. RY*(   1) O   1                  0.02022
    20. RY*(   2) O   1                  0.01547
    21. RY*(   3) O   1                  0.00718
    22. RY*(   4) O   1                  0.00632
    23. RY*(   5) O   1                  0.00625
    24. RY*(   6) O   1                  0.00592
    25. RY*(   7) O   1                  0.00567
    26. RY*(   8) O   1                  0.00314
    27. RY*(   9) O   1                  0.00229
    28. RY*(  10) O   1                  0.00078
    29. RY*(  11) O   1                  0.00056
    30. RY*(  12) O   1                  0.00053
    31. RY*(  13) O   1                  0.00054
    32. RY*(  14) O   1                  0.00046
    33. RY*(  15) O   1                  0.00045
    34. RY*(  16) O   1                  0.00044
    35. RY*(  17) O   1                  0.00043
    36. RY*(  18) O   1                  0.00043
    37. RY*(  19) O   1                  0.00044
    38. RY*(  20) O   1                  0.00040
    39. RY*(  21) O   1                  0.00037
    40. RY*(  22) O   1                  0.00035
    41. RY*(  23) O   1                  0.00029
    42. RY*(  24) O   1                  0.00028
    43. RY*(  25) O   1                  0.00023
    44. RY*(  26) O   1                  0.00014
    45. RY*(  27) O   1                  0.00008
    46. RY*(  28) O   1                  0.00008
    47. RY*(  29) O   1                  0.00008
    48. RY*(  30) O   1                  0.00008
    49. RY*(  31) O   1                  0.00006
    50. RY*(  32) O   1                  0.00007
    51. RY*(  33) O   1                  0.00006
    52. RY*(  34) O   1                  0.00006
    53. RY*(  35) O   1                  0.00006
    54. RY*(  36) O   1                  0.00006
    55. RY*(  37) O   1                  0.00004
    56. RY*(  38) O   1                  0.00004
    57. RY*(  39) O   1                  0.00001
    58. RY*(  40) O   1                  0.00001
    59. RY*(  41) O   1                 -0.00008
    60. RY*(   1) H   2                  0.00180
    61. RY*(   2) H   2                  0.00174
    62. RY*(   3) H   2                  0.00084
    63. RY*(   4) H   2                  0.00053
    64. RY*(   5) H   2                  0.00031
    65. RY*(   6) H   2                  0.00020
    66. RY*(   7) H   2                  0.00013
    67. RY*(   8) H   2                  0.00011
    68. RY*(   9) H   2                  0.00010
    69. RY*(  10) H   2                  0.00009
    70. RY*(  11) H   2                  0.00009
    71. RY*(  12) H   2                  0.00006
    72. RY*(  13) H   2                  0.00005
    73. RY*(  14) H   2                  0.00004
    74. RY*(  15) H   2                  0.00003
    75. RY*(  16) H   2                  0.00003
    76. RY*(  17) H   2                  0.00003
    77. RY*(  18) H   2                  0.00002
    78. RY*(  19) H   2                  0.00002
    79. RY*(  20) H   2                  0.00002
    80. RY*(  21) H   2                  0.00001
    81. RY*(  22) H   2                  0.00001
   124. RY*(   1) H   4                  0.00784
   125. RY*(   2) H   4                  0.00431
   126. RY*(   3) H   4                  0.00403
   127. RY*(   4) H   4                  0.00249
   128. RY*(   5) H   4                  0.00042
   129. RY*(   6) H   4                  0.00037
   130. RY*(   7) H   4                  0.00031
   131. RY*(   8) H   4                  0.00026
   132. RY*(   9) H   4                  0.00023
   133. RY*(  10) H   4                  0.00019
   134. RY*(  11) H   4                  0.00017
   135. RY*(  12) H   4                  0.00014
   136. RY*(  13) H   4                  0.00015
   137. RY*(  14) H   4                  0.00011
   138. RY*(  15) H   4                  0.00010
   139. RY*(  16) H   4                  0.00010
   140. RY*(  17) H   4                  0.00006
   141. RY*(  18) H   4                  0.00007
   142. RY*(  19) H   4                  0.00006
   143. RY*(  20) H   4                  0.00004
   144. RY*(  21) H   4                  0.00004
   145. RY*(  22) H   4                  0.00003
   146. BD*(   1) O   1 - H   2          0.02133
   147. BD*(   1) O   1 - H   4          0.05332
       -------------------------------
              Total Lewis    9.86498  ( 98.1812%)
        Valence non-Lewis    0.07466  (  0.7430%)
        Rydberg non-Lewis    0.10809  (  1.0758%)
       -------------------------------
            Total unit  1   10.04773  (100.0000%)
           Charge unit  1   -0.04773

 Molecular unit  2  (I)
     4. CR (   1) I   3                  2.00002
     5. CR (   2) I   3                  2.00006
     6. CR (   3) I   3                  2.00001
     7. CR (   4) I   3                  2.00006
     8. CR (   5) I   3                  1.99674
     9. CR (   6) I   3                  1.99678
    10. CR (   7) I   3                  1.99676
    11. CR (   8) I   3                  1.99671
    12. CR (   9) I   3                  1.99676
    15. LP (   1) I   3                  1.97963
    16. LP (   2) I   3                  1.95168
    17. LP (   3) I   3                  1.95149
    18. LP (   4) I   3                  1.91690
    82. RY*(   1) I   3                  0.02023
    83. RY*(   2) I   3                  0.02023
    84. RY*(   3) I   3                  0.02013
    85. RY*(   4) I   3                  0.02013
    86. RY*(   5) I   3                  0.01950
    87. RY*(   6) I   3                  0.01104
    88. RY*(   7) I   3                  0.01100
    89. RY*(   8) I   3                  0.00970
    90. RY*(   9) I   3                  0.00358
    91. RY*(  10) I   3                  0.00278
    92. RY*(  11) I   3                  0.00278
    93. RY*(  12) I   3                  0.00276
    94. RY*(  13) I   3                  0.00276
    95. RY*(  14) I   3                  0.00271
    96. RY*(  15) I   3                  0.00271
    97. RY*(  16) I   3                  0.00268
    98. RY*(  17) I   3                  0.00168
    99. RY*(  18) I   3                  0.00168
   100. RY*(  19) I   3                  0.00141
   101. RY*(  20) I   3                  0.00141
   102. RY*(  21) I   3                  0.00123
   103. RY*(  22) I   3                  0.00074
   104. RY*(  23) I   3                  0.00074
   105. RY*(  24) I   3                  0.00068
   106. RY*(  25) I   3                  0.00047
   107. RY*(  26) I   3                  0.00044
   108. RY*(  27) I   3                  0.00043
   109. RY*(  28) I   3                  0.00043
   110. RY*(  29) I   3                  0.00042
   111. RY*(  30) I   3                  0.00040
   112. RY*(  31) I   3                  0.00040
   113. RY*(  32) I   3                  0.00035
   114. RY*(  33) I   3                  0.00016
   115. RY*(  34) I   3                  0.00017
   116. RY*(  35) I   3                  0.00014
   117. RY*(  36) I   3                  0.00014
   118. RY*(  37) I   3                  0.00014
   119. RY*(  38) I   3                  0.00007
   120. RY*(  39) I   3                  0.00008
   121. RY*(  40) I   3                  0.00007
   122. RY*(  41) I   3                  0.00005
   123. RY*(  42) I   3                  0.00000
       -------------------------------
              Total Lewis   53.78360  ( 99.6874%)
        Valence non-Lewis    0.00000  (  0.0000%)
        Rydberg non-Lewis    0.16867  (  0.3126%)
       -------------------------------
            Total unit  2   53.95227  (100.0000%)
           Charge unit  2   -0.95227
 Leave Link  607 at Tue Oct 26 12:33:39 2021, MaxMem= 16106127360 cpu:              71.8 elap:               2.6
 (Enter /sw/contrib/gaussian/g16/B01/g16/l9999.exe)
 1\1\GINC-N2097\SP\RMP2-FC\Gen\H2I1O1(1-)\CGAVINH\26-Oct-2021\0\\#p pop
 =NBO SP NoSymm mp2/gen Pseudo=read density=current\\title\\-1,1\O\X,1,
 10.\H,1,0.96090774,2,90.\I,1,3.50850135,2,90.,3,101.85832064,0\H,1,0.9
 8151,2,80.,3,101.85832064,0\\Version=ES64L-G16RevB.01\HF=-370.8162593\
 MP2=-371.3130244\RMSD=3.118e-09\Dipole=0.7094613,0.7180426,0.053729\Qu
 adrupole=12.6645251,-25.0180219,12.3534969,-7.4128764,-0.0305023,-0.02
 87564\PG=C01 [X(H2I1O1)]\\@


 KNOWLEDGE IS OF TWO KINDS:  WE KNOW A SUBJECT OURSELVES OR WE KNOW 
 WHERE WE CAN FIND INFORMATION UPON IT.

                                    -- SAMUEL JOHNSON
 Job cpu time:       0 days  0 hours  4 minutes 15.5 seconds.
 Elapsed time:       0 days  0 hours  0 minutes 11.8 seconds.
 File lengths (MBytes):  RWF=     11 Int=      0 D2E=      0 Chk=      8 Scr=      1
 Normal termination of Gaussian 16 at Tue Oct 26 12:33:40 2021.
