 Entering Gaussian System, Link 0=g16
 Input=ihod_oop_30_sp.gjf
 Output=ihod_oop_30_sp.log
 Initial command:
 /sw/contrib/gaussian/g16/B01/g16/l1.exe "/scr/Gau-12214.inp" -scrdir="/scr/"
 Entering Link 1 = /sw/contrib/gaussian/g16/B01/g16/l1.exe PID=     12215.
  
 Copyright (c) 1988-2017, Gaussian, Inc.  All Rights Reserved.
  
 This is part of the Gaussian(R) 16 program.  It is based on
 the Gaussian(R) 09 system (copyright 2009, Gaussian, Inc.),
 the Gaussian(R) 03 system (copyright 2003, Gaussian, Inc.),
 the Gaussian(R) 98 system (copyright 1998, Gaussian, Inc.),
 the Gaussian(R) 94 system (copyright 1995, Gaussian, Inc.),
 the Gaussian 92(TM) system (copyright 1992, Gaussian, Inc.),
 the Gaussian 90(TM) system (copyright 1990, Gaussian, Inc.),
 the Gaussian 88(TM) system (copyright 1988, Gaussian, Inc.),
 the Gaussian 86(TM) system (copyright 1986, Carnegie Mellon
 University), and the Gaussian 82(TM) system (copyright 1983,
 Carnegie Mellon University). Gaussian is a federally registered
 trademark of Gaussian, Inc.
  
 This software contains proprietary and confidential information,
 including trade secrets, belonging to Gaussian, Inc.
  
 This software is provided under written license and may be
 used, copied, transmitted, or stored only in accord with that
 written license.
  
 The following legend is applicable only to US Government
 contracts under FAR:
  
                    RESTRICTED RIGHTS LEGEND
  
 Use, reproduction and disclosure by the US Government is
 subject to restrictions as set forth in subparagraphs (a)
 and (c) of the Commercial Computer Software - Restricted
 Rights clause in FAR 52.227-19.
  
 Gaussian, Inc.
 340 Quinnipiac St., Bldg. 40, Wallingford CT 06492
  
  
 ---------------------------------------------------------------
 Warning -- This program may not be used in any manner that
 competes with the business of Gaussian, Inc. or will provide
 assistance to any competitor of Gaussian, Inc.  The licensee
 of this program is prohibited from giving any competitor of
 Gaussian, Inc. access to this program.  By using this program,
 the user acknowledges that Gaussian, Inc. is engaged in the
 business of creating and licensing software in the field of
 computational chemistry and represents and warrants to the
 licensee that it is not a competitor of Gaussian, Inc. and that
 it will not use this program in any manner prohibited above.
 ---------------------------------------------------------------
  

 Cite this work as:
 Gaussian 16, Revision B.01,
 M. J. Frisch, G. W. Trucks, H. B. Schlegel, G. E. Scuseria, 
 M. A. Robb, J. R. Cheeseman, G. Scalmani, V. Barone, 
 G. A. Petersson, H. Nakatsuji, X. Li, M. Caricato, A. V. Marenich, 
 J. Bloino, B. G. Janesko, R. Gomperts, B. Mennucci, H. P. Hratchian, 
 J. V. Ortiz, A. F. Izmaylov, J. L. Sonnenberg, D. Williams-Young, 
 F. Ding, F. Lipparini, F. Egidi, J. Goings, B. Peng, A. Petrone, 
 T. Henderson, D. Ranasinghe, V. G. Zakrzewski, J. Gao, N. Rega, 
 G. Zheng, W. Liang, M. Hada, M. Ehara, K. Toyota, R. Fukuda, 
 J. Hasegawa, M. Ishida, T. Nakajima, Y. Honda, O. Kitao, H. Nakai, 
 T. Vreven, K. Throssell, J. A. Montgomery, Jr., J. E. Peralta, 
 F. Ogliaro, M. J. Bearpark, J. J. Heyd, E. N. Brothers, K. N. Kudin, 
 V. N. Staroverov, T. A. Keith, R. Kobayashi, J. Normand, 
 K. Raghavachari, A. P. Rendell, J. C. Burant, S. S. Iyengar, 
 J. Tomasi, M. Cossi, J. M. Millam, M. Klene, C. Adamo, R. Cammi, 
 J. W. Ochterski, R. L. Martin, K. Morokuma, O. Farkas, 
 J. B. Foresman, and D. J. Fox, Gaussian, Inc., Wallingford CT, 2016.
 
 ******************************************
 Gaussian 16:  ES64L-G16RevB.01 20-Dec-2017
                26-Oct-2021 
 ******************************************
 %nproc=28
 Will use up to   28 processors via shared memory.
 %mem=120GB
 %chk=/gscratch/ilahie/mccoygrp/coire_hocl/oop_s_rOH_opt/ihod/ihod_oop_30.chk
 --------------------------------------------------------
 #p pop=NBO SP NoSymm mp2/gen Pseudo=read density=current
 --------------------------------------------------------
 1/30=1,38=1,172=1/1;
 2/12=2,15=1,17=6,18=5,40=1/2;
 3/5=7,11=9,16=1,17=8,25=1,30=1,71=1/1,2,3;
 4//1;
 5/5=2,38=5/2;
 8/6=4,10=1/1;
 9/15=1,16=-3/6;
 10/5=1,13=10,31=1/2;
 6/7=2,8=2,9=2,10=2,22=-1,40=1/1,7;
 99/5=1,9=1/99;
 Leave Link    1 at Tue Oct 26 12:34:16 2021, MaxMem= 16106127360 cpu:               2.3 elap:               0.1
 (Enter /sw/contrib/gaussian/g16/B01/g16/l101.exe)
 -----
 title
 -----
 Symbolic Z-matrix:
 Charge = -1 Multiplicity = 1
 O
 X                    1     10. 
 H(iso=2)             1    r1       2     90. 
 I                    1    r2       2     90.      3    a1       0
 H                    1    r3       2    oop      3    a1       0
       Variables:
  r1                    0.96091                  
  r2                    3.5085                   
  r3                    0.97516                  
  a1                  101.85832                  
  OOP                  60.                       
 
 ITRead=  0  0  0  0
 MicOpt= -1 -1 -1 -1
 NAtoms=      4 NQM=        4 NQMF=       0 NMMI=      0 NMMIF=      0
                NMic=       0 NMicF=      0.
                    Isotopes and Nuclear Properties:
 (Nuclear quadrupole moments (NQMom) in fm**2, nuclear magnetic moments (NMagM)
  in nuclear magnetons)

  Atom         1           2           3           4
 IAtWgt=          16           2         127           1
 AtmWgt=  15.9949146   2.0141018 126.9004000   1.0078250
 NucSpn=           0           2           5           1
 AtZEff=  -0.0000000  -0.0000000  -0.0000000  -0.0000000
 NQMom=    0.0000000   0.2860000 -71.0000000   0.0000000
 NMagM=    0.0000000   0.8574380   2.8132800   2.7928460
 AtZNuc=   8.0000000   1.0000000  53.0000000   1.0000000
 Leave Link  101 at Tue Oct 26 12:34:17 2021, MaxMem= 16106127360 cpu:               2.1 elap:               0.1
 (Enter /sw/contrib/gaussian/g16/B01/g16/l202.exe)
                          Input orientation:                          
 ---------------------------------------------------------------------
 Center     Atomic      Atomic             Coordinates (Angstroms)
 Number     Number       Type             X           Y           Z
 ---------------------------------------------------------------------
      1          8           0        0.000000    0.000000    0.000000
      2          1           0        0.960908    0.000000    0.000000
      3         53           0       -0.720970   -3.433625    0.000000
      4          1           0       -0.173541   -0.826490    0.487580
 ---------------------------------------------------------------------
                    Distance matrix (angstroms):
                    1          2          3          4
     1  O    0.000000
     2  H    0.960908   0.000000
     3  I    3.508501   3.823414   0.000000
     4  H    0.975160   1.485865   2.708240   0.000000
 Symmetry turned off by external request.
 Stoichiometry    H2IO(1-)
 Framework group  C1[X(H2IO)]
 Deg. of freedom     6
 Full point group                 C1      NOp   1
 Rotational constants (GHZ):         280.9135603           2.5014220           2.4849745
 Leave Link  202 at Tue Oct 26 12:34:17 2021, MaxMem= 16106127360 cpu:               0.3 elap:               0.0
 (Enter /sw/contrib/gaussian/g16/B01/g16/l301.exe)
 General basis read from cards:  (5D, 7F)
 Centers:       1      2      4
 aug-cc-pVTZ
 ****
 Centers:       3
 S 11 1.00
     Exponent=  5.5465000000D+03 Coefficients=  1.5600000000D-04
     Exponent=  8.3821400000D+02 Coefficients=  9.8600000000D-04
     Exponent=  1.8218700000D+02 Coefficients=  2.7920000000D-03
     Exponent=  3.1212300000D+01 Coefficients= -4.3251000000D-02
     Exponent=  1.9531400000D+01 Coefficients=  2.3413400000D-01
     Exponent=  8.2409900000D+00 Coefficients= -7.5094300000D-01
     Exponent=  2.1945500000D+00 Coefficients=  8.8296800000D-01
     Exponent=  1.1091100000D+00 Coefficients=  4.6206100000D-01
     Exponent=  3.7464100000D-01 Coefficients=  2.2286000000D-02
     Exponent=  1.7708000000D-01 Coefficients= -4.3530000000D-03
     Exponent=  8.1061000000D-02 Coefficients=  1.1020000000D-03
 S 11 1.00
     Exponent=  5.5465000000D+03 Coefficients= -7.3000000000D-05
     Exponent=  8.3821400000D+02 Coefficients= -5.0800000000D-04
     Exponent=  1.8218700000D+02 Coefficients= -1.1580000000D-03
     Exponent=  3.1212300000D+01 Coefficients=  1.2193000000D-02
     Exponent=  1.9531400000D+01 Coefficients= -8.7854000000D-02
     Exponent=  8.2409900000D+00 Coefficients=  3.3820000000D-01
     Exponent=  2.1945500000D+00 Coefficients= -5.7655000000D-01
     Exponent=  1.1091100000D+00 Coefficients= -4.0929800000D-01
     Exponent=  3.7464100000D-01 Coefficients=  5.6745900000D-01
     Exponent=  1.7708000000D-01 Coefficients=  6.1248900000D-01
     Exponent=  8.1061000000D-02 Coefficients=  1.4323100000D-01
 S 1 1.00
     Exponent=  3.7464100000D-01 Coefficients=  1.0000000000D+00
 S 1 1.00
     Exponent=  1.7708000000D-01 Coefficients=  1.0000000000D+00
 S 1 1.00
     Exponent=  1.0010000000D-01 Coefficients=  1.0000000000D+00
 S 1 1.00
     Exponent=  4.1200000000D-02 Coefficients=  1.0000000000D+00
 P 9 1.00
     Exponent=  1.8898800000D+02 Coefficients=  5.8500000000D-04
     Exponent=  2.1286800000D+01 Coefficients=  3.6923000000D-02
     Exponent=  1.0039600000D+01 Coefficients= -2.3532400000D-01
     Exponent=  3.4518000000D+00 Coefficients=  3.4148300000D-01
     Exponent=  1.9745600000D+00 Coefficients=  5.3478800000D-01
     Exponent=  1.0242000000D+00 Coefficients=  2.6514100000D-01
     Exponent=  4.4943700000D-01 Coefficients=  2.5787000000D-02
     Exponent=  1.8664800000D-01 Coefficients=  5.2200000000D-04
     Exponent=  7.3481000000D-02 Coefficients=  6.0600000000D-04
 P 9 1.00
     Exponent=  1.8898800000D+02 Coefficients= -2.5600000000D-04
     Exponent=  2.1286800000D+01 Coefficients= -1.1682000000D-02
     Exponent=  1.0039600000D+01 Coefficients=  8.3192000000D-02
     Exponent=  3.4518000000D+00 Coefficients= -1.5697000000D-01
     Exponent=  1.9745600000D+00 Coefficients= -2.2451800000D-01
     Exponent=  1.0242000000D+00 Coefficients= -1.1445100000D-01
     Exponent=  4.4943700000D-01 Coefficients=  3.7535600000D-01
     Exponent=  1.8664800000D-01 Coefficients=  5.7513600000D-01
     Exponent=  7.3481000000D-02 Coefficients=  2.4591700000D-01
 P 1 1.00
     Exponent=  5.9810000000D-01 Coefficients=  1.0000000000D+00
 P 1 1.00
     Exponent=  9.6180000000D-02 Coefficients=  1.0000000000D+00
 P 1 1.00
     Exponent=  3.5900000000D-02 Coefficients=  1.0000000000D+00
 D 9 1.00
     Exponent=  1.3266200000D+02 Coefficients=  5.7200000000D-04
     Exponent=  3.7605400000D+01 Coefficients=  4.4020000000D-03
     Exponent=  1.0389100000D+01 Coefficients= -4.0922000000D-02
     Exponent=  6.4901700000D+00 Coefficients=  9.9661000000D-02
     Exponent=  3.4545100000D+00 Coefficients=  3.2266300000D-01
     Exponent=  1.8441300000D+00 Coefficients=  4.0034300000D-01
     Exponent=  9.6247800000D-01 Coefficients=  2.6830600000D-01
     Exponent=  4.7285300000D-01 Coefficients=  8.4847000000D-02
     Exponent=  1.9320000000D-01 Coefficients=  7.6320000000D-03
 D 1 1.00
     Exponent=  4.7285300000D-01 Coefficients=  1.0000000000D+00
 D 1 1.00
     Exponent=  1.9320000000D-01 Coefficients=  1.0000000000D+00
 D 1 1.00
     Exponent=  7.8200000000D-02 Coefficients=  1.0000000000D+00
 F 1 1.00
     Exponent=  4.0640000000D-01 Coefficients=  1.0000000000D+00
 F 1 1.00
     Exponent=  1.8480000000D-01 Coefficients=  1.0000000000D+00
 ****
 ======================================================================================================
                                       Pseudopotential Parameters
 ======================================================================================================
  Center     Atomic      Valence      Angular      Power
  Number     Number     Electrons     Momentum     of R      Exponent        Coefficient   SO-Coeffient
 ======================================================================================================
    1          8
                                   No pseudopotential on this center.
    2          1
                                   No pseudopotential on this center.
    3         53           25
                                      G and up 
                                                     2        1.0000000        0.00000000    0.00000000
                                      S - G
                                                     2       40.0333760       49.98964900    0.00000000
                                                     2       17.3005760      281.00655600    0.00000000
                                                     2        8.8517200       61.41673900    0.00000000
                                      P - G
                                                     2       15.7201410       67.41623900    0.00000000
                                                     2       15.2082220      134.80769600    0.00000000
                                                     2        8.2941860       14.56654800    0.00000000
                                                     2        7.7539490       28.96842200    0.00000000
                                      D - G
                                                     2       13.8177510       35.53875600    0.00000000
                                                     2       13.5878050       53.33975900    0.00000000
                                                     2        6.9476300        9.71646600    0.00000000
                                                     2        6.9600990       14.97750000    0.00000000
                                      F - G
                                                     2       18.5229500      -20.17661800    0.00000000
                                                     2       18.2510350      -26.08807700    0.00000000
                                                     2        7.5579010       -0.22043400    0.00000000
                                                     2        7.5974040       -0.22164600    0.00000000
    4          1
                                   No pseudopotential on this center.
 ======================================================================================================
 Ernie: Thresh=  0.10000D-02 Tol=  0.10000D-05 Strict=F.
 Ernie:  10 primitive shells out of 113 were deleted.
   147 basis functions,   296 primitive gaussians,   170 cartesian basis functions
    18 alpha electrons       18 beta electrons
       nuclear repulsion energy        47.6134560618 Hartrees.
 IExCor=    0 DFT=F Ex=HF Corr=None ExCW=0 ScaHFX=  1.000000
 ScaDFX=  1.000000  1.000000  1.000000  1.000000 ScalE2=  1.000000  1.000000
 IRadAn=      5 IRanWt=     -1 IRanGd=            0 ICorTp=0 IEmpDi=  4
 NAtoms=    4 NActive=    4 NUniq=    4 SFac= 1.00D+00 NAtFMM=   60 NAOKFM=F Big=F
 Integral buffers will be    131072 words long.
 Raffenetti 1 integral format.
 Two-electron integral symmetry is turned off.
 Leave Link  301 at Tue Oct 26 12:34:17 2021, MaxMem= 16106127360 cpu:               2.5 elap:               0.1
 (Enter /sw/contrib/gaussian/g16/B01/g16/l302.exe)
 NPDir=0 NMtPBC=     1 NCelOv=     1 NCel=       1 NClECP=     1 NCelD=      1
         NCelK=      1 NCelE2=     1 NClLst=     1 CellRange=     0.0.
 One-electron integrals computed using PRISM.
   1 Symmetry operations used in ECPInt.
 ECPInt:  NShTT=    1225 NPrTT=    5557 LenC2=    1226 LenP2D=    4931.
 LDataN:  DoStor=T MaxTD1= 7 Len=  274
 NBasis=   147 RedAO= T EigKep=  3.30D-04  NBF=   147
 NBsUse=   147 1.00D-06 EigRej= -1.00D+00 NBFU=   147
 Leave Link  302 at Tue Oct 26 12:34:17 2021, MaxMem= 16106127360 cpu:               6.4 elap:               0.3
 (Enter /sw/contrib/gaussian/g16/B01/g16/l303.exe)
 DipDrv:  MaxL=1.
 Leave Link  303 at Tue Oct 26 12:34:17 2021, MaxMem= 16106127360 cpu:               0.8 elap:               0.1
 (Enter /sw/contrib/gaussian/g16/B01/g16/l401.exe)
 ExpMin= 2.53D-02 ExpMax= 1.53D+04 ExpMxC= 5.22D+02 IAcc=3 IRadAn=         5 AccDes= 0.00D+00
 Harris functional with IExCor=  205 and IRadAn=       5 diagonalized for initial guess.
 HarFok:  IExCor=  205 AccDes= 0.00D+00 IRadAn=         5 IDoV= 1 UseB2=F ITyADJ=14
 ICtDFT=  3500011 ScaDFX=  1.000000  1.000000  1.000000  1.000000
 Defaulting to unpruned grid for atomic number  53.
 FoFCou: FMM=F IPFlag=           0 FMFlag=      100000 FMFlg1=           0
         NFxFlg=           0 DoJE=T BraDBF=F KetDBF=T FulRan=T
         wScrn=  0.000000 ICntrl=       500 IOpCl=  0 I1Cent=   200000004 NGrid=           0
         NMat0=    1 NMatS0=      1 NMatT0=    0 NMatD0=    1 NMtDS0=    0 NMtDT0=    0
 Symmetry not used in FoFCou.
 Harris En= -372.678583336096    
 JPrj=0 DoOrth=F DoCkMO=F.
 Leave Link  401 at Tue Oct 26 12:34:17 2021, MaxMem= 16106127360 cpu:               7.5 elap:               0.3
 (Enter /sw/contrib/gaussian/g16/B01/g16/l502.exe)
 Keep R1 ints in memory in canonical form, NReq=117068987.
 FoFCou: FMM=F IPFlag=           0 FMFlag=           0 FMFlg1=           0
         NFxFlg=           0 DoJE=F BraDBF=F KetDBF=F FulRan=T
         wScrn=  0.000000 ICntrl=       600 IOpCl=  0 I1Cent=           0 NGrid=           0
         NMat0=    1 NMatS0=  10878 NMatT0=    0 NMatD0=    1 NMtDS0=    0 NMtDT0=    0
 Symmetry not used in FoFCou.
 Two-electron integral symmetry not used.
 Closed shell SCF:
 Using DIIS extrapolation, IDIIS=  1040.
 NGot= 16106127360 LenX= 16046892795 LenY= 16046863454
 Requested convergence on RMS density matrix=1.00D-08 within 128 cycles.
 Requested convergence on MAX density matrix=1.00D-06.
 Requested convergence on             energy=1.00D-06.
 No special actions if energy rises.

 Cycle   1  Pass 1  IDiag  1:
 E= -370.652393511516    
 DIIS: error= 2.86D-02 at cycle   1 NSaved=   1.
 NSaved= 1 IEnMin= 1 EnMin= -370.652393511516     IErMin= 1 ErrMin= 2.86D-02
 ErrMax= 2.86D-02  0.00D+00 EMaxC= 1.00D-01 BMatC= 3.67D-01 BMatP= 3.67D-01
 IDIUse=3 WtCom= 7.14D-01 WtEn= 2.86D-01
 Coeff-Com:  0.100D+01
 Coeff-En:   0.100D+01
 Coeff:      0.100D+01
 Gap=     0.385 Goal=   None    Shift=    0.000
 GapD=    0.385 DampG=1.000 DampE=0.500 DampFc=0.5000 IDamp=-1.
 Damping current iteration by 5.00D-01
 RMSDP=3.37D-03 MaxDP=9.63D-02              OVMax= 1.23D-01

 Cycle   2  Pass 1  IDiag  1:
 E= -370.735784479319     Delta-E=       -0.083390967803 Rises=F Damp=T
 DIIS: error= 1.19D-02 at cycle   2 NSaved=   2.
 NSaved= 2 IEnMin= 2 EnMin= -370.735784479319     IErMin= 2 ErrMin= 1.19D-02
 ErrMax= 1.19D-02  0.00D+00 EMaxC= 1.00D-01 BMatC= 5.71D-02 BMatP= 3.67D-01
 IDIUse=3 WtCom= 8.81D-01 WtEn= 1.19D-01
 Coeff-Com: -0.455D+00 0.146D+01
 Coeff-En:   0.000D+00 0.100D+01
 Coeff:     -0.401D+00 0.140D+01
 Gap=     0.257 Goal=   None    Shift=    0.000
 RMSDP=1.61D-03 MaxDP=7.87D-02 DE=-8.34D-02 OVMax= 6.51D-02

 Cycle   3  Pass 1  IDiag  1:
 E= -370.810708099479     Delta-E=       -0.074923620160 Rises=F Damp=F
 DIIS: error= 3.34D-03 at cycle   3 NSaved=   3.
 NSaved= 3 IEnMin= 3 EnMin= -370.810708099479     IErMin= 3 ErrMin= 3.34D-03
 ErrMax= 3.34D-03  0.00D+00 EMaxC= 1.00D-01 BMatC= 2.41D-03 BMatP= 5.71D-02
 IDIUse=3 WtCom= 9.67D-01 WtEn= 3.34D-02
 Coeff-Com: -0.142D+00 0.287D+00 0.855D+00
 Coeff-En:   0.000D+00 0.000D+00 0.100D+01
 Coeff:     -0.138D+00 0.277D+00 0.860D+00
 Gap=     0.267 Goal=   None    Shift=    0.000
 RMSDP=3.76D-04 MaxDP=1.55D-02 DE=-7.49D-02 OVMax= 1.16D-02

 Cycle   4  Pass 1  IDiag  1:
 E= -370.812317784295     Delta-E=       -0.001609684815 Rises=F Damp=F
 DIIS: error= 4.29D-04 at cycle   4 NSaved=   4.
 NSaved= 4 IEnMin= 4 EnMin= -370.812317784295     IErMin= 4 ErrMin= 4.29D-04
 ErrMax= 4.29D-04  0.00D+00 EMaxC= 1.00D-01 BMatC= 4.95D-05 BMatP= 2.41D-03
 IDIUse=3 WtCom= 9.96D-01 WtEn= 4.29D-03
 Coeff-Com:  0.230D-02-0.186D-01 0.756D-01 0.941D+00
 Coeff-En:   0.000D+00 0.000D+00 0.000D+00 0.100D+01
 Coeff:      0.229D-02-0.185D-01 0.753D-01 0.941D+00
 Gap=     0.269 Goal=   None    Shift=    0.000
 RMSDP=1.01D-04 MaxDP=6.13D-03 DE=-1.61D-03 OVMax= 2.79D-03

 Cycle   5  Pass 1  IDiag  1:
 E= -370.812374504250     Delta-E=       -0.000056719955 Rises=F Damp=F
 DIIS: error= 1.16D-04 at cycle   5 NSaved=   5.
 NSaved= 5 IEnMin= 5 EnMin= -370.812374504250     IErMin= 5 ErrMin= 1.16D-04
 ErrMax= 1.16D-04  0.00D+00 EMaxC= 1.00D-01 BMatC= 4.14D-06 BMatP= 4.95D-05
 IDIUse=3 WtCom= 9.99D-01 WtEn= 1.16D-03
 Coeff-Com:  0.102D-01-0.181D-01-0.610D-01 0.106D-01 0.106D+01
 Coeff-En:   0.000D+00 0.000D+00 0.000D+00 0.000D+00 0.100D+01
 Coeff:      0.102D-01-0.181D-01-0.609D-01 0.106D-01 0.106D+01
 Gap=     0.268 Goal=   None    Shift=    0.000
 RMSDP=4.15D-05 MaxDP=1.53D-03 DE=-5.67D-05 OVMax= 1.16D-03

 Cycle   6  Pass 1  IDiag  1:
 E= -370.812382964641     Delta-E=       -0.000008460391 Rises=F Damp=F
 DIIS: error= 3.95D-05 at cycle   6 NSaved=   6.
 NSaved= 6 IEnMin= 6 EnMin= -370.812382964641     IErMin= 6 ErrMin= 3.95D-05
 ErrMax= 3.95D-05  0.00D+00 EMaxC= 1.00D-01 BMatC= 3.27D-07 BMatP= 4.14D-06
 IDIUse=1 WtCom= 1.00D+00 WtEn= 0.00D+00
 Coeff-Com: -0.358D-02 0.732D-02 0.121D-01-0.939D-01-0.209D+00 0.129D+01
 Coeff:     -0.358D-02 0.732D-02 0.121D-01-0.939D-01-0.209D+00 0.129D+01
 Gap=     0.269 Goal=   None    Shift=    0.000
 RMSDP=1.19D-05 MaxDP=6.97D-04 DE=-8.46D-06 OVMax= 5.99D-04

 Cycle   7  Pass 1  IDiag  1:
 E= -370.812383969816     Delta-E=       -0.000001005175 Rises=F Damp=F
 DIIS: error= 6.58D-06 at cycle   7 NSaved=   7.
 NSaved= 7 IEnMin= 7 EnMin= -370.812383969816     IErMin= 7 ErrMin= 6.58D-06
 ErrMax= 6.58D-06  0.00D+00 EMaxC= 1.00D-01 BMatC= 1.10D-08 BMatP= 3.27D-07
 IDIUse=1 WtCom= 1.00D+00 WtEn= 0.00D+00
 Coeff-Com:  0.397D-03-0.921D-03-0.135D-03 0.236D-01-0.129D-01-0.289D+00
 Coeff-Com:  0.128D+01
 Coeff:      0.397D-03-0.921D-03-0.135D-03 0.236D-01-0.129D-01-0.289D+00
 Coeff:      0.128D+01
 Gap=     0.268 Goal=   None    Shift=    0.000
 RMSDP=2.56D-06 MaxDP=1.14D-04 DE=-1.01D-06 OVMax= 1.22D-04

 Cycle   8  Pass 1  IDiag  1:
 E= -370.812384009303     Delta-E=       -0.000000039487 Rises=F Damp=F
 DIIS: error= 1.69D-06 at cycle   8 NSaved=   8.
 NSaved= 8 IEnMin= 8 EnMin= -370.812384009303     IErMin= 8 ErrMin= 1.69D-06
 ErrMax= 1.69D-06  0.00D+00 EMaxC= 1.00D-01 BMatC= 3.95D-10 BMatP= 1.10D-08
 IDIUse=1 WtCom= 1.00D+00 WtEn= 0.00D+00
 Coeff-Com:  0.124D-03-0.248D-03-0.448D-03 0.289D-02 0.890D-02-0.386D-01
 Coeff-Com: -0.492D-01 0.108D+01
 Coeff:      0.124D-03-0.248D-03-0.448D-03 0.289D-02 0.890D-02-0.386D-01
 Coeff:     -0.492D-01 0.108D+01
 Gap=     0.268 Goal=   None    Shift=    0.000
 RMSDP=4.77D-07 MaxDP=2.44D-05 DE=-3.95D-08 OVMax= 1.64D-05

 Cycle   9  Pass 1  IDiag  1:
 E= -370.812384010431     Delta-E=       -0.000000001127 Rises=F Damp=F
 DIIS: error= 5.62D-07 at cycle   9 NSaved=   9.
 NSaved= 9 IEnMin= 9 EnMin= -370.812384010431     IErMin= 9 ErrMin= 5.62D-07
 ErrMax= 5.62D-07  0.00D+00 EMaxC= 1.00D-01 BMatC= 3.84D-11 BMatP= 3.95D-10
 IDIUse=1 WtCom= 1.00D+00 WtEn= 0.00D+00
 Coeff-Com: -0.368D-04 0.846D-04 0.138D-04-0.203D-02 0.105D-02 0.238D-01
 Coeff-Com: -0.955D-01-0.912D-01 0.116D+01
 Coeff:     -0.368D-04 0.846D-04 0.138D-04-0.203D-02 0.105D-02 0.238D-01
 Coeff:     -0.955D-01-0.912D-01 0.116D+01
 Gap=     0.268 Goal=   None    Shift=    0.000
 RMSDP=1.24D-07 MaxDP=4.88D-06 DE=-1.13D-09 OVMax= 6.30D-06

 Cycle  10  Pass 1  IDiag  1:
 E= -370.812384010544     Delta-E=       -0.000000000114 Rises=F Damp=F
 DIIS: error= 1.21D-07 at cycle  10 NSaved=  10.
 NSaved=10 IEnMin=10 EnMin= -370.812384010544     IErMin=10 ErrMin= 1.21D-07
 ErrMax= 1.21D-07  0.00D+00 EMaxC= 1.00D-01 BMatC= 2.54D-12 BMatP= 3.84D-11
 IDIUse=1 WtCom= 1.00D+00 WtEn= 0.00D+00
 Coeff-Com: -0.936D-05 0.183D-04 0.318D-04-0.219D-03-0.680D-03 0.301D-02
 Coeff-Com:  0.307D-02-0.770D-01 0.299D-01 0.104D+01
 Coeff:     -0.936D-05 0.183D-04 0.318D-04-0.219D-03-0.680D-03 0.301D-02
 Coeff:      0.307D-02-0.770D-01 0.299D-01 0.104D+01
 Gap=     0.268 Goal=   None    Shift=    0.000
 RMSDP=3.05D-08 MaxDP=1.19D-06 DE=-1.14D-10 OVMax= 1.20D-06

 Cycle  11  Pass 1  IDiag  1:
 E= -370.812384010553     Delta-E=       -0.000000000008 Rises=F Damp=F
 DIIS: error= 3.48D-08 at cycle  11 NSaved=  11.
 NSaved=11 IEnMin=11 EnMin= -370.812384010553     IErMin=11 ErrMin= 3.48D-08
 ErrMax= 3.48D-08  0.00D+00 EMaxC= 1.00D-01 BMatC= 1.66D-13 BMatP= 2.54D-12
 IDIUse=1 WtCom= 1.00D+00 WtEn= 0.00D+00
 Coeff-Com:  0.361D-05-0.806D-05-0.287D-05 0.174D-03-0.349D-04-0.196D-02
 Coeff-Com:  0.608D-02 0.154D-01-0.902D-01-0.139D+00 0.121D+01
 Coeff:      0.361D-05-0.806D-05-0.287D-05 0.174D-03-0.349D-04-0.196D-02
 Coeff:      0.608D-02 0.154D-01-0.902D-01-0.139D+00 0.121D+01
 Gap=     0.268 Goal=   None    Shift=    0.000
 RMSDP=1.50D-08 MaxDP=9.19D-07 DE=-8.41D-12 OVMax= 5.29D-07

 Cycle  12  Pass 1  IDiag  1:
 E= -370.812384010554     Delta-E=       -0.000000000001 Rises=F Damp=F
 DIIS: error= 7.68D-09 at cycle  12 NSaved=  12.
 NSaved=12 IEnMin=12 EnMin= -370.812384010554     IErMin=12 ErrMin= 7.68D-09
 ErrMax= 7.68D-09  0.00D+00 EMaxC= 1.00D-01 BMatC= 6.83D-15 BMatP= 1.66D-13
 IDIUse=1 WtCom= 1.00D+00 WtEn= 0.00D+00
 Coeff-Com: -0.587D-06 0.146D-05-0.387D-06-0.395D-04 0.448D-04 0.395D-03
 Coeff-Com: -0.173D-02-0.692D-03 0.234D-01-0.122D-01-0.300D+00 0.129D+01
 Coeff:     -0.587D-06 0.146D-05-0.387D-06-0.395D-04 0.448D-04 0.395D-03
 Coeff:     -0.173D-02-0.692D-03 0.234D-01-0.122D-01-0.300D+00 0.129D+01
 Gap=     0.268 Goal=   None    Shift=    0.000
 RMSDP=3.05D-09 MaxDP=1.76D-07 DE=-1.48D-12 OVMax= 8.16D-08

 SCF Done:  E(RHF) =  -370.812384011     A.U. after   12 cycles
            NFock= 12  Conv=0.30D-08     -V/T= 2.9846
 KE= 1.868462282052D+02 PE=-9.089449247932D+02 EE= 3.036728565157D+02
 Leave Link  502 at Tue Oct 26 12:34:19 2021, MaxMem= 16106127360 cpu:              31.9 elap:               2.1
 (Enter /sw/contrib/gaussian/g16/B01/g16/l801.exe)
 ExpMin= 2.53D-02 ExpMax= 1.53D+04 ExpMxC= 5.22D+02 IAcc=3 IRadAn=         5 AccDes= 0.00D+00
 HarFok:  IExCor=  205 AccDes= 0.00D+00 IRadAn=         5 IDoV=-2 UseB2=F ITyADJ=14
 ICtDFT= 12500011 ScaDFX=  1.000000  1.000000  1.000000  1.000000
 Defaulting to unpruned grid for atomic number  53.
 Largest valence mixing into a core orbital is  1.30D-04
 Largest core mixing into a valence orbital is  2.13D-05
 Range of M.O.s used for correlation:     6   147
 NBasis=   147 NAE=    18 NBE=    18 NFC=     5 NFV=     0
 NROrb=    142 NOA=    13 NOB=    13 NVA=   129 NVB=   129

 **** Warning!!: The largest alpha MO coefficient is  0.13265286D+02

 Leave Link  801 at Tue Oct 26 12:34:20 2021, MaxMem= 16106127360 cpu:               1.9 elap:               0.1
 (Enter /sw/contrib/gaussian/g16/B01/g16/l906.exe)
 Frozen-core derivative calculation, NFC=   5 NFV=   0.
 FulOut=F Deriv=T AODrv=F NAtomX=     4
   MMem=         225  MDisk=          13 MDiskD=          13
  W3Min=      449820 MinDsk=      818995 NBas6D=         170
 NBas2D=       14925    NTT=       14535    LW2=    26219120
    MDV= 16105851827 MDiskM=      473642 NBas2p=       14925
 Fully in-core method, ICMem=   303093605.
 IMap=   1   2   3   4   5   6   7   8   9  10  11  12  13  14  15  16  17  18
 JobTyp=1 Pass  1 fully in-core, NPsUse= 28.
 Compute canonical integrals.
 FoFCou: FMM=F IPFlag=           0 FMFlag=           0 FMFlg1=           0
         NFxFlg=           0 DoJE=F BraDBF=F KetDBF=F FulRan=T
         wScrn=  0.000000 ICntrl=       600 IOpCl=  1 I1Cent=           0 NGrid=           0
         NMat0=    1 NMatS0=  14925 NMatT0=    0 NMatD0=    1 NMtDS0=    0 NMtDT0=    0
 Symmetry not used in FoFCou.
 Spin components of T(2) and E(2):
     alpha-alpha T2 =       0.2156032200D-01 E2=     -0.6711155999D-01
     alpha-beta  T2 =       0.1130543086D+00 E2=     -0.3611491653D+00
     beta-beta   T2 =       0.2156032200D-01 E2=     -0.6711155999D-01
 The integrals were generated   1 times.
 ANorm=    0.1075255761D+01
 E2 =    -0.4953722852D+00 EUMP2 =    -0.37130775629579D+03
 Leave Link  906 at Tue Oct 26 12:34:23 2021, MaxMem= 16106127360 cpu:              82.8 elap:               3.0
 (Enter /sw/contrib/gaussian/g16/B01/g16/l1002.exe)
 Minotr:  Closed shell wavefunction.
          Computing MP2/KS-MP2 derivatives.
          Using Z-Vector for PSCF gradient.
          Skipping F1 and S1 gradient terms here.
          Frozen-core window.
          Direct CPHF calculation.
          Differentiating once with respect to electric field.
                with respect to dipole field.
          Electric field/nuclear overlap derivatives assumed to be zero.
          Requested convergence is 1.0D-10 RMS, and 1.0D-09 maximum.
          NewPWx=F KeepS1=T KeepF1=T KeepIn=T MapXYZ=F SortEE=F KeepMc=T.
 Keep R1 ints in memory in canonical form, NReq=117071851.
 FoFCou: FMM=F IPFlag=           0 FMFlag=           0 FMFlg1=           0
         NFxFlg=           0 DoJE=F BraDBF=F KetDBF=F FulRan=T
         wScrn=  0.000000 ICntrl=       600 IOpCl=  0 I1Cent=           0 NGrid=           0
         NMat0=    1 NMatS0=  10878 NMatT0=    0 NMatD0=    1 NMtDS0=    0 NMtDT0=    0
 Symmetry not used in FoFCou.
 Two-electron integral symmetry not used.
          MDV=   16106127360 using IRadAn=       5.
          Solving linear equations separately, MaxMat=       0.
          There are     1 degrees of freedom in the 1st order CPHF.  IDoFFX=0 NUNeed=     1.
 LinEq1:  Iter=  0 NonCon=     1 RMS=2.63D-03 Max=3.09D-02 NDo=     1
 AX will form     1 AO Fock derivatives at one time.
 LinEq1:  Iter=  1 NonCon=     1 RMS=4.25D-04 Max=4.80D-03 NDo=     1
 LinEq1:  Iter=  2 NonCon=     1 RMS=1.94D-04 Max=2.48D-03 NDo=     1
 LinEq1:  Iter=  3 NonCon=     1 RMS=4.44D-05 Max=5.27D-04 NDo=     1
 LinEq1:  Iter=  4 NonCon=     1 RMS=1.28D-05 Max=1.41D-04 NDo=     1
 LinEq1:  Iter=  5 NonCon=     1 RMS=3.62D-06 Max=4.21D-05 NDo=     1
 LinEq1:  Iter=  6 NonCon=     1 RMS=8.00D-07 Max=8.65D-06 NDo=     1
 LinEq1:  Iter=  7 NonCon=     1 RMS=1.78D-07 Max=1.47D-06 NDo=     1
 LinEq1:  Iter=  8 NonCon=     1 RMS=5.00D-08 Max=4.35D-07 NDo=     1
 LinEq1:  Iter=  9 NonCon=     1 RMS=1.09D-08 Max=1.11D-07 NDo=     1
 LinEq1:  Iter= 10 NonCon=     1 RMS=2.22D-09 Max=2.38D-08 NDo=     1
 LinEq1:  Iter= 11 NonCon=     1 RMS=4.12D-10 Max=4.35D-09 NDo=     1
 LinEq1:  Iter= 12 NonCon=     1 RMS=8.87D-11 Max=1.03D-09 NDo=     1
 LinEq1:  Iter= 13 NonCon=     0 RMS=2.36D-11 Max=2.06D-10 NDo=     1
 Linear equations converged to 1.000D-10 1.000D-09 after    13 iterations.
 End of Minotr F.D. properties file   721 does not exist.
 End of Minotr F.D. properties file   722 does not exist.
 End of Minotr F.D. properties file   788 does not exist.
 Leave Link 1002 at Tue Oct 26 12:34:25 2021, MaxMem= 16106127360 cpu:              33.7 elap:               2.4
 (Enter /sw/contrib/gaussian/g16/B01/g16/l601.exe)
 Copying SCF densities to generalized density rwf, IOpCl= 0 IROHF=0.

 **********************************************************************

            Population analysis using the MP2 Density.

 **********************************************************************

 Alpha  occ. eigenvalues --  -20.41059  -7.46191  -5.28749  -5.28725  -5.28704
 Alpha  occ. eigenvalues --   -2.01492  -2.01485  -2.01465  -2.01436  -2.01432
 Alpha  occ. eigenvalues --   -1.19392  -0.62196  -0.54626  -0.43773  -0.35458
 Alpha  occ. eigenvalues --   -0.14105  -0.13739  -0.13621
 Alpha virt. eigenvalues --    0.13228   0.16508   0.23493   0.24472   0.25665
 Alpha virt. eigenvalues --    0.26931   0.27019   0.29188   0.32354   0.33266
 Alpha virt. eigenvalues --    0.36491   0.36713   0.37544   0.38992   0.40731
 Alpha virt. eigenvalues --    0.41459   0.46372   0.47784   0.51734   0.54826
 Alpha virt. eigenvalues --    0.55776   0.59074   0.65371   0.67083   0.75066
 Alpha virt. eigenvalues --    0.78391   0.78824   0.78916   0.80009   0.80564
 Alpha virt. eigenvalues --    0.80686   0.82529   0.82952   0.84944   0.87098
 Alpha virt. eigenvalues --    0.88213   0.88658   0.88730   0.89640   0.91550
 Alpha virt. eigenvalues --    0.92729   0.95348   0.97377   1.03138   1.04595
 Alpha virt. eigenvalues --    1.08054   1.10016   1.11772   1.14198   1.16821
 Alpha virt. eigenvalues --    1.18795   1.21382   1.27728   1.30087   1.33681
 Alpha virt. eigenvalues --    1.38659   1.46600   1.48988   1.62128   1.66788
 Alpha virt. eigenvalues --    1.69525   1.73583   1.75702   1.75864   1.77519
 Alpha virt. eigenvalues --    1.78852   1.81242   1.82914   1.84156   1.92239
 Alpha virt. eigenvalues --    1.99437   2.03064   2.05972   2.07184   2.10286
 Alpha virt. eigenvalues --    2.11900   2.15840   2.28179   2.35956   2.45188
 Alpha virt. eigenvalues --    2.50210   2.56947   2.60057   2.61269   2.67180
 Alpha virt. eigenvalues --    2.69999   2.85013   2.91311   2.94524   2.97235
 Alpha virt. eigenvalues --    3.08705   3.21580   3.23781   3.69266   3.86467
 Alpha virt. eigenvalues --    3.93344   4.23564   4.28405   4.39147   4.42502
 Alpha virt. eigenvalues --    4.46733   4.53019   4.55640   4.59487   4.72015
 Alpha virt. eigenvalues --    4.92336   5.03893   5.28813   5.36028   5.38200
 Alpha virt. eigenvalues --    5.46926   5.67900   5.78527   6.37468   6.67083
 Alpha virt. eigenvalues --    6.89761   7.11705   7.27858   7.39215   7.44316
 Alpha virt. eigenvalues --    7.47542   7.53313   7.58127   7.70368   8.00293
 Alpha virt. eigenvalues --    8.11001   8.96137  15.79106  59.20542
          Condensed to atoms (all electrons):
               1          2          3          4
     1  O    8.174705   0.206617  -0.053757   0.145439
     2  H    0.206617   0.587417   0.006346   0.017848
     3  I   -0.053757   0.006346  25.942177   0.045547
     4  H    0.145439   0.017848   0.045547   0.559619
 Mulliken charges:
               1
     1  O   -0.473004
     2  H    0.181772
     3  I   -0.940313
     4  H    0.231546
 Sum of Mulliken charges =  -1.00000
 Mulliken charges with hydrogens summed into heavy atoms:
               1
     1  O   -0.059687
     3  I   -0.940313
 Electronic spatial extent (au):  <R**2>=           1237.6290
 Charge=             -1.0000 electrons
 Dipole moment (field-independent basis, Debye):
    X=              4.2718    Y=             14.2343    Z=              0.3760  Tot=             14.8663
 Quadrupole moment (field-independent basis, Debye-Ang):
   XX=            -41.6963   YY=            -94.3182   ZZ=            -41.5005
   XY=            -10.3921   XZ=             -0.1224   YZ=             -0.1189
 Traceless Quadrupole moment (field-independent basis, Debye-Ang):
   XX=             17.4754   YY=            -35.1465   ZZ=             17.6711
   XY=            -10.3921   XZ=             -0.1224   YZ=             -0.1189
 Octapole moment (field-independent basis, Debye-Ang**2):
  XXX=             74.8878  YYY=            534.5047  ZZZ=             -1.8529  XYY=             60.7211
  XXY=            124.8562  XXZ=             -0.8038  XZZ=             23.7307  YZZ=            116.9456
  YYZ=             -3.0644  XYZ=             -0.5005
 Hexadecapole moment (field-independent basis, Debye-Ang**3):
 XXXX=           -182.8665 YYYY=          -3110.0409 ZZZZ=            -78.3213 XXXY=           -256.3686
 XXXZ=              0.6020 YYYX=           -377.2286 YYYZ=             12.9481 ZZZX=              0.5143
 ZZZY=              3.0745 XXYY=           -471.0025 XXZZ=            -43.7130 YYZZ=           -427.3816
 XXYZ=              1.4654 YYXZ=              2.1612 ZZXY=            -83.6429
 N-N= 4.761345606178D+01 E-N=-9.083741483070D+02  KE= 1.870361677301D+02
 No NMR shielding tensors so no spin-rotation constants.
 Leave Link  601 at Tue Oct 26 12:34:25 2021, MaxMem= 16106127360 cpu:               4.1 elap:               0.2
 (Enter /sw/contrib/gaussian/g16/B01/g16/l607.exe)
 ******************************Gaussian NBO Version 3.1******************************
             N A T U R A L   A T O M I C   O R B I T A L   A N D
          N A T U R A L   B O N D   O R B I T A L   A N A L Y S I S
 ******************************Gaussian NBO Version 3.1******************************
       /RESON  / : Allow strongly delocalized NBO set

 Analyzing the MP2 density

 Job title: title                                                           

 Storage needed:     65577 in NPA,     86948 in NBO (********** available)
 GSVD:  LWork=       -1281 too small for GESVD, short by       46116 words or       46116 for optimal perf.


 NATURAL POPULATIONS:  Natural atomic orbital occupancies 
                                                          
   NAO  Atom  No  lang   Type(AO)    Occupancy
 --------------------------------------------
     1    O    1  S      Cor( 1S)     1.99968
     2    O    1  S      Val( 2S)     1.74459
     3    O    1  S      Ryd( 3S)     0.00608
     4    O    1  S      Ryd( 4S)     0.00060
     5    O    1  S      Ryd( 5S)     0.00020
     6    O    1  px     Val( 2p)     1.52772
     7    O    1  px     Ryd( 3p)     0.00983
     8    O    1  px     Ryd( 4p)     0.00057
     9    O    1  px     Ryd( 5p)     0.00009
    10    O    1  py     Val( 2p)     1.71657
    11    O    1  py     Ryd( 3p)     0.01412
    12    O    1  py     Ryd( 4p)     0.00062
    13    O    1  py     Ryd( 5p)     0.00015
    14    O    1  pz     Val( 2p)     1.86343
    15    O    1  pz     Ryd( 3p)     0.01898
    16    O    1  pz     Ryd( 4p)     0.00063
    17    O    1  pz     Ryd( 5p)     0.00007
    18    O    1  dxy    Ryd( 3d)     0.00890
    19    O    1  dxy    Ryd( 4d)     0.00062
    20    O    1  dxy    Ryd( 5d)     0.00013
    21    O    1  dxz    Ryd( 3d)     0.00956
    22    O    1  dxz    Ryd( 4d)     0.00082
    23    O    1  dxz    Ryd( 5d)     0.00015
    24    O    1  dyz    Ryd( 3d)     0.00993
    25    O    1  dyz    Ryd( 4d)     0.00045
    26    O    1  dyz    Ryd( 5d)     0.00013
    27    O    1  dx2y2  Ryd( 3d)     0.01071
    28    O    1  dx2y2  Ryd( 4d)     0.00031
    29    O    1  dx2y2  Ryd( 5d)     0.00013
    30    O    1  dz2    Ryd( 3d)     0.00856
    31    O    1  dz2    Ryd( 4d)     0.00047
    32    O    1  dz2    Ryd( 5d)     0.00013
    33    O    1  f(0)   Ryd( 4f)     0.00066
    34    O    1  f(0)   Ryd( 5f)     0.00011
    35    O    1  f(C1)  Ryd( 4f)     0.00048
    36    O    1  f(C1)  Ryd( 5f)     0.00008
    37    O    1  f(S1)  Ryd( 4f)     0.00066
    38    O    1  f(S1)  Ryd( 5f)     0.00011
    39    O    1  f(C2)  Ryd( 4f)     0.00063
    40    O    1  f(C2)  Ryd( 5f)     0.00014
    41    O    1  f(S2)  Ryd( 4f)     0.00051
    42    O    1  f(S2)  Ryd( 5f)     0.00009
    43    O    1  f(C3)  Ryd( 4f)     0.00042
    44    O    1  f(C3)  Ryd( 5f)     0.00010
    45    O    1  f(S3)  Ryd( 4f)     0.00054
    46    O    1  f(S3)  Ryd( 5f)     0.00014

    47    H    2  S      Val( 1S)     0.54555
    48    H    2  S      Ryd( 2S)     0.00169
    49    H    2  S      Ryd( 3S)     0.00041
    50    H    2  S      Ryd( 4S)     0.00016
    51    H    2  px     Ryd( 3p)     0.00023
    52    H    2  px     Ryd( 2p)     0.00067
    53    H    2  px     Ryd( 4p)     0.00016
    54    H    2  py     Ryd( 2p)     0.00076
    55    H    2  py     Ryd( 3p)     0.00015
    56    H    2  py     Ryd( 4p)     0.00007
    57    H    2  pz     Ryd( 2p)     0.00114
    58    H    2  pz     Ryd( 3p)     0.00016
    59    H    2  pz     Ryd( 4p)     0.00005
    60    H    2  dxy    Ryd( 3d)     0.00017
    61    H    2  dxy    Ryd( 4d)     0.00007
    62    H    2  dxz    Ryd( 3d)     0.00028
    63    H    2  dxz    Ryd( 4d)     0.00007
    64    H    2  dyz    Ryd( 3d)     0.00010
    65    H    2  dyz    Ryd( 4d)     0.00005
    66    H    2  dx2y2  Ryd( 3d)     0.00013
    67    H    2  dx2y2  Ryd( 4d)     0.00005
    68    H    2  dz2    Ryd( 3d)     0.00012
    69    H    2  dz2    Ryd( 4d)     0.00006

    70    I    3  S      Cor( 4S)     2.00003
    71    I    3  S      Val( 5S)     1.97985
    72    I    3  S      Ryd( 6S)     0.00384
    73    I    3  S      Ryd( 7S)     0.00061
    74    I    3  S      Ryd( 8S)     0.00009
    75    I    3  S      Ryd( 9S)     0.00000
    76    I    3  px     Cor( 4p)     2.00007
    77    I    3  px     Val( 5p)     1.95052
    78    I    3  px     Ryd( 6p)     0.01126
    79    I    3  px     Ryd( 7p)     0.00076
    80    I    3  px     Ryd( 8p)     0.00008
    81    I    3  py     Cor( 4p)     2.00005
    82    I    3  py     Val( 5p)     1.93521
    83    I    3  py     Ryd( 6p)     0.01035
    84    I    3  py     Ryd( 7p)     0.00068
    85    I    3  py     Ryd( 8p)     0.00013
    86    I    3  pz     Cor( 4p)     2.00007
    87    I    3  pz     Val( 5p)     1.94972
    88    I    3  pz     Ryd( 6p)     0.01120
    89    I    3  pz     Ryd( 7p)     0.00076
    90    I    3  pz     Ryd( 8p)     0.00008
    91    I    3  dxy    Cor( 4d)     1.99676
    92    I    3  dxy    Ryd( 5d)     0.02034
    93    I    3  dxy    Ryd( 6d)     0.00151
    94    I    3  dxy    Ryd( 7d)     0.00018
    95    I    3  dxz    Cor( 4d)     1.99678
    96    I    3  dxz    Ryd( 5d)     0.02026
    97    I    3  dxz    Ryd( 6d)     0.00168
    98    I    3  dxz    Ryd( 7d)     0.00017
    99    I    3  dyz    Cor( 4d)     1.99676
   100    I    3  dyz    Ryd( 5d)     0.02048
   101    I    3  dyz    Ryd( 6d)     0.00151
   102    I    3  dyz    Ryd( 7d)     0.00019
   103    I    3  dx2y2  Cor( 4d)     1.99674
   104    I    3  dx2y2  Ryd( 5d)     0.02010
   105    I    3  dx2y2  Ryd( 6d)     0.00161
   106    I    3  dx2y2  Ryd( 7d)     0.00021
   107    I    3  dz2    Cor( 4d)     1.99677
   108    I    3  dz2    Ryd( 5d)     0.02019
   109    I    3  dz2    Ryd( 6d)     0.00165
   110    I    3  dz2    Ryd( 7d)     0.00018
   111    I    3  f(0)   Ryd( 4f)     0.00275
   112    I    3  f(0)   Ryd( 5f)     0.00044
   113    I    3  f(C1)  Ryd( 4f)     0.00277
   114    I    3  f(C1)  Ryd( 5f)     0.00043
   115    I    3  f(S1)  Ryd( 4f)     0.00275
   116    I    3  f(S1)  Ryd( 5f)     0.00045
   117    I    3  f(C2)  Ryd( 4f)     0.00274
   118    I    3  f(C2)  Ryd( 5f)     0.00045
   119    I    3  f(S2)  Ryd( 4f)     0.00277
   120    I    3  f(S2)  Ryd( 5f)     0.00044
   121    I    3  f(C3)  Ryd( 4f)     0.00272
   122    I    3  f(C3)  Ryd( 5f)     0.00044
   123    I    3  f(S3)  Ryd( 4f)     0.00274
   124    I    3  f(S3)  Ryd( 5f)     0.00046

   125    H    4  S      Val( 1S)     0.49670
   126    H    4  S      Ryd( 2S)     0.00475
   127    H    4  S      Ryd( 3S)     0.00046
   128    H    4  S      Ryd( 4S)     0.00015
   129    H    4  px     Ryd( 2p)     0.00336
   130    H    4  px     Ryd( 3p)     0.00036
   131    H    4  px     Ryd( 4p)     0.00009
   132    H    4  py     Ryd( 2p)     0.00445
   133    H    4  py     Ryd( 3p)     0.00046
   134    H    4  py     Ryd( 4p)     0.00019
   135    H    4  pz     Ryd( 2p)     0.00347
   136    H    4  pz     Ryd( 3p)     0.00043
   137    H    4  pz     Ryd( 4p)     0.00012
   138    H    4  dxy    Ryd( 3d)     0.00019
   139    H    4  dxy    Ryd( 4d)     0.00008
   140    H    4  dxz    Ryd( 3d)     0.00014
   141    H    4  dxz    Ryd( 4d)     0.00007
   142    H    4  dyz    Ryd( 3d)     0.00023
   143    H    4  dyz    Ryd( 4d)     0.00007
   144    H    4  dx2y2  Ryd( 3d)     0.00025
   145    H    4  dx2y2  Ryd( 4d)     0.00009
   146    H    4  dz2    Ryd( 3d)     0.00016
   147    H    4  dz2    Ryd( 4d)     0.00008

 [ 28 electrons found in the effective core potential]

 WARNING:  5 low occupancy (<1.9990e) core orbitals found on  I    3


 Summary of Natural Population Analysis:                  
                                                          
                                       Natural Population 
                Natural  -----------------------------------------------
    Atom  No    Charge         Core      Valence    Rydberg      Total
 -----------------------------------------------------------------------
      O    1   -0.95957      1.99968     6.85232    0.10757     8.95957
      H    2    0.44770      0.00000     0.54555    0.00675     0.55230
      I    3   -0.97177     45.98402     7.81529    0.17246    53.97177
      H    4    0.48364      0.00000     0.49670    0.01966     0.51636
 =======================================================================
   * Total *   -1.00000     47.98370    15.70986    0.30644    64.00000

                                 Natural Population      
 --------------------------------------------------------
   Effective Core            28.00000
   Core                      19.98370 ( 99.9185% of  20)
   Valence                   15.70986 ( 98.1866% of  16)
   Natural Minimal Basis     63.69356 ( 99.5212% of  64)
   Natural Rydberg Basis      0.30644 (  0.4788% of  64)
 --------------------------------------------------------

    Atom  No          Natural Electron Configuration
 ----------------------------------------------------------------------------
      O    1      [core]2S( 1.74)2p( 5.11)3S( 0.01)3p( 0.04)3d( 0.05)
      H    2            1S( 0.55)
      I    3      [core]5S( 1.98)5p( 5.84)4f( 0.02)5d( 0.10)6p( 0.03)6d( 0.01)
      H    4            1S( 0.50)2p( 0.01)


 NATURAL BOND ORBITAL ANALYSIS:
 Warning:  a bond orbital has occupanc of -0.00003

                       Occupancies       Lewis Structure    Low   High
           Occ.    -------------------  -----------------   occ   occ
  Cycle   Thresh.   Lewis   Non-Lewis     CR  BD  3C  LP    (L)   (NL)   Dev
 =============================================================================
   1(1)    1.90    63.66548   0.33452     10   2   0   6     0      0    0.03
 -----------------------------------------------------------------------------

 Structure accepted: No low occupancy Lewis orbitals

 WARNING:  5 low occupancy (<1.9990e) core orbitals found on  I    3

 --------------------------------------------------------
   Effective Core           28.00000
   Core                     19.98370 ( 99.918% of  20)
   Valence Lewis            15.68178 ( 98.011% of  16)
  ==================       ============================
   Total Lewis              63.66548 ( 99.477% of  64)
  -----------------------------------------------------
   Valence non-Lewis         0.05816 (  0.091% of  64)
   Rydberg non-Lewis         0.27636 (  0.432% of  64)
  ==================       ============================
   Total non-Lewis           0.33452 (  0.523% of  64)
 --------------------------------------------------------


       (Occupancy)   Bond orbital/ Coefficients/ Hybrids
 ---------------------------------------------------------------------------------
     1. (1.96644) BD ( 1) O   1 - H   2  
                ( 73.02%)   0.8545* O   1 s( 21.08%)p 3.72( 78.46%)d 0.02(  0.45%)
                                                  f 0.00(  0.01%)
                                            0.0002  0.4590 -0.0069  0.0023 -0.0045
                                            0.8833 -0.0318  0.0082 -0.0007  0.0511
                                           -0.0134  0.0014 -0.0029 -0.0221  0.0090
                                           -0.0009  0.0014 -0.0164  0.0010  0.0019
                                            0.0134 -0.0023  0.0001 -0.0043 -0.0003
                                            0.0015  0.0536 -0.0032  0.0029 -0.0334
                                            0.0016 -0.0007  0.0000  0.0003 -0.0070
                                           -0.0012 -0.0003  0.0000 -0.0005 -0.0000
                                           -0.0054  0.0017  0.0048  0.0026  0.0013
                                           -0.0002
                ( 26.98%)   0.5194* H   2 s( 99.90%)p 0.00(  0.09%)d 0.00(  0.01%)
                                            0.9995  0.0036 -0.0003  0.0001 -0.0028
                                            0.0299 -0.0040  0.0025 -0.0003 -0.0009
                                            0.0005  0.0016 -0.0001  0.0018 -0.0020
                                            0.0010  0.0009 -0.0020 -0.0007  0.0070
                                           -0.0018 -0.0046  0.0008
     2. (1.96736) BD ( 1) O   1 - H   4  
                ( 76.15%)   0.8727* O   1 s( 24.09%)p 3.13( 75.45%)d 0.02(  0.45%)
                                                  f 0.00(  0.01%)
                                           -0.0003 -0.4908  0.0009 -0.0007  0.0011
                                            0.1998 -0.0191  0.0000  0.0021  0.7192
                                           -0.0158  0.0070 -0.0024 -0.4434  0.0082
                                           -0.0051  0.0039  0.0071 -0.0051  0.0027
                                           -0.0039  0.0030 -0.0016  0.0536 -0.0026
                                           -0.0019  0.0377 -0.0023  0.0004  0.0072
                                            0.0008 -0.0021  0.0088 -0.0008 -0.0007
                                            0.0005 -0.0001  0.0009  0.0050  0.0021
                                           -0.0028 -0.0008 -0.0017 -0.0013  0.0024
                                           -0.0035
                ( 23.85%)   0.4883* H   4 s( 99.88%)p 0.00(  0.11%)d 0.00(  0.01%)
                                           -0.9993 -0.0141 -0.0002  0.0001 -0.0183
                                            0.0003  0.0003  0.0002 -0.0194 -0.0075
                                           -0.0130  0.0128  0.0051 -0.0004  0.0023
                                            0.0003 -0.0016  0.0012  0.0006 -0.0064
                                            0.0007  0.0025  0.0010
     3. (1.99968) CR ( 1) O   1           s(100.00%)
                                            1.0000 -0.0004  0.0000 -0.0000  0.0000
                                           -0.0001  0.0000 -0.0000  0.0000  0.0001
                                           -0.0000  0.0000 -0.0000 -0.0000  0.0000
                                           -0.0000  0.0000 -0.0000 -0.0000  0.0000
                                            0.0000  0.0000 -0.0000  0.0000 -0.0000
                                           -0.0000 -0.0000 -0.0000  0.0000  0.0000
                                           -0.0000 -0.0000  0.0000  0.0000  0.0000
                                            0.0000 -0.0000  0.0000  0.0000  0.0000
                                            0.0000 -0.0000 -0.0000 -0.0000 -0.0000
                                           -0.0000
     4. (2.00003) CR ( 1) I   3           s(100.00%)
                                            1.0000 -0.0000 -0.0000 -0.0000  0.0000
                                            0.0000 -0.0000  0.0000  0.0000 -0.0000
                                           -0.0000 -0.0000  0.0000 -0.0000 -0.0000
                                            0.0000 -0.0000  0.0000  0.0000 -0.0000
                                            0.0000 -0.0000  0.0000 -0.0000  0.0000
                                           -0.0000  0.0000 -0.0000  0.0000 -0.0000
                                            0.0000 -0.0000  0.0000  0.0000 -0.0000
                                            0.0000  0.0000  0.0000 -0.0000  0.0000
                                            0.0000 -0.0000 -0.0000 -0.0000 -0.0000
                                           -0.0000 -0.0000 -0.0000 -0.0000  0.0000
                                            0.0000 -0.0000 -0.0000 -0.0000 -0.0000
     5. (2.00007) CR ( 2) I   3           s(  0.00%)p 1.00(100.00%)
                                           -0.0000  0.0000  0.0000 -0.0000  0.0000
                                            0.0000  1.0000 -0.0001 -0.0000 -0.0000
                                            0.0000 -0.0000  0.0000 -0.0000 -0.0000
                                            0.0000 -0.0000  0.0000  0.0000 -0.0000
                                            0.0000 -0.0000 -0.0000  0.0000  0.0000
                                            0.0000 -0.0000  0.0000 -0.0000 -0.0000
                                            0.0000 -0.0000  0.0000  0.0000 -0.0000
                                            0.0000 -0.0000  0.0000 -0.0000 -0.0000
                                            0.0000 -0.0000 -0.0000  0.0000  0.0000
                                           -0.0000 -0.0000 -0.0000 -0.0000 -0.0000
                                           -0.0000  0.0000 -0.0000 -0.0000 -0.0000
     6. (2.00005) CR ( 3) I   3           s(  0.00%)p 1.00(100.00%)
                                           -0.0000  0.0000 -0.0000  0.0000 -0.0000
                                            0.0000 -0.0000  0.0000  0.0000  0.0000
                                           -0.0000  1.0000  0.0001  0.0000 -0.0000
                                            0.0000 -0.0000  0.0000  0.0000 -0.0000
                                            0.0000 -0.0000  0.0000 -0.0000  0.0000
                                           -0.0000  0.0000 -0.0000  0.0000 -0.0000
                                            0.0000 -0.0000  0.0000  0.0000 -0.0000
                                            0.0000  0.0000  0.0000 -0.0000  0.0000
                                            0.0000 -0.0000 -0.0000 -0.0000 -0.0000
                                           -0.0000 -0.0000 -0.0000 -0.0000  0.0000
                                            0.0000 -0.0000 -0.0000 -0.0000 -0.0000
     7. (2.00007) CR ( 4) I   3           s(  0.00%)p 1.00(100.00%)
                                           -0.0000  0.0000  0.0000 -0.0000  0.0000
                                           -0.0000 -0.0000  0.0000  0.0000  0.0000
                                           -0.0000 -0.0000  0.0000 -0.0000 -0.0000
                                            0.0000  1.0000 -0.0000  0.0000 -0.0000
                                            0.0000 -0.0000  0.0000 -0.0000  0.0000
                                           -0.0000 -0.0000  0.0000 -0.0000 -0.0000
                                            0.0000 -0.0000  0.0000  0.0000 -0.0000
                                            0.0000  0.0000  0.0000 -0.0000  0.0000
                                           -0.0000 -0.0000 -0.0000 -0.0000 -0.0000
                                           -0.0000 -0.0000 -0.0000 -0.0000  0.0000
                                           -0.0000 -0.0000 -0.0000 -0.0000 -0.0000
     8. (1.99676) CR ( 5) I   3           s(  0.00%)p 0.00(  0.00%)d 1.00(100.00%)
                                           -0.0000  0.0000 -0.0000 -0.0000  0.0000
                                            0.0000 -0.0000  0.0000  0.0000  0.0000
                                           -0.0000 -0.0000  0.0000  0.0000 -0.0000
                                            0.0000 -0.0000  0.0000  0.0000 -0.0000
                                            0.0000  1.0000  0.0000 -0.0000  0.0000
                                           -0.0000  0.0000 -0.0000  0.0000 -0.0000
                                            0.0000 -0.0000  0.0000  0.0000 -0.0000
                                            0.0000  0.0000  0.0000 -0.0000  0.0000
                                           -0.0000 -0.0000 -0.0000 -0.0000 -0.0000
                                           -0.0000 -0.0000 -0.0000 -0.0000  0.0000
                                            0.0000 -0.0000 -0.0000 -0.0000 -0.0000
     9. (1.99678) CR ( 6) I   3           s(  0.00%)p 0.00(  0.00%)d 1.00(100.00%)
                                           -0.0000  0.0000 -0.0000  0.0000 -0.0000
                                            0.0000  0.0000  0.0000  0.0000  0.0000
                                           -0.0000 -0.0000  0.0000  0.0000 -0.0000
                                           -0.0000 -0.0000  0.0000  0.0000 -0.0000
                                            0.0000 -0.0000  0.0000 -0.0000 -0.0000
                                            1.0000  0.0000 -0.0000  0.0000 -0.0000
                                            0.0000 -0.0000  0.0000  0.0000 -0.0000
                                            0.0000  0.0000  0.0000 -0.0000  0.0000
                                            0.0000 -0.0000 -0.0000 -0.0000 -0.0000
                                           -0.0000 -0.0000 -0.0000 -0.0000  0.0000
                                            0.0000 -0.0000 -0.0000 -0.0000 -0.0000
    10. (1.99676) CR ( 7) I   3           s(  0.00%)p 0.00(  0.00%)d 1.00(100.00%)
                                           -0.0000  0.0000 -0.0000 -0.0000  0.0000
                                            0.0000 -0.0000  0.0000  0.0000 -0.0000
                                           -0.0000 -0.0000  0.0000  0.0000 -0.0000
                                            0.0000 -0.0000  0.0000  0.0000 -0.0000
                                            0.0000 -0.0000  0.0000 -0.0000  0.0000
                                           -0.0000  0.0000 -0.0000  0.0000  1.0000
                                            0.0000 -0.0000  0.0000  0.0000 -0.0000
                                            0.0000  0.0000  0.0000 -0.0000  0.0000
                                            0.0000 -0.0000 -0.0000 -0.0000 -0.0000
                                           -0.0000 -0.0000 -0.0000 -0.0000  0.0000
                                            0.0000 -0.0000 -0.0000 -0.0000 -0.0000
    11. (1.99674) CR ( 8) I   3           s(  0.00%)p 0.00(  0.00%)d 1.00(100.00%)
                                            0.0000 -0.0000  0.0000  0.0000 -0.0000
                                           -0.0000  0.0000 -0.0000 -0.0000  0.0000
                                            0.0000  0.0000 -0.0001  0.0000  0.0000
                                           -0.0000  0.0000 -0.0000 -0.0000  0.0000
                                           -0.0000  0.0000 -0.0000  0.0000 -0.0000
                                            0.0000 -0.0000  0.0000 -0.0000  0.0000
                                           -0.0000  0.0000 -0.0000  1.0000  0.0000
                                           -0.0000 -0.0000 -0.0000  0.0000 -0.0000
                                           -0.0000  0.0000  0.0000  0.0000  0.0000
                                            0.0000  0.0000  0.0000  0.0000 -0.0000
                                           -0.0000  0.0000  0.0000  0.0000  0.0000
    12. (1.99677) CR ( 9) I   3           s(  0.00%)p 0.00(  0.00%)d 1.00(100.00%)
                                            0.0000 -0.0000  0.0000  0.0000 -0.0000
                                           -0.0000  0.0000 -0.0000 -0.0000 -0.0000
                                            0.0000  0.0000 -0.0000  0.0000  0.0000
                                           -0.0000  0.0000 -0.0000 -0.0000  0.0000
                                           -0.0000  0.0000 -0.0000  0.0000 -0.0000
                                            0.0000 -0.0000  0.0000 -0.0000  0.0000
                                           -0.0000  0.0000 -0.0000 -0.0000  0.0000
                                           -0.0000 -0.0000  1.0000  0.0000 -0.0000
                                           -0.0000  0.0000  0.0000  0.0000  0.0000
                                            0.0000  0.0000  0.0000  0.0000 -0.0000
                                           -0.0000  0.0000  0.0000  0.0000  0.0000
    13. (1.97066) LP ( 1) O   1           s( 54.73%)p 0.82( 45.14%)d 0.00(  0.13%)
                                                  f 0.00(  0.00%)
                                            0.0003  0.7398  0.0036 -0.0012  0.0024
                                           -0.4164 -0.0027  0.0034 -0.0012  0.4553
                                            0.0092 -0.0040  0.0004 -0.2657 -0.0049
                                            0.0022  0.0005  0.0265 -0.0030 -0.0022
                                           -0.0179  0.0029  0.0004  0.0135 -0.0022
                                            0.0003  0.0018  0.0008 -0.0031  0.0054
                                           -0.0008  0.0012  0.0037 -0.0015  0.0011
                                           -0.0001 -0.0005  0.0003  0.0003  0.0004
                                            0.0023 -0.0005  0.0003  0.0000  0.0035
                                           -0.0021
    14. (1.96119) LP ( 2) O   1           s(  0.02%)p99.99( 99.66%)d12.20(  0.29%)
                                                  f 1.09(  0.03%)
                                            0.0000  0.0130 -0.0066 -0.0050 -0.0003
                                            0.0019 -0.0005  0.0003 -0.0012 -0.5173
                                           -0.0160  0.0028 -0.0007 -0.8531 -0.0281
                                            0.0065 -0.0024 -0.0211  0.0070 -0.0038
                                           -0.0353  0.0111 -0.0060  0.0097  0.0015
                                           -0.0040 -0.0126  0.0001  0.0023 -0.0263
                                            0.0013  0.0035  0.0056 -0.0028  0.0013
                                           -0.0003  0.0095 -0.0028 -0.0088  0.0040
                                           -0.0010  0.0002  0.0008  0.0004 -0.0041
                                            0.0026
    15. (1.98022) LP ( 1) I   3           s( 99.27%)p 0.01(  0.73%)d 0.00(  0.00%)
                                                  f 0.00(  0.00%)
                                            0.0000  0.9963  0.0001  0.0001 -0.0001
                                           -0.0000 -0.0000 -0.0149  0.0003 -0.0001
                                            0.0001 -0.0000 -0.0821  0.0004 -0.0005
                                            0.0002 -0.0000 -0.0180  0.0005 -0.0001
                                            0.0001 -0.0000  0.0008 -0.0003 -0.0000
                                           -0.0000  0.0002 -0.0001 -0.0000 -0.0000
                                            0.0012 -0.0004 -0.0001  0.0000 -0.0011
                                            0.0003  0.0001  0.0000 -0.0008  0.0003
                                           -0.0000 -0.0004 -0.0003 -0.0001 -0.0001
                                           -0.0004 -0.0003 -0.0005 -0.0004  0.0002
                                            0.0001 -0.0003 -0.0003 -0.0004 -0.0002
    16. (1.95156) LP ( 2) I   3           s(  0.00%)p 1.00( 99.99%)d 0.00(  0.00%)
                                                  f 0.00(  0.00%)
                                           -0.0000  0.0054  0.0005 -0.0013  0.0016
                                           -0.0001  0.0000  0.5167  0.0005  0.0005
                                           -0.0003  0.0000  0.1555 -0.0013 -0.0003
                                            0.0002 -0.0000 -0.8419  0.0008 -0.0004
                                            0.0001 -0.0000  0.0025 -0.0007 -0.0002
                                            0.0000 -0.0003  0.0001 -0.0002  0.0000
                                           -0.0016 -0.0003  0.0014  0.0000  0.0019
                                           -0.0010  0.0015  0.0000 -0.0032  0.0018
                                           -0.0013  0.0003  0.0000 -0.0006 -0.0005
                                           -0.0017 -0.0016  0.0005 -0.0000  0.0001
                                            0.0002 -0.0007 -0.0004  0.0005  0.0005
    17. (1.95143) LP ( 3) I   3           s(  0.01%)p 1.00( 99.99%)d 0.00(  0.00%)
                                                  f 0.00(  0.00%)
                                           -0.0000  0.0068  0.0016 -0.0032  0.0032
                                           -0.0001 -0.0000 -0.8300 -0.0008 -0.0009
                                            0.0004  0.0000  0.3317 -0.0020 -0.0008
                                            0.0010 -0.0000 -0.4482  0.0006 -0.0002
                                            0.0001  0.0000 -0.0032  0.0005  0.0006
                                            0.0000 -0.0032  0.0017 -0.0014  0.0000
                                            0.0002 -0.0006  0.0011  0.0000 -0.0028
                                            0.0012 -0.0001  0.0000 -0.0005  0.0002
                                            0.0004  0.0001 -0.0001  0.0001  0.0001
                                           -0.0009 -0.0008 -0.0005 -0.0007 -0.0014
                                           -0.0013  0.0006  0.0001 -0.0013 -0.0010
    18. (1.93291) LP ( 4) I   3           s(  0.72%)p99.99( 99.25%)d 0.04(  0.03%)
                                                  f 0.00(  0.00%)
                                           -0.0000  0.0849 -0.0012 -0.0004  0.0004
                                            0.0002 -0.0000  0.2090  0.0011  0.0001
                                           -0.0004 -0.0001  0.9267 -0.0001 -0.0012
                                            0.0003 -0.0000  0.3000  0.0025 -0.0002
                                            0.0001 -0.0000  0.0058 -0.0014  0.0004
                                           -0.0000  0.0027 -0.0007  0.0003 -0.0000
                                            0.0109 -0.0029  0.0012  0.0001 -0.0080
                                            0.0011  0.0014  0.0000 -0.0044  0.0008
                                            0.0003 -0.0022 -0.0014 -0.0004 -0.0004
                                           -0.0013 -0.0011 -0.0026 -0.0017  0.0011
                                            0.0005 -0.0017 -0.0010 -0.0019 -0.0011
    19. (0.02012) RY*( 1) O   1           s(  0.05%)p99.99( 97.26%)d50.41(  2.61%)
                                                  f 1.56(  0.08%)
                                            0.0000 -0.0004  0.0182  0.0136  0.0006
                                            0.0001  0.0006 -0.0014  0.0027 -0.0209
                                            0.5130  0.0199 -0.0094 -0.0350  0.8404
                                            0.0285 -0.0115  0.0743 -0.0192  0.0091
                                            0.1175 -0.0305  0.0150 -0.0190  0.0003
                                            0.0052  0.0268 -0.0043 -0.0008  0.0628
                                           -0.0102 -0.0010 -0.0093  0.0073  0.0026
                                            0.0002 -0.0104  0.0098  0.0140 -0.0113
                                           -0.0006 -0.0007  0.0025 -0.0010  0.0088
                                           -0.0068
    20. (0.01515) RY*( 2) O   1           s( 21.21%)p 3.54( 75.05%)d 0.17(  3.60%)
                                                  f 0.01(  0.14%)
                                            0.0000 -0.0105  0.4603 -0.0089  0.0010
                                            0.0104 -0.4850 -0.0141  0.0023 -0.0086
                                            0.6089  0.0095 -0.0117  0.0038 -0.3792
                                           -0.0090  0.0072  0.1499 -0.0139 -0.0034
                                           -0.1072  0.0140 -0.0021  0.0357 -0.0086
                                           -0.0037 -0.0009  0.0036 -0.0074  0.0096
                                           -0.0086  0.0037  0.0052 -0.0061 -0.0073
                                            0.0027 -0.0074  0.0041 -0.0145  0.0057
                                            0.0127 -0.0056  0.0163 -0.0052  0.0199
                                           -0.0110
    21. (0.00709) RY*( 3) O   1           s(  4.50%)p13.14( 59.19%)d 7.91( 35.61%)
                                                  f 0.16(  0.70%)
                                            0.0000  0.0039  0.2080 -0.0391  0.0148
                                           -0.0569 -0.6137 -0.0203 -0.0141 -0.0251
                                           -0.3890 -0.0143 -0.0090  0.0126  0.2410
                                            0.0192 -0.0238 -0.4035 -0.0007 -0.0083
                                            0.0607 -0.0057  0.0065  0.0811  0.0261
                                           -0.0121  0.4069  0.0516 -0.0240  0.1145
                                           -0.0035  0.0082  0.0097 -0.0005 -0.0235
                                            0.0099 -0.0061  0.0051  0.0255 -0.0071
                                           -0.0189  0.0054  0.0102 -0.0053 -0.0651
                                            0.0274
    22. (0.00630) RY*( 4) O   1           s(  0.15%)p50.37(  7.40%)d99.99( 91.24%)
                                                  f 8.30(  1.22%)
                                           -0.0000  0.0014  0.0361  0.0126 -0.0002
                                            0.0227  0.2249  0.0162 -0.0046  0.0192
                                            0.1447  0.0152 -0.0126 -0.0034 -0.0288
                                            0.0036  0.0002 -0.3922 -0.0341  0.0129
                                           -0.5622 -0.0450  0.0125 -0.3651 -0.0297
                                            0.0075  0.0959  0.0015  0.0040  0.5416
                                            0.0453 -0.0107  0.0365 -0.0151  0.0026
                                            0.0011 -0.0521  0.0228 -0.0635  0.0257
                                            0.0009  0.0000 -0.0261  0.0097 -0.0410
                                            0.0153
    23. (0.00622) RY*( 5) O   1           s( 11.93%)p 0.58(  6.86%)d 6.72( 80.20%)
                                                  f 0.08(  1.01%)
                                           -0.0000  0.0135  0.3448  0.0153 -0.0009
                                            0.0104  0.2209  0.0159 -0.0074  0.0271
                                            0.1059  0.0022 -0.0073 -0.0205 -0.0833
                                           -0.0065 -0.0022 -0.6053 -0.0329  0.0154
                                            0.5264  0.0330 -0.0127  0.0441  0.0140
                                           -0.0078 -0.3860 -0.0365  0.0124  0.0571
                                            0.0088 -0.0049 -0.0343  0.0146  0.0212
                                           -0.0020  0.0135 -0.0028  0.0081  0.0021
                                           -0.0499  0.0197 -0.0677  0.0186 -0.0137
                                            0.0003
    24. (0.00592) RY*( 6) O   1           s(  0.08%)p31.79(  2.57%)d99.99( 96.49%)
                                                  f10.62(  0.86%)
                                           -0.0000  0.0008  0.0284 -0.0005  0.0007
                                            0.0038  0.0425  0.0028 -0.0027 -0.0200
                                           -0.0571 -0.0019 -0.0150 -0.0401 -0.1350
                                           -0.0099 -0.0084  0.3771  0.0407 -0.0112
                                            0.5536  0.0631 -0.0186 -0.3318 -0.0293
                                            0.0029  0.2737  0.0259 -0.0010  0.5662
                                            0.0552 -0.0060 -0.0204  0.0069  0.0321
                                           -0.0116 -0.0661  0.0275  0.0292 -0.0106
                                           -0.0147  0.0052  0.0201 -0.0070  0.0126
                                           -0.0038
    25. (0.00564) RY*( 7) O   1           s(  6.34%)p 0.85(  5.42%)d13.82( 87.59%)
                                                  f 0.10(  0.66%)
                                           -0.0000  0.0220  0.2508 -0.0008 -0.0036
                                            0.0332  0.1393  0.0129 -0.0055 -0.0377
                                           -0.1584 -0.0180 -0.0059  0.0184  0.0790
                                            0.0051 -0.0002  0.2178  0.0237 -0.0054
                                           -0.1541 -0.0180  0.0052  0.7274  0.0871
                                           -0.0084 -0.1583 -0.0200  0.0043  0.4882
                                            0.0559 -0.0050  0.0483 -0.0188  0.0319
                                           -0.0115  0.0031 -0.0010  0.0255 -0.0106
                                            0.0387 -0.0146 -0.0116  0.0039  0.0108
                                           -0.0025
    26. (0.00288) RY*( 8) O   1           s(  8.72%)p 2.73( 23.81%)d 7.63( 66.53%)
                                                  f 0.11(  0.94%)
                                           -0.0000 -0.0037  0.2945  0.0210 -0.0001
                                            0.0299 -0.2466  0.0138 -0.0501  0.0245
                                           -0.3506 -0.0320 -0.0588 -0.0145  0.2108
                                            0.0274 -0.0178  0.2441  0.0654 -0.0004
                                           -0.1353 -0.0336  0.0002 -0.4174 -0.0533
                                           -0.0388 -0.6240 -0.0849 -0.0595  0.0445
                                           -0.0264  0.0258 -0.0220  0.0194  0.0154
                                           -0.0083 -0.0237  0.0163 -0.0574  0.0327
                                            0.0087 -0.0117 -0.0225  0.0065  0.0451
                                           -0.0163
    27. (0.00225) RY*( 9) O   1           s( 45.14%)p 0.51( 22.95%)d 0.69( 31.27%)
                                                  f 0.01(  0.64%)
                                            0.0000 -0.0065  0.6687  0.0372 -0.0536
                                           -0.0109  0.4379  0.0619 -0.0074 -0.0042
                                           -0.1436 -0.0406 -0.0698 -0.0004  0.0796
                                            0.0160  0.0029  0.1344  0.0576 -0.0114
                                           -0.0862 -0.0388  0.0089 -0.1073 -0.0375
                                           -0.0204  0.3805  0.0908  0.0625 -0.3119
                                           -0.1173 -0.0282 -0.0171  0.0131 -0.0245
                                            0.0376 -0.0157  0.0146 -0.0059  0.0124
                                            0.0149 -0.0041  0.0315 -0.0427 -0.0141
                                            0.0003
    28. (0.00071) RY*(10) O   1           s( 58.63%)p 0.55( 32.22%)d 0.08(  4.74%)
                                                  f 0.08(  4.41%)
                                            0.0000 -0.0034 -0.0573  0.7623  0.0438
                                           -0.0011 -0.0371 -0.0527 -0.0310 -0.0026
                                            0.0187 -0.5408 -0.1289 -0.0049 -0.0117
                                            0.0285  0.0815 -0.0277 -0.0063 -0.0403
                                            0.0120  0.0669  0.0068  0.0413 -0.0361
                                            0.1077  0.0115  0.0048  0.0130  0.0156
                                           -0.1281  0.0933  0.0059 -0.0348 -0.0367
                                            0.0102 -0.1717  0.0400 -0.0776 -0.0288
                                            0.0351  0.0079 -0.0079  0.0270  0.0265
                                            0.0268
    29. (0.00056) RY*(11) O   1           s(  0.07%)p89.32(  6.33%)d99.99( 73.00%)
                                                  f99.99( 20.60%)
                                            0.0000 -0.0021 -0.0113 -0.0044  0.0236
                                           -0.0004 -0.0036  0.2200 -0.0317  0.0102
                                            0.0359  0.0202  0.0226  0.0141  0.0317
                                            0.0918  0.0447 -0.0137  0.5697  0.0202
                                           -0.0199  0.6147  0.0309  0.0065  0.0318
                                            0.0114 -0.0018  0.0508 -0.0027 -0.0249
                                            0.1453 -0.0097  0.1630 -0.0238 -0.0632
                                           -0.0020  0.1155 -0.0090 -0.2906  0.0315
                                            0.0281  0.0066 -0.1186  0.0013 -0.2454
                                            0.0280
    30. (0.00056) RY*(12) O   1           s(  1.65%)p32.42( 53.50%)d24.20( 39.94%)
                                                  f 2.98(  4.91%)
                                            0.0000 -0.0031 -0.0464  0.0916  0.0771
                                           -0.0034 -0.0163  0.2861 -0.0673  0.0031
                                            0.0151  0.2616 -0.0835 -0.0011 -0.0574
                                            0.6077  0.0081  0.0069  0.0875  0.0045
                                            0.0281 -0.2196  0.0342 -0.0026  0.3999
                                            0.0605  0.0300 -0.2371  0.0012  0.0171
                                           -0.3469  0.0104 -0.0783  0.0012  0.0371
                                            0.0058 -0.1507  0.0282 -0.0426 -0.0200
                                           -0.0453  0.0068 -0.0658  0.0217 -0.0939
                                            0.0121
    31. (0.00052) RY*(13) O   1           s(  0.52%)p89.30( 46.28%)d76.00( 39.39%)
                                                  f26.64( 13.81%)
                                           -0.0000  0.0051  0.0323  0.0464 -0.0443
                                            0.0051  0.0309 -0.5263  0.0551 -0.0027
                                           -0.0433  0.3158  0.0389  0.0072  0.0140
                                            0.2733  0.0616  0.0040 -0.2893 -0.0024
                                            0.0042  0.4109  0.0388  0.0185 -0.1876
                                           -0.0026 -0.0102 -0.0651 -0.0080  0.0215
                                           -0.3139 -0.0304  0.2795 -0.0046 -0.0573
                                           -0.0015 -0.0887  0.0087 -0.1343  0.0108
                                            0.1043 -0.0083  0.1265 -0.0039  0.0599
                                           -0.0040
    32. (0.00045) RY*(14) O   1           s(  1.90%)p26.38( 50.16%)d12.29( 23.36%)
                                                  f12.93( 24.58%)
                                            0.0000  0.0027 -0.0285  0.0561  0.1227
                                           -0.0052 -0.0171  0.1887 -0.0666 -0.0070
                                           -0.0099  0.2816 -0.0864 -0.0000  0.0100
                                           -0.5887 -0.1662 -0.0004  0.0192 -0.0112
                                            0.0080  0.0362  0.0397  0.0745 -0.1188
                                            0.0785  0.0218 -0.1526 -0.0269  0.0309
                                           -0.4204 -0.0465 -0.1403 -0.0393  0.0542
                                            0.0046 -0.2240 -0.0146 -0.3739 -0.0444
                                           -0.1673 -0.0003  0.0350  0.0128 -0.0046
                                            0.0102
    33. (0.00046) RY*(15) O   1           s(  1.15%)p13.52( 15.55%)d 2.67(  3.07%)
                                                  f69.76( 80.23%)
                                           -0.0000  0.0035  0.0054  0.0946 -0.0500
                                            0.0062  0.0138 -0.3752  0.0278  0.0083
                                            0.0097  0.0985  0.0296 -0.0060 -0.0078
                                           -0.0540 -0.0008  0.0214  0.1401  0.0380
                                           -0.0113 -0.0777 -0.0207  0.0039  0.0135
                                            0.0126 -0.0411  0.0013 -0.0156  0.0135
                                           -0.0059  0.0083 -0.5003 -0.0352  0.0350
                                           -0.0017  0.0223 -0.0013  0.0625 -0.0128
                                            0.2233  0.0083  0.1605  0.0134 -0.6844
                                           -0.0246
    34. (0.00043) RY*(16) O   1           s(  0.06%)p55.97(  3.56%)d99.99( 16.36%)
                                                  f99.99( 80.01%)
                                           -0.0000 -0.0002 -0.0044  0.0240  0.0065
                                            0.0010  0.0030 -0.0658 -0.0056  0.0032
[...]
                                            0.0003  0.0013 -0.0605 -0.0030  0.0556
                                           -0.0201  0.0306 -0.0199
   125. (0.00428) RY*( 2) H   4           s( 12.73%)p 6.77( 86.15%)d 0.09(  1.12%)
                                            0.0070  0.3554  0.0181  0.0249 -0.1611
                                            0.0102 -0.0132 -0.4189 -0.0156 -0.0077
                                           -0.8006 -0.1358 -0.0131 -0.0316 -0.0021
                                           -0.0388  0.0212  0.0352 -0.0284 -0.0129
                                            0.0457  0.0473  0.0412
   126. (0.00360) RY*( 3) H   4           s(  8.45%)p10.70( 90.33%)d 0.14(  1.22%)
                                           -0.0220  0.2519  0.1361 -0.0446  0.8555
                                           -0.0081  0.0127 -0.3871  0.0069 -0.0070
                                            0.1453 -0.0023 -0.0132 -0.0484  0.0102
                                           -0.0365  0.0012  0.0077 -0.0153  0.0770
                                            0.0080 -0.0459  0.0059
   127. (0.00193) RY*( 4) H   4           s( 30.68%)p 2.23( 68.37%)d 0.03(  0.95%)
                                           -0.0088  0.4747  0.2778  0.0648 -0.4502
                                            0.0128 -0.0036 -0.4060  0.2119 -0.0227
                                            0.5107  0.0616 -0.0774  0.0438 -0.0283
                                            0.0511 -0.0030  0.0438 -0.0038  0.0180
                                            0.0318  0.0265  0.0137
   128. (0.00049) RY*( 5) H   4           s( 23.94%)p 2.43( 58.27%)d 0.74( 17.79%)
                                            0.0044 -0.1033  0.4778 -0.0205  0.0809
                                            0.2905 -0.0460  0.1792  0.2954 -0.0212
                                           -0.2203  0.5516 -0.1307  0.0171  0.0061
                                            0.1232 -0.0519  0.3410 -0.0074  0.0575
                                            0.0020  0.1999 -0.0054
   129. (0.00040) RY*( 6) H   4           s(  4.87%)p17.77( 86.52%)d 1.77(  8.61%)
                                           -0.0012 -0.0287  0.0108  0.2185  0.0450
                                           -0.8438  0.1068  0.0349  0.3023 -0.1045
                                           -0.0617  0.1749  0.0435 -0.1256 -0.1100
                                           -0.0290  0.0468  0.1291  0.0027 -0.1781
                                           -0.0151  0.0784 -0.0204
   130. (0.00031) RY*( 7) H   4           s( 14.58%)p 3.11( 45.38%)d 2.75( 40.05%)
                                            0.0024 -0.0421 -0.2194  0.3096  0.0051
                                            0.1177 -0.2045 -0.0374  0.0851 -0.6007
                                            0.0064  0.1445 -0.0872 -0.2248 -0.0798
                                           -0.0689  0.0716 -0.2809  0.1509  0.3858
                                            0.2304  0.1652  0.0524
   131. (0.00024) RY*( 8) H   4           s(  4.99%)p 3.92( 19.53%)d15.13( 75.48%)
                                           -0.0036  0.0233 -0.0981  0.1993  0.0316
                                            0.2734 -0.0942  0.0086  0.2930  0.1329
                                            0.0202  0.0346 -0.0743 -0.4591  0.1688
                                           -0.3081 -0.1537 -0.1598  0.0357 -0.5978
                                            0.0336 -0.0852 -0.0663
   132. (0.00020) RY*( 9) H   4           s(  3.97%)p 6.70( 26.55%)d17.52( 69.48%)
                                            0.0081 -0.0005  0.1596 -0.1188 -0.0622
                                           -0.0539 -0.0828  0.0355 -0.4314 -0.1038
                                            0.1112 -0.1970  0.0509 -0.5348 -0.0197
                                           -0.2197 -0.1112  0.4922  0.0236  0.0335
                                            0.0303  0.2921  0.1327
   133. (0.00015) RY*(10) H   4           s( 28.77%)p 1.14( 32.91%)d 1.33( 38.32%)
                                           -0.0100 -0.1351  0.5069 -0.1115 -0.0229
                                           -0.1119  0.0022  0.1571  0.1880  0.0379
                                           -0.0659 -0.3593 -0.3481 -0.1327 -0.1762
                                           -0.2438 -0.0606 -0.3315 -0.2295  0.2315
                                            0.0485 -0.1995  0.1144
   134. (0.00016) RY*(11) H   4           s(  8.32%)p 4.54( 37.76%)d 6.48( 53.92%)
                                           -0.0048 -0.0358  0.1477  0.2451  0.1119
                                            0.0976  0.0025  0.1183  0.1226 -0.2891
                                            0.0201 -0.4923 -0.0124  0.2856  0.0394
                                            0.3153 -0.0152  0.1484  0.0492 -0.3708
                                            0.2507  0.1595  0.3260
   135. (0.00011) RY*(12) H   4           s(  5.35%)p 9.69( 51.85%)d 8.00( 42.80%)
                                           -0.0071 -0.0253  0.2126  0.0874  0.0109
                                            0.0718  0.1136  0.0473  0.2813  0.1297
                                           -0.0232 -0.2631  0.5765  0.0190  0.0383
                                           -0.1765 -0.0554 -0.1301  0.4080  0.2152
                                           -0.1948  0.3021 -0.1818
   136. (0.00012) RY*(13) H   4           s( 18.03%)p 1.22( 21.94%)d 3.33( 60.03%)
                                            0.0057 -0.0320  0.1566  0.3933  0.0022
                                           -0.0508  0.3066 -0.0216 -0.2875  0.1409
                                            0.0010  0.0274 -0.1379 -0.1472  0.4178
                                            0.2930 -0.0976 -0.2894 -0.2767  0.0715
                                           -0.0695  0.3410 -0.1490
   137. (0.00009) RY*(14) H   4           s( 24.59%)p 0.94( 23.10%)d 2.13( 52.32%)
   138. (0.00009) RY*(15) H   4           s( 12.61%)p 4.37( 55.13%)d 2.56( 32.26%)
   139. (0.00009) RY*(16) H   4           s(  1.83%)p 8.70( 15.93%)d44.93( 82.24%)
   140. (0.00006) RY*(17) H   4           s( 10.21%)p 0.46(  4.71%)d 8.34( 85.09%)
   141. (0.00007) RY*(18) H   4           s( 17.75%)p 1.05( 18.71%)d 3.58( 63.53%)
   142. (0.00004) RY*(19) H   4           s(  1.20%)p24.05( 28.82%)d58.41( 69.98%)
   143. (0.00005) RY*(20) H   4           s(  6.79%)p 1.32(  8.97%)d12.41( 84.24%)
   144. (0.00004) RY*(21) H   4           s(  2.26%)p14.85( 33.52%)d28.44( 64.22%)
   145. (0.00002) RY*(22) H   4           s(  2.85%)p14.60( 41.67%)d19.44( 55.48%)
   146. (0.02134) BD*( 1) O   1 - H   2  
                ( 26.98%)   0.5194* O   1 s( 21.08%)p 3.72( 78.46%)d 0.02(  0.45%)
                                                  f 0.00(  0.01%)
                                           -0.0002 -0.4590  0.0069 -0.0023  0.0045
                                           -0.8833  0.0318 -0.0082  0.0007 -0.0511
                                            0.0134 -0.0014  0.0029  0.0221 -0.0090
                                            0.0009 -0.0014  0.0164 -0.0010 -0.0019
                                           -0.0134  0.0023 -0.0001  0.0043  0.0003
                                           -0.0015 -0.0536  0.0032 -0.0029  0.0334
                                           -0.0016  0.0007 -0.0000 -0.0003  0.0070
                                            0.0012  0.0003 -0.0000  0.0005  0.0000
                                            0.0054 -0.0017 -0.0048 -0.0026 -0.0013
                                            0.0002
                ( 73.02%)  -0.8545* H   2 s( 99.90%)p 0.00(  0.09%)d 0.00(  0.01%)
                                           -0.9995 -0.0036  0.0003 -0.0001  0.0028
                                           -0.0299  0.0040 -0.0025  0.0003  0.0009
                                           -0.0005 -0.0016  0.0001 -0.0018  0.0020
                                           -0.0010 -0.0009  0.0020  0.0007 -0.0070
                                            0.0018  0.0046 -0.0008
   147. (0.03683) BD*( 1) O   1 - H   4  
                ( 23.85%)   0.4883* O   1 s( 24.09%)p 3.13( 75.45%)d 0.02(  0.45%)
                                                  f 0.00(  0.01%)
                                            0.0003  0.4908 -0.0009  0.0007 -0.0011
                                           -0.1998  0.0191 -0.0000 -0.0021 -0.7192
                                            0.0158 -0.0070  0.0024  0.4434 -0.0082
                                            0.0051 -0.0039 -0.0071  0.0051 -0.0027
                                            0.0039 -0.0030  0.0016 -0.0536  0.0026
                                            0.0019 -0.0377  0.0023 -0.0004 -0.0072
                                           -0.0008  0.0021 -0.0088  0.0008  0.0007
                                           -0.0005  0.0001 -0.0009 -0.0050 -0.0021
                                            0.0028  0.0008  0.0017  0.0013 -0.0024
                                            0.0035
                ( 76.15%)  -0.8727* H   4 s( 99.88%)p 0.00(  0.11%)d 0.00(  0.01%)
                                            0.9993  0.0141  0.0002 -0.0001  0.0183
                                           -0.0003 -0.0003 -0.0002  0.0194  0.0075
                                            0.0130 -0.0128 -0.0051  0.0004 -0.0023
                                           -0.0003  0.0016 -0.0012 -0.0006  0.0064
                                           -0.0007 -0.0025 -0.0010


 NHO Directionality and "Bond Bending" (deviations from line of nuclear centers)

         [Thresholds for printing:  angular deviation  >  1.0 degree]
                                    hybrid p-character > 25.0%
                                    orbital occupancy  >  0.10e

                                Line of Centers        Hybrid 1              Hybrid 2
                                ---------------  -------------------   ------------------
                NBO               Theta   Phi    Theta   Phi    Dev    Theta   Phi    Dev
 ========================================================================================
     1. BD (   1) O   1 - H   2    90.0    0.0    90.8    2.4   2.6      --     --    --
     2. BD (   1) O   1 - H   4    60.0  258.1    59.2  255.5   2.4      --     --    --
    13. LP (   1) O   1             --     --    113.3  132.1   --       --     --    --
    14. LP (   2) O   1             --     --    148.8  270.0   --       --     --    --
    16. LP (   2) I   3             --     --    147.3   16.6   --       --     --    --
    17. LP (   3) I   3             --     --    116.6  158.4   --       --     --    --
    18. LP (   4) I   3             --     --     72.3   77.2   --       --     --    --


 Natural Bond Orbitals (Summary):

           NBO                  Occupancy  
 -----------------------------------------------
 Molecular unit  1  (H2O)
     1. BD (   1) O   1 - H   2          1.96644
     2. BD (   1) O   1 - H   4          1.96736
     3. CR (   1) O   1                  1.99968
    13. LP (   1) O   1                  1.97066
    14. LP (   2) O   1                  1.96119
    19. RY*(   1) O   1                  0.02012
    20. RY*(   2) O   1                  0.01515
    21. RY*(   3) O   1                  0.00709
    22. RY*(   4) O   1                  0.00630
    23. RY*(   5) O   1                  0.00622
    24. RY*(   6) O   1                  0.00592
    25. RY*(   7) O   1                  0.00564
    26. RY*(   8) O   1                  0.00288
    27. RY*(   9) O   1                  0.00225
    28. RY*(  10) O   1                  0.00071
    29. RY*(  11) O   1                  0.00056
    30. RY*(  12) O   1                  0.00056
    31. RY*(  13) O   1                  0.00052
    32. RY*(  14) O   1                  0.00045
    33. RY*(  15) O   1                  0.00046
    34. RY*(  16) O   1                  0.00043
    35. RY*(  17) O   1                  0.00044
    36. RY*(  18) O   1                  0.00044
    37. RY*(  19) O   1                  0.00041
    38. RY*(  20) O   1                  0.00042
    39. RY*(  21) O   1                  0.00036
    40. RY*(  22) O   1                  0.00035
    41. RY*(  23) O   1                  0.00029
    42. RY*(  24) O   1                  0.00029
    43. RY*(  25) O   1                  0.00021
    44. RY*(  26) O   1                  0.00014
    45. RY*(  27) O   1                  0.00010
    46. RY*(  28) O   1                  0.00008
    47. RY*(  29) O   1                  0.00008
    48. RY*(  30) O   1                  0.00008
    49. RY*(  31) O   1                  0.00007
    50. RY*(  32) O   1                  0.00006
    51. RY*(  33) O   1                  0.00006
    52. RY*(  34) O   1                  0.00006
    53. RY*(  35) O   1                  0.00006
    54. RY*(  36) O   1                  0.00004
    55. RY*(  37) O   1                  0.00004
    56. RY*(  38) O   1                  0.00004
    57. RY*(  39) O   1                  0.00002
    58. RY*(  40) O   1                  0.00001
    59. RY*(  41) O   1                 -0.00003
    60. RY*(   1) H   2                  0.00186
    61. RY*(   2) H   2                  0.00165
    62. RY*(   3) H   2                  0.00082
    63. RY*(   4) H   2                  0.00051
    64. RY*(   5) H   2                  0.00031
    65. RY*(   6) H   2                  0.00018
    66. RY*(   7) H   2                  0.00013
    67. RY*(   8) H   2                  0.00010
    68. RY*(   9) H   2                  0.00010
    69. RY*(  10) H   2                  0.00011
    70. RY*(  11) H   2                  0.00009
    71. RY*(  12) H   2                  0.00006
    72. RY*(  13) H   2                  0.00004
    73. RY*(  14) H   2                  0.00005
    74. RY*(  15) H   2                  0.00004
    75. RY*(  16) H   2                  0.00003
    76. RY*(  17) H   2                  0.00003
    77. RY*(  18) H   2                  0.00002
    78. RY*(  19) H   2                  0.00002
    79. RY*(  20) H   2                  0.00002
    80. RY*(  21) H   2                  0.00001
    81. RY*(  22) H   2                  0.00001
   124. RY*(   1) H   4                  0.00663
   125. RY*(   2) H   4                  0.00428
   126. RY*(   3) H   4                  0.00360
   127. RY*(   4) H   4                  0.00193
   128. RY*(   5) H   4                  0.00049
   129. RY*(   6) H   4                  0.00040
   130. RY*(   7) H   4                  0.00031
   131. RY*(   8) H   4                  0.00024
   132. RY*(   9) H   4                  0.00020
   133. RY*(  10) H   4                  0.00015
   134. RY*(  11) H   4                  0.00016
   135. RY*(  12) H   4                  0.00011
   136. RY*(  13) H   4                  0.00012
   137. RY*(  14) H   4                  0.00009
   138. RY*(  15) H   4                  0.00009
   139. RY*(  16) H   4                  0.00009
   140. RY*(  17) H   4                  0.00006
   141. RY*(  18) H   4                  0.00007
   142. RY*(  19) H   4                  0.00004
   143. RY*(  20) H   4                  0.00005
   144. RY*(  21) H   4                  0.00004
   145. RY*(  22) H   4                  0.00002
   146. BD*(   1) O   1 - H   2          0.02134
   147. BD*(   1) O   1 - H   4          0.03683
       -------------------------------
              Total Lewis    9.86533  ( 98.3756%)
        Valence non-Lewis    0.05816  (  0.5800%)
        Rydberg non-Lewis    0.10473  (  1.0444%)
       -------------------------------
            Total unit  1   10.02823  (100.0000%)
           Charge unit  1   -0.02823

 Molecular unit  2  (I)
     4. CR (   1) I   3                  2.00003
     5. CR (   2) I   3                  2.00007
     6. CR (   3) I   3                  2.00005
     7. CR (   4) I   3                  2.00007
     8. CR (   5) I   3                  1.99676
     9. CR (   6) I   3                  1.99678
    10. CR (   7) I   3                  1.99676
    11. CR (   8) I   3                  1.99674
    12. CR (   9) I   3                  1.99677
    15. LP (   1) I   3                  1.98022
    16. LP (   2) I   3                  1.95156
    17. LP (   3) I   3                  1.95143
    18. LP (   4) I   3                  1.93291
    82. RY*(   1) I   3                  0.02034
    83. RY*(   2) I   3                  0.02031
    84. RY*(   3) I   3                  0.02018
    85. RY*(   4) I   3                  0.02018
    86. RY*(   5) I   3                  0.01993
    87. RY*(   6) I   3                  0.01129
    88. RY*(   7) I   3                  0.01121
    89. RY*(   8) I   3                  0.01024
    90. RY*(   9) I   3                  0.00431
    91. RY*(  10) I   3                  0.00279
    92. RY*(  11) I   3                  0.00279
    93. RY*(  12) I   3                  0.00277
    94. RY*(  13) I   3                  0.00277
    95. RY*(  14) I   3                  0.00272
    96. RY*(  15) I   3                  0.00272
    97. RY*(  16) I   3                  0.00272
    98. RY*(  17) I   3                  0.00169
    99. RY*(  18) I   3                  0.00169
   100. RY*(  19) I   3                  0.00148
   101. RY*(  20) I   3                  0.00148
   102. RY*(  21) I   3                  0.00131
   103. RY*(  22) I   3                  0.00075
   104. RY*(  23) I   3                  0.00076
   105. RY*(  24) I   3                  0.00072
   106. RY*(  25) I   3                  0.00051
   107. RY*(  26) I   3                  0.00044
   108. RY*(  27) I   3                  0.00044
   109. RY*(  28) I   3                  0.00043
   110. RY*(  29) I   3                  0.00043
   111. RY*(  30) I   3                  0.00042
   112. RY*(  31) I   3                  0.00041
   113. RY*(  32) I   3                  0.00038
   114. RY*(  33) I   3                  0.00017
   115. RY*(  34) I   3                  0.00016
   116. RY*(  35) I   3                  0.00016
   117. RY*(  36) I   3                  0.00014
   118. RY*(  37) I   3                  0.00013
   119. RY*(  38) I   3                  0.00008
   120. RY*(  39) I   3                  0.00008
   121. RY*(  40) I   3                  0.00007
   122. RY*(  41) I   3                  0.00005
   123. RY*(  42) I   3                  0.00000
       -------------------------------
              Total Lewis   53.80014  ( 99.6820%)
        Valence non-Lewis    0.00000  (  0.0000%)
        Rydberg non-Lewis    0.17163  (  0.3180%)
       -------------------------------
            Total unit  2   53.97177  (100.0000%)
           Charge unit  2   -0.97177
 Leave Link  607 at Tue Oct 26 12:34:28 2021, MaxMem= 16106127360 cpu:              68.8 elap:               2.5
 (Enter /sw/contrib/gaussian/g16/B01/g16/l9999.exe)
 1\1\GINC-N2097\SP\RMP2-FC\Gen\H2I1O1(1-)\CGAVINH\26-Oct-2021\0\\#p pop
 =NBO SP NoSymm mp2/gen Pseudo=read density=current\\title\\-1,1\O\X,1,
 10.\H,1,0.96090774,2,90.\I,1,3.50850135,2,90.,3,101.85832064,0\H,1,0.9
 7516,2,60.,3,101.85832064,0\\Version=ES64L-G16RevB.01\HF=-370.812384\M
 P2=-371.3077563\RMSD=3.048e-09\Dipole=0.7500082,0.9208695,0.1742486\Qu
 adrupole=12.9925255,-26.1305739,13.1380484,-7.7262785,-0.091018,-0.088
 3816\PG=C01 [X(H2I1O1)]\\@


 MARY HAD A LITTLE LAMB
      HIS FEET WERE BLACK AS SOOT,
           AND EVERYWHERE THAT MARY WENT
                HIS SOOTY FOOT HE PUT.

                    -- NONAME
 Job cpu time:       0 days  0 hours  4 minutes  7.9 seconds.
 Elapsed time:       0 days  0 hours  0 minutes 11.4 seconds.
 File lengths (MBytes):  RWF=     11 Int=      0 D2E=      0 Chk=      8 Scr=      1
 Normal termination of Gaussian 16 at Tue Oct 26 12:34:28 2021.
