 Entering Gaussian System, Link 0=g16
 Input=ihod_oop_30_sp.gjf
 Output=ihod_oop_30_sp.log
 Initial command:
 /sw/contrib/gaussian/g16/B01/g16/l1.exe "/scr/Gau-237614.inp" -scrdir="/scr/"
 Entering Link 1 = /sw/contrib/gaussian/g16/B01/g16/l1.exe PID=    237615.
  
 Copyright (c) 1988-2017, Gaussian, Inc.  All Rights Reserved.
  
 This is part of the Gaussian(R) 16 program.  It is based on
 the Gaussian(R) 09 system (copyright 2009, Gaussian, Inc.),
 the Gaussian(R) 03 system (copyright 2003, Gaussian, Inc.),
 the Gaussian(R) 98 system (copyright 1998, Gaussian, Inc.),
 the Gaussian(R) 94 system (copyright 1995, Gaussian, Inc.),
 the Gaussian 92(TM) system (copyright 1992, Gaussian, Inc.),
 the Gaussian 90(TM) system (copyright 1990, Gaussian, Inc.),
 the Gaussian 88(TM) system (copyright 1988, Gaussian, Inc.),
 the Gaussian 86(TM) system (copyright 1986, Carnegie Mellon
 University), and the Gaussian 82(TM) system (copyright 1983,
 Carnegie Mellon University). Gaussian is a federally registered
 trademark of Gaussian, Inc.
  
 This software contains proprietary and confidential information,
 including trade secrets, belonging to Gaussian, Inc.
  
 This software is provided under written license and may be
 used, copied, transmitted, or stored only in accord with that
 written license.
  
 The following legend is applicable only to US Government
 contracts under FAR:
  
                    RESTRICTED RIGHTS LEGEND
  
 Use, reproduction and disclosure by the US Government is
 subject to restrictions as set forth in subparagraphs (a)
 and (c) of the Commercial Computer Software - Restricted
 Rights clause in FAR 52.227-19.
  
 Gaussian, Inc.
 340 Quinnipiac St., Bldg. 40, Wallingford CT 06492
  
  
 ---------------------------------------------------------------
 Warning -- This program may not be used in any manner that
 competes with the business of Gaussian, Inc. or will provide
 assistance to any competitor of Gaussian, Inc.  The licensee
 of this program is prohibited from giving any competitor of
 Gaussian, Inc. access to this program.  By using this program,
 the user acknowledges that Gaussian, Inc. is engaged in the
 business of creating and licensing software in the field of
 computational chemistry and represents and warrants to the
 licensee that it is not a competitor of Gaussian, Inc. and that
 it will not use this program in any manner prohibited above.
 ---------------------------------------------------------------
  

 Cite this work as:
 Gaussian 16, Revision B.01,
 M. J. Frisch, G. W. Trucks, H. B. Schlegel, G. E. Scuseria, 
 M. A. Robb, J. R. Cheeseman, G. Scalmani, V. Barone, 
 G. A. Petersson, H. Nakatsuji, X. Li, M. Caricato, A. V. Marenich, 
 J. Bloino, B. G. Janesko, R. Gomperts, B. Mennucci, H. P. Hratchian, 
 J. V. Ortiz, A. F. Izmaylov, J. L. Sonnenberg, D. Williams-Young, 
 F. Ding, F. Lipparini, F. Egidi, J. Goings, B. Peng, A. Petrone, 
 T. Henderson, D. Ranasinghe, V. G. Zakrzewski, J. Gao, N. Rega, 
 G. Zheng, W. Liang, M. Hada, M. Ehara, K. Toyota, R. Fukuda, 
 J. Hasegawa, M. Ishida, T. Nakajima, Y. Honda, O. Kitao, H. Nakai, 
 T. Vreven, K. Throssell, J. A. Montgomery, Jr., J. E. Peralta, 
 F. Ogliaro, M. J. Bearpark, J. J. Heyd, E. N. Brothers, K. N. Kudin, 
 V. N. Staroverov, T. A. Keith, R. Kobayashi, J. Normand, 
 K. Raghavachari, A. P. Rendell, J. C. Burant, S. S. Iyengar, 
 J. Tomasi, M. Cossi, J. M. Millam, M. Klene, C. Adamo, R. Cammi, 
 J. W. Ochterski, R. L. Martin, K. Morokuma, O. Farkas, 
 J. B. Foresman, and D. J. Fox, Gaussian, Inc., Wallingford CT, 2016.
 
 ******************************************
 Gaussian 16:  ES64L-G16RevB.01 20-Dec-2017
                19-Oct-2021 
 ******************************************
 %nproc=28
 Will use up to   28 processors via shared memory.
 %mem=120GB
 %chk=/gscratch/ilahie/mccoygrp/coire_hocl/oop_s_rOH_opt/ihod/ihod_oop_30.chk
 --------------------------------------------------------
 #p pop=NBO SP NoSymm mp2/gen Pseudo=read density=current
 --------------------------------------------------------
 1/30=1,38=1,172=1/1;
 2/12=2,15=1,17=6,18=5,40=1/2;
 3/5=7,11=9,16=1,17=8,25=1,30=1,71=1/1,2,3;
 4//1;
 5/5=2,38=5/2;
 8/6=4,10=1/1;
 9/15=1,16=-3/6;
 10/5=1,13=10,31=1/2;
 6/7=2,8=2,9=2,10=2,22=-1,40=1/1,7;
 99/5=1,9=1/99;
 Leave Link    1 at Tue Oct 19 17:07:31 2021, MaxMem= 16106127360 cpu:               2.0 elap:               0.1
 (Enter /sw/contrib/gaussian/g16/B01/g16/l101.exe)
 -----
 title
 -----
 Symbolic Z-matrix:
 Charge = -1 Multiplicity = 1
 O
 X                    1     10. 
 H(iso=2)             1    r1       2     90. 
 I                    1    r2       2     90.      3    a1       0
 H                    1    r3       2    oop      3    a1       0
       Variables:
  r1                    0.96091                  
  r2                    3.5085                   
  r3                    0.97516                  
  a1                  101.85831                  
  OOP                  60.                       
 
 ITRead=  0  0  0  0
 MicOpt= -1 -1 -1 -1
 NAtoms=      4 NQM=        4 NQMF=       0 NMMI=      0 NMMIF=      0
                NMic=       0 NMicF=      0.
                    Isotopes and Nuclear Properties:
 (Nuclear quadrupole moments (NQMom) in fm**2, nuclear magnetic moments (NMagM)
  in nuclear magnetons)

  Atom         1           2           3           4
 IAtWgt=          16           2         127           1
 AtmWgt=  15.9949146   2.0141018 126.9004000   1.0078250
 NucSpn=           0           2           5           1
 AtZEff=  -0.0000000  -0.0000000  -0.0000000  -0.0000000
 NQMom=    0.0000000   0.2860000 -71.0000000   0.0000000
 NMagM=    0.0000000   0.8574380   2.8132800   2.7928460
 AtZNuc=   8.0000000   1.0000000  53.0000000   1.0000000
 Leave Link  101 at Tue Oct 19 17:07:31 2021, MaxMem= 16106127360 cpu:               2.5 elap:               0.1
 (Enter /sw/contrib/gaussian/g16/B01/g16/l202.exe)
                          Input orientation:                          
 ---------------------------------------------------------------------
 Center     Atomic      Atomic             Coordinates (Angstroms)
 Number     Number       Type             X           Y           Z
 ---------------------------------------------------------------------
      1          8           0        0.000000    0.000000    0.000000
      2          1           0        0.960908    0.000000    0.000000
      3         53           0       -0.720970   -3.433628    0.000000
      4          1           0       -0.173541   -0.826490    0.487580
 ---------------------------------------------------------------------
                    Distance matrix (angstroms):
                    1          2          3          4
     1  O    0.000000
     2  H    0.960908   0.000000
     3  I    3.508504   3.823416   0.000000
     4  H    0.975160   1.485865   2.708243   0.000000
 Symmetry turned off by external request.
 Stoichiometry    H2IO(1-)
 Framework group  C1[X(H2IO)]
 Deg. of freedom     6
 Full point group                 C1      NOp   1
 Rotational constants (GHZ):         280.9135480           2.5014188           2.4849714
 Leave Link  202 at Tue Oct 19 17:07:31 2021, MaxMem= 16106127360 cpu:               0.2 elap:               0.0
 (Enter /sw/contrib/gaussian/g16/B01/g16/l301.exe)
 General basis read from cards:  (5D, 7F)
 Centers:       2      4      1      2      4
 aug-cc-pVTZ
 ****
 Centers:       3
 S 11 1.00
     Exponent=  5.5465000000D+03 Coefficients=  1.5600000000D-04
     Exponent=  8.3821400000D+02 Coefficients=  9.8600000000D-04
     Exponent=  1.8218700000D+02 Coefficients=  2.7920000000D-03
     Exponent=  3.1212300000D+01 Coefficients= -4.3251000000D-02
     Exponent=  1.9531400000D+01 Coefficients=  2.3413400000D-01
     Exponent=  8.2409900000D+00 Coefficients= -7.5094300000D-01
     Exponent=  2.1945500000D+00 Coefficients=  8.8296800000D-01
     Exponent=  1.1091100000D+00 Coefficients=  4.6206100000D-01
     Exponent=  3.7464100000D-01 Coefficients=  2.2286000000D-02
     Exponent=  1.7708000000D-01 Coefficients= -4.3530000000D-03
     Exponent=  8.1061000000D-02 Coefficients=  1.1020000000D-03
 S 11 1.00
     Exponent=  5.5465000000D+03 Coefficients= -7.3000000000D-05
     Exponent=  8.3821400000D+02 Coefficients= -5.0800000000D-04
     Exponent=  1.8218700000D+02 Coefficients= -1.1580000000D-03
     Exponent=  3.1212300000D+01 Coefficients=  1.2193000000D-02
     Exponent=  1.9531400000D+01 Coefficients= -8.7854000000D-02
     Exponent=  8.2409900000D+00 Coefficients=  3.3820000000D-01
     Exponent=  2.1945500000D+00 Coefficients= -5.7655000000D-01
     Exponent=  1.1091100000D+00 Coefficients= -4.0929800000D-01
     Exponent=  3.7464100000D-01 Coefficients=  5.6745900000D-01
     Exponent=  1.7708000000D-01 Coefficients=  6.1248900000D-01
     Exponent=  8.1061000000D-02 Coefficients=  1.4323100000D-01
 S 1 1.00
     Exponent=  3.7464100000D-01 Coefficients=  1.0000000000D+00
 S 1 1.00
     Exponent=  1.7708000000D-01 Coefficients=  1.0000000000D+00
 S 1 1.00
     Exponent=  1.0010000000D-01 Coefficients=  1.0000000000D+00
 S 1 1.00
     Exponent=  4.1200000000D-02 Coefficients=  1.0000000000D+00
 P 9 1.00
     Exponent=  1.8898800000D+02 Coefficients=  5.8500000000D-04
     Exponent=  2.1286800000D+01 Coefficients=  3.6923000000D-02
     Exponent=  1.0039600000D+01 Coefficients= -2.3532400000D-01
     Exponent=  3.4518000000D+00 Coefficients=  3.4148300000D-01
     Exponent=  1.9745600000D+00 Coefficients=  5.3478800000D-01
     Exponent=  1.0242000000D+00 Coefficients=  2.6514100000D-01
     Exponent=  4.4943700000D-01 Coefficients=  2.5787000000D-02
     Exponent=  1.8664800000D-01 Coefficients=  5.2200000000D-04
     Exponent=  7.3481000000D-02 Coefficients=  6.0600000000D-04
 P 9 1.00
     Exponent=  1.8898800000D+02 Coefficients= -2.5600000000D-04
     Exponent=  2.1286800000D+01 Coefficients= -1.1682000000D-02
     Exponent=  1.0039600000D+01 Coefficients=  8.3192000000D-02
     Exponent=  3.4518000000D+00 Coefficients= -1.5697000000D-01
     Exponent=  1.9745600000D+00 Coefficients= -2.2451800000D-01
     Exponent=  1.0242000000D+00 Coefficients= -1.1445100000D-01
     Exponent=  4.4943700000D-01 Coefficients=  3.7535600000D-01
     Exponent=  1.8664800000D-01 Coefficients=  5.7513600000D-01
     Exponent=  7.3481000000D-02 Coefficients=  2.4591700000D-01
 P 1 1.00
     Exponent=  5.9810000000D-01 Coefficients=  1.0000000000D+00
 P 1 1.00
     Exponent=  9.6180000000D-02 Coefficients=  1.0000000000D+00
 P 1 1.00
     Exponent=  3.5900000000D-02 Coefficients=  1.0000000000D+00
 D 9 1.00
     Exponent=  1.3266200000D+02 Coefficients=  5.7200000000D-04
     Exponent=  3.7605400000D+01 Coefficients=  4.4020000000D-03
     Exponent=  1.0389100000D+01 Coefficients= -4.0922000000D-02
     Exponent=  6.4901700000D+00 Coefficients=  9.9661000000D-02
     Exponent=  3.4545100000D+00 Coefficients=  3.2266300000D-01
     Exponent=  1.8441300000D+00 Coefficients=  4.0034300000D-01
     Exponent=  9.6247800000D-01 Coefficients=  2.6830600000D-01
     Exponent=  4.7285300000D-01 Coefficients=  8.4847000000D-02
     Exponent=  1.9320000000D-01 Coefficients=  7.6320000000D-03
 D 1 1.00
     Exponent=  4.7285300000D-01 Coefficients=  1.0000000000D+00
 D 1 1.00
     Exponent=  1.9320000000D-01 Coefficients=  1.0000000000D+00
 D 1 1.00
     Exponent=  7.8200000000D-02 Coefficients=  1.0000000000D+00
 F 1 1.00
     Exponent=  4.0640000000D-01 Coefficients=  1.0000000000D+00
 F 1 1.00
     Exponent=  1.8480000000D-01 Coefficients=  1.0000000000D+00
 ****
 ======================================================================================================
                                       Pseudopotential Parameters
 ======================================================================================================
  Center     Atomic      Valence      Angular      Power
  Number     Number     Electrons     Momentum     of R      Exponent        Coefficient   SO-Coeffient
 ======================================================================================================
    1          8
                                   No pseudopotential on this center.
    2          1
                                   No pseudopotential on this center.
    3         53           25
                                      G and up 
                                                     2        1.0000000        0.00000000    0.00000000
                                      S - G
                                                     2       40.0333760       49.98964900    0.00000000
                                                     2       17.3005760      281.00655600    0.00000000
                                                     2        8.8517200       61.41673900    0.00000000
                                      P - G
                                                     2       15.7201410       67.41623900    0.00000000
                                                     2       15.2082220      134.80769600    0.00000000
                                                     2        8.2941860       14.56654800    0.00000000
                                                     2        7.7539490       28.96842200    0.00000000
                                      D - G
                                                     2       13.8177510       35.53875600    0.00000000
                                                     2       13.5878050       53.33975900    0.00000000
                                                     2        6.9476300        9.71646600    0.00000000
                                                     2        6.9600990       14.97750000    0.00000000
                                      F - G
                                                     2       18.5229500      -20.17661800    0.00000000
                                                     2       18.2510350      -26.08807700    0.00000000
                                                     2        7.5579010       -0.22043400    0.00000000
                                                     2        7.5974040       -0.22164600    0.00000000
    4          1
                                   No pseudopotential on this center.
 ======================================================================================================
 Ernie: Thresh=  0.10000D-02 Tol=  0.10000D-05 Strict=F.
 Ernie:  16 primitive shells out of 135 were deleted.
   191 basis functions,   344 primitive gaussians,   218 cartesian basis functions
    18 alpha electrons       18 beta electrons
       nuclear repulsion energy        47.6134309659 Hartrees.
 IExCor=    0 DFT=F Ex=HF Corr=None ExCW=0 ScaHFX=  1.000000
 ScaDFX=  1.000000  1.000000  1.000000  1.000000 ScalE2=  1.000000  1.000000
 IRadAn=      5 IRanWt=     -1 IRanGd=            0 ICorTp=0 IEmpDi=  4
 NAtoms=    4 NActive=    4 NUniq=    4 SFac= 1.00D+00 NAtFMM=   60 NAOKFM=F Big=F
 Integral buffers will be    131072 words long.
 Raffenetti 1 integral format.
 Two-electron integral symmetry is turned off.
 Leave Link  301 at Tue Oct 19 17:07:31 2021, MaxMem= 16106127360 cpu:               2.3 elap:               0.1
 (Enter /sw/contrib/gaussian/g16/B01/g16/l302.exe)
 NPDir=0 NMtPBC=     1 NCelOv=     1 NCel=       1 NClECP=     1 NCelD=      1
         NCelK=      1 NCelE2=     1 NClLst=     1 CellRange=     0.0.
 One-electron integrals computed using PRISM.
   1 Symmetry operations used in ECPInt.
 ECPInt:  NShTT=    2145 NPrTT=    7341 LenC2=    2146 LenP2D=    6689.
 LDataN:  DoStor=T MaxTD1= 7 Len=  274
 NBasis=   191 RedAO= T EigKep=  4.17D-04  NBF=   191
 NBsUse=   147 1.00D-06 EigRej=  8.93D-16 NBFU=   147
 Leave Link  302 at Tue Oct 19 17:07:32 2021, MaxMem= 16106127360 cpu:               6.8 elap:               0.3
 (Enter /sw/contrib/gaussian/g16/B01/g16/l303.exe)
 DipDrv:  MaxL=1.
 Leave Link  303 at Tue Oct 19 17:07:32 2021, MaxMem= 16106127360 cpu:               0.7 elap:               0.0
 (Enter /sw/contrib/gaussian/g16/B01/g16/l401.exe)
 ExpMin= 2.53D-02 ExpMax= 1.53D+04 ExpMxC= 5.22D+02 IAcc=3 IRadAn=         5 AccDes= 0.00D+00
 Harris functional with IExCor=  205 and IRadAn=       5 diagonalized for initial guess.
 HarFok:  IExCor=  205 AccDes= 0.00D+00 IRadAn=         5 IDoV= 1 UseB2=F ITyADJ=14
 ICtDFT=  3500011 ScaDFX=  1.000000  1.000000  1.000000  1.000000
 Defaulting to unpruned grid for atomic number  53.
 FoFCou: FMM=F IPFlag=           0 FMFlag=      100000 FMFlg1=           0
         NFxFlg=           0 DoJE=T BraDBF=F KetDBF=T FulRan=T
         wScrn=  0.000000 ICntrl=       500 IOpCl=  0 I1Cent=   200000004 NGrid=           0
         NMat0=    1 NMatS0=      1 NMatT0=    0 NMatD0=    1 NMtDS0=    0 NMtDT0=    0
 Symmetry not used in FoFCou.
 Harris En= -372.678583319149    
 JPrj=0 DoOrth=F DoCkMO=F.
 Leave Link  401 at Tue Oct 19 17:07:32 2021, MaxMem= 16106127360 cpu:               7.1 elap:               0.3
 (Enter /sw/contrib/gaussian/g16/B01/g16/l502.exe)
 Keep R1 ints in memory in canonical form, NReq=226101090.
 FoFCou: FMM=F IPFlag=           0 FMFlag=           0 FMFlg1=           0
         NFxFlg=           0 DoJE=F BraDBF=F KetDBF=F FulRan=T
         wScrn=  0.000000 ICntrl=       600 IOpCl=  0 I1Cent=           0 NGrid=           0
         NMat0=    1 NMatS0=  18336 NMatT0=    0 NMatD0=    1 NMtDS0=    0 NMtDT0=    0
 Symmetry not used in FoFCou.
 Two-electron integral symmetry not used.
 Closed shell SCF:
 Using DIIS extrapolation, IDIIS=  1040.
 NGot= 16106127360 LenX= 15937911228 LenY= 15937863263
 Requested convergence on RMS density matrix=1.00D-08 within 128 cycles.
 Requested convergence on MAX density matrix=1.00D-06.
 Requested convergence on             energy=1.00D-06.
 No special actions if energy rises.

 Cycle   1  Pass 1  IDiag  1:
 E= -370.652393558374    
 DIIS: error= 3.77D-02 at cycle   1 NSaved=   1.
 NSaved= 1 IEnMin= 1 EnMin= -370.652393558374     IErMin= 1 ErrMin= 3.77D-02
 ErrMax= 3.77D-02  0.00D+00 EMaxC= 1.00D-01 BMatC= 3.67D-01 BMatP= 3.67D-01
 IDIUse=3 WtCom= 6.23D-01 WtEn= 3.77D-01
 Coeff-Com:  0.100D+01
 Coeff-En:   0.100D+01
 Coeff:      0.100D+01
 Gap=     0.385 Goal=   None    Shift=    0.000
 GapD=    0.385 DampG=1.000 DampE=0.500 DampFc=0.5000 IDamp=-1.
 Damping current iteration by 5.00D-01
 RMSDP=3.27D-03 MaxDP=9.63D-02              OVMax= 1.23D-01

 Cycle   2  Pass 1  IDiag  1:
 E= -370.735784514745     Delta-E=       -0.083390956371 Rises=F Damp=T
 DIIS: error= 1.25D-02 at cycle   2 NSaved=   2.
 NSaved= 2 IEnMin= 2 EnMin= -370.735784514745     IErMin= 2 ErrMin= 1.25D-02
 ErrMax= 1.25D-02  0.00D+00 EMaxC= 1.00D-01 BMatC= 5.71D-02 BMatP= 3.67D-01
 IDIUse=3 WtCom= 8.75D-01 WtEn= 1.25D-01
 Coeff-Com: -0.455D+00 0.146D+01
 Coeff-En:   0.000D+00 0.100D+01
 Coeff:     -0.399D+00 0.140D+01
 Gap=     0.257 Goal=   None    Shift=    0.000
 RMSDP=1.57D-03 MaxDP=7.86D-02 DE=-8.34D-02 OVMax= 6.50D-02

 Cycle   3  Pass 1  IDiag  1:
 E= -370.810735681805     Delta-E=       -0.074951167060 Rises=F Damp=F
 DIIS: error= 4.40D-03 at cycle   3 NSaved=   3.
 NSaved= 3 IEnMin= 3 EnMin= -370.810735681805     IErMin= 3 ErrMin= 4.40D-03
 ErrMax= 4.40D-03  0.00D+00 EMaxC= 1.00D-01 BMatC= 2.36D-03 BMatP= 5.71D-02
 IDIUse=3 WtCom= 9.56D-01 WtEn= 4.40D-02
 Coeff-Com: -0.141D+00 0.284D+00 0.857D+00
 Coeff-En:   0.000D+00 0.000D+00 0.100D+01
 Coeff:     -0.135D+00 0.272D+00 0.863D+00
 Gap=     0.267 Goal=   None    Shift=    0.000
 RMSDP=3.69D-04 MaxDP=1.56D-02 DE=-7.50D-02 OVMax= 1.16D-02

 Cycle   4  Pass 1  IDiag  1:
 E= -370.812316621111     Delta-E=       -0.001580939306 Rises=F Damp=F
 DIIS: error= 7.48D-04 at cycle   4 NSaved=   4.
 NSaved= 4 IEnMin= 4 EnMin= -370.812316621111     IErMin= 4 ErrMin= 7.48D-04
 ErrMax= 7.48D-04  0.00D+00 EMaxC= 1.00D-01 BMatC= 5.18D-05 BMatP= 2.36D-03
 IDIUse=3 WtCom= 9.93D-01 WtEn= 7.48D-03
 Coeff-Com:  0.308D-02-0.201D-01 0.781D-01 0.939D+00
 Coeff-En:   0.000D+00 0.000D+00 0.000D+00 0.100D+01
 Coeff:      0.306D-02-0.200D-01 0.775D-01 0.939D+00
 Gap=     0.269 Goal=   None    Shift=    0.000
 RMSDP=9.87D-05 MaxDP=6.09D-03 DE=-1.58D-03 OVMax= 2.77D-03

 Cycle   5  Pass 1  IDiag  1:
 E= -370.812374535178     Delta-E=       -0.000057914067 Rises=F Damp=F
 DIIS: error= 1.31D-04 at cycle   5 NSaved=   5.
 NSaved= 5 IEnMin= 5 EnMin= -370.812374535178     IErMin= 5 ErrMin= 1.31D-04
 ErrMax= 1.31D-04  0.00D+00 EMaxC= 1.00D-01 BMatC= 4.14D-06 BMatP= 5.18D-05
 IDIUse=3 WtCom= 9.99D-01 WtEn= 1.31D-03
 Coeff-Com:  0.101D-01-0.179D-01-0.612D-01 0.108D-01 0.106D+01
 Coeff-En:   0.000D+00 0.000D+00 0.000D+00 0.000D+00 0.100D+01
 Coeff:      0.101D-01-0.179D-01-0.611D-01 0.108D-01 0.106D+01
 Gap=     0.268 Goal=   None    Shift=    0.000
 RMSDP=3.95D-05 MaxDP=1.53D-03 DE=-5.79D-05 OVMax= 1.16D-03

 Cycle   6  Pass 1  IDiag  1:
 E= -370.812382989314     Delta-E=       -0.000008454137 Rises=F Damp=F
 DIIS: error= 5.88D-05 at cycle   6 NSaved=   6.
 NSaved= 6 IEnMin= 6 EnMin= -370.812382989314     IErMin= 6 ErrMin= 5.88D-05
 ErrMax= 5.88D-05  0.00D+00 EMaxC= 1.00D-01 BMatC= 3.26D-07 BMatP= 4.14D-06
 IDIUse=1 WtCom= 1.00D+00 WtEn= 0.00D+00
 Coeff-Com: -0.362D-02 0.740D-02 0.119D-01-0.937D-01-0.208D+00 0.129D+01
 Coeff:     -0.362D-02 0.740D-02 0.119D-01-0.937D-01-0.208D+00 0.129D+01
 Gap=     0.269 Goal=   None    Shift=    0.000
 RMSDP=1.09D-05 MaxDP=6.97D-04 DE=-8.45D-06 OVMax= 5.99D-04

 Cycle   7  Pass 1  IDiag  1:
 E= -370.812383993476     Delta-E=       -0.000001004162 Rises=F Damp=F
 DIIS: error= 1.10D-05 at cycle   7 NSaved=   7.
 NSaved= 7 IEnMin= 7 EnMin= -370.812383993476     IErMin= 7 ErrMin= 1.10D-05
 ErrMax= 1.10D-05  0.00D+00 EMaxC= 1.00D-01 BMatC= 1.10D-08 BMatP= 3.26D-07
 IDIUse=1 WtCom= 1.00D+00 WtEn= 0.00D+00
 Coeff-Com:  0.413D-03-0.953D-03-0.740D-04 0.236D-01-0.130D-01-0.289D+00
 Coeff-Com:  0.128D+01
 Coeff:      0.413D-03-0.953D-03-0.740D-04 0.236D-01-0.130D-01-0.289D+00
 Coeff:      0.128D+01
 Gap=     0.268 Goal=   None    Shift=    0.000
 RMSDP=2.42D-06 MaxDP=1.14D-04 DE=-1.00D-06 OVMax= 1.22D-04

 Cycle   8  Pass 1  IDiag  1:
 E= -370.812384033003     Delta-E=       -0.000000039526 Rises=F Damp=F
 DIIS: error= 1.68D-06 at cycle   8 NSaved=   8.
 NSaved= 8 IEnMin= 8 EnMin= -370.812384033003     IErMin= 8 ErrMin= 1.68D-06
 ErrMax= 1.68D-06  0.00D+00 EMaxC= 1.00D-01 BMatC= 3.94D-10 BMatP= 1.10D-08
 IDIUse=1 WtCom= 1.00D+00 WtEn= 0.00D+00
 Coeff-Com:  0.124D-03-0.248D-03-0.440D-03 0.287D-02 0.890D-02-0.383D-01
 Coeff-Com: -0.500D-01 0.108D+01
 Coeff:      0.124D-03-0.248D-03-0.440D-03 0.287D-02 0.890D-02-0.383D-01
 Coeff:     -0.500D-01 0.108D+01
 Gap=     0.268 Goal=   None    Shift=    0.000
 RMSDP=4.53D-07 MaxDP=2.44D-05 DE=-3.95D-08 OVMax= 1.64D-05

 Cycle   9  Pass 1  IDiag  1:
 E= -370.812384034131     Delta-E=       -0.000000001128 Rises=F Damp=F
 DIIS: error= 3.90D-07 at cycle   9 NSaved=   9.
 NSaved= 9 IEnMin= 9 EnMin= -370.812384034131     IErMin= 9 ErrMin= 3.90D-07
 ErrMax= 3.90D-07  0.00D+00 EMaxC= 1.00D-01 BMatC= 3.83D-11 BMatP= 3.94D-10
 IDIUse=1 WtCom= 1.00D+00 WtEn= 0.00D+00
 Coeff-Com: -0.381D-04 0.873D-04 0.839D-05-0.203D-02 0.105D-02 0.238D-01
 Coeff-Com: -0.954D-01-0.910D-01 0.116D+01
 Coeff:     -0.381D-04 0.873D-04 0.839D-05-0.203D-02 0.105D-02 0.238D-01
 Coeff:     -0.954D-01-0.910D-01 0.116D+01
 Gap=     0.268 Goal=   None    Shift=    0.000
 RMSDP=1.15D-07 MaxDP=4.88D-06 DE=-1.13D-09 OVMax= 6.29D-06

 Cycle  10  Pass 1  IDiag  1:
 E= -370.812384034246     Delta-E=       -0.000000000115 Rises=F Damp=F
 DIIS: error= 8.58D-08 at cycle  10 NSaved=  10.
 NSaved=10 IEnMin=10 EnMin= -370.812384034246     IErMin=10 ErrMin= 8.58D-08
 ErrMax= 8.58D-08  0.00D+00 EMaxC= 1.00D-01 BMatC= 2.54D-12 BMatP= 3.83D-11
 IDIUse=1 WtCom= 1.00D+00 WtEn= 0.00D+00
 Coeff-Com: -0.938D-05 0.183D-04 0.311D-04-0.216D-03-0.680D-03 0.299D-02
 Coeff-Com:  0.311D-02-0.770D-01 0.297D-01 0.104D+01
 Coeff:     -0.938D-05 0.183D-04 0.311D-04-0.216D-03-0.680D-03 0.299D-02
 Coeff:      0.311D-02-0.770D-01 0.297D-01 0.104D+01
 Gap=     0.268 Goal=   None    Shift=    0.000
 RMSDP=2.83D-08 MaxDP=1.19D-06 DE=-1.15D-10 OVMax= 1.20D-06

 Cycle  11  Pass 1  IDiag  1:
 E= -370.812384034252     Delta-E=       -0.000000000006 Rises=F Damp=F
 DIIS: error= 2.98D-08 at cycle  11 NSaved=  11.
 NSaved=11 IEnMin=11 EnMin= -370.812384034252     IErMin=11 ErrMin= 2.98D-08
 ErrMax= 2.98D-08  0.00D+00 EMaxC= 1.00D-01 BMatC= 1.66D-13 BMatP= 2.54D-12
 IDIUse=1 WtCom= 1.00D+00 WtEn= 0.00D+00
 Coeff-Com:  0.371D-05-0.827D-05-0.236D-05 0.173D-03-0.358D-04-0.195D-02
 Coeff-Com:  0.608D-02 0.154D-01-0.903D-01-0.138D+00 0.121D+01
 Coeff:      0.371D-05-0.827D-05-0.236D-05 0.173D-03-0.358D-04-0.195D-02
 Coeff:      0.608D-02 0.154D-01-0.903D-01-0.138D+00 0.121D+01
 Gap=     0.268 Goal=   None    Shift=    0.000
 RMSDP=1.41D-08 MaxDP=9.19D-07 DE=-5.74D-12 OVMax= 5.29D-07

 Cycle  12  Pass 1  IDiag  1:
 E= -370.812384034253     Delta-E=       -0.000000000001 Rises=F Damp=F
 DIIS: error= 7.01D-09 at cycle  12 NSaved=  12.
 NSaved=12 IEnMin=12 EnMin= -370.812384034253     IErMin=12 ErrMin= 7.01D-09
 ErrMax= 7.01D-09  0.00D+00 EMaxC= 1.00D-01 BMatC= 6.84D-15 BMatP= 1.66D-13
 IDIUse=1 WtCom= 1.00D+00 WtEn= 0.00D+00
 Coeff-Com: -0.616D-06 0.152D-05-0.491D-06-0.394D-04 0.451D-04 0.394D-03
 Coeff-Com: -0.173D-02-0.672D-03 0.234D-01-0.125D-01-0.300D+00 0.129D+01
 Coeff:     -0.616D-06 0.152D-05-0.491D-06-0.394D-04 0.451D-04 0.394D-03
 Coeff:     -0.173D-02-0.672D-03 0.234D-01-0.125D-01-0.300D+00 0.129D+01
 Gap=     0.268 Goal=   None    Shift=    0.000
 RMSDP=2.85D-09 MaxDP=1.76D-07 DE=-1.31D-12 OVMax= 8.17D-08

 SCF Done:  E(RHF) =  -370.812384034     A.U. after   12 cycles
            NFock= 12  Conv=0.29D-08     -V/T= 2.9846
 KE= 1.868462280684D+02 PE=-9.089448736129D+02 EE= 3.036728305444D+02
 Leave Link  502 at Tue Oct 19 17:07:36 2021, MaxMem= 16106127360 cpu:              31.6 elap:               4.1
 (Enter /sw/contrib/gaussian/g16/B01/g16/l801.exe)
 ExpMin= 2.53D-02 ExpMax= 1.53D+04 ExpMxC= 5.22D+02 IAcc=3 IRadAn=         5 AccDes= 0.00D+00
 HarFok:  IExCor=  205 AccDes= 0.00D+00 IRadAn=         5 IDoV=-2 UseB2=F ITyADJ=14
 ICtDFT= 12500011 ScaDFX=  1.000000  1.000000  1.000000  1.000000
 Defaulting to unpruned grid for atomic number  53.
 Largest valence mixing into a core orbital is  1.30D-04
 Largest core mixing into a valence orbital is  2.13D-05
 Range of M.O.s used for correlation:     6   147
 NBasis=   191 NAE=    18 NBE=    18 NFC=     5 NFV=     0
 NROrb=    142 NOA=    13 NOB=    13 NVA=   129 NVB=   129

 **** Warning!!: The largest alpha MO coefficient is  0.13265278D+02

 Leave Link  801 at Tue Oct 19 17:07:36 2021, MaxMem= 16106127360 cpu:               1.4 elap:               0.1
 (Enter /sw/contrib/gaussian/g16/B01/g16/l906.exe)
 Frozen-core derivative calculation, NFC=   5 NFV=   0.
 FulOut=F Deriv=T AODrv=F NAtomX=     4
   MMem=         107  MDisk=          13 MDiskD=          13
  W3Min=      576828 MinDsk=     1313419 NBas6D=         218
 NBas2D=       24339    NTT=       23871    LW2=    26219120
    MDV= 16105788207 MDiskM=      369352 NBas2p=       24339
 Fully in-core method, ICMem=   673638917.
 IMap=   1   2   3   4   5   6   7   8   9  10  11  12  13  14  15  16  17  18
 JobTyp=1 Pass  1 fully in-core, NPsUse= 28.
 Compute canonical integrals.
 FoFCou: FMM=F IPFlag=           0 FMFlag=           0 FMFlg1=           0
         NFxFlg=           0 DoJE=F BraDBF=F KetDBF=F FulRan=T
         wScrn=  0.000000 ICntrl=       600 IOpCl=  1 I1Cent=           0 NGrid=           0
         NMat0=    1 NMatS0=  24339 NMatT0=    0 NMatD0=    1 NMtDS0=    0 NMtDT0=    0
 Symmetry not used in FoFCou.
 Spin components of T(2) and E(2):
     alpha-alpha T2 =       0.2156032045D-01 E2=     -0.6711155548D-01
     alpha-beta  T2 =       0.1130543052D+00 E2=     -0.3611491523D+00
     beta-beta   T2 =       0.2156032045D-01 E2=     -0.6711155548D-01
 The integrals were generated   1 times.
 ANorm=    0.1075255758D+01
 E2 =    -0.4953722633D+00 EUMP2 =    -0.37130775629752D+03
 Leave Link  906 at Tue Oct 19 17:07:41 2021, MaxMem= 16106127360 cpu:             132.5 elap:               4.8
 (Enter /sw/contrib/gaussian/g16/B01/g16/l1002.exe)
 Minotr:  Closed shell wavefunction.
          Computing MP2/KS-MP2 derivatives.
          Using Z-Vector for PSCF gradient.
          Skipping F1 and S1 gradient terms here.
          Frozen-core window.
          Direct CPHF calculation.
          Differentiating once with respect to electric field.
                with respect to dipole field.
          Electric field/nuclear overlap derivatives assumed to be zero.
          Requested convergence is 1.0D-10 RMS, and 1.0D-09 maximum.
          NewPWx=F KeepS1=T KeepF1=T KeepIn=T MapXYZ=F SortEE=F KeepMc=T.
 Keep R1 ints in memory in canonical form, NReq=226104438.
 FoFCou: FMM=F IPFlag=           0 FMFlag=           0 FMFlg1=           0
         NFxFlg=           0 DoJE=F BraDBF=F KetDBF=F FulRan=T
         wScrn=  0.000000 ICntrl=       600 IOpCl=  0 I1Cent=           0 NGrid=           0
         NMat0=    1 NMatS0=  18336 NMatT0=    0 NMatD0=    1 NMtDS0=    0 NMtDT0=    0
 Symmetry not used in FoFCou.
 Two-electron integral symmetry not used.
          MDV=   16106127360 using IRadAn=       5.
          Solving linear equations separately, MaxMat=       0.
          There are     1 degrees of freedom in the 1st order CPHF.  IDoFFX=0 NUNeed=     1.
 LinEq1:  Iter=  0 NonCon=     1 RMS=2.63D-03 Max=3.09D-02 NDo=     1
 AX will form     1 AO Fock derivatives at one time.
 LinEq1:  Iter=  1 NonCon=     1 RMS=4.25D-04 Max=4.80D-03 NDo=     1
 LinEq1:  Iter=  2 NonCon=     1 RMS=1.94D-04 Max=2.48D-03 NDo=     1
 LinEq1:  Iter=  3 NonCon=     1 RMS=4.44D-05 Max=5.27D-04 NDo=     1
 LinEq1:  Iter=  4 NonCon=     1 RMS=1.28D-05 Max=1.41D-04 NDo=     1
 LinEq1:  Iter=  5 NonCon=     1 RMS=3.62D-06 Max=4.21D-05 NDo=     1
 LinEq1:  Iter=  6 NonCon=     1 RMS=8.00D-07 Max=8.65D-06 NDo=     1
 LinEq1:  Iter=  7 NonCon=     1 RMS=1.78D-07 Max=1.47D-06 NDo=     1
 LinEq1:  Iter=  8 NonCon=     1 RMS=5.00D-08 Max=4.35D-07 NDo=     1
 LinEq1:  Iter=  9 NonCon=     1 RMS=1.09D-08 Max=1.11D-07 NDo=     1
 LinEq1:  Iter= 10 NonCon=     1 RMS=2.22D-09 Max=2.38D-08 NDo=     1
 LinEq1:  Iter= 11 NonCon=     1 RMS=4.12D-10 Max=4.35D-09 NDo=     1
 LinEq1:  Iter= 12 NonCon=     1 RMS=8.87D-11 Max=1.03D-09 NDo=     1
 LinEq1:  Iter= 13 NonCon=     0 RMS=2.36D-11 Max=2.06D-10 NDo=     1
 Linear equations converged to 1.000D-10 1.000D-09 after    13 iterations.
 End of Minotr F.D. properties file   721 does not exist.
 End of Minotr F.D. properties file   722 does not exist.
 End of Minotr F.D. properties file   788 does not exist.
 Leave Link 1002 at Tue Oct 19 17:07:46 2021, MaxMem= 16106127360 cpu:              37.4 elap:               5.2
 (Enter /sw/contrib/gaussian/g16/B01/g16/l601.exe)
 Copying SCF densities to generalized density rwf, IOpCl= 0 IROHF=0.

 **********************************************************************

            Population analysis using the MP2 Density.

 **********************************************************************

 Alpha  occ. eigenvalues --  -20.41059  -7.46191  -5.28749  -5.28725  -5.28704
 Alpha  occ. eigenvalues --   -2.01492  -2.01485  -2.01465  -2.01436  -2.01432
 Alpha  occ. eigenvalues --   -1.19392  -0.62196  -0.54626  -0.43773  -0.35458
 Alpha  occ. eigenvalues --   -0.14105  -0.13739  -0.13621
 Alpha virt. eigenvalues --    0.13228   0.16508   0.23493   0.24472   0.25665
 Alpha virt. eigenvalues --    0.26931   0.27019   0.29188   0.32354   0.33266
 Alpha virt. eigenvalues --    0.36491   0.36713   0.37544   0.38992   0.40731
 Alpha virt. eigenvalues --    0.41459   0.46372   0.47784   0.51734   0.54826
 Alpha virt. eigenvalues --    0.55776   0.59074   0.65371   0.67083   0.75066
 Alpha virt. eigenvalues --    0.78391   0.78824   0.78916   0.80009   0.80564
 Alpha virt. eigenvalues --    0.80686   0.82529   0.82952   0.84944   0.87098
 Alpha virt. eigenvalues --    0.88213   0.88658   0.88730   0.89640   0.91550
 Alpha virt. eigenvalues --    0.92729   0.95348   0.97377   1.03138   1.04595
 Alpha virt. eigenvalues --    1.08054   1.10016   1.11772   1.14198   1.16821
 Alpha virt. eigenvalues --    1.18795   1.21382   1.27728   1.30087   1.33681
 Alpha virt. eigenvalues --    1.38659   1.46600   1.48988   1.62128   1.66788
 Alpha virt. eigenvalues --    1.69525   1.73583   1.75702   1.75864   1.77519
 Alpha virt. eigenvalues --    1.78852   1.81242   1.82914   1.84156   1.92239
 Alpha virt. eigenvalues --    1.99437   2.03064   2.05972   2.07184   2.10286
 Alpha virt. eigenvalues --    2.11900   2.15840   2.28179   2.35956   2.45188
 Alpha virt. eigenvalues --    2.50210   2.56947   2.60057   2.61269   2.67180
 Alpha virt. eigenvalues --    2.69999   2.85013   2.91311   2.94524   2.97235
 Alpha virt. eigenvalues --    3.08705   3.21580   3.23781   3.69266   3.86467
 Alpha virt. eigenvalues --    3.93344   4.23564   4.28405   4.39147   4.42502
 Alpha virt. eigenvalues --    4.46733   4.53019   4.55640   4.59487   4.72015
 Alpha virt. eigenvalues --    4.92336   5.03893   5.28813   5.36028   5.38199
 Alpha virt. eigenvalues --    5.46926   5.67900   5.78527   6.37468   6.67083
 Alpha virt. eigenvalues --    6.89761   7.11705   7.27858   7.39215   7.44316
 Alpha virt. eigenvalues --    7.47542   7.53313   7.58127   7.70368   8.00293
 Alpha virt. eigenvalues --    8.11001   8.96137  15.79106  59.20542
          Condensed to atoms (all electrons):
               1          2          3          4
     1  O    8.174705   0.206617  -0.053757   0.145440
     2  H    0.206617   0.587417   0.006346   0.017848
     3  I   -0.053757   0.006346  25.942177   0.045548
     4  H    0.145440   0.017848   0.045548   0.559619
 Mulliken charges:
               1
     1  O   -0.473004
     2  H    0.181772
     3  I   -0.940313
     4  H    0.231546
 Sum of Mulliken charges =  -1.00000
 Mulliken charges with hydrogens summed into heavy atoms:
               1
     1  O   -0.059687
     3  I   -0.940313
 Electronic spatial extent (au):  <R**2>=           1237.6305
 Charge=             -1.0000 electrons
 Dipole moment (field-independent basis, Debye):
    X=              4.2718    Y=             14.2343    Z=              0.3760  Tot=             14.8663
 Quadrupole moment (field-independent basis, Debye-Ang):
   XX=            -41.6962   YY=            -94.3182   ZZ=            -41.5005
   XY=            -10.3921   XZ=             -0.1224   YZ=             -0.1189
 Traceless Quadrupole moment (field-independent basis, Debye-Ang):
   XX=             17.4754   YY=            -35.1466   ZZ=             17.6711
   XY=            -10.3921   XZ=             -0.1224   YZ=             -0.1189
 Octapole moment (field-independent basis, Debye-Ang**2):
  XXX=             74.8878  YYY=            534.5053  ZZZ=             -1.8529  XYY=             60.7212
  XXY=            124.8563  XXZ=             -0.8038  XZZ=             23.7307  YZZ=            116.9457
  YYZ=             -3.0644  XYZ=             -0.5005
 Hexadecapole moment (field-independent basis, Debye-Ang**3):
 XXXX=           -182.8664 YYYY=          -3110.0460 ZZZZ=            -78.3213 XXXY=           -256.3686
 XXXZ=              0.6020 YYYX=           -377.2288 YYYZ=             12.9481 ZZZX=              0.5143
 ZZZY=              3.0745 XXYY=           -471.0031 XXZZ=            -43.7130 YYZZ=           -427.3821
 XXYZ=              1.4654 YYXZ=              2.1612 ZZXY=            -83.6429
 N-N= 4.761343096592D+01 E-N=-9.083740972761D+02  KE= 1.870361676063D+02
 No NMR shielding tensors so no spin-rotation constants.
 Leave Link  601 at Tue Oct 19 17:07:47 2021, MaxMem= 16106127360 cpu:               6.7 elap:               0.3
 (Enter /sw/contrib/gaussian/g16/B01/g16/l607.exe)
 ******************************Gaussian NBO Version 3.1******************************
             N A T U R A L   A T O M I C   O R B I T A L   A N D
          N A T U R A L   B O N D   O R B I T A L   A N A L Y S I S
 ******************************Gaussian NBO Version 3.1******************************
       /RESON  / : Allow strongly delocalized NBO set

 Analyzing the MP2 density

 Job title: title                                                           

 Storage needed:    110417 in NPA,    146568 in NBO (********** available)
 GSVD:  LWork=       13161 too small for GESVD, short by       32525 words or       32525 for optimal perf.


 NATURAL POPULATIONS:  Natural atomic orbital occupancies 
                                                          
   NAO  Atom  No  lang   Type(AO)    Occupancy
 --------------------------------------------
     1    O    1  S      Cor( 1S)     1.99992
     2    O    1  S      Val( 2S)     1.88898
     3    O    1  S      Ryd( 3S)     0.00645
     4    O    1  S      Ryd( 4S)     0.00033
     5    O    1  S      Ryd( 5S)     0.00016
     6    O    1  px     Val( 2p)     1.67435
     7    O    1  px     Ryd( 3p)     0.01216
     8    O    1  px     Ryd( 4p)     0.00061
     9    O    1  px     Ryd( 5p)     0.00008
    10    O    1  py     Val( 2p)     1.79926
    11    O    1  py     Ryd( 3p)     0.01486
    12    O    1  py     Ryd( 4p)     0.00060
    13    O    1  py     Ryd( 5p)     0.00025
    14    O    1  pz     Val( 2p)     1.89653
    15    O    1  pz     Ryd( 3p)     0.01852
    16    O    1  pz     Ryd( 4p)     0.00057
    17    O    1  pz     Ryd( 5p)     0.00008
    18    O    1  dxy    Ryd( 3d)     0.00905
    19    O    1  dxy    Ryd( 4d)     0.00062
    20    O    1  dxy    Ryd( 5d)     0.00013
    21    O    1  dxz    Ryd( 3d)     0.00970
    22    O    1  dxz    Ryd( 4d)     0.00084
    23    O    1  dxz    Ryd( 5d)     0.00012
    24    O    1  dyz    Ryd( 3d)     0.00867
    25    O    1  dyz    Ryd( 4d)     0.00052
    26    O    1  dyz    Ryd( 5d)     0.00015
    27    O    1  dx2y2  Ryd( 3d)     0.00927
    28    O    1  dx2y2  Ryd( 4d)     0.00072
    29    O    1  dx2y2  Ryd( 5d)     0.00024
    30    O    1  dz2    Ryd( 3d)     0.00816
    31    O    1  dz2    Ryd( 4d)     0.00063
    32    O    1  dz2    Ryd( 5d)     0.00018
    33    O    1  f(0)   Ryd( 4f)     0.00065
    34    O    1  f(0)   Ryd( 5f)     0.00011
    35    O    1  f(C1)  Ryd( 4f)     0.00048
    36    O    1  f(C1)  Ryd( 5f)     0.00009
    37    O    1  f(S1)  Ryd( 4f)     0.00068
    38    O    1  f(S1)  Ryd( 5f)     0.00012
    39    O    1  f(C2)  Ryd( 4f)     0.00063
    40    O    1  f(C2)  Ryd( 5f)     0.00014
    41    O    1  f(S2)  Ryd( 4f)     0.00053
    42    O    1  f(S2)  Ryd( 5f)     0.00009
    43    O    1  f(C3)  Ryd( 4f)     0.00041
    44    O    1  f(C3)  Ryd( 5f)     0.00012
    45    O    1  f(S3)  Ryd( 4f)     0.00055
    46    O    1  f(S3)  Ryd( 5f)     0.00013

    47    H    2  S      Val( 1S)     0.32967
    48    H    2  S      Ryd( 2S)     0.00055
    49    H    2  S      Ryd( 3S)     0.00026
    50    H    2  S      Ryd( 4S)     0.00005
    51    H    2  px     Ryd( 2p)     0.00078
    52    H    2  px     Ryd( 3p)     0.00068
    53    H    2  px     Ryd( 4p)     0.00005
    54    H    2  py     Ryd( 2p)     0.00069
    55    H    2  py     Ryd( 3p)     0.00019
    56    H    2  py     Ryd( 4p)     0.00008
    57    H    2  pz     Ryd( 2p)     0.00104
    58    H    2  pz     Ryd( 3p)     0.00016
    59    H    2  pz     Ryd( 4p)     0.00006
    60    H    2  dxy    Ryd( 3d)     0.00014
    61    H    2  dxy    Ryd( 4d)     0.00007
    62    H    2  dxz    Ryd( 3d)     0.00024
    63    H    2  dxz    Ryd( 4d)     0.00007
    64    H    2  dyz    Ryd( 3d)     0.00011
    65    H    2  dyz    Ryd( 4d)     0.00006
    66    H    2  dx2y2  Ryd( 3d)     0.00024
    67    H    2  dx2y2  Ryd( 4d)     0.00007
    68    H    2  dz2    Ryd( 3d)     0.00016
    69    H    2  dz2    Ryd( 4d)     0.00007

    70    I    3  S      Cor( 4S)     2.00003
    71    I    3  S      Val( 5S)     1.98049
    72    I    3  S      Ryd( 6S)     0.00396
    73    I    3  S      Ryd( 7S)     0.00063
    74    I    3  S      Ryd( 8S)     0.00011
    75    I    3  S      Ryd( 9S)     0.00000
    76    I    3  px     Cor( 4p)     2.00007
    77    I    3  px     Val( 5p)     1.95093
    78    I    3  px     Ryd( 6p)     0.01127
    79    I    3  px     Ryd( 7p)     0.00076
    80    I    3  px     Ryd( 8p)     0.00008
    81    I    3  py     Cor( 4p)     2.00006
    82    I    3  py     Val( 5p)     1.94392
    83    I    3  py     Ryd( 6p)     0.01053
    84    I    3  py     Ryd( 7p)     0.00068
    85    I    3  py     Ryd( 8p)     0.00013
    86    I    3  pz     Cor( 4p)     2.00007
    87    I    3  pz     Val( 5p)     1.95041
    88    I    3  pz     Ryd( 6p)     0.01124
    89    I    3  pz     Ryd( 7p)     0.00075
    90    I    3  pz     Ryd( 8p)     0.00008
    91    I    3  dxy    Cor( 4d)     1.99676
    92    I    3  dxy    Ryd( 5d)     0.02042
    93    I    3  dxy    Ryd( 6d)     0.00150
    94    I    3  dxy    Ryd( 7d)     0.00018
    95    I    3  dxz    Cor( 4d)     1.99678
    96    I    3  dxz    Ryd( 5d)     0.02026
    97    I    3  dxz    Ryd( 6d)     0.00168
    98    I    3  dxz    Ryd( 7d)     0.00017
    99    I    3  dyz    Cor( 4d)     1.99676
   100    I    3  dyz    Ryd( 5d)     0.02060
   101    I    3  dyz    Ryd( 6d)     0.00151
   102    I    3  dyz    Ryd( 7d)     0.00019
   103    I    3  dx2y2  Cor( 4d)     1.99674
   104    I    3  dx2y2  Ryd( 5d)     0.02037
   105    I    3  dx2y2  Ryd( 6d)     0.00157
   106    I    3  dx2y2  Ryd( 7d)     0.00022
   107    I    3  dz2    Cor( 4d)     1.99677
   108    I    3  dz2    Ryd( 5d)     0.02028
   109    I    3  dz2    Ryd( 6d)     0.00163
   110    I    3  dz2    Ryd( 7d)     0.00018
   111    I    3  f(0)   Ryd( 4f)     0.00276
   112    I    3  f(0)   Ryd( 5f)     0.00045
   113    I    3  f(C1)  Ryd( 4f)     0.00277
   114    I    3  f(C1)  Ryd( 5f)     0.00043
   115    I    3  f(S1)  Ryd( 4f)     0.00274
   116    I    3  f(S1)  Ryd( 5f)     0.00046
   117    I    3  f(C2)  Ryd( 4f)     0.00274
   118    I    3  f(C2)  Ryd( 5f)     0.00046
   119    I    3  f(S2)  Ryd( 4f)     0.00277
   120    I    3  f(S2)  Ryd( 5f)     0.00044
   121    I    3  f(C3)  Ryd( 4f)     0.00272
   122    I    3  f(C3)  Ryd( 5f)     0.00045
   123    I    3  f(S3)  Ryd( 4f)     0.00273
   124    I    3  f(S3)  Ryd( 5f)     0.00047

   125    H    4  S      Val( 1S)     0.29237
   126    H    4  S      Ryd( 2S)     0.00569
   127    H    4  S      Ryd( 3S)     0.00068
   128    H    4  S      Ryd( 4S)     0.00012
   129    H    4  px     Ryd( 2p)     0.00354
   130    H    4  px     Ryd( 3p)     0.00041
   131    H    4  px     Ryd( 4p)     0.00011
   132    H    4  py     Ryd( 2p)     0.00468
   133    H    4  py     Ryd( 3p)     0.00059
   134    H    4  py     Ryd( 4p)     0.00019
   135    H    4  pz     Ryd( 2p)     0.00351
   136    H    4  pz     Ryd( 3p)     0.00047
   137    H    4  pz     Ryd( 4p)     0.00011
   138    H    4  dxy    Ryd( 3d)     0.00021
   139    H    4  dxy    Ryd( 4d)     0.00008
   140    H    4  dxz    Ryd( 3d)     0.00014
   141    H    4  dxz    Ryd( 4d)     0.00007
   142    H    4  dyz    Ryd( 3d)     0.00023
   143    H    4  dyz    Ryd( 4d)     0.00008
   144    H    4  dx2y2  Ryd( 3d)     0.00025
   145    H    4  dx2y2  Ryd( 4d)     0.00009
   146    H    4  dz2    Ryd( 3d)     0.00019
   147    H    4  dz2    Ryd( 4d)     0.00008

 [ 28 electrons found in the effective core potential]

 WARNING:  5 low occupancy (<1.9990e) core orbitals found on  I    3


 Summary of Natural Population Analysis:                  
                                                          
                                       Natural Population 
                Natural  -----------------------------------------------
    Atom  No    Charge         Core      Valence    Rydberg      Total
 -----------------------------------------------------------------------
      O    1   -1.36743      1.99992     7.25913    0.10839     9.36743
      H    2    0.66451      0.00000     0.32967    0.00582     0.33549
      I    3   -0.98318     45.98404     7.82575    0.17338    53.98318
      H    4    0.68610      0.00000     0.29237    0.02153     0.31390
 =======================================================================
   * Total *   -1.00000     47.98396    15.70693    0.30911    64.00000

                                 Natural Population      
 --------------------------------------------------------
   Effective Core            28.00000
   Core                      19.98396 ( 99.9198% of  20)
   Valence                   15.70693 ( 98.1683% of  16)
   Natural Minimal Basis     63.69089 ( 99.5170% of  64)
   Natural Rydberg Basis      0.30911 (  0.4830% of  64)
 --------------------------------------------------------

    Atom  No          Natural Electron Configuration
 ----------------------------------------------------------------------------
      O    1      [core]2S( 1.89)2p( 5.37)3S( 0.01)3p( 0.05)3d( 0.04)
      H    2            1S( 0.33)
      I    3      [core]5S( 1.98)5p( 5.85)4f( 0.02)5d( 0.10)6p( 0.03)6d( 0.01)
      H    4            1S( 0.29)2S( 0.01)2p( 0.01)


 NATURAL BOND ORBITAL ANALYSIS:
 Warning:  a bond orbital has occupanc of -0.00003

                       Occupancies       Lewis Structure    Low   High
           Occ.    -------------------  -----------------   occ   occ
  Cycle   Thresh.   Lewis   Non-Lewis     CR  BD  3C  LP    (L)   (NL)   Dev
 =============================================================================
   1(1)    1.90    63.67348   0.32652     10   2   0   6     0      0    0.01
 -----------------------------------------------------------------------------

 Structure accepted: No low occupancy Lewis orbitals

 WARNING:  5 low occupancy (<1.9990e) core orbitals found on  I    3

 --------------------------------------------------------
   Effective Core           28.00000
   Core                     19.98396 ( 99.920% of  20)
   Valence Lewis            15.68951 ( 98.059% of  16)
  ==================       ============================
   Total Lewis              63.67348 ( 99.490% of  64)
  -----------------------------------------------------
   Valence non-Lewis         0.04390 (  0.069% of  64)
   Rydberg non-Lewis         0.28262 (  0.442% of  64)
  ==================       ============================
   Total non-Lewis           0.32652 (  0.510% of  64)
 --------------------------------------------------------


       (Occupancy)   Bond orbital/ Coefficients/ Hybrids
 ---------------------------------------------------------------------------------
     1. (1.96427) BD ( 1) O   1 - H   2  
                ( 84.01%)   0.9166* O   1 s( 14.91%)p 5.68( 84.71%)d 0.03(  0.38%)
                                                  f 0.00(  0.01%)
                                            0.0001  0.3861  0.0016  0.0024 -0.0036
                                            0.9201 -0.0173  0.0049 -0.0014  0.0059
                                           -0.0083 -0.0001 -0.0024  0.0045  0.0056
                                            0.0002  0.0013 -0.0192  0.0022  0.0014
                                            0.0153 -0.0032  0.0001 -0.0040 -0.0014
                                            0.0010  0.0467 -0.0077  0.0048 -0.0292
                                            0.0036 -0.0022 -0.0002  0.0003 -0.0070
                                            0.0000 -0.0002 -0.0000 -0.0004 -0.0001
                                           -0.0060  0.0022  0.0044  0.0014  0.0010
                                           -0.0001
                ( 15.99%)   0.3999* H   2 s( 99.78%)p 0.00(  0.18%)d 0.00(  0.04%)
                                            0.9989 -0.0019  0.0003 -0.0002  0.0027
                                            0.0421 -0.0017  0.0001  0.0004 -0.0004
                                            0.0026  0.0016 -0.0002  0.0020 -0.0023
                                            0.0015  0.0014 -0.0037 -0.0009  0.0163
                                           -0.0033 -0.0105  0.0017
     2. (1.96465) BD ( 1) O   1 - H   4  
                ( 86.17%)   0.9283* O   1 s( 16.47%)p 5.05( 83.17%)d 0.02(  0.35%)
                                                  f 0.00(  0.01%)
                                           -0.0001 -0.4059  0.0034  0.0021  0.0022
                                            0.1663 -0.0109 -0.0011  0.0000  0.7653
                                           -0.0149  0.0060 -0.0032 -0.4668  0.0077
                                           -0.0047  0.0039  0.0121 -0.0049  0.0003
                                           -0.0070  0.0030 -0.0003  0.0456 -0.0025
                                           -0.0004  0.0333 -0.0045  0.0017  0.0044
                                            0.0023 -0.0016  0.0084 -0.0012 -0.0007
                                            0.0008  0.0000  0.0006  0.0044  0.0015
                                           -0.0022 -0.0007 -0.0011 -0.0016  0.0030
                                           -0.0032
                ( 13.83%)   0.3719* H   4 s( 99.77%)p 0.00(  0.22%)d 0.00(  0.01%)
                                           -0.9987  0.0195 -0.0037  0.0001 -0.0267
                                           -0.0023  0.0004  0.0030 -0.0284 -0.0081
                                           -0.0158  0.0165  0.0061 -0.0034  0.0033
                                            0.0016 -0.0021  0.0064  0.0002 -0.0029
                                           -0.0005  0.0047  0.0010
     3. (1.99992) CR ( 1) O   1           s(100.00%)
                                            1.0000 -0.0003  0.0000 -0.0000  0.0000
                                           -0.0000  0.0000 -0.0000  0.0000  0.0000
                                           -0.0000  0.0000 -0.0000 -0.0000  0.0000
                                           -0.0000  0.0000  0.0000 -0.0000  0.0000
                                           -0.0000  0.0000 -0.0000  0.0000  0.0000
                                           -0.0000 -0.0000 -0.0000  0.0000  0.0000
                                            0.0000 -0.0000  0.0000  0.0000  0.0000
                                            0.0000  0.0000  0.0000  0.0000  0.0000
                                            0.0000 -0.0000 -0.0000 -0.0000 -0.0000
                                           -0.0000
     4. (2.00003) CR ( 1) I   3           s(100.00%)
                                            1.0000 -0.0000  0.0000 -0.0000  0.0000
                                           -0.0000 -0.0000 -0.0000 -0.0000 -0.0000
                                            0.0000  0.0000 -0.0000 -0.0000  0.0000
                                            0.0000 -0.0000 -0.0000 -0.0000 -0.0000
                                           -0.0000  0.0000 -0.0000  0.0000  0.0000
                                            0.0000 -0.0000  0.0000 -0.0000  0.0000
                                           -0.0000  0.0000  0.0000 -0.0000  0.0000
                                            0.0000 -0.0000 -0.0000  0.0000  0.0000
                                           -0.0000  0.0000  0.0000 -0.0000 -0.0000
                                           -0.0000 -0.0000  0.0000  0.0000 -0.0000
                                           -0.0000  0.0000  0.0000  0.0000  0.0000
     5. (2.00007) CR ( 2) I   3           s(  0.00%)p 1.00(100.00%)
                                           -0.0000  0.0000  0.0000 -0.0000  0.0000
                                            0.0000  1.0000 -0.0000 -0.0000 -0.0000
                                            0.0000 -0.0000  0.0000 -0.0000 -0.0000
                                            0.0000 -0.0000  0.0000  0.0000 -0.0000
                                            0.0000  0.0000 -0.0000  0.0000  0.0000
                                            0.0000 -0.0000  0.0000 -0.0000 -0.0000
                                            0.0000 -0.0000  0.0000  0.0000 -0.0000
                                            0.0000 -0.0000  0.0000 -0.0000 -0.0000
                                            0.0000 -0.0000 -0.0000  0.0000  0.0000
                                           -0.0000 -0.0000 -0.0000 -0.0000 -0.0000
                                           -0.0000  0.0000 -0.0000 -0.0000 -0.0000
     6. (2.00006) CR ( 3) I   3           s(  0.00%)p 1.00(100.00%)
                                            0.0000  0.0000 -0.0000 -0.0000 -0.0000
                                            0.0000 -0.0000  0.0000  0.0000  0.0000
                                           -0.0000  1.0000  0.0000  0.0000 -0.0000
                                           -0.0000 -0.0000  0.0000  0.0000 -0.0000
                                            0.0000 -0.0000  0.0000 -0.0000 -0.0000
                                           -0.0000  0.0000 -0.0000  0.0000 -0.0000
                                            0.0000 -0.0000  0.0000  0.0000 -0.0000
                                            0.0000  0.0000  0.0000 -0.0000 -0.0000
                                            0.0000 -0.0000 -0.0000 -0.0000 -0.0000
                                           -0.0000 -0.0000 -0.0000 -0.0000  0.0000
                                            0.0000 -0.0000 -0.0000 -0.0000 -0.0000
     7. (2.00007) CR ( 4) I   3           s(  0.00%)p 1.00(100.00%)
                                           -0.0000  0.0000  0.0000 -0.0000  0.0000
                                            0.0000 -0.0000  0.0000  0.0000  0.0000
                                           -0.0000 -0.0000  0.0000 -0.0000 -0.0000
                                            0.0000  1.0000 -0.0000  0.0000 -0.0000
                                            0.0000 -0.0000  0.0000 -0.0000  0.0000
                                            0.0000  0.0000  0.0000 -0.0000 -0.0000
                                            0.0000 -0.0000  0.0000  0.0000 -0.0000
                                           -0.0000  0.0000  0.0000 -0.0000  0.0000
                                           -0.0000 -0.0000 -0.0000 -0.0000 -0.0000
                                           -0.0000 -0.0000 -0.0000 -0.0000  0.0000
                                           -0.0000 -0.0000 -0.0000 -0.0000 -0.0000
     8. (1.99676) CR ( 5) I   3           s(  0.00%)p 0.00(  0.00%)d 1.00(100.00%)
                                            0.0000  0.0000 -0.0000 -0.0000 -0.0000
                                            0.0000  0.0000  0.0000  0.0000  0.0000
                                           -0.0000 -0.0000  0.0000  0.0000 -0.0000
                                           -0.0000 -0.0000  0.0000  0.0000 -0.0000
                                            0.0000  1.0000  0.0000 -0.0000 -0.0000
                                           -0.0000  0.0000 -0.0000  0.0000 -0.0000
                                            0.0000 -0.0000  0.0000  0.0000 -0.0000
                                           -0.0000  0.0000  0.0000 -0.0000  0.0000
                                            0.0000 -0.0000 -0.0000 -0.0000 -0.0000
                                           -0.0000 -0.0000 -0.0000 -0.0000  0.0000
                                            0.0000 -0.0000 -0.0000 -0.0000 -0.0000
     9. (1.99678) CR ( 6) I   3           s(  0.00%)p 0.00(  0.00%)d 1.00(100.00%)
                                            0.0000  0.0000 -0.0000  0.0000 -0.0000
                                            0.0000  0.0000  0.0000  0.0000  0.0000
                                           -0.0000 -0.0000  0.0000  0.0000 -0.0000
                                           -0.0000  0.0000  0.0000  0.0000  0.0000
                                            0.0000 -0.0000  0.0000 -0.0000 -0.0000
                                            1.0000  0.0000 -0.0000  0.0000 -0.0000
                                            0.0000 -0.0000 -0.0000  0.0000 -0.0000
                                           -0.0000  0.0000  0.0000 -0.0000 -0.0000
                                            0.0000 -0.0000 -0.0000 -0.0000 -0.0000
                                            0.0000  0.0000 -0.0000 -0.0000  0.0000
                                            0.0000 -0.0000 -0.0000  0.0000  0.0000
    10. (1.99676) CR ( 7) I   3           s(  0.00%)p 0.00(  0.00%)d 1.00(100.00%)
                                            0.0000  0.0000 -0.0000 -0.0000 -0.0000
                                            0.0000 -0.0000  0.0000  0.0000 -0.0000
                                           -0.0000 -0.0000  0.0000  0.0000 -0.0000
                                           -0.0000 -0.0000  0.0000  0.0000  0.0000
                                            0.0000 -0.0000  0.0000 -0.0000 -0.0000
                                           -0.0000  0.0000 -0.0000  0.0000  1.0000
                                            0.0000 -0.0000  0.0000  0.0000 -0.0000
                                            0.0000  0.0000  0.0000 -0.0000 -0.0000
                                            0.0000 -0.0000 -0.0000 -0.0000 -0.0000
                                           -0.0000 -0.0000 -0.0000 -0.0000  0.0000
                                            0.0000 -0.0000 -0.0000 -0.0000 -0.0000
    11. (1.99674) CR ( 8) I   3           s(  0.00%)p 0.00(  0.00%)d 1.00(100.00%)
                                           -0.0000 -0.0000 -0.0000  0.0000 -0.0000
                                           -0.0000  0.0000  0.0000 -0.0000  0.0000
                                            0.0000  0.0000 -0.0000  0.0000  0.0000
                                           -0.0000  0.0000 -0.0000 -0.0000  0.0000
                                           -0.0000  0.0000 -0.0000  0.0000 -0.0000
                                            0.0000 -0.0000  0.0000  0.0000  0.0000
                                           -0.0000  0.0000 -0.0000  1.0000  0.0000
                                           -0.0000 -0.0000 -0.0000  0.0000 -0.0000
                                           -0.0000  0.0000  0.0000  0.0000  0.0000
                                            0.0000  0.0000  0.0000  0.0000 -0.0000
                                           -0.0000  0.0000  0.0000  0.0000  0.0000
    12. (1.99677) CR ( 9) I   3           s(  0.00%)p 0.00(  0.00%)d 1.00(100.00%)
                                           -0.0000 -0.0000 -0.0000  0.0000 -0.0000
                                           -0.0000  0.0000 -0.0000 -0.0000 -0.0000
                                            0.0000  0.0000 -0.0000  0.0000  0.0000
                                           -0.0000  0.0000  0.0000 -0.0000  0.0000
                                           -0.0000  0.0000 -0.0000  0.0000  0.0000
                                            0.0000 -0.0000  0.0000  0.0000  0.0000
                                           -0.0000  0.0000 -0.0000 -0.0000  0.0000
                                           -0.0000 -0.0000  1.0000  0.0000 -0.0000
                                           -0.0000  0.0000  0.0000  0.0000  0.0000
                                            0.0000  0.0000  0.0000  0.0000 -0.0000
                                           -0.0000  0.0000  0.0000  0.0000  0.0000
    13. (1.97260) LP ( 1) O   1           s( 68.28%)p 0.46( 31.60%)d 0.00(  0.11%)
                                                  f 0.00(  0.00%)
                                            0.0002  0.8263  0.0014  0.0002  0.0023
                                           -0.3473 -0.0102  0.0064 -0.0007  0.4043
                                            0.0099 -0.0046  0.0005 -0.1779 -0.0042
                                            0.0025  0.0005  0.0250 -0.0025 -0.0022
                                           -0.0144  0.0018  0.0010  0.0090 -0.0033
                                            0.0013 -0.0014  0.0070 -0.0056  0.0065
                                           -0.0050  0.0033  0.0025 -0.0015  0.0009
                                           -0.0017 -0.0008  0.0001  0.0003 -0.0006
                                            0.0027 -0.0005  0.0007  0.0019  0.0034
                                           -0.0013
    14. (1.96131) LP ( 2) O   1           s(  0.27%)p99.99( 99.41%)d 1.11(  0.30%)
                                                  f 0.10(  0.03%)
                                            0.0000  0.0512 -0.0059 -0.0030  0.0003
                                           -0.0139 -0.0016  0.0007 -0.0012 -0.4967
                                           -0.0096  0.0018 -0.0018 -0.8641 -0.0204
                                            0.0048 -0.0039 -0.0206  0.0071 -0.0022
                                           -0.0369  0.0114 -0.0031  0.0102  0.0023
                                           -0.0032 -0.0128 -0.0002  0.0021 -0.0259
                                            0.0003  0.0033  0.0057 -0.0027  0.0014
                                           -0.0003  0.0099 -0.0029 -0.0090  0.0040
                                           -0.0009  0.0002  0.0008  0.0004 -0.0038
                                            0.0024
    15. (1.98058) LP ( 1) I   3           s( 99.86%)p 0.00(  0.14%)d 0.00(  0.00%)
                                                  f 0.00(  0.00%)
                                            0.0000  0.9993 -0.0000  0.0001 -0.0000
                                           -0.0000 -0.0000 -0.0052  0.0004 -0.0001
                                            0.0001 -0.0000 -0.0368  0.0005 -0.0006
                                            0.0002 -0.0000 -0.0050  0.0006 -0.0002
                                            0.0002 -0.0000  0.0011 -0.0003 -0.0001
                                           -0.0000  0.0003 -0.0001 -0.0000 -0.0000
                                            0.0018 -0.0005 -0.0001  0.0000 -0.0016
                                            0.0003  0.0002  0.0000 -0.0011  0.0003
                                            0.0001 -0.0005 -0.0004 -0.0001 -0.0001
                                           -0.0004 -0.0004 -0.0006 -0.0005  0.0002
                                            0.0002 -0.0004 -0.0003 -0.0005 -0.0003
    16. (1.95156) LP ( 2) I   3           s(  0.00%)p 1.00( 99.99%)d 0.00(  0.00%)
                                                  f 0.00(  0.00%)
                                           -0.0000  0.0058  0.0006 -0.0016  0.0018
                                           -0.0001  0.0000  0.4703  0.0004  0.0005
                                           -0.0002  0.0000  0.2074 -0.0014 -0.0004
                                            0.0003 -0.0000 -0.8577  0.0010 -0.0005
                                            0.0001 -0.0000  0.0025 -0.0007 -0.0002
                                            0.0000 -0.0004  0.0002 -0.0003  0.0000
                                           -0.0013 -0.0004  0.0014  0.0000  0.0015
                                           -0.0009  0.0015  0.0000 -0.0034  0.0018
                                           -0.0013  0.0002 -0.0001 -0.0006 -0.0005
                                           -0.0019 -0.0018  0.0003 -0.0001  0.0001
                                            0.0001 -0.0008 -0.0004  0.0003  0.0004
    17. (1.95144) LP ( 3) I   3           s(  0.01%)p 1.00( 99.99%)d 0.00(  0.00%)
                                                  f 0.00(  0.00%)
                                           -0.0000  0.0063  0.0017 -0.0032  0.0031
                                           -0.0001 -0.0000 -0.8557 -0.0007 -0.0010
                                            0.0003  0.0000  0.3447 -0.0019 -0.0007
                                            0.0010 -0.0000 -0.3858  0.0006 -0.0003
                                            0.0001  0.0000 -0.0032  0.0005  0.0007
                                            0.0000 -0.0031  0.0017 -0.0014  0.0000
                                            0.0006 -0.0006  0.0010  0.0000 -0.0031
                                            0.0014 -0.0002  0.0000 -0.0005  0.0002
                                            0.0004  0.0000 -0.0002  0.0002  0.0000
                                           -0.0009 -0.0009 -0.0006 -0.0008 -0.0014
                                           -0.0013  0.0005  0.0001 -0.0014 -0.0012
    18. (1.94311) LP ( 4) I   3           s(  0.13%)p99.99( 99.83%)d 0.23(  0.03%)
                                                  f 0.02(  0.00%)
                                            0.0000  0.0364 -0.0002 -0.0012  0.0003
                                            0.0003 -0.0000  0.2156  0.0012 -0.0000
                                           -0.0004 -0.0000  0.9146  0.0002 -0.0014
                                            0.0001 -0.0000  0.3396  0.0026 -0.0001
                                            0.0002 -0.0000  0.0062 -0.0009 -0.0001
                                           -0.0000  0.0029 -0.0008  0.0003 -0.0000
                                            0.0116 -0.0029  0.0011  0.0000 -0.0089
                                            0.0002  0.0022  0.0000 -0.0048  0.0001
                                            0.0010 -0.0021 -0.0016 -0.0003 -0.0003
                                           -0.0010 -0.0008 -0.0025 -0.0019  0.0012
                                            0.0007 -0.0015 -0.0008 -0.0016 -0.0010
    19. (0.01987) RY*( 1) O   1           s(  0.02%)p99.99( 97.19%)d99.99(  2.70%)
                                                  f 4.71(  0.09%)
                                            0.0000 -0.0002  0.0121  0.0071 -0.0003
                                           -0.0002  0.0083 -0.0016  0.0027 -0.0159
                                            0.5017  0.0175 -0.0028 -0.0270  0.8474
                                            0.0263 -0.0032  0.0760 -0.0191  0.0044
                                            0.1242 -0.0305  0.0064 -0.0160 -0.0038
                                            0.0064  0.0254 -0.0017 -0.0039  0.0584
                                           -0.0050 -0.0061 -0.0100  0.0073  0.0028
                                           -0.0004 -0.0116  0.0089  0.0167 -0.0117
                                           -0.0011 -0.0002  0.0024 -0.0014  0.0091
                                           -0.0070
    20. (0.01583) RY*( 2) O   1           s( 13.00%)p 6.40( 83.20%)d 0.28(  3.67%)
                                                  f 0.01(  0.12%)
                                           -0.0000 -0.0161  0.3602  0.0041  0.0026
                                            0.0099 -0.5542  0.0029 -0.0010 -0.0068
                                            0.6238  0.0174 -0.0150  0.0041 -0.3673
                                           -0.0101  0.0060  0.1480 -0.0103 -0.0089
                                           -0.1037  0.0113  0.0029  0.0306 -0.0142
                                            0.0026 -0.0085  0.0322 -0.0182  0.0133
                                           -0.0271  0.0135  0.0054 -0.0074 -0.0038
                                           -0.0053 -0.0048  0.0018 -0.0125  0.0016
                                            0.0148 -0.0059  0.0151  0.0040  0.0194
                                           -0.0081
    21. (0.00979) RY*( 3) O   1           s(  0.19%)p99.99( 92.92%)d35.93(  6.65%)
                                                  f 1.32(  0.24%)
                                           -0.0000  0.0017  0.0249  0.0350  0.0024
                                            0.0307  0.7816 -0.0132 -0.0056  0.0182
                                            0.4781  0.0182 -0.0257 -0.0108 -0.2940
                                           -0.0130  0.0220  0.1231 -0.0094  0.0063
                                           -0.0315  0.0025 -0.0030 -0.0571 -0.0224
                                            0.0022 -0.1782 -0.0989  0.0450  0.0035
                                            0.0470 -0.0261 -0.0053 -0.0012  0.0151
                                            0.0076 -0.0023  0.0002 -0.0214  0.0070
                                            0.0048  0.0010 -0.0128 -0.0108  0.0325
                                           -0.0158
    22. (0.00660) RY*( 4) O   1           s( 37.51%)p 0.05(  1.77%)d 1.60( 59.98%)
                                                  f 0.02(  0.74%)
                                            0.0000  0.0127  0.6121 -0.0156  0.0055
                                           -0.0062  0.1164 -0.0090 -0.0060  0.0077
                                           -0.0530  0.0028 -0.0153 -0.0104  0.0279
                                           -0.0052 -0.0052 -0.6419 -0.0344  0.0099
                                            0.2017  0.0049 -0.0016  0.0721  0.0238
                                            0.0019 -0.0702 -0.0173  0.0097  0.3648
                                            0.0394 -0.0032 -0.0001  0.0015  0.0125
                                            0.0042 -0.0138  0.0098  0.0008  0.0052
                                           -0.0374  0.0157 -0.0535  0.0122 -0.0453
                                            0.0145
    23. (0.00630) RY*( 5) O   1           s(  2.69%)p 0.21(  0.58%)d35.44( 95.41%)
                                                  f 0.49(  1.32%)
                                            0.0000  0.0041  0.1638 -0.0090 -0.0020
                                           -0.0060 -0.0173 -0.0083  0.0054 -0.0044
                                           -0.0675 -0.0063  0.0089 -0.0044 -0.0223
                                           -0.0000 -0.0108  0.1731  0.0236 -0.0033
                                            0.6532  0.0650 -0.0161  0.3967  0.0434
                                           -0.0073 -0.3331 -0.0265  0.0006 -0.4690
                                           -0.0388  0.0039 -0.0429  0.0191  0.0112
                                           -0.0042  0.0616 -0.0284  0.0563 -0.0204
                                           -0.0153  0.0064 -0.0064 -0.0014  0.0435
                                           -0.0208
    24. (0.00590) RY*( 6) O   1           s(  0.07%)p33.52(  2.49%)d99.99( 96.51%)
                                                  f12.50(  0.93%)
                                           -0.0000  0.0007  0.0272 -0.0004  0.0009
                                            0.0008  0.0065  0.0003 -0.0054 -0.0266
                                           -0.0881 -0.0118 -0.0127 -0.0388 -0.1189
                                           -0.0203 -0.0013  0.4439  0.0617 -0.0138
                                            0.5546  0.0829 -0.0175 -0.2630 -0.0289
                                            0.0037  0.2994  0.0301  0.0016  0.5337
                                            0.0618 -0.0034 -0.0180  0.0056  0.0322
                                           -0.0118 -0.0654  0.0291  0.0354 -0.0141
                                           -0.0105  0.0038  0.0274 -0.0099  0.0139
                                           -0.0029
    25. (0.00577) RY*( 7) O   1           s(  6.83%)p 0.93(  6.36%)d12.59( 85.91%)
                                                  f 0.13(  0.90%)
                                           -0.0000  0.0097  0.2605 -0.0157 -0.0080
                                            0.0255  0.1011  0.0102 -0.0094 -0.0388
                                           -0.1909 -0.0306  0.0068  0.0236  0.1137
                                            0.0117 -0.0019  0.4360  0.0416 -0.0087
                                           -0.3634 -0.0406  0.0089  0.6388  0.0925
                                           -0.0089 -0.0414 -0.0240  0.0110  0.3328
                                            0.0582 -0.0123  0.0555 -0.0207  0.0187
                                           -0.0038  0.0029 -0.0016  0.0177 -0.0071
                                            0.0577 -0.0246  0.0158 -0.0127  0.0188
                                           -0.0060
    26. (0.00320) RY*( 8) O   1           s( 37.90%)p 0.22(  8.47%)d 1.40( 53.03%)
                                                  f 0.02(  0.59%)
                                            0.0000 -0.0078  0.6154  0.0049 -0.0155
                                           -0.0207  0.1645 -0.0251 -0.0145 -0.0006
                                           -0.2015 -0.0021 -0.0266 -0.0004  0.1224
                                           -0.0056  0.0063  0.2502  0.0443 -0.0024
                                           -0.1603 -0.0310  0.0019 -0.3520 -0.0892
                                            0.0007  0.3222  0.0624  0.0107 -0.4330
                                           -0.1093 -0.0025 -0.0198  0.0181 -0.0256
                                            0.0293 -0.0055  0.0053 -0.0083  0.0143
                                            0.0090 -0.0095  0.0352 -0.0432 -0.0096
                                           -0.0001
    27. (0.00290) RY*( 9) O   1           s(  1.50%)p 4.89(  7.32%)d59.92( 89.67%)
                                                  f 1.01(  1.51%)
                                           -0.0000 -0.0025  0.1206  0.0201  0.0003
                                            0.0426 -0.1307  0.0684 -0.0246  0.0261
                                           -0.1796  0.0446 -0.0374 -0.0154  0.1082
                                           -0.0256  0.0101  0.2011  0.0572 -0.0017
                                           -0.1131 -0.0305  0.0016 -0.4323 -0.0816
                                           -0.0043 -0.7736 -0.1459 -0.0102  0.1590
                                            0.0250  0.0006 -0.0136  0.0160  0.0268
                                           -0.0189 -0.0221  0.0123 -0.0632  0.0397
                                           -0.0059 -0.0050 -0.0430  0.0211  0.0633
                                           -0.0325
    28. (0.00064) RY*(10) O   1           s( 28.82%)p 1.60( 46.19%)d 0.60( 17.15%)
                                                  f 0.27(  7.84%)
                                            0.0000 -0.0051 -0.0245  0.5299  0.0824
                                           -0.0030 -0.0123  0.1105 -0.1049 -0.0034
                                            0.0004 -0.5302 -0.3805 -0.0021 -0.0019
                                            0.0983  0.0541 -0.0315  0.1203 -0.0325
                                            0.0241 -0.0476  0.0300  0.0624 -0.0991
                                            0.1388  0.0173 -0.1303  0.0334  0.0190
                                           -0.3150  0.0178 -0.0508 -0.0436 -0.0397
                                            0.0061 -0.2103  0.0384 -0.1306 -0.0506
                                            0.0308  0.0263 -0.0192  0.0484  0.0272
                                            0.0431
    29. (0.00060) RY*(11) O   1           s(  2.07%)p28.66( 59.28%)d17.25( 35.68%)
                                                  f 1.44(  2.97%)
                                           -0.0000  0.0034  0.0120  0.1406 -0.0277
                                            0.0012 -0.0262 -0.4294  0.0634 -0.0027
                                           -0.0067 -0.4220  0.0674  0.0022  0.0436
                                           -0.4670  0.0312 -0.0051 -0.1684 -0.0252
                                           -0.0348  0.2698  0.0178  0.0018 -0.2809
                                           -0.0590 -0.0351  0.0794  0.0421 -0.0328
                                            0.3995  0.0324  0.1095 -0.0086 -0.0110
                                            0.0102  0.0721 -0.0206  0.0220  0.0133
                                            0.0399 -0.0098  0.0225 -0.0396  0.0851
                                           -0.0124
    30. (0.00057) RY*(12) O   1           s(  0.41%)p65.93( 27.34%)d99.99( 61.10%)
                                                  f26.86( 11.14%)
                                           -0.0000  0.0054  0.0008  0.0626 -0.0142
                                           -0.0018 -0.0346 -0.4916  0.0080 -0.0095
                                           -0.0472  0.1139 -0.0467 -0.0101 -0.0262
                                            0.1104 -0.0099  0.0347 -0.5664 -0.1043
                                            0.0271 -0.3750 -0.0866 -0.0138  0.0561
                                            0.0255  0.0170 -0.3051 -0.0023  0.0264
                                           -0.1671 -0.0572 -0.0898  0.0114  0.0940
                                            0.0235 -0.1598  0.0160  0.1731 -0.0287
                                            0.0285 -0.0104  0.0692 -0.0265  0.1750
                                           -0.0142
    31. (0.00055) RY*(13) O   1           s(  0.48%)p69.86( 33.21%)d99.99( 47.67%)
                                                  f39.22( 18.64%)
                                           -0.0000  0.0043  0.0009  0.0678 -0.0116
                                            0.0001 -0.0200 -0.4052 -0.0092  0.0035
                                           -0.0140  0.2444 -0.0121  0.0120  0.0249
                                            0.3191  0.0689  0.0040  0.0797  0.0411
                                           -0.0178  0.5933  0.1538  0.0054  0.0395
                                            0.0315  0.0117 -0.2601 -0.0077 -0.0009
                                           -0.1357 -0.0616  0.2420 -0.0183 -0.0142
                                            0.0171 -0.0579  0.0110 -0.2874  0.0100
                                            0.1146 -0.0030 -0.0348 -0.0245 -0.1598
                                            0.0193
    32. (0.00050) RY*(14) O   1           s(  0.55%)p21.29( 11.66%)d99.99( 67.12%)
                                                  f37.75( 20.67%)
                                            0.0000  0.0010  0.0242  0.0698 -0.0045
                                           -0.0067 -0.0484 -0.1657 -0.0152  0.0096
                                            0.0194 -0.2430  0.0125 -0.0036 -0.0049
                                            0.1618  0.0242  0.0283  0.2073  0.0866
                                           -0.0182 -0.1263 -0.0587 -0.1072  0.5408
                                            0.1207  0.0322 -0.2481 -0.0003 -0.0831
                                            0.4553  0.0703 -0.1782  0.0095  0.1086
                                            0.0429  0.0518  0.0019  0.1062  0.0136
                                           -0.0672 -0.0189 -0.1950 -0.0692 -0.3152
                                           -0.0081
    33. (0.00046) RY*(15) O   1           s(  0.11%)p99.99( 18.97%)d99.99( 12.12%)
                                                  f99.99( 68.80%)
                                            0.0000 -0.0038  0.0271 -0.0184  0.0033
                                           -0.0010  0.0088  0.1424  0.0396 -0.0021
                                           -0.0028 -0.2095  0.0796  0.0020 -0.0032
                                            0.3357  0.0692  0.0035 -0.1500 -0.0381
                                           -0.0026  0.0826  0.0133 -0.0744  0.2387
                                            0.0259 -0.0041  0.1100  0.0091 -0.0371
                                            0.1148  0.0172  0.5591  0.0728 -0.1071
                                           -0.0112 -0.0988 -0.0022  0.1341  0.0558
                                           -0.2981 -0.0393 -0.1126 -0.0183  0.4735
                                            0.0029
    34. (0.00044) RY*(16) O   1           s(  0.02%)p89.36(  1.88%)d99.99(  3.07%)
                                                  f99.99( 95.02%)
                                            0.0000 -0.0007  0.0025  0.0057  0.0131
[...]
                                            0.0086  0.7981  0.0296 -0.0129  0.1223
                                           -0.0029  0.0141 -0.5629  0.0124 -0.0053
                                            0.1416  0.0281  0.0377  0.0282 -0.0045
                                           -0.0063 -0.0019  0.0300  0.0063 -0.0474
                                            0.0137 -0.0553  0.0164
   125. (0.00474) RY*( 2) H   4           s(  6.44%)p14.34( 92.29%)d 0.20(  1.28%)
                                           -0.0117  0.2385 -0.0856  0.0003  0.3922
                                           -0.0203  0.0236  0.5816 -0.0203  0.0041
                                            0.6378  0.1488 -0.0225  0.0125  0.0090
                                            0.0043 -0.0128 -0.0611  0.0216  0.0452
                                           -0.0468 -0.0493 -0.0386
   126. (0.00322) RY*( 3) H   4           s(  0.62%)p99.99( 97.91%)d 2.39(  1.47%)
                                            0.0153  0.0628  0.0385 -0.0226 -0.8598
                                            0.0164 -0.0169  0.0366  0.0960 -0.0041
                                            0.4744  0.0603 -0.0012  0.0564 -0.0221
                                            0.0580 -0.0006  0.0306  0.0283 -0.0715
                                            0.0035  0.0244 -0.0155
   127. (0.00187) RY*( 4) H   4           s( 31.52%)p 2.16( 68.10%)d 0.01(  0.38%)
                                            0.0332  0.5175 -0.1996  0.0804 -0.2646
                                            0.0171  0.0338  0.5277 -0.1544  0.0312
                                           -0.5515  0.0347  0.0310  0.0505 -0.0041
                                            0.0152  0.0002  0.0144 -0.0013 -0.0006
                                           -0.0244  0.0137 -0.0012
   128. (0.00089) RY*( 5) H   4           s( 57.06%)p 0.67( 38.42%)d 0.08(  4.52%)
                                           -0.0068  0.1017  0.7452  0.0700  0.0519
                                            0.2545 -0.0150  0.1708  0.4520 -0.1368
                                           -0.1324  0.2142 -0.0295  0.0050  0.0164
                                            0.0575 -0.0446  0.1527 -0.0416  0.0407
                                           -0.0064  0.1130  0.0093
   129. (0.00042) RY*( 6) H   4           s(  0.34%)p99.99( 91.89%)d22.92(  7.77%)
                                           -0.0003  0.0014  0.0574  0.0098 -0.0119
                                            0.8472 -0.0124 -0.0099 -0.3299  0.0876
                                            0.0751 -0.2781 -0.0366  0.0294  0.1532
                                            0.0260 -0.0785 -0.1728 -0.0140  0.0575
                                            0.0328 -0.1049  0.0329
   130. (0.00033) RY*( 7) H   4           s( 11.99%)p 4.35( 52.22%)d 2.98( 35.79%)
                                           -0.0133  0.0239  0.3044  0.1629  0.0089
                                           -0.2393  0.1990  0.0956  0.0418  0.4310
                                            0.0237 -0.4766  0.0298  0.1484  0.0786
                                           -0.0760 -0.0602 -0.0516 -0.1788 -0.4097
                                           -0.1950 -0.2824 -0.0065
   131. (0.00027) RY*( 8) H   4           s(  4.25%)p 7.64( 32.47%)d14.89( 63.28%)
                                           -0.0067  0.0636  0.1951  0.0186 -0.0560
                                           -0.2421  0.1063  0.0263 -0.0430 -0.2993
                                            0.0183 -0.3776 -0.1288  0.2604 -0.1273
                                            0.0947  0.1007 -0.3544 -0.0961  0.6022
                                            0.0839 -0.0786  0.1377
   132. (0.00024) RY*( 9) H   4           s(  2.13%)p18.29( 38.97%)d27.64( 58.90%)
                                            0.0038  0.0873  0.1070  0.0472 -0.0122
                                           -0.0861 -0.2022  0.1103 -0.1401 -0.3101
                                            0.0823 -0.4524 -0.0431 -0.5535 -0.0944
                                           -0.2651 -0.0746  0.2415  0.0054 -0.1454
                                            0.1918  0.1854  0.2175
   133. (0.00020) RY*(10) H   4           s(  4.48%)p 3.40( 15.21%)d17.93( 80.31%)
                                           -0.0073  0.0343 -0.0645  0.1985 -0.0827
                                            0.0210 -0.0508 -0.0291  0.2886  0.0749
                                           -0.0567  0.1581 -0.1559 -0.4868  0.0217
                                           -0.3382 -0.0720 -0.5830 -0.0547  0.0833
                                           -0.0139 -0.2584 -0.1714
   134. (0.00016) RY*(11) H   4           s( 41.22%)p 0.78( 32.16%)d 0.65( 26.62%)
                                           -0.0144 -0.0119 -0.3202  0.5562  0.0660
                                            0.1181 -0.2830 -0.0120  0.3557 -0.1151
                                            0.0191 -0.1233 -0.2603  0.2239 -0.0737
                                            0.2640  0.1032  0.0311 -0.1390 -0.2128
                                            0.2125 -0.0218  0.1381
   135. (0.00012) RY*(12) H   4           s(  5.28%)p 7.23( 38.14%)d10.72( 56.58%)
                                           -0.0066  0.0299 -0.0066  0.2276  0.0118
                                            0.0405 -0.4123 -0.0239  0.0576  0.3280
                                            0.0487 -0.1635  0.2630  0.1175 -0.2061
                                           -0.2526  0.0910 -0.0030  0.0285  0.2852
                                           -0.3233  0.4608 -0.1959
   136. (0.00012) RY*(13) H   4           s(  3.09%)p 7.21( 22.24%)d24.21( 74.68%)
                                           -0.0011  0.0303 -0.0611  0.1619  0.0178
                                           -0.0491  0.3611 -0.0162  0.1237 -0.0115
                                            0.0270 -0.1676  0.2115 -0.2421  0.4292
                                            0.3941  0.0337 -0.2448  0.1275 -0.0379
                                            0.0306  0.5087 -0.1006
   137. (0.00010) RY*(14) H   4           s(  7.47%)p 4.50( 33.61%)d 7.89( 58.92%)
   138. (0.00009) RY*(15) H   4           s(  6.37%)p 6.51( 41.49%)d 8.19( 52.14%)
   139. (0.00009) RY*(16) H   4           s(  1.33%)p13.77( 18.29%)d60.51( 80.38%)
   140. (0.00007) RY*(17) H   4           s(  0.39%)p 3.90(  1.51%)d99.99( 98.11%)
   141. (0.00006) RY*(18) H   4           s(  2.91%)p 0.31(  0.91%)d33.10( 96.18%)
   142. (0.00005) RY*(19) H   4           s( 36.64%)p 1.54( 56.32%)d 0.19(  7.04%)
   143. (0.00003) RY*(20) H   4           s(  0.91%)p30.23( 27.42%)d79.03( 71.68%)
   144. (0.00003) RY*(21) H   4           s(  1.19%)p23.30( 27.69%)d59.84( 71.12%)
   145. (0.00001) RY*(22) H   4           s( 10.82%)p 3.43( 37.08%)d 4.82( 52.10%)
   146. (0.01937) BD*( 1) O   1 - H   2  
                ( 15.99%)   0.3999* O   1 s( 14.91%)p 5.68( 84.71%)d 0.03(  0.38%)
                                                  f 0.00(  0.01%)
                                           -0.0001 -0.3861 -0.0016 -0.0024  0.0036
                                           -0.9201  0.0173 -0.0049  0.0014 -0.0059
                                            0.0083  0.0001  0.0024 -0.0045 -0.0056
                                           -0.0002 -0.0013  0.0192 -0.0022 -0.0014
                                           -0.0153  0.0032 -0.0001  0.0040  0.0014
                                           -0.0010 -0.0467  0.0077 -0.0048  0.0292
                                           -0.0036  0.0022  0.0002 -0.0003  0.0070
                                           -0.0000  0.0002  0.0000  0.0004  0.0001
                                            0.0060 -0.0022 -0.0044 -0.0014 -0.0010
                                            0.0001
                ( 84.01%)  -0.9166* H   2 s( 99.78%)p 0.00(  0.18%)d 0.00(  0.04%)
                                           -0.9989  0.0019 -0.0003  0.0002 -0.0027
                                           -0.0421  0.0017 -0.0001 -0.0004  0.0004
                                           -0.0026 -0.0016  0.0002 -0.0020  0.0023
                                           -0.0015 -0.0014  0.0037  0.0009 -0.0163
                                            0.0033  0.0105 -0.0017
   147. (0.02453) BD*( 1) O   1 - H   4  
                ( 13.83%)   0.3719* O   1 s( 16.47%)p 5.05( 83.17%)d 0.02(  0.35%)
                                                  f 0.00(  0.01%)
                                            0.0001  0.4059 -0.0034 -0.0021 -0.0022
                                           -0.1663  0.0109  0.0011 -0.0000 -0.7653
                                            0.0149 -0.0060  0.0032  0.4668 -0.0077
                                            0.0047 -0.0039 -0.0121  0.0049 -0.0003
                                            0.0070 -0.0030  0.0003 -0.0456  0.0025
                                            0.0004 -0.0333  0.0045 -0.0017 -0.0044
                                           -0.0023  0.0016 -0.0084  0.0012  0.0007
                                           -0.0008 -0.0000 -0.0006 -0.0044 -0.0015
                                            0.0022  0.0007  0.0011  0.0016 -0.0030
                                            0.0032
                ( 86.17%)  -0.9283* H   4 s( 99.77%)p 0.00(  0.22%)d 0.00(  0.01%)
                                            0.9987 -0.0195  0.0037 -0.0001  0.0267
                                            0.0023 -0.0004 -0.0030  0.0284  0.0081
                                            0.0158 -0.0165 -0.0061  0.0034 -0.0033
                                           -0.0016  0.0021 -0.0064 -0.0002  0.0029
                                            0.0005 -0.0047 -0.0010


 NHO Directionality and "Bond Bending" (deviations from line of nuclear centers)

         [Thresholds for printing:  angular deviation  >  1.0 degree]
                                    hybrid p-character > 25.0%
                                    orbital occupancy  >  0.10e

                                Line of Centers        Hybrid 1              Hybrid 2
                                ---------------  -------------------   ------------------
                NBO               Theta   Phi    Theta   Phi    Dev    Theta   Phi    Dev
 ========================================================================================
    13. LP (   1) O   1             --     --    108.3  130.6   --       --     --    --
    14. LP (   2) O   1             --     --    150.2  268.2   --       --     --    --
    16. LP (   2) I   3             --     --    149.1   23.6   --       --     --    --
    17. LP (   3) I   3             --     --    112.7  158.2   --       --     --    --
    18. LP (   4) I   3             --     --     70.0   76.7   --       --     --    --


 Natural Bond Orbitals (Summary):

           NBO                  Occupancy  
 -----------------------------------------------
 Molecular unit  1  (H2O)
     1. BD (   1) O   1 - H   2          1.96427
     2. BD (   1) O   1 - H   4          1.96465
     3. CR (   1) O   1                  1.99992
    13. LP (   1) O   1                  1.97260
    14. LP (   2) O   1                  1.96131
    19. RY*(   1) O   1                  0.01987
    20. RY*(   2) O   1                  0.01583
    21. RY*(   3) O   1                  0.00979
    22. RY*(   4) O   1                  0.00660
    23. RY*(   5) O   1                  0.00630
    24. RY*(   6) O   1                  0.00590
    25. RY*(   7) O   1                  0.00577
    26. RY*(   8) O   1                  0.00320
    27. RY*(   9) O   1                  0.00290
    28. RY*(  10) O   1                  0.00064
    29. RY*(  11) O   1                  0.00060
    30. RY*(  12) O   1                  0.00057
    31. RY*(  13) O   1                  0.00055
    32. RY*(  14) O   1                  0.00050
    33. RY*(  15) O   1                  0.00046
    34. RY*(  16) O   1                  0.00044
    35. RY*(  17) O   1                  0.00044
    36. RY*(  18) O   1                  0.00044
    37. RY*(  19) O   1                  0.00042
    38. RY*(  20) O   1                  0.00042
    39. RY*(  21) O   1                  0.00039
    40. RY*(  22) O   1                  0.00034
    41. RY*(  23) O   1                  0.00028
    42. RY*(  24) O   1                  0.00025
    43. RY*(  25) O   1                  0.00022
    44. RY*(  26) O   1                  0.00015
    45. RY*(  27) O   1                  0.00010
    46. RY*(  28) O   1                  0.00008
    47. RY*(  29) O   1                  0.00008
    48. RY*(  30) O   1                  0.00008
    49. RY*(  31) O   1                  0.00008
    50. RY*(  32) O   1                  0.00007
    51. RY*(  33) O   1                  0.00006
    52. RY*(  34) O   1                  0.00006
    53. RY*(  35) O   1                  0.00007
    54. RY*(  36) O   1                  0.00006
    55. RY*(  37) O   1                  0.00005
    56. RY*(  38) O   1                  0.00005
    57. RY*(  39) O   1                  0.00003
    58. RY*(  40) O   1                  0.00001
    59. RY*(  41) O   1                 -0.00003
    60. RY*(   1) H   2                  0.00159
    61. RY*(   2) H   2                  0.00145
    62. RY*(   3) H   2                  0.00062
    63. RY*(   4) H   2                  0.00031
    64. RY*(   5) H   2                  0.00019
    65. RY*(   6) H   2                  0.00015
    66. RY*(   7) H   2                  0.00013
    67. RY*(   8) H   2                  0.00011
    68. RY*(   9) H   2                  0.00011
    69. RY*(  10) H   2                  0.00008
    70. RY*(  11) H   2                  0.00006
    71. RY*(  12) H   2                  0.00004
    72. RY*(  13) H   2                  0.00004
    73. RY*(  14) H   2                  0.00005
    74. RY*(  15) H   2                  0.00004
    75. RY*(  16) H   2                  0.00003
    76. RY*(  17) H   2                  0.00002
    77. RY*(  18) H   2                  0.00002
    78. RY*(  19) H   2                  0.00003
    79. RY*(  20) H   2                  0.00001
    80. RY*(  21) H   2                  0.00001
    81. RY*(  22) H   2                  0.00001
   124. RY*(   1) H   4                  0.00786
   125. RY*(   2) H   4                  0.00474
   126. RY*(   3) H   4                  0.00322
   127. RY*(   4) H   4                  0.00187
   128. RY*(   5) H   4                  0.00089
   129. RY*(   6) H   4                  0.00042
   130. RY*(   7) H   4                  0.00033
   131. RY*(   8) H   4                  0.00027
   132. RY*(   9) H   4                  0.00024
   133. RY*(  10) H   4                  0.00020
   134. RY*(  11) H   4                  0.00016
   135. RY*(  12) H   4                  0.00012
   136. RY*(  13) H   4                  0.00012
   137. RY*(  14) H   4                  0.00010
   138. RY*(  15) H   4                  0.00009
   139. RY*(  16) H   4                  0.00009
   140. RY*(  17) H   4                  0.00007
   141. RY*(  18) H   4                  0.00006
   142. RY*(  19) H   4                  0.00005
   143. RY*(  20) H   4                  0.00003
   144. RY*(  21) H   4                  0.00003
   145. RY*(  22) H   4                  0.00001
   146. BD*(   1) O   1 - H   2          0.01937
   147. BD*(   1) O   1 - H   4          0.02453
       -------------------------------
              Total Lewis    9.86275  ( 98.4618%)
        Valence non-Lewis    0.04390  (  0.4383%)
        Rydberg non-Lewis    0.11018  (  1.0999%)
       -------------------------------
            Total unit  1   10.01682  (100.0000%)
           Charge unit  1   -0.01682

 Molecular unit  2  (I)
     4. CR (   1) I   3                  2.00003
     5. CR (   2) I   3                  2.00007
     6. CR (   3) I   3                  2.00006
     7. CR (   4) I   3                  2.00007
     8. CR (   5) I   3                  1.99676
     9. CR (   6) I   3                  1.99678
    10. CR (   7) I   3                  1.99676
    11. CR (   8) I   3                  1.99674
    12. CR (   9) I   3                  1.99677
    15. LP (   1) I   3                  1.98058
    16. LP (   2) I   3                  1.95156
    17. LP (   3) I   3                  1.95144
    18. LP (   4) I   3                  1.94311
    82. RY*(   1) I   3                  0.02042
    83. RY*(   2) I   3                  0.02036
    84. RY*(   3) I   3                  0.02025
    85. RY*(   4) I   3                  0.02019
    86. RY*(   5) I   3                  0.02017
    87. RY*(   6) I   3                  0.01129
    88. RY*(   7) I   3                  0.01123
    89. RY*(   8) I   3                  0.01048
    90. RY*(   9) I   3                  0.00452
    91. RY*(  10) I   3                  0.00279
    92. RY*(  11) I   3                  0.00279
    93. RY*(  12) I   3                  0.00277
    94. RY*(  13) I   3                  0.00277
    95. RY*(  14) I   3                  0.00272
    96. RY*(  15) I   3                  0.00272
    97. RY*(  16) I   3                  0.00272
    98. RY*(  17) I   3                  0.00169
    99. RY*(  18) I   3                  0.00169
   100. RY*(  19) I   3                  0.00149
   101. RY*(  20) I   3                  0.00146
   102. RY*(  21) I   3                  0.00124
   103. RY*(  22) I   3                  0.00075
   104. RY*(  23) I   3                  0.00075
   105. RY*(  24) I   3                  0.00072
   106. RY*(  25) I   3                  0.00053
   107. RY*(  26) I   3                  0.00043
   108. RY*(  27) I   3                  0.00044
   109. RY*(  28) I   3                  0.00043
   110. RY*(  29) I   3                  0.00043
   111. RY*(  30) I   3                  0.00043
   112. RY*(  31) I   3                  0.00041
   113. RY*(  32) I   3                  0.00036
   114. RY*(  33) I   3                  0.00016
   115. RY*(  34) I   3                  0.00016
   116. RY*(  35) I   3                  0.00016
   117. RY*(  36) I   3                  0.00014
   118. RY*(  37) I   3                  0.00011
   119. RY*(  38) I   3                  0.00008
   120. RY*(  39) I   3                  0.00008
   121. RY*(  40) I   3                  0.00006
   122. RY*(  41) I   3                  0.00007
   123. RY*(  42) I   3                  0.00000
       -------------------------------
              Total Lewis   53.81073  ( 99.6806%)
        Valence non-Lewis    0.00000  (  0.0000%)
        Rydberg non-Lewis    0.17245  (  0.3194%)
       -------------------------------
            Total unit  2   53.98318  (100.0000%)
           Charge unit  2   -0.98318
 Leave Link  607 at Tue Oct 19 17:07:49 2021, MaxMem= 16106127360 cpu:              61.3 elap:               2.2
 (Enter /sw/contrib/gaussian/g16/B01/g16/l9999.exe)
 1\1\GINC-N2398\SP\RMP2-FC\Gen\H2I1O1(1-)\CGAVINH\19-Oct-2021\0\\#p pop
 =NBO SP NoSymm mp2/gen Pseudo=read density=current\\title\\-1,1\O\X,1,
 10.\H,1,0.9609077,2,90.\I,1,3.50850362,2,90.,3,101.85830594,0\H,1,0.97
 516,2,60.,3,101.85830594,0\\Version=ES64L-G16RevB.01\HF=-370.812384\MP
 2=-371.3077563\RMSD=2.855e-09\Dipole=0.7500083,0.920871,0.1742489\Quad
 rupole=12.9925454,-26.1306121,13.1380666,-7.7262799,-0.0910181,-0.0883
 823\PG=C01 [X(H2I1O1)]\\@


 You can't act like a skunk without someone's getting wind of it.
 -- Lorene Workman
 Job cpu time:       0 days  0 hours  4 minutes 54.9 seconds.
 Elapsed time:       0 days  0 hours  0 minutes 17.8 seconds.
 File lengths (MBytes):  RWF=     16 Int=      0 D2E=      0 Chk=      8 Scr=      1
 Normal termination of Gaussian 16 at Tue Oct 19 17:07:49 2021.
