 Entering Gaussian System, Link 0=g16
 Input=ihod_oop_45_sp.gjf
 Output=ihod_oop_45_sp.log
 Initial command:
 /sw/contrib/gaussian/g16/B01/g16/l1.exe "/scr/Gau-238836.inp" -scrdir="/scr/"
 Entering Link 1 = /sw/contrib/gaussian/g16/B01/g16/l1.exe PID=    238837.
  
 Copyright (c) 1988-2017, Gaussian, Inc.  All Rights Reserved.
  
 This is part of the Gaussian(R) 16 program.  It is based on
 the Gaussian(R) 09 system (copyright 2009, Gaussian, Inc.),
 the Gaussian(R) 03 system (copyright 2003, Gaussian, Inc.),
 the Gaussian(R) 98 system (copyright 1998, Gaussian, Inc.),
 the Gaussian(R) 94 system (copyright 1995, Gaussian, Inc.),
 the Gaussian 92(TM) system (copyright 1992, Gaussian, Inc.),
 the Gaussian 90(TM) system (copyright 1990, Gaussian, Inc.),
 the Gaussian 88(TM) system (copyright 1988, Gaussian, Inc.),
 the Gaussian 86(TM) system (copyright 1986, Carnegie Mellon
 University), and the Gaussian 82(TM) system (copyright 1983,
 Carnegie Mellon University). Gaussian is a federally registered
 trademark of Gaussian, Inc.
  
 This software contains proprietary and confidential information,
 including trade secrets, belonging to Gaussian, Inc.
  
 This software is provided under written license and may be
 used, copied, transmitted, or stored only in accord with that
 written license.
  
 The following legend is applicable only to US Government
 contracts under FAR:
  
                    RESTRICTED RIGHTS LEGEND
  
 Use, reproduction and disclosure by the US Government is
 subject to restrictions as set forth in subparagraphs (a)
 and (c) of the Commercial Computer Software - Restricted
 Rights clause in FAR 52.227-19.
  
 Gaussian, Inc.
 340 Quinnipiac St., Bldg. 40, Wallingford CT 06492
  
  
 ---------------------------------------------------------------
 Warning -- This program may not be used in any manner that
 competes with the business of Gaussian, Inc. or will provide
 assistance to any competitor of Gaussian, Inc.  The licensee
 of this program is prohibited from giving any competitor of
 Gaussian, Inc. access to this program.  By using this program,
 the user acknowledges that Gaussian, Inc. is engaged in the
 business of creating and licensing software in the field of
 computational chemistry and represents and warrants to the
 licensee that it is not a competitor of Gaussian, Inc. and that
 it will not use this program in any manner prohibited above.
 ---------------------------------------------------------------
  

 Cite this work as:
 Gaussian 16, Revision B.01,
 M. J. Frisch, G. W. Trucks, H. B. Schlegel, G. E. Scuseria, 
 M. A. Robb, J. R. Cheeseman, G. Scalmani, V. Barone, 
 G. A. Petersson, H. Nakatsuji, X. Li, M. Caricato, A. V. Marenich, 
 J. Bloino, B. G. Janesko, R. Gomperts, B. Mennucci, H. P. Hratchian, 
 J. V. Ortiz, A. F. Izmaylov, J. L. Sonnenberg, D. Williams-Young, 
 F. Ding, F. Lipparini, F. Egidi, J. Goings, B. Peng, A. Petrone, 
 T. Henderson, D. Ranasinghe, V. G. Zakrzewski, J. Gao, N. Rega, 
 G. Zheng, W. Liang, M. Hada, M. Ehara, K. Toyota, R. Fukuda, 
 J. Hasegawa, M. Ishida, T. Nakajima, Y. Honda, O. Kitao, H. Nakai, 
 T. Vreven, K. Throssell, J. A. Montgomery, Jr., J. E. Peralta, 
 F. Ogliaro, M. J. Bearpark, J. J. Heyd, E. N. Brothers, K. N. Kudin, 
 V. N. Staroverov, T. A. Keith, R. Kobayashi, J. Normand, 
 K. Raghavachari, A. P. Rendell, J. C. Burant, S. S. Iyengar, 
 J. Tomasi, M. Cossi, J. M. Millam, M. Klene, C. Adamo, R. Cammi, 
 J. W. Ochterski, R. L. Martin, K. Morokuma, O. Farkas, 
 J. B. Foresman, and D. J. Fox, Gaussian, Inc., Wallingford CT, 2016.
 
 ******************************************
 Gaussian 16:  ES64L-G16RevB.01 20-Dec-2017
                19-Oct-2021 
 ******************************************
 %nproc=28
 Will use up to   28 processors via shared memory.
 %mem=120GB
 %chk=/gscratch/ilahie/mccoygrp/coire_hocl/oop_s_rOH_opt/ihod/ihod_oop_45.chk
 --------------------------------------------------------
 #p pop=NBO SP NoSymm mp2/gen Pseudo=read density=current
 --------------------------------------------------------
 1/30=1,38=1,172=1/1;
 2/12=2,15=1,17=6,18=5,40=1/2;
 3/5=7,11=9,16=1,17=8,25=1,30=1,71=1/1,2,3;
 4//1;
 5/5=2,38=5/2;
 8/6=4,10=1/1;
 9/15=1,16=-3/6;
 10/5=1,13=10,31=1/2;
 6/7=2,8=2,9=2,10=2,22=-1,40=1/1,7;
 99/5=1,9=1/99;
 Leave Link    1 at Tue Oct 19 17:08:25 2021, MaxMem= 16106127360 cpu:               1.8 elap:               0.1
 (Enter /sw/contrib/gaussian/g16/B01/g16/l101.exe)
 -----
 title
 -----
 Symbolic Z-matrix:
 Charge = -1 Multiplicity = 1
 O
 X                    1     10. 
 H(iso=2)             1    r1       2     90. 
 I                    1    r2       2     90.      3    a1       0
 H                    1    r3       2    oop      3    a1       0
       Variables:
  r1                    0.96091                  
  r2                    3.5085                   
  r3                    0.97059                  
  a1                  101.85831                  
  OOP                  45.                       
 
 ITRead=  0  0  0  0
 MicOpt= -1 -1 -1 -1
 NAtoms=      4 NQM=        4 NQMF=       0 NMMI=      0 NMMIF=      0
                NMic=       0 NMicF=      0.
                    Isotopes and Nuclear Properties:
 (Nuclear quadrupole moments (NQMom) in fm**2, nuclear magnetic moments (NMagM)
  in nuclear magnetons)

  Atom         1           2           3           4
 IAtWgt=          16           2         127           1
 AtmWgt=  15.9949146   2.0141018 126.9004000   1.0078250
 NucSpn=           0           2           5           1
 AtZEff=  -0.0000000  -0.0000000  -0.0000000  -0.0000000
 NQMom=    0.0000000   0.2860000 -71.0000000   0.0000000
 NMagM=    0.0000000   0.8574380   2.8132800   2.7928460
 AtZNuc=   8.0000000   1.0000000  53.0000000   1.0000000
 Leave Link  101 at Tue Oct 19 17:08:25 2021, MaxMem= 16106127360 cpu:               4.0 elap:               0.2
 (Enter /sw/contrib/gaussian/g16/B01/g16/l202.exe)
                          Input orientation:                          
 ---------------------------------------------------------------------
 Center     Atomic      Atomic             Coordinates (Angstroms)
 Number     Number       Type             X           Y           Z
 ---------------------------------------------------------------------
      1          8           0        0.000000    0.000000    0.000000
      2          1           0        0.960908    0.000000    0.000000
      3         53           0       -0.720970   -3.433628    0.000000
      4          1           0       -0.141031   -0.671664    0.686311
 ---------------------------------------------------------------------
                    Distance matrix (angstroms):
                    1          2          3          4
     1  O    0.000000
     2  H    0.960908   0.000000
     3  I    3.508504   3.823416   0.000000
     4  H    0.970590   1.461651   2.904444   0.000000
 Symmetry turned off by external request.
 Stoichiometry    H2IO(1-)
 Framework group  C1[X(H2IO)]
 Deg. of freedom     6
 Full point group                 C1      NOp   1
 Rotational constants (GHZ):         249.4521766           2.4895838           2.4759733
 Leave Link  202 at Tue Oct 19 17:08:25 2021, MaxMem= 16106127360 cpu:               2.1 elap:               0.1
 (Enter /sw/contrib/gaussian/g16/B01/g16/l301.exe)
 General basis read from cards:  (5D, 7F)
 Centers:       2      4      1      2      4
 aug-cc-pVTZ
 ****
 Centers:       3
 S 11 1.00
     Exponent=  5.5465000000D+03 Coefficients=  1.5600000000D-04
     Exponent=  8.3821400000D+02 Coefficients=  9.8600000000D-04
     Exponent=  1.8218700000D+02 Coefficients=  2.7920000000D-03
     Exponent=  3.1212300000D+01 Coefficients= -4.3251000000D-02
     Exponent=  1.9531400000D+01 Coefficients=  2.3413400000D-01
     Exponent=  8.2409900000D+00 Coefficients= -7.5094300000D-01
     Exponent=  2.1945500000D+00 Coefficients=  8.8296800000D-01
     Exponent=  1.1091100000D+00 Coefficients=  4.6206100000D-01
     Exponent=  3.7464100000D-01 Coefficients=  2.2286000000D-02
     Exponent=  1.7708000000D-01 Coefficients= -4.3530000000D-03
     Exponent=  8.1061000000D-02 Coefficients=  1.1020000000D-03
 S 11 1.00
     Exponent=  5.5465000000D+03 Coefficients= -7.3000000000D-05
     Exponent=  8.3821400000D+02 Coefficients= -5.0800000000D-04
     Exponent=  1.8218700000D+02 Coefficients= -1.1580000000D-03
     Exponent=  3.1212300000D+01 Coefficients=  1.2193000000D-02
     Exponent=  1.9531400000D+01 Coefficients= -8.7854000000D-02
     Exponent=  8.2409900000D+00 Coefficients=  3.3820000000D-01
     Exponent=  2.1945500000D+00 Coefficients= -5.7655000000D-01
     Exponent=  1.1091100000D+00 Coefficients= -4.0929800000D-01
     Exponent=  3.7464100000D-01 Coefficients=  5.6745900000D-01
     Exponent=  1.7708000000D-01 Coefficients=  6.1248900000D-01
     Exponent=  8.1061000000D-02 Coefficients=  1.4323100000D-01
 S 1 1.00
     Exponent=  3.7464100000D-01 Coefficients=  1.0000000000D+00
 S 1 1.00
     Exponent=  1.7708000000D-01 Coefficients=  1.0000000000D+00
 S 1 1.00
     Exponent=  1.0010000000D-01 Coefficients=  1.0000000000D+00
 S 1 1.00
     Exponent=  4.1200000000D-02 Coefficients=  1.0000000000D+00
 P 9 1.00
     Exponent=  1.8898800000D+02 Coefficients=  5.8500000000D-04
     Exponent=  2.1286800000D+01 Coefficients=  3.6923000000D-02
     Exponent=  1.0039600000D+01 Coefficients= -2.3532400000D-01
     Exponent=  3.4518000000D+00 Coefficients=  3.4148300000D-01
     Exponent=  1.9745600000D+00 Coefficients=  5.3478800000D-01
     Exponent=  1.0242000000D+00 Coefficients=  2.6514100000D-01
     Exponent=  4.4943700000D-01 Coefficients=  2.5787000000D-02
     Exponent=  1.8664800000D-01 Coefficients=  5.2200000000D-04
     Exponent=  7.3481000000D-02 Coefficients=  6.0600000000D-04
 P 9 1.00
     Exponent=  1.8898800000D+02 Coefficients= -2.5600000000D-04
     Exponent=  2.1286800000D+01 Coefficients= -1.1682000000D-02
     Exponent=  1.0039600000D+01 Coefficients=  8.3192000000D-02
     Exponent=  3.4518000000D+00 Coefficients= -1.5697000000D-01
     Exponent=  1.9745600000D+00 Coefficients= -2.2451800000D-01
     Exponent=  1.0242000000D+00 Coefficients= -1.1445100000D-01
     Exponent=  4.4943700000D-01 Coefficients=  3.7535600000D-01
     Exponent=  1.8664800000D-01 Coefficients=  5.7513600000D-01
     Exponent=  7.3481000000D-02 Coefficients=  2.4591700000D-01
 P 1 1.00
     Exponent=  5.9810000000D-01 Coefficients=  1.0000000000D+00
 P 1 1.00
     Exponent=  9.6180000000D-02 Coefficients=  1.0000000000D+00
 P 1 1.00
     Exponent=  3.5900000000D-02 Coefficients=  1.0000000000D+00
 D 9 1.00
     Exponent=  1.3266200000D+02 Coefficients=  5.7200000000D-04
     Exponent=  3.7605400000D+01 Coefficients=  4.4020000000D-03
     Exponent=  1.0389100000D+01 Coefficients= -4.0922000000D-02
     Exponent=  6.4901700000D+00 Coefficients=  9.9661000000D-02
     Exponent=  3.4545100000D+00 Coefficients=  3.2266300000D-01
     Exponent=  1.8441300000D+00 Coefficients=  4.0034300000D-01
     Exponent=  9.6247800000D-01 Coefficients=  2.6830600000D-01
     Exponent=  4.7285300000D-01 Coefficients=  8.4847000000D-02
     Exponent=  1.9320000000D-01 Coefficients=  7.6320000000D-03
 D 1 1.00
     Exponent=  4.7285300000D-01 Coefficients=  1.0000000000D+00
 D 1 1.00
     Exponent=  1.9320000000D-01 Coefficients=  1.0000000000D+00
 D 1 1.00
     Exponent=  7.8200000000D-02 Coefficients=  1.0000000000D+00
 F 1 1.00
     Exponent=  4.0640000000D-01 Coefficients=  1.0000000000D+00
 F 1 1.00
     Exponent=  1.8480000000D-01 Coefficients=  1.0000000000D+00
 ****
 ======================================================================================================
                                       Pseudopotential Parameters
 ======================================================================================================
  Center     Atomic      Valence      Angular      Power
  Number     Number     Electrons     Momentum     of R      Exponent        Coefficient   SO-Coeffient
 ======================================================================================================
    1          8
                                   No pseudopotential on this center.
    2          1
                                   No pseudopotential on this center.
    3         53           25
                                      G and up 
                                                     2        1.0000000        0.00000000    0.00000000
                                      S - G
                                                     2       40.0333760       49.98964900    0.00000000
                                                     2       17.3005760      281.00655600    0.00000000
                                                     2        8.8517200       61.41673900    0.00000000
                                      P - G
                                                     2       15.7201410       67.41623900    0.00000000
                                                     2       15.2082220      134.80769600    0.00000000
                                                     2        8.2941860       14.56654800    0.00000000
                                                     2        7.7539490       28.96842200    0.00000000
                                      D - G
                                                     2       13.8177510       35.53875600    0.00000000
                                                     2       13.5878050       53.33975900    0.00000000
                                                     2        6.9476300        9.71646600    0.00000000
                                                     2        6.9600990       14.97750000    0.00000000
                                      F - G
                                                     2       18.5229500      -20.17661800    0.00000000
                                                     2       18.2510350      -26.08807700    0.00000000
                                                     2        7.5579010       -0.22043400    0.00000000
                                                     2        7.5974040       -0.22164600    0.00000000
    4          1
                                   No pseudopotential on this center.
 ======================================================================================================
 Ernie: Thresh=  0.10000D-02 Tol=  0.10000D-05 Strict=F.
 Ernie:  16 primitive shells out of 135 were deleted.
   191 basis functions,   344 primitive gaussians,   218 cartesian basis functions
    18 alpha electrons       18 beta electrons
       nuclear repulsion energy        47.3097877229 Hartrees.
 IExCor=    0 DFT=F Ex=HF Corr=None ExCW=0 ScaHFX=  1.000000
 ScaDFX=  1.000000  1.000000  1.000000  1.000000 ScalE2=  1.000000  1.000000
 IRadAn=      5 IRanWt=     -1 IRanGd=            0 ICorTp=0 IEmpDi=  4
 NAtoms=    4 NActive=    4 NUniq=    4 SFac= 1.00D+00 NAtFMM=   60 NAOKFM=F Big=F
 Integral buffers will be    131072 words long.
 Raffenetti 1 integral format.
 Two-electron integral symmetry is turned off.
 Leave Link  301 at Tue Oct 19 17:08:25 2021, MaxMem= 16106127360 cpu:               2.3 elap:               0.1
 (Enter /sw/contrib/gaussian/g16/B01/g16/l302.exe)
 NPDir=0 NMtPBC=     1 NCelOv=     1 NCel=       1 NClECP=     1 NCelD=      1
         NCelK=      1 NCelE2=     1 NClLst=     1 CellRange=     0.0.
 One-electron integrals computed using PRISM.
   1 Symmetry operations used in ECPInt.
 ECPInt:  NShTT=    2145 NPrTT=    7341 LenC2=    2146 LenP2D=    6682.
 LDataN:  DoStor=T MaxTD1= 7 Len=  274
 NBasis=   191 RedAO= T EigKep=  4.26D-04  NBF=   191
 NBsUse=   147 1.00D-06 EigRej=  8.93D-16 NBFU=   147
 Leave Link  302 at Tue Oct 19 17:08:26 2021, MaxMem= 16106127360 cpu:               6.0 elap:               0.2
 (Enter /sw/contrib/gaussian/g16/B01/g16/l303.exe)
 DipDrv:  MaxL=1.
 Leave Link  303 at Tue Oct 19 17:08:26 2021, MaxMem= 16106127360 cpu:               1.4 elap:               0.1
 (Enter /sw/contrib/gaussian/g16/B01/g16/l401.exe)
 ExpMin= 2.53D-02 ExpMax= 1.53D+04 ExpMxC= 5.22D+02 IAcc=3 IRadAn=         5 AccDes= 0.00D+00
 Harris functional with IExCor=  205 and IRadAn=       5 diagonalized for initial guess.
 HarFok:  IExCor=  205 AccDes= 0.00D+00 IRadAn=         5 IDoV= 1 UseB2=F ITyADJ=14
 ICtDFT=  3500011 ScaDFX=  1.000000  1.000000  1.000000  1.000000
 Defaulting to unpruned grid for atomic number  53.
 FoFCou: FMM=F IPFlag=           0 FMFlag=      100000 FMFlg1=           0
         NFxFlg=           0 DoJE=T BraDBF=F KetDBF=T FulRan=T
         wScrn=  0.000000 ICntrl=       500 IOpCl=  0 I1Cent=   200000004 NGrid=           0
         NMat0=    1 NMatS0=      1 NMatT0=    0 NMatD0=    1 NMtDS0=    0 NMtDT0=    0
 Symmetry not used in FoFCou.
 Harris En= -372.675557041204    
 JPrj=0 DoOrth=F DoCkMO=F.
 Leave Link  401 at Tue Oct 19 17:08:26 2021, MaxMem= 16106127360 cpu:               7.2 elap:               0.3
 (Enter /sw/contrib/gaussian/g16/B01/g16/l502.exe)
 Keep R1 ints in memory in canonical form, NReq=226100122.
 FoFCou: FMM=F IPFlag=           0 FMFlag=           0 FMFlg1=           0
         NFxFlg=           0 DoJE=F BraDBF=F KetDBF=F FulRan=T
         wScrn=  0.000000 ICntrl=       600 IOpCl=  0 I1Cent=           0 NGrid=           0
         NMat0=    1 NMatS0=  18336 NMatT0=    0 NMatD0=    1 NMtDS0=    0 NMtDT0=    0
 Symmetry not used in FoFCou.
 Two-electron integral symmetry not used.
 Closed shell SCF:
 Using DIIS extrapolation, IDIIS=  1040.
 NGot= 16106127360 LenX= 15937911228 LenY= 15937863263
 Requested convergence on RMS density matrix=1.00D-08 within 128 cycles.
 Requested convergence on MAX density matrix=1.00D-06.
 Requested convergence on             energy=1.00D-06.
 No special actions if energy rises.

 Cycle   1  Pass 1  IDiag  1:
 E= -370.647407391502    
 DIIS: error= 3.78D-02 at cycle   1 NSaved=   1.
 NSaved= 1 IEnMin= 1 EnMin= -370.647407391502     IErMin= 1 ErrMin= 3.78D-02
 ErrMax= 3.78D-02  0.00D+00 EMaxC= 1.00D-01 BMatC= 3.64D-01 BMatP= 3.64D-01
 IDIUse=3 WtCom= 6.22D-01 WtEn= 3.78D-01
 Coeff-Com:  0.100D+01
 Coeff-En:   0.100D+01
 Coeff:      0.100D+01
 Gap=     0.369 Goal=   None    Shift=    0.000
 GapD=    0.369 DampG=1.000 DampE=0.500 DampFc=0.5000 IDamp=-1.
 Damping current iteration by 5.00D-01
 RMSDP=3.24D-03 MaxDP=9.52D-02              OVMax= 1.23D-01

 Cycle   2  Pass 1  IDiag  1:
 E= -370.730838405960     Delta-E=       -0.083431014458 Rises=F Damp=T
 DIIS: error= 1.34D-02 at cycle   2 NSaved=   2.
 NSaved= 2 IEnMin= 2 EnMin= -370.730838405960     IErMin= 2 ErrMin= 1.34D-02
 ErrMax= 1.34D-02  0.00D+00 EMaxC= 1.00D-01 BMatC= 5.73D-02 BMatP= 3.64D-01
 IDIUse=3 WtCom= 8.66D-01 WtEn= 1.34D-01
 Coeff-Com: -0.460D+00 0.146D+01
 Coeff-En:   0.000D+00 0.100D+01
 Coeff:     -0.398D+00 0.140D+01
 Gap=     0.249 Goal=   None    Shift=    0.000
 RMSDP=1.56D-03 MaxDP=7.66D-02 DE=-8.34D-02 OVMax= 6.44D-02

 Cycle   3  Pass 1  IDiag  1:
 E= -370.805981990020     Delta-E=       -0.075143584060 Rises=F Damp=F
 DIIS: error= 4.42D-03 at cycle   3 NSaved=   3.
 NSaved= 3 IEnMin= 3 EnMin= -370.805981990020     IErMin= 3 ErrMin= 4.42D-03
 ErrMax= 4.42D-03  0.00D+00 EMaxC= 1.00D-01 BMatC= 2.29D-03 BMatP= 5.73D-02
 IDIUse=3 WtCom= 9.56D-01 WtEn= 4.42D-02
 Coeff-Com: -0.140D+00 0.283D+00 0.857D+00
 Coeff-En:   0.000D+00 0.000D+00 0.100D+01
 Coeff:     -0.134D+00 0.270D+00 0.864D+00
 Gap=     0.261 Goal=   None    Shift=    0.000
 RMSDP=3.71D-04 MaxDP=1.58D-02 DE=-7.51D-02 OVMax= 1.17D-02

 Cycle   4  Pass 1  IDiag  1:
 E= -370.807511290506     Delta-E=       -0.001529300487 Rises=F Damp=F
 DIIS: error= 7.13D-04 at cycle   4 NSaved=   4.
 NSaved= 4 IEnMin= 4 EnMin= -370.807511290506     IErMin= 4 ErrMin= 7.13D-04
 ErrMax= 7.13D-04  0.00D+00 EMaxC= 1.00D-01 BMatC= 4.98D-05 BMatP= 2.29D-03
 IDIUse=3 WtCom= 9.93D-01 WtEn= 7.13D-03
 Coeff-Com:  0.432D-02-0.222D-01 0.706D-01 0.947D+00
 Coeff-En:   0.000D+00 0.000D+00 0.000D+00 0.100D+01
 Coeff:      0.429D-02-0.221D-01 0.701D-01 0.948D+00
 Gap=     0.264 Goal=   None    Shift=    0.000
 RMSDP=1.02D-04 MaxDP=6.02D-03 DE=-1.53D-03 OVMax= 2.45D-03

 Cycle   5  Pass 1  IDiag  1:
 E= -370.807566638180     Delta-E=       -0.000055347674 Rises=F Damp=F
 DIIS: error= 1.30D-04 at cycle   5 NSaved=   5.
 NSaved= 5 IEnMin= 5 EnMin= -370.807566638180     IErMin= 5 ErrMin= 1.30D-04
 ErrMax= 1.30D-04  0.00D+00 EMaxC= 1.00D-01 BMatC= 4.11D-06 BMatP= 4.98D-05
 IDIUse=3 WtCom= 9.99D-01 WtEn= 1.30D-03
 Coeff-Com:  0.100D-01-0.179D-01-0.603D-01 0.180D-01 0.105D+01
 Coeff-En:   0.000D+00 0.000D+00 0.000D+00 0.000D+00 0.100D+01
 Coeff:      0.100D-01-0.179D-01-0.603D-01 0.180D-01 0.105D+01
 Gap=     0.263 Goal=   None    Shift=    0.000
 RMSDP=3.83D-05 MaxDP=1.53D-03 DE=-5.53D-05 OVMax= 1.05D-03

 Cycle   6  Pass 1  IDiag  1:
 E= -370.807574573286     Delta-E=       -0.000007935106 Rises=F Damp=F
 DIIS: error= 5.87D-05 at cycle   6 NSaved=   6.
 NSaved= 6 IEnMin= 6 EnMin= -370.807574573286     IErMin= 6 ErrMin= 5.87D-05
 ErrMax= 5.87D-05  0.00D+00 EMaxC= 1.00D-01 BMatC= 3.21D-07 BMatP= 4.11D-06
 IDIUse=1 WtCom= 1.00D+00 WtEn= 0.00D+00
 Coeff-Com: -0.352D-02 0.722D-02 0.116D-01-0.979D-01-0.194D+00 0.128D+01
 Coeff:     -0.352D-02 0.722D-02 0.116D-01-0.979D-01-0.194D+00 0.128D+01
 Gap=     0.263 Goal=   None    Shift=    0.000
 RMSDP=1.02D-05 MaxDP=6.10D-04 DE=-7.94D-06 OVMax= 4.68D-04

 Cycle   7  Pass 1  IDiag  1:
 E= -370.807575508671     Delta-E=       -0.000000935385 Rises=F Damp=F
 DIIS: error= 1.07D-05 at cycle   7 NSaved=   7.
 NSaved= 7 IEnMin= 7 EnMin= -370.807575508671     IErMin= 7 ErrMin= 1.07D-05
 ErrMax= 1.07D-05  0.00D+00 EMaxC= 1.00D-01 BMatC= 1.02D-08 BMatP= 3.21D-07
 IDIUse=1 WtCom= 1.00D+00 WtEn= 0.00D+00
 Coeff-Com:  0.372D-03-0.872D-03-0.118D-04 0.231D-01-0.167D-01-0.273D+00
 Coeff-Com:  0.127D+01
 Coeff:      0.372D-03-0.872D-03-0.118D-04 0.231D-01-0.167D-01-0.273D+00
 Coeff:      0.127D+01
 Gap=     0.263 Goal=   None    Shift=    0.000
 RMSDP=2.34D-06 MaxDP=1.08D-04 DE=-9.35D-07 OVMax= 1.06D-04

 Cycle   8  Pass 1  IDiag  1:
 E= -370.807575544184     Delta-E=       -0.000000035512 Rises=F Damp=F
 DIIS: error= 1.47D-06 at cycle   8 NSaved=   8.
 NSaved= 8 IEnMin= 8 EnMin= -370.807575544184     IErMin= 8 ErrMin= 1.47D-06
 ErrMax= 1.47D-06  0.00D+00 EMaxC= 1.00D-01 BMatC= 3.76D-10 BMatP= 1.02D-08
 IDIUse=1 WtCom= 1.00D+00 WtEn= 0.00D+00
 Coeff-Com:  0.130D-03-0.262D-03-0.444D-03 0.337D-02 0.845D-02-0.412D-01
 Coeff-Com: -0.374D-01 0.107D+01
 Coeff:      0.130D-03-0.262D-03-0.444D-03 0.337D-02 0.845D-02-0.412D-01
 Coeff:     -0.374D-01 0.107D+01
 Gap=     0.263 Goal=   None    Shift=    0.000
 RMSDP=4.97D-07 MaxDP=2.87D-05 DE=-3.55D-08 OVMax= 1.64D-05

 Cycle   9  Pass 1  IDiag  1:
 E= -370.807575545274     Delta-E=       -0.000000001091 Rises=F Damp=F
 DIIS: error= 4.30D-07 at cycle   9 NSaved=   9.
 NSaved= 9 IEnMin= 9 EnMin= -370.807575545274     IErMin= 9 ErrMin= 4.30D-07
 ErrMax= 4.30D-07  0.00D+00 EMaxC= 1.00D-01 BMatC= 3.76D-11 BMatP= 3.76D-10
 IDIUse=1 WtCom= 1.00D+00 WtEn= 0.00D+00
 Coeff-Com: -0.335D-04 0.781D-04-0.281D-05-0.197D-02 0.146D-02 0.220D-01
 Coeff-Com: -0.966D-01-0.785D-01 0.115D+01
 Coeff:     -0.335D-04 0.781D-04-0.281D-05-0.197D-02 0.146D-02 0.220D-01
 Coeff:     -0.966D-01-0.785D-01 0.115D+01
 Gap=     0.263 Goal=   None    Shift=    0.000
 RMSDP=1.41D-07 MaxDP=7.04D-06 DE=-1.09D-09 OVMax= 6.50D-06

 Cycle  10  Pass 1  IDiag  1:
 E= -370.807575545390     Delta-E=       -0.000000000116 Rises=F Damp=F
 DIIS: error= 8.73D-08 at cycle  10 NSaved=  10.
 NSaved=10 IEnMin=10 EnMin= -370.807575545390     IErMin=10 ErrMin= 8.73D-08
 ErrMax= 8.73D-08  0.00D+00 EMaxC= 1.00D-01 BMatC= 2.39D-12 BMatP= 3.76D-11
 IDIUse=1 WtCom= 1.00D+00 WtEn= 0.00D+00
 Coeff-Com: -0.872D-05 0.170D-04 0.289D-04-0.208D-03-0.635D-03 0.257D-02
 Coeff-Com:  0.448D-02-0.762D-01 0.158D-01 0.105D+01
 Coeff:     -0.872D-05 0.170D-04 0.289D-04-0.208D-03-0.635D-03 0.257D-02
 Coeff:      0.448D-02-0.762D-01 0.158D-01 0.105D+01
 Gap=     0.263 Goal=   None    Shift=    0.000
 RMSDP=2.87D-08 MaxDP=8.56D-07 DE=-1.16D-10 OVMax= 1.29D-06

 Cycle  11  Pass 1  IDiag  1:
 E= -370.807575545396     Delta-E=       -0.000000000006 Rises=F Damp=F
 DIIS: error= 2.62D-08 at cycle  11 NSaved=  11.
 NSaved=11 IEnMin=11 EnMin= -370.807575545396     IErMin=11 ErrMin= 2.62D-08
 ErrMax= 2.62D-08  0.00D+00 EMaxC= 1.00D-01 BMatC= 1.64D-13 BMatP= 2.39D-12
 IDIUse=1 WtCom= 1.00D+00 WtEn= 0.00D+00
 Coeff-Com:  0.364D-05-0.808D-05-0.290D-05 0.173D-03-0.335D-04-0.184D-02
 Coeff-Com:  0.572D-02 0.164D-01-0.840D-01-0.176D+00 0.124D+01
 Coeff:      0.364D-05-0.808D-05-0.290D-05 0.173D-03-0.335D-04-0.184D-02
 Coeff:      0.572D-02 0.164D-01-0.840D-01-0.176D+00 0.124D+01
 Gap=     0.263 Goal=   None    Shift=    0.000
 RMSDP=1.28D-08 MaxDP=7.76D-07 DE=-6.03D-12 OVMax= 5.04D-07

 Cycle  12  Pass 1  IDiag  1:
 E= -370.807575545400     Delta-E=       -0.000000000004 Rises=F Damp=F
 DIIS: error= 5.59D-09 at cycle  12 NSaved=  12.
 NSaved=12 IEnMin=12 EnMin= -370.807575545400     IErMin=12 ErrMin= 5.59D-09
 ErrMax= 5.59D-09  0.00D+00 EMaxC= 1.00D-01 BMatC= 7.92D-15 BMatP= 1.64D-13
 IDIUse=1 WtCom= 1.00D+00 WtEn= 0.00D+00
 Coeff-Com: -0.669D-06 0.164D-05-0.404D-06-0.437D-04 0.474D-04 0.417D-03
 Coeff-Com: -0.186D-02-0.119D-02 0.253D-01-0.828D-03-0.358D+00 0.134D+01
 Coeff:     -0.669D-06 0.164D-05-0.404D-06-0.437D-04 0.474D-04 0.417D-03
 Coeff:     -0.186D-02-0.119D-02 0.253D-01-0.828D-03-0.358D+00 0.134D+01
 Gap=     0.263 Goal=   None    Shift=    0.000
 RMSDP=2.71D-09 MaxDP=1.61D-07 DE=-4.15D-12 OVMax= 8.13D-08

 SCF Done:  E(RHF) =  -370.807575545     A.U. after   12 cycles
            NFock= 12  Conv=0.27D-08     -V/T= 2.9845
 KE= 1.868506571311D+02 PE=-9.083958224639D+02 EE= 3.034278020645D+02
 Leave Link  502 at Tue Oct 19 17:08:30 2021, MaxMem= 16106127360 cpu:              33.9 elap:               4.4
 (Enter /sw/contrib/gaussian/g16/B01/g16/l801.exe)
 ExpMin= 2.53D-02 ExpMax= 1.53D+04 ExpMxC= 5.22D+02 IAcc=3 IRadAn=         5 AccDes= 0.00D+00
 HarFok:  IExCor=  205 AccDes= 0.00D+00 IRadAn=         5 IDoV=-2 UseB2=F ITyADJ=14
 ICtDFT= 12500011 ScaDFX=  1.000000  1.000000  1.000000  1.000000
 Defaulting to unpruned grid for atomic number  53.
 Largest valence mixing into a core orbital is  1.30D-04
 Largest core mixing into a valence orbital is  2.12D-05
 Range of M.O.s used for correlation:     6   147
 NBasis=   191 NAE=    18 NBE=    18 NFC=     5 NFV=     0
 NROrb=    142 NOA=    13 NOB=    13 NVA=   129 NVB=   129

 **** Warning!!: The largest alpha MO coefficient is  0.11990224D+02

 Leave Link  801 at Tue Oct 19 17:08:30 2021, MaxMem= 16106127360 cpu:               1.4 elap:               0.1
 (Enter /sw/contrib/gaussian/g16/B01/g16/l906.exe)
 Frozen-core derivative calculation, NFC=   5 NFV=   0.
 FulOut=F Deriv=T AODrv=F NAtomX=     4
   MMem=         107  MDisk=          13 MDiskD=          13
  W3Min=      576828 MinDsk=     1313419 NBas6D=         218
 NBas2D=       24339    NTT=       23871    LW2=    26219120
    MDV= 16105788557 MDiskM=      369352 NBas2p=       24339
 Fully in-core method, ICMem=   673638917.
 IMap=   1   2   3   4   5   6   7   8   9  10  11  12  13  14  15  16  17  18
 JobTyp=1 Pass  1 fully in-core, NPsUse= 28.
 Compute canonical integrals.
 FoFCou: FMM=F IPFlag=           0 FMFlag=           0 FMFlg1=           0
         NFxFlg=           0 DoJE=F BraDBF=F KetDBF=F FulRan=T
         wScrn=  0.000000 ICntrl=       600 IOpCl=  1 I1Cent=           0 NGrid=           0
         NMat0=    1 NMatS0=  24339 NMatT0=    0 NMatD0=    1 NMtDS0=    0 NMtDT0=    0
 Symmetry not used in FoFCou.
 Spin components of T(2) and E(2):
     alpha-alpha T2 =       0.2151863079D-01 E2=     -0.6690759362D-01
     alpha-beta  T2 =       0.1130482670D+00 E2=     -0.3605385319D+00
     beta-beta   T2 =       0.2151863079D-01 E2=     -0.6690759362D-01
 The integrals were generated   1 times.
 ANorm=    0.1075214178D+01
 E2 =    -0.4943537191D+00 EUMP2 =    -0.37130192926452D+03
 Leave Link  906 at Tue Oct 19 17:08:35 2021, MaxMem= 16106127360 cpu:             132.3 elap:               4.8
 (Enter /sw/contrib/gaussian/g16/B01/g16/l1002.exe)
 Minotr:  Closed shell wavefunction.
          Computing MP2/KS-MP2 derivatives.
          Using Z-Vector for PSCF gradient.
          Skipping F1 and S1 gradient terms here.
          Frozen-core window.
          Direct CPHF calculation.
          Differentiating once with respect to electric field.
                with respect to dipole field.
          Electric field/nuclear overlap derivatives assumed to be zero.
          Requested convergence is 1.0D-10 RMS, and 1.0D-09 maximum.
          NewPWx=F KeepS1=T KeepF1=T KeepIn=T MapXYZ=F SortEE=F KeepMc=T.
 Keep R1 ints in memory in canonical form, NReq=226103822.
 FoFCou: FMM=F IPFlag=           0 FMFlag=           0 FMFlg1=           0
         NFxFlg=           0 DoJE=F BraDBF=F KetDBF=F FulRan=T
         wScrn=  0.000000 ICntrl=       600 IOpCl=  0 I1Cent=           0 NGrid=           0
         NMat0=    1 NMatS0=  18336 NMatT0=    0 NMatD0=    1 NMtDS0=    0 NMtDT0=    0
 Symmetry not used in FoFCou.
 Two-electron integral symmetry not used.
          MDV=   16106127360 using IRadAn=       5.
          Solving linear equations separately, MaxMat=       0.
          There are     1 degrees of freedom in the 1st order CPHF.  IDoFFX=0 NUNeed=     1.
 LinEq1:  Iter=  0 NonCon=     1 RMS=2.62D-03 Max=3.28D-02 NDo=     1
 AX will form     1 AO Fock derivatives at one time.
 LinEq1:  Iter=  1 NonCon=     1 RMS=4.23D-04 Max=3.92D-03 NDo=     1
 LinEq1:  Iter=  2 NonCon=     1 RMS=1.96D-04 Max=1.94D-03 NDo=     1
 LinEq1:  Iter=  3 NonCon=     1 RMS=4.43D-05 Max=5.02D-04 NDo=     1
 LinEq1:  Iter=  4 NonCon=     1 RMS=1.27D-05 Max=1.28D-04 NDo=     1
 LinEq1:  Iter=  5 NonCon=     1 RMS=3.81D-06 Max=3.52D-05 NDo=     1
 LinEq1:  Iter=  6 NonCon=     1 RMS=8.58D-07 Max=8.12D-06 NDo=     1
 LinEq1:  Iter=  7 NonCon=     1 RMS=1.84D-07 Max=1.47D-06 NDo=     1
 LinEq1:  Iter=  8 NonCon=     1 RMS=5.08D-08 Max=4.48D-07 NDo=     1
 LinEq1:  Iter=  9 NonCon=     1 RMS=1.16D-08 Max=1.24D-07 NDo=     1
 LinEq1:  Iter= 10 NonCon=     1 RMS=2.34D-09 Max=1.99D-08 NDo=     1
 LinEq1:  Iter= 11 NonCon=     1 RMS=4.13D-10 Max=4.11D-09 NDo=     1
 LinEq1:  Iter= 12 NonCon=     0 RMS=7.67D-11 Max=7.84D-10 NDo=     1
 Linear equations converged to 1.000D-10 1.000D-09 after    12 iterations.
 End of Minotr F.D. properties file   721 does not exist.
 End of Minotr F.D. properties file   722 does not exist.
 End of Minotr F.D. properties file   788 does not exist.
 Leave Link 1002 at Tue Oct 19 17:08:40 2021, MaxMem= 16106127360 cpu:              37.4 elap:               5.0
 (Enter /sw/contrib/gaussian/g16/B01/g16/l601.exe)
 Copying SCF densities to generalized density rwf, IOpCl= 0 IROHF=0.

 **********************************************************************

            Population analysis using the MP2 Density.

 **********************************************************************

 Alpha  occ. eigenvalues --  -20.41722  -7.45727  -5.28284  -5.28265  -5.28235
 Alpha  occ. eigenvalues --   -2.01028  -2.01024  -2.00993  -2.00970  -2.00963
 Alpha  occ. eigenvalues --   -1.20178  -0.61613  -0.54900  -0.44626  -0.36065
 Alpha  occ. eigenvalues --   -0.13511  -0.13281  -0.13095
 Alpha virt. eigenvalues --    0.13187   0.15970   0.23618   0.24418   0.25894
 Alpha virt. eigenvalues --    0.26505   0.26864   0.29111   0.31857   0.33591
 Alpha virt. eigenvalues --    0.35464   0.36549   0.37972   0.39318   0.40588
 Alpha virt. eigenvalues --    0.41150   0.46703   0.47982   0.51049   0.53022
 Alpha virt. eigenvalues --    0.55305   0.57828   0.62622   0.65969   0.74050
 Alpha virt. eigenvalues --    0.77709   0.78937   0.79295   0.80045   0.80319
 Alpha virt. eigenvalues --    0.80979   0.81138   0.82585   0.83814   0.86969
 Alpha virt. eigenvalues --    0.87521   0.89084   0.89109   0.90668   0.91565
 Alpha virt. eigenvalues --    0.92514   0.94552   0.96616   1.00835   1.03505
 Alpha virt. eigenvalues --    1.06960   1.09445   1.09743   1.13350   1.16635
 Alpha virt. eigenvalues --    1.20404   1.23068   1.25651   1.27489   1.32877
 Alpha virt. eigenvalues --    1.38066   1.42381   1.45197   1.53523   1.65221
 Alpha virt. eigenvalues --    1.68032   1.73403   1.76135   1.76210   1.77935
 Alpha virt. eigenvalues --    1.79186   1.80091   1.82954   1.84750   1.89169
 Alpha virt. eigenvalues --    2.01000   2.04493   2.06256   2.07111   2.09341
 Alpha virt. eigenvalues --    2.10722   2.14216   2.28102   2.30683   2.45184
 Alpha virt. eigenvalues --    2.49179   2.55670   2.59667   2.60487   2.67570
 Alpha virt. eigenvalues --    2.70664   2.85037   2.89876   2.92361   2.96065
 Alpha virt. eigenvalues --    3.08734   3.20785   3.22389   3.59503   3.85213
 Alpha virt. eigenvalues --    3.86796   4.23385   4.26173   4.34614   4.38718
 Alpha virt. eigenvalues --    4.44738   4.52289   4.55500   4.58010   4.70724
 Alpha virt. eigenvalues --    4.91876   5.02961   5.28517   5.34215   5.40069
 Alpha virt. eigenvalues --    5.45024   5.68816   5.76558   6.39195   6.66235
 Alpha virt. eigenvalues --    6.88609   7.13966   7.27783   7.35769   7.44005
 Alpha virt. eigenvalues --    7.48584   7.53336   7.55953   7.68830   7.96662
 Alpha virt. eigenvalues --    8.10978   8.98007  15.83303  59.20207
          Condensed to atoms (all electrons):
               1          2          3          4
     1  O    8.127710   0.206687  -0.056373   0.169347
     2  H    0.206687   0.580314   0.004028   0.019064
     3  I   -0.056373   0.004028  25.976388   0.038612
     4  H    0.169347   0.019064   0.038612   0.552858
 Mulliken charges:
               1
     1  O   -0.447371
     2  H    0.189907
     3  I   -0.962656
     4  H    0.220120
 Sum of Mulliken charges =  -1.00000
 Mulliken charges with hydrogens summed into heavy atoms:
               1
     1  O   -0.037344
     3  I   -0.962656
 Electronic spatial extent (au):  <R**2>=           1239.1773
 Charge=             -1.0000 electrons
 Dipole moment (field-independent basis, Debye):
    X=              4.3772    Y=             14.7763    Z=              0.6083  Tot=             15.4230
 Quadrupole moment (field-independent basis, Debye-Ang):
   XX=            -41.9742   YY=            -96.5881   ZZ=            -41.0759
   XY=            -10.8326   XZ=             -0.1664   YZ=             -0.1239
 Traceless Quadrupole moment (field-independent basis, Debye-Ang):
   XX=             17.9052   YY=            -36.7087   ZZ=             18.8035
   XY=            -10.8326   XZ=             -0.1664   YZ=             -0.1239
 Octapole moment (field-independent basis, Debye-Ang**2):
  XXX=             75.3714  YYY=            543.6331  ZZZ=             -2.1028  XYY=             62.2557
  XXY=            125.8635  XXZ=             -1.0523  XZZ=             23.8365  YZZ=            117.4779
  YYZ=             -3.7991  XYZ=             -0.6074
 Hexadecapole moment (field-independent basis, Debye-Ang**3):
 XXXX=           -185.0883 YYYY=          -3157.8987 ZZZZ=            -79.8233 XXXY=           -258.4640
 XXXZ=              0.7050 YYYX=           -384.8212 YYYZ=             15.1195 ZZZX=              0.5544
 ZZZY=              3.5596 XXYY=           -475.8258 XXZZ=            -44.3777 YYZZ=           -430.9472
 XXYZ=              1.7668 YYXZ=              2.4924 ZZXY=            -84.2419
 N-N= 4.730978772289D+01 E-N=-9.078216564226D+02  KE= 1.870405935039D+02
 No NMR shielding tensors so no spin-rotation constants.
 Leave Link  601 at Tue Oct 19 17:08:41 2021, MaxMem= 16106127360 cpu:               3.7 elap:               0.2
 (Enter /sw/contrib/gaussian/g16/B01/g16/l607.exe)
 ******************************Gaussian NBO Version 3.1******************************
             N A T U R A L   A T O M I C   O R B I T A L   A N D
          N A T U R A L   B O N D   O R B I T A L   A N A L Y S I S
 ******************************Gaussian NBO Version 3.1******************************
       /RESON  / : Allow strongly delocalized NBO set

 Analyzing the MP2 density

 Job title: title                                                           

 Storage needed:    110417 in NPA,    146568 in NBO (********** available)
 GSVD:  LWork=       13161 too small for GESVD, short by       32525 words or       32525 for optimal perf.


 NATURAL POPULATIONS:  Natural atomic orbital occupancies 
                                                          
   NAO  Atom  No  lang   Type(AO)    Occupancy
 --------------------------------------------
     1    O    1  S      Cor( 1S)     1.99992
     2    O    1  S      Val( 2S)     1.89008
     3    O    1  S      Ryd( 3S)     0.00667
     4    O    1  S      Ryd( 4S)     0.00028
     5    O    1  S      Ryd( 5S)     0.00016
     6    O    1  px     Val( 2p)     1.67504
     7    O    1  px     Ryd( 3p)     0.01219
     8    O    1  px     Ryd( 4p)     0.00061
     9    O    1  px     Ryd( 5p)     0.00009
    10    O    1  py     Val( 2p)     1.84583
    11    O    1  py     Ryd( 3p)     0.01658
    12    O    1  py     Ryd( 4p)     0.00058
    13    O    1  py     Ryd( 5p)     0.00025
    14    O    1  pz     Val( 2p)     1.83436
    15    O    1  pz     Ryd( 3p)     0.01658
    16    O    1  pz     Ryd( 4p)     0.00059
    17    O    1  pz     Ryd( 5p)     0.00012
    18    O    1  dxy    Ryd( 3d)     0.00943
    19    O    1  dxy    Ryd( 4d)     0.00075
    20    O    1  dxy    Ryd( 5d)     0.00013
    21    O    1  dxz    Ryd( 3d)     0.00994
    22    O    1  dxz    Ryd( 4d)     0.00074
    23    O    1  dxz    Ryd( 5d)     0.00011
    24    O    1  dyz    Ryd( 3d)     0.00886
    25    O    1  dyz    Ryd( 4d)     0.00055
    26    O    1  dyz    Ryd( 5d)     0.00014
    27    O    1  dx2y2  Ryd( 3d)     0.00887
    28    O    1  dx2y2  Ryd( 4d)     0.00077
    29    O    1  dx2y2  Ryd( 5d)     0.00024
    30    O    1  dz2    Ryd( 3d)     0.00884
    31    O    1  dz2    Ryd( 4d)     0.00057
    32    O    1  dz2    Ryd( 5d)     0.00017
    33    O    1  f(0)   Ryd( 4f)     0.00056
    34    O    1  f(0)   Ryd( 5f)     0.00011
    35    O    1  f(C1)  Ryd( 4f)     0.00043
    36    O    1  f(C1)  Ryd( 5f)     0.00009
    37    O    1  f(S1)  Ryd( 4f)     0.00061
    38    O    1  f(S1)  Ryd( 5f)     0.00011
    39    O    1  f(C2)  Ryd( 4f)     0.00069
    40    O    1  f(C2)  Ryd( 5f)     0.00014
    41    O    1  f(S2)  Ryd( 4f)     0.00056
    42    O    1  f(S2)  Ryd( 5f)     0.00010
    43    O    1  f(C3)  Ryd( 4f)     0.00044
    44    O    1  f(C3)  Ryd( 5f)     0.00011
    45    O    1  f(S3)  Ryd( 4f)     0.00064
    46    O    1  f(S3)  Ryd( 5f)     0.00014

    47    H    2  S      Val( 1S)     0.33019
    48    H    2  S      Ryd( 2S)     0.00054
    49    H    2  S      Ryd( 3S)     0.00027
    50    H    2  S      Ryd( 4S)     0.00005
    51    H    2  px     Ryd( 2p)     0.00073
    52    H    2  px     Ryd( 3p)     0.00066
    53    H    2  px     Ryd( 4p)     0.00005
    54    H    2  py     Ryd( 2p)     0.00086
    55    H    2  py     Ryd( 3p)     0.00017
    56    H    2  py     Ryd( 4p)     0.00007
    57    H    2  pz     Ryd( 2p)     0.00083
    58    H    2  pz     Ryd( 3p)     0.00015
    59    H    2  pz     Ryd( 4p)     0.00006
    60    H    2  dxy    Ryd( 3d)     0.00018
    61    H    2  dxy    Ryd( 4d)     0.00007
    62    H    2  dxz    Ryd( 3d)     0.00016
    63    H    2  dxz    Ryd( 4d)     0.00007
    64    H    2  dyz    Ryd( 3d)     0.00011
    65    H    2  dyz    Ryd( 4d)     0.00006
    66    H    2  dx2y2  Ryd( 3d)     0.00026
    67    H    2  dx2y2  Ryd( 4d)     0.00007
    68    H    2  dz2    Ryd( 3d)     0.00014
    69    H    2  dz2    Ryd( 4d)     0.00007

    70    I    3  S      Cor( 4S)     2.00003
    71    I    3  S      Val( 5S)     1.98060
    72    I    3  S      Ryd( 6S)     0.00477
    73    I    3  S      Ryd( 7S)     0.00068
    74    I    3  S      Ryd( 8S)     0.00012
    75    I    3  S      Ryd( 9S)     0.00000
    76    I    3  px     Cor( 4p)     2.00007
    77    I    3  px     Val( 5p)     1.95109
    78    I    3  px     Ryd( 6p)     0.01151
    79    I    3  px     Ryd( 7p)     0.00077
    80    I    3  px     Ryd( 8p)     0.00009
    81    I    3  py     Cor( 4p)     2.00007
    82    I    3  py     Val( 5p)     1.94780
    83    I    3  py     Ryd( 6p)     0.01089
    84    I    3  py     Ryd( 7p)     0.00072
    85    I    3  py     Ryd( 8p)     0.00011
    86    I    3  pz     Cor( 4p)     2.00007
    87    I    3  pz     Val( 5p)     1.95027
    88    I    3  pz     Ryd( 6p)     0.01148
    89    I    3  pz     Ryd( 7p)     0.00076
    90    I    3  pz     Ryd( 8p)     0.00009
    91    I    3  dxy    Cor( 4d)     1.99677
    92    I    3  dxy    Ryd( 5d)     0.02041
    93    I    3  dxy    Ryd( 6d)     0.00156
    94    I    3  dxy    Ryd( 7d)     0.00018
    95    I    3  dxz    Cor( 4d)     1.99679
    96    I    3  dxz    Ryd( 5d)     0.02034
    97    I    3  dxz    Ryd( 6d)     0.00169
    98    I    3  dxz    Ryd( 7d)     0.00018
    99    I    3  dyz    Cor( 4d)     1.99677
   100    I    3  dyz    Ryd( 5d)     0.02068
   101    I    3  dyz    Ryd( 6d)     0.00156
   102    I    3  dyz    Ryd( 7d)     0.00019
   103    I    3  dx2y2  Cor( 4d)     1.99675
   104    I    3  dx2y2  Ryd( 5d)     0.02027
   105    I    3  dx2y2  Ryd( 6d)     0.00157
   106    I    3  dx2y2  Ryd( 7d)     0.00023
   107    I    3  dz2    Cor( 4d)     1.99678
   108    I    3  dz2    Ryd( 5d)     0.02028
   109    I    3  dz2    Ryd( 6d)     0.00164
   110    I    3  dz2    Ryd( 7d)     0.00019
   111    I    3  f(0)   Ryd( 4f)     0.00276
   112    I    3  f(0)   Ryd( 5f)     0.00045
   113    I    3  f(C1)  Ryd( 4f)     0.00277
   114    I    3  f(C1)  Ryd( 5f)     0.00044
   115    I    3  f(S1)  Ryd( 4f)     0.00274
   116    I    3  f(S1)  Ryd( 5f)     0.00046
   117    I    3  f(C2)  Ryd( 4f)     0.00276
   118    I    3  f(C2)  Ryd( 5f)     0.00046
   119    I    3  f(S2)  Ryd( 4f)     0.00278
   120    I    3  f(S2)  Ryd( 5f)     0.00045
   121    I    3  f(C3)  Ryd( 4f)     0.00274
   122    I    3  f(C3)  Ryd( 5f)     0.00046
   123    I    3  f(S3)  Ryd( 4f)     0.00273
   124    I    3  f(S3)  Ryd( 5f)     0.00047

   125    H    4  S      Val( 1S)     0.30039
   126    H    4  S      Ryd( 2S)     0.00516
   127    H    4  S      Ryd( 3S)     0.00067
   128    H    4  S      Ryd( 4S)     0.00012
   129    H    4  px     Ryd( 2p)     0.00320
   130    H    4  px     Ryd( 3p)     0.00041
   131    H    4  px     Ryd( 4p)     0.00010
   132    H    4  py     Ryd( 2p)     0.00460
   133    H    4  py     Ryd( 3p)     0.00057
   134    H    4  py     Ryd( 4p)     0.00015
   135    H    4  pz     Ryd( 2p)     0.00287
   136    H    4  pz     Ryd( 3p)     0.00049
   137    H    4  pz     Ryd( 4p)     0.00010
   138    H    4  dxy    Ryd( 3d)     0.00018
   139    H    4  dxy    Ryd( 4d)     0.00008
   140    H    4  dxz    Ryd( 3d)     0.00011
   141    H    4  dxz    Ryd( 4d)     0.00007
   142    H    4  dyz    Ryd( 3d)     0.00021
   143    H    4  dyz    Ryd( 4d)     0.00008
   144    H    4  dx2y2  Ryd( 3d)     0.00025
   145    H    4  dx2y2  Ryd( 4d)     0.00009
   146    H    4  dz2    Ryd( 3d)     0.00013
   147    H    4  dz2    Ryd( 4d)     0.00008

 [ 28 electrons found in the effective core potential]

 WARNING:  5 low occupancy (<1.9990e) core orbitals found on  I    3


 Summary of Natural Population Analysis:                  
                                                          
                                       Natural Population 
                Natural  -----------------------------------------------
    Atom  No    Charge         Core      Valence    Rydberg      Total
 -----------------------------------------------------------------------
      O    1   -1.35479      1.99992     7.24531    0.10956     9.35479
      H    2    0.66417      0.00000     0.33019    0.00564     0.33583
      I    3   -0.98928     45.98408     7.82978    0.17542    53.98928
      H    4    0.67989      0.00000     0.30039    0.01972     0.32011
 =======================================================================
   * Total *   -1.00000     47.98400    15.70566    0.31034    64.00000

                                 Natural Population      
 --------------------------------------------------------
   Effective Core            28.00000
   Core                      19.98400 ( 99.9200% of  20)
   Valence                   15.70566 ( 98.1604% of  16)
   Natural Minimal Basis     63.68966 ( 99.5151% of  64)
   Natural Rydberg Basis      0.31034 (  0.4849% of  64)
 --------------------------------------------------------

    Atom  No          Natural Electron Configuration
 ----------------------------------------------------------------------------
      O    1      [core]2S( 1.89)2p( 5.36)3S( 0.01)3p( 0.05)3d( 0.05)
      H    2            1S( 0.33)
      I    3      [core]5S( 1.98)5p( 5.85)4f( 0.02)5d( 0.10)6p( 0.03)6d( 0.01)
      H    4            1S( 0.30)2S( 0.01)2p( 0.01)


 NATURAL BOND ORBITAL ANALYSIS:

                       Occupancies       Lewis Structure    Low   High
           Occ.    -------------------  -----------------   occ   occ
  Cycle   Thresh.   Lewis   Non-Lewis     CR  BD  3C  LP    (L)   (NL)   Dev
 =============================================================================
   1(1)    1.90    63.67730   0.32270     10   2   0   6     0      0    0.01
 -----------------------------------------------------------------------------

 Structure accepted: No low occupancy Lewis orbitals

 WARNING:  5 low occupancy (<1.9990e) core orbitals found on  I    3

 --------------------------------------------------------
   Effective Core           28.00000
   Core                     19.98400 ( 99.920% of  20)
   Valence Lewis            15.69331 ( 98.083% of  16)
  ==================       ============================
   Total Lewis              63.67730 ( 99.496% of  64)
  -----------------------------------------------------
   Valence non-Lewis         0.04005 (  0.063% of  64)
   Rydberg non-Lewis         0.28265 (  0.442% of  64)
  ==================       ============================
   Total non-Lewis           0.32270 (  0.504% of  64)
 --------------------------------------------------------


       (Occupancy)   Bond orbital/ Coefficients/ Hybrids
 ---------------------------------------------------------------------------------
     1. (1.96425) BD ( 1) O   1 - H   2  
                ( 83.98%)   0.9164* O   1 s( 14.48%)p 5.88( 85.11%)d 0.03(  0.40%)
                                                  f 0.00(  0.01%)
                                            0.0001  0.3805  0.0027  0.0034 -0.0030
                                            0.9222 -0.0166  0.0047 -0.0010  0.0156
                                           -0.0062 -0.0004 -0.0018 -0.0029  0.0077
                                            0.0004  0.0017 -0.0144  0.0011  0.0014
                                            0.0216 -0.0043  0.0000 -0.0047 -0.0017
                                            0.0011  0.0489 -0.0074  0.0044 -0.0278
                                            0.0043 -0.0026 -0.0002  0.0004 -0.0042
                                           -0.0009 -0.0003  0.0000 -0.0002 -0.0003
                                           -0.0070  0.0024  0.0065  0.0006  0.0006
                                           -0.0000
                ( 16.02%)   0.4003* H   2 s( 99.79%)p 0.00(  0.17%)d 0.00(  0.04%)
                                            0.9989 -0.0018  0.0004 -0.0002 -0.0013
                                            0.0410 -0.0012  0.0013  0.0017  0.0002
                                            0.0029  0.0017 -0.0008  0.0030 -0.0017
                                            0.0018  0.0018 -0.0044 -0.0012  0.0173
                                           -0.0030 -0.0085  0.0021
     2. (1.96467) BD ( 1) O   1 - H   4  
                ( 85.58%)   0.9251* O   1 s( 15.53%)p 5.41( 84.09%)d 0.02(  0.37%)
                                                  f 0.00(  0.01%)
                                           -0.0001 -0.3941  0.0010  0.0004  0.0028
                                            0.1487 -0.0104 -0.0014  0.0004  0.6227
                                           -0.0125  0.0046 -0.0016 -0.6561  0.0113
                                           -0.0064  0.0045  0.0126 -0.0043  0.0003
                                           -0.0124  0.0044 -0.0005  0.0501 -0.0016
                                           -0.0007  0.0201 -0.0032  0.0017 -0.0190
                                            0.0034 -0.0015  0.0063 -0.0016  0.0002
                                            0.0011  0.0066  0.0006  0.0021  0.0023
                                           -0.0019 -0.0008 -0.0001 -0.0014  0.0040
                                           -0.0027
                ( 14.42%)   0.3797* H   4 s( 99.74%)p 0.00(  0.25%)d 0.00(  0.01%)
                                           -0.9986  0.0124 -0.0033  0.0003 -0.0273
                                           -0.0010  0.0019 -0.0030 -0.0242 -0.0040
                                           -0.0215  0.0250  0.0075 -0.0025  0.0023
                                            0.0021 -0.0024  0.0077  0.0011 -0.0050
                                           -0.0013  0.0014  0.0008
     3. (1.99992) CR ( 1) O   1           s(100.00%)
                                            1.0000 -0.0003 -0.0000 -0.0000  0.0000
                                           -0.0000  0.0000 -0.0000  0.0000  0.0000
                                           -0.0000  0.0000 -0.0000 -0.0000  0.0000
                                           -0.0000  0.0000  0.0000 -0.0000  0.0000
                                           -0.0000  0.0000 -0.0000  0.0000  0.0000
                                           -0.0000 -0.0000 -0.0000  0.0000  0.0000
                                            0.0000 -0.0000  0.0000 -0.0000  0.0000
                                            0.0000  0.0000  0.0000  0.0000  0.0000
                                            0.0000 -0.0000 -0.0000 -0.0000 -0.0000
                                           -0.0000
     4. (2.00003) CR ( 1) I   3           s(100.00%)
                                            1.0000 -0.0000  0.0000 -0.0000  0.0000
                                           -0.0000  0.0000 -0.0000 -0.0000 -0.0000
                                            0.0000  0.0000 -0.0000 -0.0000  0.0000
                                            0.0000 -0.0000 -0.0000 -0.0000 -0.0000
                                           -0.0000  0.0000 -0.0000  0.0000  0.0000
                                            0.0000 -0.0000  0.0000 -0.0000  0.0000
                                           -0.0000  0.0000  0.0000 -0.0000  0.0000
                                            0.0000 -0.0000  0.0000 -0.0000  0.0000
                                           -0.0000  0.0000  0.0000 -0.0000 -0.0000
                                           -0.0000 -0.0000  0.0000  0.0000 -0.0000
                                           -0.0000  0.0000  0.0000  0.0000 -0.0000
     5. (2.00007) CR ( 2) I   3           s(  0.00%)p 1.00(100.00%)
                                            0.0000  0.0000  0.0000 -0.0000  0.0000
                                            0.0000  1.0000 -0.0000  0.0000 -0.0000
                                            0.0000 -0.0000  0.0000 -0.0000 -0.0000
                                            0.0000  0.0000  0.0000  0.0000 -0.0000
                                            0.0000  0.0000 -0.0000  0.0000  0.0000
                                            0.0000 -0.0000  0.0000 -0.0000 -0.0000
                                            0.0000 -0.0000  0.0000  0.0000 -0.0000
                                            0.0000 -0.0000 -0.0000  0.0000 -0.0000
                                            0.0000 -0.0000 -0.0000  0.0000  0.0000
                                            0.0000  0.0000 -0.0000 -0.0000 -0.0000
                                           -0.0000  0.0000 -0.0000 -0.0000 -0.0000
     6. (2.00007) CR ( 3) I   3           s(  0.00%)p 1.00(100.00%)
                                            0.0000  0.0000 -0.0000  0.0000 -0.0000
                                            0.0000 -0.0000  0.0000  0.0000  0.0000
                                           -0.0000  1.0000  0.0000  0.0000 -0.0000
                                           -0.0000 -0.0000  0.0000  0.0000  0.0000
                                            0.0000 -0.0000  0.0000 -0.0000  0.0000
                                           -0.0000  0.0000 -0.0000  0.0000 -0.0000
                                            0.0000 -0.0000  0.0000  0.0000 -0.0000
                                           -0.0000  0.0000 -0.0000 -0.0000 -0.0000
                                            0.0000 -0.0000 -0.0000 -0.0000 -0.0000
                                            0.0000  0.0000 -0.0000 -0.0000  0.0000
                                            0.0000 -0.0000 -0.0000 -0.0000 -0.0000
     7. (2.00007) CR ( 4) I   3           s(  0.00%)p 1.00(100.00%)
                                           -0.0000  0.0000  0.0000 -0.0000  0.0000
                                           -0.0000  0.0000  0.0000  0.0000  0.0000
                                           -0.0000 -0.0000  0.0000 -0.0000 -0.0000
                                            0.0000  1.0000 -0.0000  0.0000 -0.0000
                                            0.0000 -0.0000  0.0000 -0.0000  0.0000
                                           -0.0000  0.0000 -0.0000 -0.0000 -0.0000
                                            0.0000 -0.0000  0.0000  0.0000 -0.0000
                                           -0.0000  0.0000  0.0000 -0.0000  0.0000
                                           -0.0000 -0.0000 -0.0000 -0.0000 -0.0000
                                           -0.0000 -0.0000 -0.0000 -0.0000  0.0000
                                            0.0000 -0.0000 -0.0000 -0.0000 -0.0000
     8. (1.99677) CR ( 5) I   3           s(  0.00%)p 0.00(  0.00%)d 1.00(100.00%)
                                            0.0000  0.0000 -0.0000 -0.0000 -0.0000
                                            0.0000  0.0000  0.0000  0.0000  0.0000
                                           -0.0000 -0.0000  0.0000  0.0000 -0.0000
                                           -0.0000 -0.0000 -0.0000  0.0000 -0.0000
                                            0.0000  1.0000  0.0000 -0.0000  0.0000
                                           -0.0000  0.0000 -0.0000  0.0000 -0.0000
                                            0.0000 -0.0000  0.0000  0.0000 -0.0000
                                           -0.0000  0.0000  0.0000 -0.0000  0.0000
                                           -0.0000 -0.0000 -0.0000 -0.0000 -0.0000
                                           -0.0000 -0.0000 -0.0000 -0.0000  0.0000
                                            0.0000 -0.0000 -0.0000  0.0000  0.0000
     9. (1.99679) CR ( 6) I   3           s(  0.00%)p 0.00(  0.00%)d 1.00(100.00%)
                                            0.0000  0.0000 -0.0000  0.0000 -0.0000
                                            0.0000  0.0000  0.0000  0.0000  0.0000
                                           -0.0000 -0.0000  0.0000  0.0000  0.0000
                                           -0.0000 -0.0000  0.0000  0.0000  0.0000
                                            0.0000 -0.0000  0.0000 -0.0000 -0.0000
                                            1.0000  0.0000 -0.0000  0.0000 -0.0000
                                            0.0000 -0.0000 -0.0000 -0.0000 -0.0000
                                           -0.0000  0.0000 -0.0000 -0.0000 -0.0000
                                            0.0000 -0.0000 -0.0000 -0.0000  0.0000
                                            0.0000  0.0000 -0.0000 -0.0000  0.0000
                                            0.0000 -0.0000 -0.0000  0.0000  0.0000
    10. (1.99677) CR ( 7) I   3           s(  0.00%)p 0.00(  0.00%)d 1.00(100.00%)
                                            0.0000  0.0000 -0.0000 -0.0000 -0.0000
                                            0.0000 -0.0000  0.0000  0.0000  0.0000
                                           -0.0000 -0.0000  0.0000  0.0000 -0.0000
                                            0.0000 -0.0000  0.0000  0.0000 -0.0000
                                            0.0000 -0.0000  0.0000 -0.0000  0.0000
                                           -0.0000  0.0000 -0.0000  0.0000  1.0000
                                            0.0000 -0.0000  0.0000  0.0000 -0.0000
                                            0.0000  0.0000  0.0000 -0.0000 -0.0000
                                            0.0000 -0.0000 -0.0000 -0.0000 -0.0000
                                            0.0000  0.0000 -0.0000 -0.0000  0.0000
                                            0.0000 -0.0000 -0.0000 -0.0000 -0.0000
    11. (1.99675) CR ( 8) I   3           s(  0.00%)p 0.00(  0.00%)d 1.00(100.00%)
                                           -0.0000 -0.0000 -0.0000  0.0000 -0.0000
                                           -0.0000  0.0000  0.0000 -0.0000  0.0000
                                            0.0000  0.0000 -0.0000  0.0000  0.0000
                                           -0.0000  0.0000 -0.0000 -0.0000  0.0000
                                           -0.0000  0.0000 -0.0000  0.0000 -0.0000
                                           -0.0000 -0.0000 -0.0000  0.0000  0.0000
                                           -0.0000  0.0000 -0.0000  1.0000  0.0000
                                           -0.0000 -0.0000 -0.0000  0.0000  0.0000
                                           -0.0000  0.0000  0.0000  0.0000  0.0000
                                            0.0000  0.0000  0.0000  0.0000 -0.0000
                                            0.0000  0.0000  0.0000  0.0000  0.0000
    12. (1.99678) CR ( 9) I   3           s(  0.00%)p 0.00(  0.00%)d 1.00(100.00%)
                                            0.0000 -0.0000 -0.0000  0.0000 -0.0000
                                            0.0000 -0.0000 -0.0000 -0.0000 -0.0000
                                            0.0000 -0.0000 -0.0000  0.0000  0.0000
                                           -0.0000  0.0000  0.0000 -0.0000  0.0000
                                           -0.0000  0.0000 -0.0000  0.0000 -0.0000
                                           -0.0000  0.0000 -0.0000  0.0000  0.0000
                                           -0.0000  0.0000 -0.0000 -0.0000 -0.0000
                                            0.0000 -0.0000  1.0000  0.0000 -0.0000
                                            0.0000  0.0000  0.0000  0.0000  0.0000
                                            0.0000  0.0000  0.0000  0.0000 -0.0000
                                           -0.0000  0.0000  0.0000 -0.0000 -0.0000
    13. (1.97267) LP ( 1) O   1           s( 69.43%)p 0.44( 30.45%)d 0.00(  0.11%)
                                                  f 0.00(  0.00%)
                                            0.0002  0.8333  0.0004 -0.0009  0.0023
                                           -0.3492 -0.0102  0.0065 -0.0007  0.3458
                                            0.0096 -0.0043  0.0012 -0.2503 -0.0065
                                            0.0035  0.0006  0.0209 -0.0019 -0.0018
                                           -0.0208  0.0026  0.0012  0.0103 -0.0035
                                            0.0013 -0.0042  0.0075 -0.0056  0.0024
                                           -0.0032  0.0024  0.0025 -0.0012 -0.0003
                                           -0.0015  0.0006 -0.0010 -0.0007 -0.0000
                                            0.0031 -0.0006 -0.0002  0.0021  0.0035
                                           -0.0014
    14. (1.96116) LP ( 2) O   1           s(  0.49%)p99.99( 99.17%)d 0.66(  0.32%)
                                                  f 0.06(  0.03%)
                                            0.0000  0.0691 -0.0091 -0.0039 -0.0006
                                           -0.0188 -0.0023  0.0012 -0.0017 -0.6986
                                           -0.0136  0.0030 -0.0023 -0.7090 -0.0172
                                            0.0041 -0.0028 -0.0299  0.0096 -0.0027
                                           -0.0314  0.0090 -0.0022 -0.0076  0.0031
                                           -0.0013 -0.0137 -0.0005  0.0024 -0.0292
                                           -0.0000  0.0037 -0.0003 -0.0009  0.0012
                                           -0.0003  0.0075 -0.0024 -0.0112  0.0041
                                            0.0000  0.0002  0.0006  0.0005 -0.0069
                                            0.0036
    15. (1.98064) LP ( 1) I   3           s( 99.96%)p 0.00(  0.04%)d 0.00(  0.00%)
                                                  f 0.00(  0.00%)
                                            0.0000  0.9998 -0.0000  0.0000 -0.0000
                                           -0.0000 -0.0000 -0.0018  0.0004 -0.0001
                                            0.0001 -0.0000 -0.0208  0.0005 -0.0003
                                            0.0001 -0.0000  0.0003  0.0008 -0.0001
                                            0.0002 -0.0000  0.0008 -0.0003  0.0000
                                           -0.0000  0.0004 -0.0001 -0.0000 -0.0000
                                            0.0021 -0.0007  0.0000  0.0000 -0.0008
                                            0.0001  0.0002  0.0000 -0.0005  0.0001
                                            0.0000 -0.0005 -0.0005 -0.0001 -0.0001
                                           -0.0001 -0.0001 -0.0006 -0.0006  0.0002
                                            0.0002 -0.0003 -0.0002 -0.0002 -0.0001
    16. (1.95147) LP ( 2) I   3           s(  0.00%)p 1.00( 99.99%)d 0.00(  0.00%)
                                                  f 0.00(  0.00%)
                                           -0.0000  0.0036  0.0002 -0.0004  0.0004
                                           -0.0000  0.0000  0.8264  0.0004  0.0006
                                           -0.0003 -0.0000  0.0918 -0.0007  0.0001
                                           -0.0002 -0.0000 -0.5556  0.0010 -0.0001
                                            0.0000 -0.0000  0.0028 -0.0009  0.0000
                                           -0.0000  0.0017 -0.0010  0.0008  0.0000
                                           -0.0002 -0.0004  0.0007 -0.0000  0.0030
                                           -0.0016  0.0017  0.0000 -0.0027  0.0016
                                           -0.0015 -0.0003 -0.0004 -0.0004 -0.0004
                                           -0.0011 -0.0012  0.0001 -0.0001  0.0010
                                            0.0010 -0.0004 -0.0002  0.0008  0.0009
    17. (1.95135) LP ( 3) I   3           s(  0.01%)p99.99( 99.98%)d 0.20(  0.00%)
                                                  f 0.08(  0.00%)
                                           -0.0000  0.0099  0.0027 -0.0041  0.0040
                                           -0.0001 -0.0000 -0.5184 -0.0001 -0.0003
                                            0.0000  0.0000  0.5093 -0.0030 -0.0007
                                            0.0010 -0.0000 -0.6868  0.0017 -0.0001
                                            0.0001  0.0000 -0.0011 -0.0000  0.0004
                                            0.0000 -0.0027  0.0016 -0.0016 -0.0000
                                            0.0020 -0.0015  0.0017  0.0000 -0.0008
                                            0.0005  0.0004  0.0000 -0.0016  0.0010
                                           -0.0005 -0.0006 -0.0009 -0.0003 -0.0004
                                           -0.0014 -0.0015 -0.0011 -0.0015 -0.0009
                                           -0.0009 -0.0001 -0.0004 -0.0007 -0.0007
    18. (1.94709) LP ( 4) I   3           s(  0.03%)p99.99( 99.94%)d 0.65(  0.02%)
                                                  f 0.06(  0.00%)
                                            0.0000  0.0180 -0.0008 -0.0000 -0.0004
                                            0.0002 -0.0000  0.2199  0.0015  0.0002
                                           -0.0004 -0.0000  0.8553  0.0011 -0.0006
                                           -0.0002 -0.0000  0.4685  0.0035  0.0000
                                            0.0002 -0.0000  0.0044 -0.0009  0.0003
                                           -0.0000  0.0032 -0.0011  0.0006 -0.0000
                                            0.0118 -0.0034  0.0017  0.0000 -0.0044
                                           -0.0004  0.0018  0.0000 -0.0009 -0.0008
                                            0.0012 -0.0019 -0.0016 -0.0000 -0.0001
                                            0.0005  0.0003 -0.0023 -0.0019  0.0011
                                            0.0008 -0.0008 -0.0005 -0.0004 -0.0003
    19. (0.01985) RY*( 1) O   1           s(  0.05%)p99.99( 96.93%)d64.72(  2.93%)
                                                  f 2.11(  0.10%)
                                            0.0000 -0.0005  0.0197  0.0077  0.0022
                                           -0.0004  0.0121 -0.0027  0.0040 -0.0227
                                            0.7011  0.0243 -0.0029 -0.0221  0.6896
                                            0.0207 -0.0013  0.1077 -0.0257  0.0051
                                            0.1020 -0.0237  0.0042  0.0245 -0.0079
                                            0.0025  0.0268 -0.0004 -0.0048  0.0677
                                           -0.0037 -0.0073 -0.0030  0.0020  0.0036
                                           -0.0006 -0.0085  0.0069  0.0177 -0.0120
                                            0.0013 -0.0011  0.0030 -0.0017  0.0148
                                           -0.0108
    20. (0.01569) RY*( 2) O   1           s( 13.16%)p 6.28( 82.60%)d 0.31(  4.10%)
                                                  f 0.01(  0.14%)
                                           -0.0000 -0.0166  0.3624  0.0014  0.0053
                                            0.0102 -0.5714  0.0036 -0.0028 -0.0058
                                            0.4967  0.0154 -0.0132  0.0055 -0.5020
                                           -0.0148  0.0077  0.1189 -0.0064 -0.0079
                                           -0.1503  0.0146  0.0046  0.0318 -0.0149
                                            0.0027 -0.0193  0.0369 -0.0185 -0.0011
                                           -0.0210  0.0123  0.0097 -0.0076 -0.0104
                                           -0.0027 -0.0066 -0.0020 -0.0175  0.0047
                                            0.0163 -0.0066  0.0094  0.0063  0.0154
                                           -0.0072
    21. (0.00982) RY*( 3) O   1           s(  0.16%)p99.99( 93.54%)d38.14(  6.07%)
                                                  f 1.45(  0.23%)
                                           -0.0000  0.0009  0.0189  0.0331  0.0118
                                            0.0293  0.7663 -0.0124 -0.0034  0.0145
                                            0.4026  0.0140 -0.0212 -0.0151 -0.4276
                                           -0.0173  0.0290  0.1070 -0.0092  0.0050
                                           -0.0460  0.0052 -0.0041 -0.0896 -0.0262
                                            0.0038 -0.1521 -0.0920  0.0439  0.0279
                                            0.0572 -0.0266 -0.0008 -0.0018  0.0121
                                            0.0072 -0.0148  0.0022 -0.0262  0.0096
                                            0.0055  0.0007 -0.0142 -0.0106  0.0246
                                           -0.0125
    22. (0.00665) RY*( 4) O   1           s( 41.79%)p 0.05(  2.14%)d 1.32( 55.36%)
                                                  f 0.02(  0.71%)
                                            0.0000  0.0127  0.6461 -0.0192  0.0009
                                           -0.0066  0.1228 -0.0100 -0.0049  0.0034
                                           -0.0615  0.0039 -0.0159 -0.0146  0.0417
                                           -0.0093 -0.0073 -0.5223 -0.0316  0.0111
                                            0.3719  0.0172 -0.0067  0.2406  0.0419
                                           -0.0008 -0.1411 -0.0284  0.0084  0.2451
                                            0.0222 -0.0035  0.0030 -0.0027  0.0316
                                           -0.0037 -0.0004  0.0076  0.0225 -0.0035
                                           -0.0425  0.0181 -0.0401  0.0054 -0.0390
                                            0.0131
    23. (0.00632) RY*( 5) O   1           s(  2.04%)p 0.39(  0.79%)d47.01( 95.82%)
                                                  f 0.66(  1.35%)
                                           -0.0000  0.0038  0.1425 -0.0057 -0.0051
                                           -0.0045 -0.0244 -0.0092  0.0072 -0.0081
                                           -0.0814 -0.0081  0.0085  0.0014  0.0156
                                            0.0010 -0.0063  0.4006  0.0443 -0.0077
                                            0.5024  0.0536 -0.0139  0.0885  0.0167
                                           -0.0036 -0.4033 -0.0345  0.0008 -0.6042
                                           -0.0569  0.0062 -0.0745  0.0334  0.0107
                                           -0.0042  0.0404 -0.0175  0.0169 -0.0035
                                           -0.0017 -0.0003 -0.0001 -0.0035  0.0610
                                           -0.0272
    24. (0.00589) RY*( 6) O   1           s(  0.06%)p44.52(  2.78%)d99.99( 96.18%)
                                                  f15.71(  0.98%)
                                            0.0000  0.0006  0.0249 -0.0015  0.0006
                                           -0.0018 -0.0024 -0.0008 -0.0067 -0.0349
                                           -0.1137 -0.0159 -0.0135 -0.0345 -0.1077
                                           -0.0187 -0.0017  0.5563  0.0834 -0.0178
                                            0.4591  0.0699 -0.0142  0.0414  0.0059
                                            0.0017  0.3262  0.0355 -0.0004  0.5616
                                            0.0664 -0.0048  0.0174 -0.0102  0.0351
                                           -0.0130 -0.0481  0.0209  0.0539 -0.0230
                                            0.0082 -0.0027  0.0283 -0.0103  0.0277
                                           -0.0087
    25. (0.00578) RY*( 7) O   1           s(  5.46%)p 1.26(  6.89%)d15.85( 86.60%)
                                                  f 0.19(  1.05%)
                                           -0.0000  0.0092  0.2330 -0.0105 -0.0133
                                            0.0294  0.1175  0.0122 -0.0085 -0.0342
                                           -0.1652 -0.0271  0.0065  0.0300  0.1538
                                            0.0149 -0.0008  0.3665  0.0335 -0.0066
                                           -0.5159 -0.0564  0.0127  0.6375  0.0964
                                           -0.0111 -0.1792 -0.0427  0.0112  0.1021
                                            0.0239 -0.0100  0.0505 -0.0191 -0.0083
                                            0.0080  0.0327 -0.0120 -0.0014  0.0001
                                            0.0680 -0.0292 -0.0001 -0.0061  0.0246
                                           -0.0088
    26. (0.00327) RY*( 8) O   1           s( 36.62%)p 0.24(  8.67%)d 1.48( 54.12%)
                                                  f 0.02(  0.59%)
                                            0.0000 -0.0080  0.6050  0.0005 -0.0106
                                           -0.0178  0.1611 -0.0229 -0.0115  0.0024
                                           -0.1675  0.0084 -0.0250 -0.0042  0.1747
                                           -0.0171  0.0138  0.2063  0.0359 -0.0009
                                           -0.2337 -0.0462  0.0025 -0.4821 -0.1224
                                            0.0006  0.3678  0.0862  0.0057 -0.2170
                                           -0.0581 -0.0019 -0.0108  0.0099 -0.0272
                                            0.0317 -0.0250  0.0247 -0.0064  0.0137
                                            0.0054 -0.0089  0.0297 -0.0381 -0.0067
                                            0.0003
    27. (0.00288) RY*( 9) O   1           s(  0.36%)p17.11(  6.19%)d99.99( 91.85%)
                                                  f 4.40(  1.59%)
                                           -0.0000 -0.0013  0.0548  0.0243  0.0052
                                            0.0439 -0.1334  0.0697 -0.0214  0.0230
                                           -0.1223  0.0409 -0.0294 -0.0234  0.1271
                                           -0.0420  0.0198  0.1257  0.0391 -0.0003
                                           -0.1192 -0.0349  0.0016 -0.4789 -0.1009
                                           -0.0022 -0.6798 -0.1400 -0.0075  0.3974
                                            0.0809 -0.0003  0.0122 -0.0014  0.0339
                                           -0.0206 -0.0510  0.0342 -0.0632  0.0376
                                           -0.0115 -0.0017 -0.0455  0.0272  0.0410
                                           -0.0206
    28. (0.00064) RY*(10) O   1           s(  3.23%)p14.03( 45.36%)d14.15( 45.75%)
                                                  f 1.75(  5.66%)
                                            0.0000 -0.0049 -0.0165  0.1637  0.0724
                                           -0.0030  0.0116  0.3628 -0.1363 -0.0002
                                           -0.0098  0.1885 -0.3137 -0.0041 -0.0359
                                            0.4084 -0.0329  0.0075  0.0972  0.0166
                                            0.0410 -0.2858  0.0101  0.0534 -0.1028
                                            0.0893  0.0311 -0.1945 -0.0511  0.0217
                                           -0.5466 -0.0467  0.0230 -0.0277  0.0083
                                           -0.0122 -0.2034  0.0170  0.0148 -0.0518
                                           -0.0401  0.0324 -0.0339  0.0408 -0.0681
                                            0.0192
    29. (0.00058) RY*(11) O   1           s(  0.15%)p99.99( 23.43%)d99.99( 64.11%)
                                                  f80.89( 12.31%)
                                           -0.0000  0.0055 -0.0006  0.0337 -0.0189
                                           -0.0020 -0.0314 -0.4597  0.0115 -0.0129
                                           -0.0520  0.1315 -0.0287 -0.0084 -0.0167
                                            0.0201 -0.0087  0.0450 -0.6888 -0.1233
                                            0.0198 -0.2649 -0.0672  0.0027 -0.0738
                                           -0.0013  0.0155 -0.2352 -0.0024  0.0265
                                           -0.1017 -0.0485 -0.0178  0.0053  0.0752
                                            0.0250 -0.1062  0.0106  0.1766 -0.0253
                                            0.0691 -0.0078  0.0681 -0.0254  0.2495
                                           -0.0288
    30. (0.00058) RY*(12) O   1           s( 17.44%)p 3.16( 55.02%)d 1.10( 19.14%)
                                                  f 0.48(  8.40%)
                                           -0.0000 -0.0031 -0.0174  0.4040  0.1043
                                            0.0008 -0.0028 -0.0554 -0.0456 -0.0077
                                           -0.0035 -0.6411 -0.3348 -0.0011  0.0199
                                           -0.1322  0.0637 -0.0272 -0.0714 -0.0235
                                            0.0145  0.0657  0.0415  0.0771 -0.3639
                                            0.0672 -0.0416  0.1829 -0.0008 -0.0182
                                            0.0171 -0.0051  0.1417 -0.0386 -0.0857
                                           -0.0104 -0.1905 -0.0194 -0.0600 -0.0410
                                            0.0019  0.0214  0.0334  0.0195  0.1054
                                            0.0039
    31. (0.00054) RY*(13) O   1           s(  1.62%)p21.24( 34.50%)d28.23( 45.85%)
                                                  f11.10( 18.02%)
                                           -0.0000  0.0047  0.0003  0.1273  0.0042
                                            0.0004 -0.0219 -0.4962 -0.0210  0.0041
                                           -0.0131  0.2170 -0.0497  0.0097  0.0307
                                            0.2090  0.0585 -0.0016  0.1495  0.0602
                                           -0.0199  0.5517  0.1375  0.0150 -0.1223
                                            0.0084  0.0125 -0.2678 -0.0121 -0.0036
                                           -0.1282 -0.0716  0.2814 -0.0243 -0.0580
                                            0.0223 -0.0229  0.0000 -0.2159 -0.0049
                                            0.0952 -0.0032 -0.0622 -0.0275 -0.1881
                                            0.0181
    32. (0.00050) RY*(14) O   1           s(  2.23%)p10.57( 23.52%)d25.35( 56.41%)
                                                  f 8.02( 17.85%)
                                            0.0000  0.0005  0.0234  0.1420  0.0394
                                           -0.0079 -0.0533 -0.2076 -0.0476  0.0072
                                            0.0182 -0.3934 -0.1171 -0.0055  0.0013
                                            0.1330  0.0188  0.0167  0.1511  0.0590
                                           -0.0230 -0.1521 -0.0658 -0.1061  0.5133
                                            0.1432  0.0640 -0.4145 -0.0311 -0.0407
                                            0.1886  0.0103 -0.1770 -0.0029  0.1241
                                            0.0514 -0.0774  0.0035  0.1493  0.0034
                                           -0.0397 -0.0127 -0.1863 -0.0625 -0.2458
                                            0.0009
    33. (0.00046) RY*(15) O   1           s(  0.20%)p99.99( 20.18%)d61.88( 12.20%)
                                                  f99.99( 67.42%)
                                            0.0000 -0.0040  0.0298 -0.0015  0.0326
                                           -0.0018  0.0043  0.1377  0.0322 -0.0013
                                           -0.0026 -0.1544  0.0630  0.0023 -0.0001
                                            0.3845  0.0778 -0.0012 -0.1051 -0.0329
                                           -0.0029  0.1109  0.0218 -0.0899  0.2925
                                            0.0459  0.0192  0.0151  0.0022 -0.0098
                                            0.0257  0.0057  0.5071  0.0565  0.0404
                                            0.0103  0.2504  0.0582 -0.0225  0.0395
                                           -0.3180 -0.0410 -0.0307 -0.0088  0.4895
                                            0.0247
    34. (0.00044) RY*(16) O   1           s(  0.04%)p45.75(  1.64%)d45.60(  1.64%)
                                                  f99.99( 96.69%)
                                            0.0000 -0.0000  0.0012  0.0159  0.0103
                                           -0.0002 -0.0039 -0.0237 -0.0181 -0.0031
                                           -0.0099  0.0626 -0.0111 -0.0027 -0.0042
[...]
   122. (0.00008) RY*(41) I   3           s(  0.82%)p99.99( 95.12%)d 4.63(  3.79%)
                                                  f 0.33(  0.27%)
   123. (0.00000) RY*(42) I   3           s( 99.89%)p 0.00(  0.10%)d 0.00(  0.01%)
                                                  f 0.00(  0.00%)
   124. (0.00685) RY*( 1) H   4           s( 66.87%)p 0.49( 32.45%)d 0.01(  0.68%)
                                            0.0017  0.8175  0.0170 -0.0120  0.2254
                                           -0.0038  0.0134 -0.4628  0.0325 -0.0167
                                            0.2303  0.0599  0.0367  0.0368 -0.0087
                                           -0.0119 -0.0003  0.0349  0.0124 -0.0298
                                            0.0125 -0.0513  0.0133
   125. (0.00488) RY*( 2) H   4           s(  5.23%)p17.80( 93.19%)d 0.30(  1.57%)
                                           -0.0166  0.2094 -0.0906  0.0015  0.3364
                                           -0.0199  0.0189  0.7680  0.0079 -0.0023
                                            0.4593  0.1278 -0.0282  0.0225  0.0044
                                           -0.0032 -0.0123 -0.0770 -0.0044  0.0597
                                           -0.0496 -0.0364 -0.0419
   126. (0.00271) RY*( 3) H   4           s(  2.58%)p36.78( 94.96%)d 0.95(  2.45%)
                                            0.0157  0.1540  0.0258 -0.0344 -0.8650
                                            0.0082 -0.0129  0.0914  0.1138 -0.0087
                                            0.4203  0.0550  0.0081  0.0489 -0.0260
                                            0.0691  0.0045  0.0524  0.0276 -0.1123
                                            0.0018 -0.0016 -0.0236
   127. (0.00149) RY*( 4) H   4           s( 24.66%)p 3.02( 74.35%)d 0.04(  0.99%)
                                            0.0296  0.4829 -0.0001  0.1119 -0.2182
                                            0.0704  0.0181  0.3942 -0.0204 -0.0211
                                           -0.7261  0.0824  0.0183  0.0426 -0.0093
                                            0.0286 -0.0109  0.0545 -0.0225 -0.0036
                                           -0.0099  0.0572  0.0135
   128. (0.00093) RY*( 5) H   4           s( 61.97%)p 0.54( 33.57%)d 0.07(  4.45%)
                                           -0.0149 -0.0503  0.7853  0.0182  0.1169
                                            0.1924 -0.0142  0.0564  0.5065 -0.1239
                                            0.0053  0.0937 -0.0312  0.0355  0.0146
                                            0.0405 -0.0526  0.1566 -0.0796 -0.0654
                                           -0.0091  0.0542  0.0220
   129. (0.00042) RY*( 6) H   4           s(  0.09%)p99.99( 92.09%)d88.02(  7.82%)
                                            0.0007  0.0111  0.0258  0.0099 -0.0223
                                            0.8962 -0.0377 -0.0138 -0.3032  0.0189
                                            0.0779 -0.1292 -0.0233  0.0451  0.1233
                                            0.0744 -0.1106 -0.1313  0.0391  0.1438
                                            0.0468 -0.0334  0.0221
   130. (0.00031) RY*( 7) H   4           s( 12.24%)p 4.74( 57.99%)d 2.43( 29.77%)
                                           -0.0122  0.0671  0.2616  0.2220 -0.0063
                                           -0.1365  0.1743  0.0893 -0.1718  0.3533
                                            0.0277 -0.6061  0.0206  0.1213  0.0460
                                           -0.0874 -0.0730 -0.1368 -0.1301 -0.3550
                                           -0.1098 -0.2781  0.1300
   131. (0.00023) RY*( 8) H   4           s(  6.21%)p 3.67( 22.81%)d11.43( 70.98%)
                                           -0.0080  0.0632  0.2362 -0.0473 -0.0947
                                           -0.2335  0.0565 -0.0023 -0.1069 -0.2608
                                            0.0122 -0.2563 -0.1272  0.2399 -0.1031
                                            0.1154  0.1277 -0.3220 -0.0761  0.6910
                                            0.0873 -0.0064  0.1318
   132. (0.00020) RY*( 9) H   4           s(  5.39%)p 7.63( 41.15%)d 9.91( 53.46%)
                                            0.0060  0.0631  0.1706 -0.1443 -0.0069
                                           -0.0641 -0.1482  0.1005 -0.3510 -0.4330
                                            0.0502 -0.2379 -0.0742 -0.4781 -0.1414
                                           -0.2264 -0.0625  0.2599  0.1585 -0.1458
                                            0.2129  0.0894  0.2521
   133. (0.00018) RY*(10) H   4           s(  2.84%)p 3.97( 11.26%)d30.29( 85.90%)
                                           -0.0072  0.0605 -0.0145  0.1563 -0.0954
                                            0.0415  0.0170 -0.0330  0.2731  0.1239
                                           -0.0229  0.0127 -0.0991 -0.6355 -0.0117
                                           -0.3682 -0.1554 -0.4481 -0.1364  0.2038
                                           -0.0372 -0.0963 -0.1539
   134. (0.00014) RY*(11) H   4           s( 34.85%)p 1.17( 40.94%)d 0.69( 24.21%)
                                           -0.0129 -0.0256 -0.2973  0.5092  0.0373
                                            0.0796 -0.2843 -0.0200  0.2886 -0.2551
                                            0.0228 -0.0961 -0.4030  0.1200 -0.0800
                                            0.1007  0.0786 -0.0158 -0.1554 -0.1602
                                            0.2701 -0.1430  0.2480
   135. (0.00011) RY*(12) H   4           s(  0.96%)p55.57( 53.44%)d47.41( 45.60%)
                                           -0.0008  0.0093  0.0976  0.0004 -0.0111
                                            0.0435 -0.6555  0.0033 -0.1254  0.2928
                                            0.0146  0.0319  0.0054  0.1440 -0.4315
                                           -0.3128  0.1691  0.1315 -0.1620  0.1274
                                           -0.2449  0.0116 -0.0523
   136. (0.00009) RY*(13) H   4           s(  3.58%)p12.31( 44.03%)d14.65( 52.39%)
   137. (0.00010) RY*(14) H   4           s( 13.94%)p 1.99( 27.70%)d 4.19( 58.36%)
   138. (0.00007) RY*(15) H   4           s(  0.77%)p16.09( 12.38%)d99.99( 86.85%)
   139. (0.00007) RY*(16) H   4           s(  2.23%)p 2.11(  4.70%)d41.73( 93.07%)
   140. (0.00005) RY*(17) H   4           s(  1.48%)p10.59( 15.63%)d56.20( 82.90%)
   141. (0.00005) RY*(18) H   4           s( 37.03%)p 1.41( 52.29%)d 0.29( 10.69%)
   142. (0.00005) RY*(19) H   4           s(  1.26%)p11.02( 13.90%)d67.27( 84.84%)
   143. (0.00003) RY*(20) H   4           s(  0.07%)p99.99( 21.83%)d99.99( 78.10%)
   144. (0.00003) RY*(21) H   4           s(  3.08%)p 8.02( 24.74%)d23.41( 72.18%)
   145. (0.00001) RY*(22) H   4           s( 12.94%)p 2.65( 34.34%)d 4.08( 52.73%)
   146. (0.01924) BD*( 1) O   1 - H   2  
                ( 16.02%)   0.4003* O   1 s( 14.48%)p 5.88( 85.11%)d 0.03(  0.40%)
                                                  f 0.00(  0.01%)
                                           -0.0001 -0.3805 -0.0027 -0.0034  0.0030
                                           -0.9222  0.0166 -0.0047  0.0010 -0.0156
                                            0.0062  0.0004  0.0018  0.0029 -0.0077
                                           -0.0004 -0.0017  0.0144 -0.0011 -0.0014
                                           -0.0216  0.0043 -0.0000  0.0047  0.0017
                                           -0.0011 -0.0489  0.0074 -0.0044  0.0278
                                           -0.0043  0.0026  0.0002 -0.0004  0.0042
                                            0.0009  0.0003 -0.0000  0.0002  0.0003
                                            0.0070 -0.0024 -0.0065 -0.0006 -0.0006
                                            0.0000
                ( 83.98%)  -0.9164* H   2 s( 99.79%)p 0.00(  0.17%)d 0.00(  0.04%)
                                           -0.9989  0.0018 -0.0004  0.0002  0.0013
                                           -0.0410  0.0012 -0.0013 -0.0017 -0.0002
                                           -0.0029 -0.0017  0.0008 -0.0030  0.0017
                                           -0.0018 -0.0018  0.0044  0.0012 -0.0173
                                            0.0030  0.0085 -0.0021
   147. (0.02081) BD*( 1) O   1 - H   4  
                ( 14.42%)   0.3797* O   1 s( 15.53%)p 5.41( 84.09%)d 0.02(  0.37%)
                                                  f 0.00(  0.01%)
                                            0.0001  0.3941 -0.0010 -0.0004 -0.0028
                                           -0.1487  0.0104  0.0014 -0.0004 -0.6227
                                            0.0125 -0.0046  0.0016  0.6561 -0.0113
                                            0.0064 -0.0045 -0.0126  0.0043 -0.0003
                                            0.0124 -0.0044  0.0005 -0.0501  0.0016
                                            0.0007 -0.0201  0.0032 -0.0017  0.0190
                                           -0.0034  0.0015 -0.0063  0.0016 -0.0002
                                           -0.0011 -0.0066 -0.0006 -0.0021 -0.0023
                                            0.0019  0.0008  0.0001  0.0014 -0.0040
                                            0.0027
                ( 85.58%)  -0.9251* H   4 s( 99.74%)p 0.00(  0.25%)d 0.00(  0.01%)
                                            0.9986 -0.0124  0.0033 -0.0003  0.0273
                                            0.0010 -0.0019  0.0030  0.0242  0.0040
                                            0.0215 -0.0250 -0.0075  0.0025 -0.0023
                                           -0.0021  0.0024 -0.0077 -0.0011  0.0050
                                            0.0013 -0.0014 -0.0008


 NHO Directionality and "Bond Bending" (deviations from line of nuclear centers)

         [Thresholds for printing:  angular deviation  >  1.0 degree]
                                    hybrid p-character > 25.0%
                                    orbital occupancy  >  0.10e

                                Line of Centers        Hybrid 1              Hybrid 2
                                ---------------  -------------------   ------------------
                NBO               Theta   Phi    Theta   Phi    Dev    Theta   Phi    Dev
 ========================================================================================
    13. LP (   1) O   1             --     --    116.9  135.1   --       --     --    --
    14. LP (   2) O   1             --     --    135.5  268.3   --       --     --    --
    16. LP (   2) I   3             --     --    123.7    6.3   --       --     --    --
    17. LP (   3) I   3             --     --    133.4  135.7   --       --     --    --
    18. LP (   4) I   3             --     --     61.9   75.5   --       --     --    --


 Natural Bond Orbitals (Summary):

           NBO                  Occupancy  
 -----------------------------------------------
 Molecular unit  1  (H2O)
     1. BD (   1) O   1 - H   2          1.96425
     2. BD (   1) O   1 - H   4          1.96467
     3. CR (   1) O   1                  1.99992
    13. LP (   1) O   1                  1.97267
    14. LP (   2) O   1                  1.96116
    19. RY*(   1) O   1                  0.01985
    20. RY*(   2) O   1                  0.01569
    21. RY*(   3) O   1                  0.00982
    22. RY*(   4) O   1                  0.00665
    23. RY*(   5) O   1                  0.00632
    24. RY*(   6) O   1                  0.00589
    25. RY*(   7) O   1                  0.00578
    26. RY*(   8) O   1                  0.00327
    27. RY*(   9) O   1                  0.00288
    28. RY*(  10) O   1                  0.00064
    29. RY*(  11) O   1                  0.00058
    30. RY*(  12) O   1                  0.00058
    31. RY*(  13) O   1                  0.00054
    32. RY*(  14) O   1                  0.00050
    33. RY*(  15) O   1                  0.00046
    34. RY*(  16) O   1                  0.00044
    35. RY*(  17) O   1                  0.00044
    36. RY*(  18) O   1                  0.00043
    37. RY*(  19) O   1                  0.00041
    38. RY*(  20) O   1                  0.00041
    39. RY*(  21) O   1                  0.00041
    40. RY*(  22) O   1                  0.00034
    41. RY*(  23) O   1                  0.00028
    42. RY*(  24) O   1                  0.00025
    43. RY*(  25) O   1                  0.00020
    44. RY*(  26) O   1                  0.00015
    45. RY*(  27) O   1                  0.00009
    46. RY*(  28) O   1                  0.00008
    47. RY*(  29) O   1                  0.00008
    48. RY*(  30) O   1                  0.00007
    49. RY*(  31) O   1                  0.00008
    50. RY*(  32) O   1                  0.00007
    51. RY*(  33) O   1                  0.00007
    52. RY*(  34) O   1                  0.00007
    53. RY*(  35) O   1                  0.00005
    54. RY*(  36) O   1                  0.00006
    55. RY*(  37) O   1                  0.00005
    56. RY*(  38) O   1                  0.00004
    57. RY*(  39) O   1                  0.00003
    58. RY*(  40) O   1                  0.00000
    59. RY*(  41) O   1                  0.00000
    60. RY*(   1) H   2                  0.00152
    61. RY*(   2) H   2                  0.00139
    62. RY*(   3) H   2                  0.00062
    63. RY*(   4) H   2                  0.00029
    64. RY*(   5) H   2                  0.00019
    65. RY*(   6) H   2                  0.00014
    66. RY*(   7) H   2                  0.00014
    67. RY*(   8) H   2                  0.00011
    68. RY*(   9) H   2                  0.00011
    69. RY*(  10) H   2                  0.00007
    70. RY*(  11) H   2                  0.00007
    71. RY*(  12) H   2                  0.00006
    72. RY*(  13) H   2                  0.00004
    73. RY*(  14) H   2                  0.00005
    74. RY*(  15) H   2                  0.00003
    75. RY*(  16) H   2                  0.00003
    76. RY*(  17) H   2                  0.00002
    77. RY*(  18) H   2                  0.00002
    78. RY*(  19) H   2                  0.00002
    79. RY*(  20) H   2                  0.00001
    80. RY*(  21) H   2                  0.00002
    81. RY*(  22) H   2                  0.00001
   124. RY*(   1) H   4                  0.00685
   125. RY*(   2) H   4                  0.00488
   126. RY*(   3) H   4                  0.00271
   127. RY*(   4) H   4                  0.00149
   128. RY*(   5) H   4                  0.00093
   129. RY*(   6) H   4                  0.00042
   130. RY*(   7) H   4                  0.00031
   131. RY*(   8) H   4                  0.00023
   132. RY*(   9) H   4                  0.00020
   133. RY*(  10) H   4                  0.00018
   134. RY*(  11) H   4                  0.00014
   135. RY*(  12) H   4                  0.00011
   136. RY*(  13) H   4                  0.00009
   137. RY*(  14) H   4                  0.00010
   138. RY*(  15) H   4                  0.00007
   139. RY*(  16) H   4                  0.00007
   140. RY*(  17) H   4                  0.00005
   141. RY*(  18) H   4                  0.00005
   142. RY*(  19) H   4                  0.00005
   143. RY*(  20) H   4                  0.00003
   144. RY*(  21) H   4                  0.00003
   145. RY*(  22) H   4                  0.00001
   146. BD*(   1) O   1 - H   2          0.01924
   147. BD*(   1) O   1 - H   4          0.02081
       -------------------------------
              Total Lewis    9.86267  ( 98.5211%)
        Valence non-Lewis    0.04005  (  0.4001%)
        Rydberg non-Lewis    0.10800  (  1.0788%)
       -------------------------------
            Total unit  1   10.01072  (100.0000%)
           Charge unit  1   -0.01072

 Molecular unit  2  (I)
     4. CR (   1) I   3                  2.00003
     5. CR (   2) I   3                  2.00007
     6. CR (   3) I   3                  2.00007
     7. CR (   4) I   3                  2.00007
     8. CR (   5) I   3                  1.99677
     9. CR (   6) I   3                  1.99679
    10. CR (   7) I   3                  1.99677
    11. CR (   8) I   3                  1.99675
    12. CR (   9) I   3                  1.99678
    15. LP (   1) I   3                  1.98064
    16. LP (   2) I   3                  1.95147
    17. LP (   3) I   3                  1.95135
    18. LP (   4) I   3                  1.94709
    82. RY*(   1) I   3                  0.02049
    83. RY*(   2) I   3                  0.02042
    84. RY*(   3) I   3                  0.02028
    85. RY*(   4) I   3                  0.02024
    86. RY*(   5) I   3                  0.02019
    87. RY*(   6) I   3                  0.01153
    88. RY*(   7) I   3                  0.01145
    89. RY*(   8) I   3                  0.01083
    90. RY*(   9) I   3                  0.00520
    91. RY*(  10) I   3                  0.00278
    92. RY*(  11) I   3                  0.00277
    93. RY*(  12) I   3                  0.00278
    94. RY*(  13) I   3                  0.00278
    95. RY*(  14) I   3                  0.00275
    96. RY*(  15) I   3                  0.00274
    97. RY*(  16) I   3                  0.00272
    98. RY*(  17) I   3                  0.00170
    99. RY*(  18) I   3                  0.00170
   100. RY*(  19) I   3                  0.00156
   101. RY*(  20) I   3                  0.00151
   102. RY*(  21) I   3                  0.00132
   103. RY*(  22) I   3                  0.00076
   104. RY*(  23) I   3                  0.00077
   105. RY*(  24) I   3                  0.00075
   106. RY*(  25) I   3                  0.00056
   107. RY*(  26) I   3                  0.00044
   108. RY*(  27) I   3                  0.00044
   109. RY*(  28) I   3                  0.00043
   110. RY*(  29) I   3                  0.00044
   111. RY*(  30) I   3                  0.00043
   112. RY*(  31) I   3                  0.00043
   113. RY*(  32) I   3                  0.00039
   114. RY*(  33) I   3                  0.00016
   115. RY*(  34) I   3                  0.00017
   116. RY*(  35) I   3                  0.00017
   117. RY*(  36) I   3                  0.00014
   118. RY*(  37) I   3                  0.00012
   119. RY*(  38) I   3                  0.00008
   120. RY*(  39) I   3                  0.00008
   121. RY*(  40) I   3                  0.00007
   122. RY*(  41) I   3                  0.00008
   123. RY*(  42) I   3                  0.00000
       -------------------------------
              Total Lewis   53.81463  ( 99.6765%)
        Valence non-Lewis    0.00000  (  0.0000%)
        Rydberg non-Lewis    0.17464  (  0.3235%)
       -------------------------------
            Total unit  2   53.98928  (100.0000%)
           Charge unit  2   -0.98928
 Leave Link  607 at Tue Oct 19 17:08:43 2021, MaxMem= 16106127360 cpu:              62.4 elap:               2.3
 (Enter /sw/contrib/gaussian/g16/B01/g16/l9999.exe)
 1\1\GINC-N2398\SP\RMP2-FC\Gen\H2I1O1(1-)\CGAVINH\19-Oct-2021\0\\#p pop
 =NBO SP NoSymm mp2/gen Pseudo=read density=current\\title\\-1,1\O\X,1,
 10.\H,1,0.9609077,2,90.\I,1,3.50850362,2,90.,3,101.85830594,0\H,1,0.97
 059,2,45.,3,101.85830594,0\\Version=ES64L-G16RevB.01\HF=-370.8075755\M
 P2=-371.3019293\RMSD=2.711e-09\Dipole=0.7932064,1.1424587,0.2763846\Qu
 adrupole=13.3120897,-27.2920195,13.9799298,-8.053791,-0.1237145,-0.092
 1274\PG=C01 [X(H2I1O1)]\\@


 Statistics are no substitute for judgment.
                            -- Henry Clay
 Job cpu time:       0 days  0 hours  4 minutes 57.5 seconds.
 Elapsed time:       0 days  0 hours  0 minutes 17.9 seconds.
 File lengths (MBytes):  RWF=     16 Int=      0 D2E=      0 Chk=      8 Scr=      1
 Normal termination of Gaussian 16 at Tue Oct 19 17:08:43 2021.
