 Entering Gaussian System, Link 0=g16
 Input=ihod_oop_s.gjf
 Output=ihod_oop_s.log
 Initial command:
 /sw/contrib/gaussian/g16/B01/g16/l1.exe "/scr/Gau-32397.inp" -scrdir="/scr/"
 Entering Link 1 = /sw/contrib/gaussian/g16/B01/g16/l1.exe PID=     32398.
  
 Copyright (c) 1988-2017, Gaussian, Inc.  All Rights Reserved.
  
 This is part of the Gaussian(R) 16 program.  It is based on
 the Gaussian(R) 09 system (copyright 2009, Gaussian, Inc.),
 the Gaussian(R) 03 system (copyright 2003, Gaussian, Inc.),
 the Gaussian(R) 98 system (copyright 1998, Gaussian, Inc.),
 the Gaussian(R) 94 system (copyright 1995, Gaussian, Inc.),
 the Gaussian 92(TM) system (copyright 1992, Gaussian, Inc.),
 the Gaussian 90(TM) system (copyright 1990, Gaussian, Inc.),
 the Gaussian 88(TM) system (copyright 1988, Gaussian, Inc.),
 the Gaussian 86(TM) system (copyright 1986, Carnegie Mellon
 University), and the Gaussian 82(TM) system (copyright 1983,
 Carnegie Mellon University). Gaussian is a federally registered
 trademark of Gaussian, Inc.
  
 This software contains proprietary and confidential information,
 including trade secrets, belonging to Gaussian, Inc.
  
 This software is provided under written license and may be
 used, copied, transmitted, or stored only in accord with that
 written license.
  
 The following legend is applicable only to US Government
 contracts under FAR:
  
                    RESTRICTED RIGHTS LEGEND
  
 Use, reproduction and disclosure by the US Government is
 subject to restrictions as set forth in subparagraphs (a)
 and (c) of the Commercial Computer Software - Restricted
 Rights clause in FAR 52.227-19.
  
 Gaussian, Inc.
 340 Quinnipiac St., Bldg. 40, Wallingford CT 06492
  
  
 ---------------------------------------------------------------
 Warning -- This program may not be used in any manner that
 competes with the business of Gaussian, Inc. or will provide
 assistance to any competitor of Gaussian, Inc.  The licensee
 of this program is prohibited from giving any competitor of
 Gaussian, Inc. access to this program.  By using this program,
 the user acknowledges that Gaussian, Inc. is engaged in the
 business of creating and licensing software in the field of
 computational chemistry and represents and warrants to the
 licensee that it is not a competitor of Gaussian, Inc. and that
 it will not use this program in any manner prohibited above.
 ---------------------------------------------------------------
  

 Cite this work as:
 Gaussian 16, Revision B.01,
 M. J. Frisch, G. W. Trucks, H. B. Schlegel, G. E. Scuseria, 
 M. A. Robb, J. R. Cheeseman, G. Scalmani, V. Barone, 
 G. A. Petersson, H. Nakatsuji, X. Li, M. Caricato, A. V. Marenich, 
 J. Bloino, B. G. Janesko, R. Gomperts, B. Mennucci, H. P. Hratchian, 
 J. V. Ortiz, A. F. Izmaylov, J. L. Sonnenberg, D. Williams-Young, 
 F. Ding, F. Lipparini, F. Egidi, J. Goings, B. Peng, A. Petrone, 
 T. Henderson, D. Ranasinghe, V. G. Zakrzewski, J. Gao, N. Rega, 
 G. Zheng, W. Liang, M. Hada, M. Ehara, K. Toyota, R. Fukuda, 
 J. Hasegawa, M. Ishida, T. Nakajima, Y. Honda, O. Kitao, H. Nakai, 
 T. Vreven, K. Throssell, J. A. Montgomery, Jr., J. E. Peralta, 
 F. Ogliaro, M. J. Bearpark, J. J. Heyd, E. N. Brothers, K. N. Kudin, 
 V. N. Staroverov, T. A. Keith, R. Kobayashi, J. Normand, 
 K. Raghavachari, A. P. Rendell, J. C. Burant, S. S. Iyengar, 
 J. Tomasi, M. Cossi, J. M. Millam, M. Klene, C. Adamo, R. Cammi, 
 J. W. Ochterski, R. L. Martin, K. Morokuma, O. Farkas, 
 J. B. Foresman, and D. J. Fox, Gaussian, Inc., Wallingford CT, 2016.
 
 ******************************************
 Gaussian 16:  ES64L-G16RevB.01 20-Dec-2017
                26-Oct-2021 
 ******************************************
 %nproc=28
 Will use up to   28 processors via shared memory.
 %mem=120GB
 %chk=/gscratch/ilahie/mccoygrp/coire_hocl/oop_s_rOH_opt/ihod/ihod_oop_s.chk
 ----------------------------------------------------
 # opt=(z-matrix) mp2/gen Pseudo=read density=current
 ----------------------------------------------------
 1/10=7,18=40,38=1/1,3;
 2/12=2,17=6,18=5,29=3,40=1/2;
 3/5=7,11=9,16=1,17=8,25=1,30=1,71=1/1,2,3;
 4//1;
 5/5=2,38=5/2;
 8/6=4,10=1/1;
 9/15=2,16=-3/6;
 10/5=1/2;
 6/7=2,8=2,9=2,10=2,22=-1/1;
 7/12=2,29=1/1,2,3,16;
 1/10=7,18=40/3(2);
 2/29=3/2;
 99//99;
 2/29=3/2;
 3/5=7,6=1,11=9,16=1,17=8,25=1,30=1,71=1,82=7/1,2,3;
 4/5=5,16=3,69=1/1;
 5/5=2,38=5/2;
 8/6=4,10=1/1;
 9/15=2,16=-3/6;
 10/5=1/2;
 7/12=2/1,2,3,16;
 1/18=40/3(-8);
 2/29=3/2;
 6/7=2,8=2,9=2,10=2,22=-1/1;
 99/9=10/99;
 -----
 title
 -----
 Symbolic Z-matrix:
 Charge = -1 Multiplicity = 1
 O
 X                    1     10. 
 H(iso=2)             1    r1       2     90. 
 I                    1    r2       2     90.      3    a1       0
 H                    1    r3       2    oop      3    a1       0
       Variables:
  r1                    0.96091 -1        0.     
  r2                    3.5085  -1        0.     
  r3                    0.98234                  
  a1                  101.85832 -1        0.     
  OOP                  90.     Scan 10   -5.     
 

 GradGradGradGradGradGradGradGradGradGradGradGradGradGradGradGradGradGrad
 Berny optimization.
 Initialization pass.
                       ----------------------------
                       !    Initial Parameters    !
                       ! (Angstroms and Degrees)  !
 ----------------------                            ----------------------
 !      Name          Value   Derivative information (Atomic Units)     !
 ------------------------------------------------------------------------
 !       r1          0.9609   Frozen                                    !
 !       r2          3.5085   Frozen                                    !
 !       r3          0.9823   estimate D2E/DX2                          !
 !       a1        101.8583   Frozen                                    !
 !       OOP        90.0      Scan                                      !
 ------------------------------------------------------------------------
 Trust Radius=3.00D-01 FncErr=1.00D-07 GrdErr=1.00D-07 EigMax=2.50D+02 EigMin=1.00D-04
 Number of optimizations in scan=  11
 Number of steps in this run=     20 maximum allowed number of steps=    100.
 GradGradGradGradGradGradGradGradGradGradGradGradGradGradGradGradGradGrad

 ---------------------------------------------------------------------------------------------------
                            Z-MATRIX (ANGSTROMS AND DEGREES)
   CD    Cent   Atom    N1       Length/X        N2       Alpha/Y        N3        Beta/Z          J
 ---------------------------------------------------------------------------------------------------
      1      1  O 
      2         X        1  10.000000(     1)
      3      2  H        1   0.960908(     2)      2   90.000(     5)
      4      3  I        1   3.508501(     3)      2   90.000(     6)      3  101.858(     8)      0
      5      4  H        1   0.982340(     4)      2   90.000(     7)      3  101.858(     9)      0
 ---------------------------------------------------------------------------------------------------
                         Z-Matrix orientation:                         
 ---------------------------------------------------------------------
 Center     Atomic      Atomic             Coordinates (Angstroms)
 Number     Number       Type             X           Y           Z
 ---------------------------------------------------------------------
      1          8           0        0.000000    0.000000    0.000000
      2         -1           0        0.000000    0.000000   10.000000
      3          1           0        0.960908    0.000000    0.000000
      4         53           0       -0.720970   -3.433625    0.000000
      5          1           0       -0.201863   -0.961375    0.000000
 ---------------------------------------------------------------------
                    Distance matrix (angstroms):
                    1          2          3          4          5
     1  O    0.000000
     2  X   10.000000   0.000000
     3  H    0.960908  10.046061   0.000000
     4  I    3.508501  10.597622   3.823414   0.000000
     5  H    0.982340  10.048134   1.508734   2.526162   0.000000
 Stoichiometry    H2IO(1-)
 Framework group  CS[SG(H2IO)]
 Deg. of freedom     5
 Full point group                 CS      NOp   2
 Largest Abelian subgroup         CS      NOp   2
 Largest concise Abelian subgroup C1      NOp   1
                         Standard orientation:                         
 ---------------------------------------------------------------------
 Center     Atomic      Atomic             Coordinates (Angstroms)
 Number     Number       Type             X           Y           Z
 ---------------------------------------------------------------------
      1          8           0        0.014927    2.964055    0.000000
      2          1           0       -0.925474    3.161514    0.000000
      3         53           0        0.014927   -0.544447   -0.000000
      4          1           0        0.014927    1.981715    0.000000
 ---------------------------------------------------------------------
 Rotational constants (GHZ):         322.6616454           2.5117529           2.4923512
 General basis read from cards:  (5D, 7F)
 ======================================================================================================
                                       Pseudopotential Parameters
 ======================================================================================================
  Center     Atomic      Valence      Angular      Power
  Number     Number     Electrons     Momentum     of R      Exponent        Coefficient   SO-Coeffient
 ======================================================================================================
    1          8
                                   No pseudopotential on this center.
    2          1
                                   No pseudopotential on this center.
    3         53           25
                                      G and up 
                                                     2        1.0000000        0.00000000    0.00000000
                                      S - G
                                                     2       40.0333760       49.98964900    0.00000000
                                                     2       17.3005760      281.00655600    0.00000000
                                                     2        8.8517200       61.41673900    0.00000000
                                      P - G
                                                     2       15.7201410       67.41623900    0.00000000
                                                     2       15.2082220      134.80769600    0.00000000
                                                     2        8.2941860       14.56654800    0.00000000
                                                     2        7.7539490       28.96842200    0.00000000
                                      D - G
                                                     2       13.8177510       35.53875600    0.00000000
                                                     2       13.5878050       53.33975900    0.00000000
                                                     2        6.9476300        9.71646600    0.00000000
                                                     2        6.9600990       14.97750000    0.00000000
                                      F - G
                                                     2       18.5229500      -20.17661800    0.00000000
                                                     2       18.2510350      -26.08807700    0.00000000
                                                     2        7.5579010       -0.22043400    0.00000000
                                                     2        7.5974040       -0.22164600    0.00000000
    4          1
                                   No pseudopotential on this center.
 ======================================================================================================
 There are   117 symmetry adapted cartesian basis functions of A'  symmetry.
 There are    53 symmetry adapted cartesian basis functions of A"  symmetry.
 There are    98 symmetry adapted basis functions of A'  symmetry.
 There are    49 symmetry adapted basis functions of A"  symmetry.
   147 basis functions,   296 primitive gaussians,   170 cartesian basis functions
    18 alpha electrons       18 beta electrons
       nuclear repulsion energy        47.9284174597 Hartrees.
 NAtoms=    4 NActive=    4 NUniq=    4 SFac= 1.00D+00 NAtFMM=   60 NAOKFM=F Big=F
 Integral buffers will be    131072 words long.
 Raffenetti 1 integral format.
 Two-electron integral symmetry is turned on.
 One-electron integrals computed using PRISM.
   2 Symmetry operations used in ECPInt.
 ECPInt:  NShTT=    1225 NPrTT=    5557 LenC2=    1226 LenP2D=    4931.
 LDataN:  DoStor=T MaxTD1= 7 Len=  274
 NBasis=   147 RedAO= T EigKep=  2.75D-04  NBF=    98    49
 NBsUse=   147 1.00D-06 EigRej= -1.00D+00 NBFU=    98    49
 ExpMin= 2.53D-02 ExpMax= 1.53D+04 ExpMxC= 5.22D+02 IAcc=3 IRadAn=         5 AccDes= 0.00D+00
 Harris functional with IExCor=  205 and IRadAn=       5 diagonalized for initial guess.
 HarFok:  IExCor=  205 AccDes= 0.00D+00 IRadAn=         5 IDoV= 1 UseB2=F ITyADJ=14
 ICtDFT=  3500011 ScaDFX=  1.000000  1.000000  1.000000  1.000000
 Defaulting to unpruned grid for atomic number  53.
 FoFCou: FMM=F IPFlag=           0 FMFlag=      100000 FMFlg1=           0
         NFxFlg=           0 DoJE=T BraDBF=F KetDBF=T FulRan=T
         wScrn=  0.000000 ICntrl=       500 IOpCl=  0 I1Cent=   200000004 NGrid=           0
         NMat0=    1 NMatS0=      1 NMatT0=    0 NMatD0=    1 NMtDS0=    0 NMtDT0=    0
 Petite list used in FoFCou.
 Initial guess orbital symmetries:
       Occupied  (A') (A') (A') (A') (A") (A') (A') (A") (A') (A")
                 (A') (A') (A') (A') (A") (A') (A') (A")
       Virtual   (A') (A') (A') (A') (A") (A') (A') (A") (A') (A")
                 (A') (A') (A") (A') (A') (A") (A') (A') (A') (A")
                 (A') (A') (A') (A') (A") (A') (A") (A') (A") (A')
                 (A') (A") (A') (A') (A") (A') (A') (A") (A') (A")
                 (A") (A') (A') (A') (A") (A') (A') (A") (A') (A")
                 (A') (A') (A') (A") (A') (A") (A') (A') (A') (A")
                 (A') (A") (A") (A') (A') (A") (A') (A') (A') (A")
                 (A') (A') (A") (A") (A') (A') (A') (A') (A") (A')
                 (A") (A') (A") (A') (A') (A') (A") (A') (A') (A')
                 (A") (A") (A') (A') (A') (A") (A') (A") (A') (A")
                 (A') (A") (A") (A') (A') (A') (A') (A") (A') (A')
                 (A') (A") (A') (A') (A') (A") (A') (A") (A") (A')
                 (A') (A") (A") (A') (A') (A') (A') (A') (A')
 The electronic state of the initial guess is 1-A'.
 Keep R1 ints in memory in symmetry-blocked form, NReq=117093650.
 Requested convergence on RMS density matrix=1.00D-08 within 128 cycles.
 Requested convergence on MAX density matrix=1.00D-06.
 Requested convergence on             energy=1.00D-06.
 No special actions if energy rises.
 SCF Done:  E(RHF) =  -370.816779237     A.U. after   12 cycles
            NFock= 12  Conv=0.31D-08     -V/T= 2.9847
 ExpMin= 2.53D-02 ExpMax= 1.53D+04 ExpMxC= 5.22D+02 IAcc=3 IRadAn=         5 AccDes= 0.00D+00
 HarFok:  IExCor=  205 AccDes= 0.00D+00 IRadAn=         5 IDoV=-2 UseB2=F ITyADJ=14
 ICtDFT= 12500011 ScaDFX=  1.000000  1.000000  1.000000  1.000000
 Defaulting to unpruned grid for atomic number  53.
 Range of M.O.s used for correlation:     6   147
 NBasis=   147 NAE=    18 NBE=    18 NFC=     5 NFV=     0
 NROrb=    142 NOA=    13 NOB=    13 NVA=   129 NVB=   129

 **** Warning!!: The largest alpha MO coefficient is  0.15592664D+02

 Fully direct method using O(ONN) memory.
 JobTyp=1 Pass  1:  I=   6 to  18 NPSUse= 28 ParTrn=T ParDer=T DoDerP=T.
 Spin components of T(2) and E(2):
     alpha-alpha T2 =       0.2163234557D-01 E2=     -0.6742176245D-01
     alpha-beta  T2 =       0.1131614137D+00 E2=     -0.3621571463D+00
     beta-beta   T2 =       0.2163234557D-01 E2=     -0.6742176245D-01
 ANorm=    0.1075372542D+01
 E2 =    -0.4970006711D+00 EUMP2 =    -0.37131377990846D+03
          IDoAtm=1111
          Differentiating once with respect to electric field.
                with respect to dipole field.
          Differentiating once with respect to nuclear coordinates.
 Keep R1 ints in memory in symmetry-blocked form, NReq=117096522.
          There are     1 degrees of freedom in the 1st order CPHF.  IDoFFX=0 NUNeed=     1.
 LinEq1:  Iter=  0 NonCon=     1 RMS=2.66D-03 Max=4.70D-02 NDo=     1
 AX will form     1 AO Fock derivatives at one time.
 LinEq1:  Iter=  1 NonCon=     1 RMS=4.28D-04 Max=5.25D-03 NDo=     1
 LinEq1:  Iter=  2 NonCon=     1 RMS=1.90D-04 Max=2.74D-03 NDo=     1
 LinEq1:  Iter=  3 NonCon=     1 RMS=4.44D-05 Max=6.96D-04 NDo=     1
 LinEq1:  Iter=  4 NonCon=     1 RMS=1.28D-05 Max=1.36D-04 NDo=     1
 LinEq1:  Iter=  5 NonCon=     1 RMS=3.41D-06 Max=4.45D-05 NDo=     1
 LinEq1:  Iter=  6 NonCon=     1 RMS=7.27D-07 Max=1.17D-05 NDo=     1
 LinEq1:  Iter=  7 NonCon=     1 RMS=1.61D-07 Max=2.40D-06 NDo=     1
 LinEq1:  Iter=  8 NonCon=     1 RMS=4.54D-08 Max=6.05D-07 NDo=     1
 LinEq1:  Iter=  9 NonCon=     1 RMS=8.89D-09 Max=1.43D-07 NDo=     1
 LinEq1:  Iter= 10 NonCon=     1 RMS=1.44D-09 Max=1.90D-08 NDo=     1
 LinEq1:  Iter= 11 NonCon=     1 RMS=2.50D-10 Max=4.17D-09 NDo=     1
 LinEq1:  Iter= 12 NonCon=     1 RMS=7.01D-11 Max=1.17D-09 NDo=     1
 LinEq1:  Iter= 13 NonCon=     0 RMS=1.42D-11 Max=1.70D-10 NDo=     1
 Linear equations converged to 1.000D-10 1.000D-09 after    13 iterations.
 End of Minotr F.D. properties file   721 does not exist.
 End of Minotr F.D. properties file   722 does not exist.
 End of Minotr F.D. properties file   788 does not exist.

 **********************************************************************

            Population analysis using the MP2 Density.

 **********************************************************************

 Orbital symmetries:
       Occupied  (A') (A') (A') (A') (A") (A') (A') (A") (A") (A')
                 (A') (A') (A') (A') (A") (A') (A') (A")
       Virtual   (A') (A') (A') (A") (A') (A') (A") (A') (A') (A')
                 (A') (A") (A') (A") (A') (A") (A') (A') (A') (A")
                 (A') (A') (A') (A') (A') (A") (A') (A") (A') (A")
                 (A') (A') (A') (A") (A') (A") (A') (A") (A') (A")
                 (A') (A") (A') (A') (A") (A') (A") (A') (A') (A")
                 (A') (A') (A') (A') (A") (A') (A") (A') (A') (A")
                 (A") (A') (A') (A") (A") (A') (A') (A') (A") (A')
                 (A') (A') (A") (A') (A") (A') (A') (A') (A") (A')
                 (A") (A") (A') (A') (A') (A') (A') (A") (A') (A')
                 (A") (A") (A') (A') (A') (A") (A') (A') (A") (A")
                 (A') (A") (A') (A") (A') (A') (A') (A") (A') (A')
                 (A') (A") (A') (A') (A') (A") (A') (A") (A') (A")
                 (A") (A') (A") (A') (A') (A') (A') (A') (A')
 The electronic state is 1-A'.
 Alpha  occ. eigenvalues --  -20.40297  -7.46690  -5.29245  -5.29219  -5.29215
 Alpha  occ. eigenvalues --   -2.01991  -2.01974  -2.01969  -2.01942  -2.01942
 Alpha  occ. eigenvalues --   -1.18471  -0.62865  -0.54128  -0.42868  -0.34718
 Alpha  occ. eigenvalues --   -0.14775  -0.14231  -0.14194
 Alpha virt. eigenvalues --    0.13217   0.16979   0.23337   0.24546   0.25246
 Alpha virt. eigenvalues --    0.26982   0.28790   0.29217   0.31262   0.33637
 Alpha virt. eigenvalues --    0.36678   0.37214   0.37587   0.39565   0.40947
 Alpha virt. eigenvalues --    0.42015   0.44513   0.47581   0.54120   0.54269
 Alpha virt. eigenvalues --    0.57039   0.59846   0.66794   0.71491   0.77788
 Alpha virt. eigenvalues --    0.77880   0.78521   0.79780   0.80029   0.80051
 Alpha virt. eigenvalues --    0.82775   0.84226   0.85370   0.85782   0.86673
 Alpha virt. eigenvalues --    0.87687   0.88414   0.88861   0.89954   0.90293
 Alpha virt. eigenvalues --    0.93135   0.97212   1.00719   1.06037   1.06877
 Alpha virt. eigenvalues --    1.09372   1.10476   1.12371   1.14486   1.15671
 Alpha virt. eigenvalues --    1.16543   1.19056   1.32694   1.36374   1.38259
 Alpha virt. eigenvalues --    1.41998   1.48437   1.52536   1.54808   1.67728
 Alpha virt. eigenvalues --    1.73180   1.73330   1.75183   1.75261   1.76931
 Alpha virt. eigenvalues --    1.77927   1.81224   1.85081   1.88521   1.89480
 Alpha virt. eigenvalues --    2.03077   2.04573   2.05615   2.07583   2.10707
 Alpha virt. eigenvalues --    2.10718   2.15446   2.29373   2.44092   2.52697
 Alpha virt. eigenvalues --    2.56197   2.60541   2.61601   2.63177   2.65455
 Alpha virt. eigenvalues --    2.82507   2.87797   2.88953   2.97462   3.02378
 Alpha virt. eigenvalues --    3.07039   3.26287   3.27993   3.78019   3.87219
 Alpha virt. eigenvalues --    4.20519   4.24705   4.32018   4.32575   4.42804
 Alpha virt. eigenvalues --    4.43915   4.54358   4.56820   4.59908   4.74517
 Alpha virt. eigenvalues --    4.94413   5.13575   5.28280   5.35501   5.45512
 Alpha virt. eigenvalues --    5.51502   5.66652   5.81462   6.37197   6.68658
 Alpha virt. eigenvalues --    6.88056   7.09699   7.27869   7.42661   7.43117
 Alpha virt. eigenvalues --    7.46592   7.53342   7.57309   7.82094   8.05609
 Alpha virt. eigenvalues --    8.11136   8.95296  16.22269  59.22166
          Condensed to atoms (all electrons):
               1          2          3          4
     1  O    8.271627   0.215612  -0.056820   0.093201
     2  H    0.215612   0.601410   0.007052   0.007365
     3  I   -0.056820   0.007052  25.926523   0.036636
     4  H    0.093201   0.007365   0.036636   0.594349
 Mulliken charges:
               1
     1  O   -0.523619
     2  H    0.168561
     3  I   -0.913391
     4  H    0.268449
 Sum of Mulliken charges =  -1.00000
 Mulliken charges with hydrogens summed into heavy atoms:
               1
     1  O   -0.086609
     3  I   -0.913391
 Electronic spatial extent (au):  <R**2>=            429.1120
 Charge=             -1.0000 electrons
 Dipole moment (field-independent basis, Debye):
    X=             -1.3331    Y=             -0.0097    Z=              0.0000  Tot=              1.3331
 Quadrupole moment (field-independent basis, Debye-Ang):
   XX=            -39.5668   YY=            -51.5051   ZZ=            -41.8887
   XY=             -4.8027   XZ=             -0.0000   YZ=             -0.0000
 Traceless Quadrupole moment (field-independent basis, Debye-Ang):
   XX=              4.7534   YY=             -7.1849   ZZ=              2.4315
   XY=             -4.8027   XZ=             -0.0000   YZ=             -0.0000
 Octapole moment (field-independent basis, Debye-Ang**2):
  XXX=             -1.1622  YYY=            -40.9627  ZZZ=             -0.0000  XYY=            -16.0954
  XXY=              1.9896  XXZ=              0.0000  XZZ=              0.1757  YZZ=             -5.3534
  YYZ=             -0.0000  XYZ=             -0.0000
 Hexadecapole moment (field-independent basis, Debye-Ang**3):
 XXXX=            -75.7345 YYYY=           -609.0953 ZZZZ=            -76.3919 XXXY=             -0.2122
 XXXZ=             -0.0000 YYYX=            -49.3199 YYYZ=             -0.0000 ZZZX=              0.0000
 ZZZY=             -0.0000 XXYY=            -81.8739 XXZZ=            -25.6646 YYZZ=           -104.8350
 XXYZ=             -0.0000 YYXZ=             -0.0000 ZZXY=              1.7550
 N-N= 4.792841745968D+01 E-N=-9.089498573455D+02  KE= 1.870310355083D+02
 Symmetry A'   KE= 1.440185886191D+02
 Symmetry A"   KE= 4.301244688922D+01
   2 Symmetry operations used in ECPInt.
 ECPInt:  NShTT=    1225 NPrTT=    5557 LenC2=    1226 LenP2D=    4931.
 LDataN:  DoStor=T MaxTD1= 8 Len=  415
 Calling FoFJK, ICntrl=  10002127 FMM=F ISym2X=1 I1Cent= 0 IOpClX= 0 NMat=1 NMatS=1 NMatT=0.
 ***** Axes restored to original set *****
 -------------------------------------------------------------------
 Center     Atomic                   Forces (Hartrees/Bohr)
 Number     Number              X              Y              Z
 -------------------------------------------------------------------
      1        8           0.001977215   -0.000293386   -0.000000000
      2        1           0.000118990   -0.000073519    0.000000000
      3       53           0.000837488   -0.000172352   -0.000000000
      4        1          -0.002933693    0.000539258    0.000000000
 -------------------------------------------------------------------
 Cartesian Forces:  Max     0.002933693 RMS     0.001066281
 -----------------------------------------------------------------------------------------------
                       Internal Coordinate Forces (Hartree/Bohr or radian)
  Cent   Atom   N1       Length/X         N2         Alpha/Y        N3         Beta/Z          J
 -----------------------------------------------------------------------------------------------
      1  O 
         X        1   0.000000(     1)
      2  H        1   0.000119(     2)      2   0.000000(     5)
      3  I        1  -0.000003(     3)      2   0.000000(     6)      3  -0.005669(     8)     0
      4  H        1   0.000075(     4)      2  -0.000000(     7)      3   0.005535(     9)     0
 -----------------------------------------------------------------------------------------------
 Internal  Forces:  Max     0.005668951 RMS     0.002641508

 GradGradGradGradGradGradGradGradGradGradGradGradGradGradGradGradGradGrad
 Berny optimization.
 Search for a local minimum.
 Step number   1 out of a maximum of   20 on scan point     1 out of    11
 All quantities printed in internal units (Hartrees-Bohrs-Radians)
 Second derivative matrix not updated -- first step.
 The second derivative matrix:
                          r1        r2        r3        a1        OOP
           r1           0.55279
           r2           0.00000   0.01408
           r3          -0.00000   0.00000   0.50933
           a1          -0.00000   0.00000   0.00000   0.32000
           OOP          0.00000  -0.00000  -0.00000  -0.00000   0.16000
 ITU=  0
     Eigenvalues ---    0.509331000.000001000.000001000.000001000.00000
 RFO step:  Lambda=-1.10740216D-08 EMin= 5.09330843D-01
 Linear search not attempted -- first point.
 Variable       Old X    -DE/DX   Delta X   Delta X   Delta X     New X
                                 (Linear)    (Quad)   (Total)
    r1        1.81585   0.00012   0.00000   0.00000   0.00000   1.81585
    r2        6.63011  -0.00000   0.00000   0.00000   0.00000   6.63011
    r3        1.85635   0.00008   0.00000   0.00015   0.00015   1.85650
    a1        1.77776  -0.00013   0.00000   0.00000   0.00000   1.77776
   OOP        1.57080  -0.00000   0.00000   0.00000   0.00000   1.57080
         Item               Value     Threshold  Converged?
 Maximum Force            0.000075     0.000450     YES
 RMS     Force            0.000075     0.000300     YES
 Maximum Displacement     0.000147     0.001800     YES
 RMS     Displacement     0.000066     0.001200     YES
 Predicted change in Energy=-5.537011D-09
 Optimization completed.
    -- Stationary point found.
                       ----------------------------
                       !   Optimized Parameters   !
                       ! (Angstroms and Degrees)  !
 ----------------------                            ----------------------
 !      Name          Value   Derivative information (Atomic Units)     !
 ------------------------------------------------------------------------
 !       r1          0.9609   -DE/DX =    0.0001                        !
 !       r2          3.5085   -DE/DX =    0.0                           !
 !       r3          0.9823   -DE/DX =    0.0001                        !
 !       a1        101.8583   -DE/DX =   -0.0001                        !
 !       OOP        90.0      -DE/DX =    0.0                           !
 ------------------------------------------------------------------------
 GradGradGradGradGradGradGradGradGradGradGradGradGradGradGradGradGradGrad

 ---------------------------------------------------------------------------------------------------
                            Z-MATRIX (ANGSTROMS AND DEGREES)
   CD    Cent   Atom    N1       Length/X        N2       Alpha/Y        N3        Beta/Z          J
 ---------------------------------------------------------------------------------------------------
      1      1  O 
      2         X        1  10.000000(     1)
      3      2  H        1   0.960908(     2)      2   90.000(     5)
      4      3  I        1   3.508501(     3)      2   90.000(     6)      3  101.858(     8)      0
      5      4  H        1   0.982340(     4)      2   85.000(     7)      3  101.858(     9)      0
 ---------------------------------------------------------------------------------------------------
                         Z-Matrix orientation:                         
 ---------------------------------------------------------------------
 Center     Atomic      Atomic             Coordinates (Angstroms)
 Number     Number       Type             X           Y           Z
 ---------------------------------------------------------------------
      1          8           0        0.000000    0.000000    0.000000
      2         -1           0        0.000000    0.000000   10.000000
      3          1           0        0.960908    0.000000    0.000000
      4         53           0       -0.720970   -3.433625    0.000000
      5          1           0       -0.201095   -0.957717    0.085617
 ---------------------------------------------------------------------
                    Distance matrix (angstroms):
                    1          2          3          4          5
     1  O    0.000000
     2  X   10.000000   0.000000
     3  H    0.960908  10.046061   0.000000
     4  I    3.508501  10.597622   3.823414   0.000000
     5  H    0.982340   9.962563   1.508245   2.531348   0.000000
 Stoichiometry    H2IO(1-)
 Framework group  C1[X(H2IO)]
 Deg. of freedom     6
 Full point group                 C1      NOp   1
 Omega: Change in point group or standard orientation.

 Old FWG=CS   [SG(H2I1O1)]
 New FWG=C01  [X(H2I1O1)]
 Largest Abelian subgroup         C1      NOp   1
 Largest concise Abelian subgroup C1      NOp   1
                         Standard orientation:                         
 ---------------------------------------------------------------------
 Center     Atomic      Atomic             Coordinates (Angstroms)
 Number     Number       Type             X           Y           Z
 ---------------------------------------------------------------------
      1          8           0       -2.962210    0.103699    0.007244
      2          1           0       -3.187765   -0.830333   -0.000060
      3         53           0        0.544710   -0.001403    0.000422
      4          1           0       -1.984195    0.075088   -0.080272
 ---------------------------------------------------------------------
 Rotational constants (GHZ):         321.1862010           2.5114667           2.4921568
 Basis read from rwf:  (5D, 7F)
 Pseudo-potential data read from rwf file.
 There are   170 symmetry adapted cartesian basis functions of A   symmetry.
 There are   147 symmetry adapted basis functions of A   symmetry.
   147 basis functions,   296 primitive gaussians,   170 cartesian basis functions
    18 alpha electrons       18 beta electrons
       nuclear repulsion energy        47.9178013958 Hartrees.
 NAtoms=    4 NActive=    4 NUniq=    4 SFac= 1.00D+00 NAtFMM=   60 NAOKFM=F Big=F
 Integral buffers will be    131072 words long.
 Raffenetti 1 integral format.
 Two-electron integral symmetry is turned on.
 One-electron integrals computed using PRISM.
   1 Symmetry operations used in ECPInt.
 ECPInt:  NShTT=    1225 NPrTT=    5557 LenC2=    1226 LenP2D=    4931.
 LDataN:  DoStor=T MaxTD1= 7 Len=  274
 NBasis=   147 RedAO= T EigKep=  2.79D-04  NBF=   147
 NBsUse=   147 1.00D-06 EigRej= -1.00D+00 NBFU=   147
 Initial guess from the checkpoint file:  "/gscratch/ilahie/mccoygrp/coire_hocl/oop_s_rOH_opt/ihod/ihod_oop_s.chk"
 B after Tr=    -0.000000    0.000000    0.000000
         Rot=    0.717625   -0.000031    0.000028   -0.696430 Ang= -88.28 deg.
 ExpMin= 2.53D-02 ExpMax= 1.53D+04 ExpMxC= 5.22D+02 IAcc=3 IRadAn=         5 AccDes= 0.00D+00
 Harris functional with IExCor=  205 and IRadAn=       5 diagonalized for initial guess.
 HarFok:  IExCor=  205 AccDes= 0.00D+00 IRadAn=         5 IDoV= 1 UseB2=F ITyADJ=14
 ICtDFT=  3500011 ScaDFX=  1.000000  1.000000  1.000000  1.000000
 Defaulting to unpruned grid for atomic number  53.
 FoFCou: FMM=F IPFlag=           0 FMFlag=      100000 FMFlg1=           0
         NFxFlg=           0 DoJE=T BraDBF=F KetDBF=T FulRan=T
         wScrn=  0.000000 ICntrl=       500 IOpCl=  0 I1Cent=   200000004 NGrid=           0
         NMat0=    1 NMatS0=      1 NMatT0=    0 NMatD0=    1 NMtDS0=    0 NMtDT0=    0
 Petite list used in FoFCou.
 Keep R1 ints in memory in canonical form, NReq=117069617.
 Requested convergence on RMS density matrix=1.00D-08 within 128 cycles.
 Requested convergence on MAX density matrix=1.00D-06.
 Requested convergence on             energy=1.00D-06.
 No special actions if energy rises.
 SCF Done:  E(RHF) =  -370.816637492     A.U. after   10 cycles
            NFock= 10  Conv=0.29D-08     -V/T= 2.9847
 ExpMin= 2.53D-02 ExpMax= 1.53D+04 ExpMxC= 5.22D+02 IAcc=3 IRadAn=         5 AccDes= 0.00D+00
 HarFok:  IExCor=  205 AccDes= 0.00D+00 IRadAn=         5 IDoV=-2 UseB2=F ITyADJ=14
 ICtDFT= 12500011 ScaDFX=  1.000000  1.000000  1.000000  1.000000
 Defaulting to unpruned grid for atomic number  53.
 Range of M.O.s used for correlation:     6   147
 NBasis=   147 NAE=    18 NBE=    18 NFC=     5 NFV=     0
 NROrb=    142 NOA=    13 NOB=    13 NVA=   129 NVB=   129

 **** Warning!!: The largest alpha MO coefficient is  0.15562243D+02

 Fully direct method using O(ONN) memory.
 JobTyp=1 Pass  1:  I=   6 to  18 NPSUse= 28 ParTrn=T ParDer=T DoDerP=T.
 Spin components of T(2) and E(2):
     alpha-alpha T2 =       0.2163107403D-01 E2=     -0.6741178346D-01
     alpha-beta  T2 =       0.1131637010D+00 E2=     -0.3621270597D+00
     beta-beta   T2 =       0.2163107403D-01 E2=     -0.6741178346D-01
 ANorm=    0.1075372423D+01
 E2 =    -0.4969506266D+00 EUMP2 =    -0.37131358811809D+03
          IDoAtm=1111
          Differentiating once with respect to electric field.
                with respect to dipole field.
          Differentiating once with respect to nuclear coordinates.
 Keep R1 ints in memory in canonical form, NReq=117072441.
          There are     1 degrees of freedom in the 1st order CPHF.  IDoFFX=0 NUNeed=     1.
 LinEq1:  Iter=  0 NonCon=     1 RMS=2.66D-03 Max=4.57D-02 NDo=     1
 AX will form     1 AO Fock derivatives at one time.
 LinEq1:  Iter=  1 NonCon=     1 RMS=4.28D-04 Max=5.25D-03 NDo=     1
 LinEq1:  Iter=  2 NonCon=     1 RMS=1.91D-04 Max=2.74D-03 NDo=     1
 LinEq1:  Iter=  3 NonCon=     1 RMS=4.44D-05 Max=6.89D-04 NDo=     1
 LinEq1:  Iter=  4 NonCon=     1 RMS=1.28D-05 Max=1.30D-04 NDo=     1
 LinEq1:  Iter=  5 NonCon=     1 RMS=3.42D-06 Max=3.71D-05 NDo=     1
 LinEq1:  Iter=  6 NonCon=     1 RMS=7.30D-07 Max=1.15D-05 NDo=     1
 LinEq1:  Iter=  7 NonCon=     1 RMS=1.62D-07 Max=2.33D-06 NDo=     1
 LinEq1:  Iter=  8 NonCon=     1 RMS=4.57D-08 Max=5.90D-07 NDo=     1
 LinEq1:  Iter=  9 NonCon=     1 RMS=9.01D-09 Max=1.42D-07 NDo=     1
 LinEq1:  Iter= 10 NonCon=     1 RMS=1.51D-09 Max=1.76D-08 NDo=     1
 LinEq1:  Iter= 11 NonCon=     1 RMS=2.84D-10 Max=3.77D-09 NDo=     1
 LinEq1:  Iter= 12 NonCon=     1 RMS=7.99D-11 Max=1.15D-09 NDo=     1
 LinEq1:  Iter= 13 NonCon=     0 RMS=1.91D-11 Max=2.19D-10 NDo=     1
 Linear equations converged to 1.000D-10 1.000D-09 after    13 iterations.
 End of Minotr F.D. properties file   721 does not exist.
 End of Minotr F.D. properties file   722 does not exist.
 End of Minotr F.D. properties file   788 does not exist.
   1 Symmetry operations used in ECPInt.
 ECPInt:  NShTT=    1225 NPrTT=    5557 LenC2=    1226 LenP2D=    4931.
 LDataN:  DoStor=T MaxTD1= 8 Len=  415
 Calling FoFJK, ICntrl=  10002127 FMM=F ISym2X=0 I1Cent= 0 IOpClX= 0 NMat=1 NMatS=1 NMatT=0.
 ***** Axes restored to original set *****
 -------------------------------------------------------------------
 Center     Atomic                   Forces (Hartrees/Bohr)
 Number     Number              X              Y              Z
 -------------------------------------------------------------------
      1        8           0.002002258   -0.000354954    0.001993686
      2        1           0.000157133   -0.000028402   -0.000277752
      3       53           0.000837928   -0.000188190    0.000643983
      4        1          -0.002997318    0.000571547   -0.002359917
 -------------------------------------------------------------------
 Cartesian Forces:  Max     0.002997318 RMS     0.001421399
 -----------------------------------------------------------------------------------------------
                       Internal Coordinate Forces (Hartree/Bohr or radian)
  Cent   Atom   N1       Length/X         N2         Alpha/Y        N3         Beta/Z          J
 -----------------------------------------------------------------------------------------------
      1  O 
         X        1   0.000000(     1)
      2  H        1   0.000157(     2)      2   0.000504(     5)
      3  I        1   0.000012(     3)      2  -0.004270(     6)      3  -0.005693(     8)     0
      4  H        1  -0.000149(     4)      2   0.004373(     7)      3   0.005642(     9)     0
 -----------------------------------------------------------------------------------------------
 Internal  Forces:  Max     0.005693385 RMS     0.003364888

 GradGradGradGradGradGradGradGradGradGradGradGradGradGradGradGradGradGrad
 Berny optimization.
 Search for a local minimum.
 Step number   1 out of a maximum of   20 on scan point     2 out of    11
 All quantities printed in internal units (Hartrees-Bohrs-Radians)
 Second derivative matrix not updated -- first step.
 The second derivative matrix:
                          r1        r2        r3        a1        OOP
           r1           0.55279
           r2           0.00000   0.01408
           r3          -0.00000   0.00000   0.50933
           a1          -0.00000   0.00000   0.00000   0.32000
           OOP          0.00000  -0.00000  -0.00000  -0.00000   0.16000
 ITU=  0
     Eigenvalues ---    0.509331000.000001000.000001000.000001000.00000
 RFO step:  Lambda=-4.37753213D-08 EMin= 5.09330843D-01
 Linear search not attempted -- first point.
 Variable       Old X    -DE/DX   Delta X   Delta X   Delta X     New X
                                 (Linear)    (Quad)   (Total)
    r1        1.81585   0.00016   0.00000   0.00000   0.00000   1.81585
    r2        6.63011   0.00001   0.00000   0.00000   0.00000   6.63011
    r3        1.85635  -0.00015   0.00000  -0.00029  -0.00029   1.85606
    a1        1.77776  -0.00005   0.00000   0.00000   0.00000   1.77776
   OOP        1.48353   0.00437   0.00000   0.00000   0.00000   1.48353
         Item               Value     Threshold  Converged?
 Maximum Force            0.000149     0.000450     YES
 RMS     Force            0.000149     0.000300     YES
 Maximum Displacement     0.000293     0.001800     YES
 RMS     Displacement     0.000131     0.001200     YES
 Predicted change in Energy=-2.188766D-08
 Optimization completed.
    -- Stationary point found.
                       ----------------------------
                       !   Optimized Parameters   !
                       ! (Angstroms and Degrees)  !
 ----------------------                            ----------------------
 !      Name          Value   Derivative information (Atomic Units)     !
 ------------------------------------------------------------------------
 !       r1          0.9609   -DE/DX =    0.0002                        !
 !       r2          3.5085   -DE/DX =    0.0                           !
 !       r3          0.9823   -DE/DX =   -0.0001                        !
 !       a1        101.8583   -DE/DX =   -0.0001                        !
 !       OOP        85.0      -DE/DX =    0.0044                        !
 ------------------------------------------------------------------------
 GradGradGradGradGradGradGradGradGradGradGradGradGradGradGradGradGradGrad

 ---------------------------------------------------------------------------------------------------
                            Z-MATRIX (ANGSTROMS AND DEGREES)
   CD    Cent   Atom    N1       Length/X        N2       Alpha/Y        N3        Beta/Z          J
 ---------------------------------------------------------------------------------------------------
      1      1  O 
      2         X        1  10.000000(     1)
      3      2  H        1   0.960908(     2)      2   90.000(     5)
      4      3  I        1   3.508501(     3)      2   90.000(     6)      3  101.858(     8)      0
      5      4  H        1   0.982340(     4)      2   80.000(     7)      3  101.858(     9)      0
 ---------------------------------------------------------------------------------------------------
                         Z-Matrix orientation:                         
 ---------------------------------------------------------------------
 Center     Atomic      Atomic             Coordinates (Angstroms)
 Number     Number       Type             X           Y           Z
 ---------------------------------------------------------------------
      1          8           0        0.000000    0.000000    0.000000
      2         -1           0        0.000000    0.000000   10.000000
      3          1           0        0.960908    0.000000    0.000000
      4         53           0       -0.720970   -3.433625    0.000000
      5          1           0       -0.198796   -0.946770    0.170581
 ---------------------------------------------------------------------
                    Distance matrix (angstroms):
                    1          2          3          4          5
     1  O    0.000000
     2  X   10.000000   0.000000
     3  H    0.960908  10.046061   0.000000
     4  I    3.508501  10.597622   3.823414   0.000000
     5  H    0.982340   9.876911   1.506780   2.546805   0.000000
 Stoichiometry    H2IO(1-)
 Framework group  C1[X(H2IO)]
 Deg. of freedom     6
 Full point group                 C1      NOp   1
 Largest Abelian subgroup         C1      NOp   1
 Largest concise Abelian subgroup C1      NOp   1
                         Standard orientation:                         
 ---------------------------------------------------------------------
 Center     Atomic      Atomic             Coordinates (Angstroms)
 Number     Number       Type             X           Y           Z
 ---------------------------------------------------------------------
      1          8           0       -2.962014    0.103473    0.014535
      2          1           0       -3.187554   -0.830470   -0.000487
      3         53           0        0.544892   -0.001410    0.000830
      4          1           0       -1.995619    0.077436   -0.159800
 ---------------------------------------------------------------------
 Rotational constants (GHZ):         316.8843890           2.5106109           2.4915730
 Basis read from rwf:  (5D, 7F)
 Pseudo-potential data read from rwf file.
 There are   170 symmetry adapted cartesian basis functions of A   symmetry.
 There are   147 symmetry adapted basis functions of A   symmetry.
   147 basis functions,   296 primitive gaussians,   170 cartesian basis functions
    18 alpha electrons       18 beta electrons
       nuclear repulsion energy        47.8864243735 Hartrees.
 NAtoms=    4 NActive=    4 NUniq=    4 SFac= 1.00D+00 NAtFMM=   60 NAOKFM=F Big=F
 Integral buffers will be    131072 words long.
 Raffenetti 1 integral format.
 Two-electron integral symmetry is turned on.
 One-electron integrals computed using PRISM.
   1 Symmetry operations used in ECPInt.
 ECPInt:  NShTT=    1225 NPrTT=    5557 LenC2=    1226 LenP2D=    4931.
 LDataN:  DoStor=T MaxTD1= 7 Len=  274
 NBasis=   147 RedAO= T EigKep=  2.88D-04  NBF=   147
 NBsUse=   147 1.00D-06 EigRej= -1.00D+00 NBFU=   147
 Initial guess from the checkpoint file:  "/gscratch/ilahie/mccoygrp/coire_hocl/oop_s_rOH_opt/ihod/ihod_oop_s.chk"
 B after Tr=    -0.000000    0.000000    0.000000
         Rot=    1.000000   -0.000380   -0.000014   -0.000009 Ang=  -0.04 deg.
 ExpMin= 2.53D-02 ExpMax= 1.53D+04 ExpMxC= 5.22D+02 IAcc=3 IRadAn=         5 AccDes= 0.00D+00
 Harris functional with IExCor=  205 and IRadAn=       5 diagonalized for initial guess.
 HarFok:  IExCor=  205 AccDes= 0.00D+00 IRadAn=         5 IDoV= 1 UseB2=F ITyADJ=14
 ICtDFT=  3500011 ScaDFX=  1.000000  1.000000  1.000000  1.000000
 Defaulting to unpruned grid for atomic number  53.
 FoFCou: FMM=F IPFlag=           0 FMFlag=      100000 FMFlg1=           0
         NFxFlg=           0 DoJE=T BraDBF=F KetDBF=T FulRan=T
         wScrn=  0.000000 ICntrl=       500 IOpCl=  0 I1Cent=   200000004 NGrid=           0
         NMat0=    1 NMatS0=      1 NMatT0=    0 NMatD0=    1 NMtDS0=    0 NMtDT0=    0
 Petite list used in FoFCou.
 Keep R1 ints in memory in canonical form, NReq=117069617.
 Requested convergence on RMS density matrix=1.00D-08 within 128 cycles.
 Requested convergence on MAX density matrix=1.00D-06.
 Requested convergence on             energy=1.00D-06.
 No special actions if energy rises.
 SCF Done:  E(RHF) =  -370.816214944     A.U. after   10 cycles
            NFock= 10  Conv=0.30D-08     -V/T= 2.9847
 ExpMin= 2.53D-02 ExpMax= 1.53D+04 ExpMxC= 5.22D+02 IAcc=3 IRadAn=         5 AccDes= 0.00D+00
 HarFok:  IExCor=  205 AccDes= 0.00D+00 IRadAn=         5 IDoV=-2 UseB2=F ITyADJ=14
 ICtDFT= 12500011 ScaDFX=  1.000000  1.000000  1.000000  1.000000
 Defaulting to unpruned grid for atomic number  53.
 Range of M.O.s used for correlation:     6   147
 NBasis=   147 NAE=    18 NBE=    18 NFC=     5 NFV=     0
 NROrb=    142 NOA=    13 NOB=    13 NVA=   129 NVB=   129

 **** Warning!!: The largest alpha MO coefficient is  0.15410285D+02

 Fully direct method using O(ONN) memory.
 JobTyp=1 Pass  1:  I=   6 to  18 NPSUse= 28 ParTrn=T ParDer=T DoDerP=T.
 Spin components of T(2) and E(2):
     alpha-alpha T2 =       0.2162739839D-01 E2=     -0.6738342164D-01
     alpha-beta  T2 =       0.1131708837D+00 E2=     -0.3620418693D+00
     beta-beta   T2 =       0.2162739839D-01 E2=     -0.6738342164D-01
 ANorm=    0.1075372345D+01
 E2 =    -0.4968087125D+00 EUMP2 =    -0.37131302365687D+03
          IDoAtm=1111
          Differentiating once with respect to electric field.
                with respect to dipole field.
          Differentiating once with respect to nuclear coordinates.
 Keep R1 ints in memory in canonical form, NReq=117072441.
          There are     1 degrees of freedom in the 1st order CPHF.  IDoFFX=0 NUNeed=     1.
 LinEq1:  Iter=  0 NonCon=     1 RMS=2.66D-03 Max=4.31D-02 NDo=     1
 AX will form     1 AO Fock derivatives at one time.
 LinEq1:  Iter=  1 NonCon=     1 RMS=4.28D-04 Max=5.24D-03 NDo=     1
 LinEq1:  Iter=  2 NonCon=     1 RMS=1.91D-04 Max=2.73D-03 NDo=     1
 LinEq1:  Iter=  3 NonCon=     1 RMS=4.45D-05 Max=6.70D-04 NDo=     1
 LinEq1:  Iter=  4 NonCon=     1 RMS=1.28D-05 Max=1.27D-04 NDo=     1
 LinEq1:  Iter=  5 NonCon=     1 RMS=3.45D-06 Max=3.40D-05 NDo=     1
 LinEq1:  Iter=  6 NonCon=     1 RMS=7.39D-07 Max=1.11D-05 NDo=     1
 LinEq1:  Iter=  7 NonCon=     1 RMS=1.65D-07 Max=2.17D-06 NDo=     1
 LinEq1:  Iter=  8 NonCon=     1 RMS=4.64D-08 Max=5.55D-07 NDo=     1
 LinEq1:  Iter=  9 NonCon=     1 RMS=9.34D-09 Max=1.39D-07 NDo=     1
 LinEq1:  Iter= 10 NonCon=     1 RMS=1.69D-09 Max=1.94D-08 NDo=     1
 LinEq1:  Iter= 11 NonCon=     1 RMS=3.37D-10 Max=4.21D-09 NDo=     1
 LinEq1:  Iter= 12 NonCon=     1 RMS=8.86D-11 Max=1.06D-09 NDo=     1
 LinEq1:  Iter= 13 NonCon=     0 RMS=2.17D-11 Max=2.27D-10 NDo=     1
 Linear equations converged to 1.000D-10 1.000D-09 after    13 iterations.
 End of Minotr F.D. properties file   721 does not exist.
 End of Minotr F.D. properties file   722 does not exist.
 End of Minotr F.D. properties file   788 does not exist.
   1 Symmetry operations used in ECPInt.
 ECPInt:  NShTT=    1225 NPrTT=    5557 LenC2=    1226 LenP2D=    4931.
 LDataN:  DoStor=T MaxTD1= 8 Len=  415
 Calling FoFJK, ICntrl=  10002127 FMM=F ISym2X=0 I1Cent= 0 IOpClX= 0 NMat=1 NMatS=1 NMatT=0.
 ***** Axes restored to original set *****
 -------------------------------------------------------------------
 Center     Atomic                   Forces (Hartrees/Bohr)
 Number     Number              X              Y              Z
 -------------------------------------------------------------------
      1        8           0.002076864   -0.000532892    0.003993107
      2        1           0.000270540    0.000103885   -0.000590312
      3       53           0.000839099   -0.000232096    0.001250128
      4        1          -0.003186504    0.000661103   -0.004652923
 -------------------------------------------------------------------
 Cartesian Forces:  Max     0.004652923 RMS     0.002151279
 -----------------------------------------------------------------------------------------------
                       Internal Coordinate Forces (Hartree/Bohr or radian)
  Cent   Atom   N1       Length/X         N2         Alpha/Y        N3         Beta/Z          J
 -----------------------------------------------------------------------------------------------
      1  O 
         X        1   0.000000(     1)
      2  H        1   0.000271(     2)      2   0.001072(     5)
      3  I        1   0.000055(     3)      2  -0.008288(     6)      3  -0.005761(     8)     0
      4  H        1  -0.000800(     4)      2   0.008509(     7)      3   0.005949(     9)     0
 -----------------------------------------------------------------------------------------------
 Internal  Forces:  Max     0.008508761 RMS     0.004848211

 GradGradGradGradGradGradGradGradGradGradGradGradGradGradGradGradGradGrad
 Berny optimization.
 Search for a local minimum.
 Step number   1 out of a maximum of   20 on scan point     3 out of    11
 All quantities printed in internal units (Hartrees-Bohrs-Radians)
 Second derivative matrix not updated -- first step.
 The second derivative matrix:
                          r1        r2        r3        a1        OOP
           r1           0.55279
           r2           0.00000   0.01408
           r3          -0.00000   0.00000   0.50933
           a1          -0.00000   0.00000   0.00000   0.32000
           OOP          0.00000  -0.00000  -0.00000  -0.00000   0.16000
 ITU=  0
     Eigenvalues ---    0.509331000.000001000.000001000.000001000.00000
 RFO step:  Lambda=-1.25743833D-06 EMin= 5.09330843D-01
 Linear search not attempted -- first point.
 Variable       Old X    -DE/DX   Delta X   Delta X   Delta X     New X
                                 (Linear)    (Quad)   (Total)
    r1        1.81585   0.00027   0.00000   0.00000   0.00000   1.81585
    r2        6.63011   0.00005   0.00000   0.00000   0.00000   6.63011
    r3        1.85635  -0.00080   0.00000  -0.00157  -0.00157   1.85478
    a1        1.77776   0.00019   0.00000   0.00000   0.00000   1.77776
   OOP        1.39626   0.00851   0.00000   0.00000   0.00000   1.39626
         Item               Value     Threshold  Converged?
 Maximum Force            0.000800     0.000450     NO 
 RMS     Force            0.000800     0.000300     NO 
 Maximum Displacement     0.001571     0.001800     YES
 RMS     Displacement     0.000703     0.001200     YES
 Predicted change in Energy=-6.287192D-07
 GradGradGradGradGradGradGradGradGradGradGradGradGradGradGradGradGradGrad

 ---------------------------------------------------------------------------------------------------
                            Z-MATRIX (ANGSTROMS AND DEGREES)
   CD    Cent   Atom    N1       Length/X        N2       Alpha/Y        N3        Beta/Z          J
 ---------------------------------------------------------------------------------------------------
      1      1  O 
      2         X        1  10.000000(     1)
      3      2  H        1   0.960908(     2)      2   90.000(     5)
      4      3  I        1   3.508501(     3)      2   90.000(     6)      3  101.858(     8)      0
      5      4  H        1   0.981508(     4)      2   80.000(     7)      3  101.858(     9)      0
 ---------------------------------------------------------------------------------------------------
                         Z-Matrix orientation:                         
 ---------------------------------------------------------------------
 Center     Atomic      Atomic             Coordinates (Angstroms)
 Number     Number       Type             X           Y           Z
 ---------------------------------------------------------------------
      1          8           0        0.000000    0.000000    0.000000
      2         -1           0        0.000000    0.000000   10.000000
      3          1           0        0.960908    0.000000    0.000000
      4         53           0       -0.720970   -3.433625    0.000000
      5          1           0       -0.198628   -0.945968    0.170437
 ---------------------------------------------------------------------
                    Distance matrix (angstroms):
                    1          2          3          4          5
     1  O    0.000000
     2  X   10.000000   0.000000
     3  H    0.960908  10.046061   0.000000
     4  I    3.508501  10.597622   3.823414   0.000000
     5  H    0.981508   9.876974   1.506130   2.547612   0.000000
 Stoichiometry    H2IO(1-)
 Framework group  C1[X(H2IO)]
 Deg. of freedom     6
 Full point group                 C1      NOp   1
 Largest Abelian subgroup         C1      NOp   1
 Largest concise Abelian subgroup C1      NOp   1
                         Standard orientation:                         
 ---------------------------------------------------------------------
 Center     Atomic      Atomic             Coordinates (Angstroms)
 Number     Number       Type             X           Y           Z
 ---------------------------------------------------------------------
      1          8           0       -2.962001    0.103469    0.014527
      2          1           0       -3.187540   -0.830474   -0.000486
      3         53           0        0.544905   -0.001410    0.000829
      4          1           0       -1.996424    0.077454   -0.159659
 ---------------------------------------------------------------------
 Rotational constants (GHZ):         316.8932789           2.5105686           2.4915307
 Basis read from rwf:  (5D, 7F)
 Pseudo-potential data read from rwf file.
 There are   170 symmetry adapted cartesian basis functions of A   symmetry.
 There are   147 symmetry adapted basis functions of A   symmetry.
   147 basis functions,   296 primitive gaussians,   170 cartesian basis functions
    18 alpha electrons       18 beta electrons
       nuclear repulsion energy        47.8885803689 Hartrees.
 NAtoms=    4 NActive=    4 NUniq=    4 SFac= 1.00D+00 NAtFMM=   60 NAOKFM=F Big=F
 Integral buffers will be    131072 words long.
 Raffenetti 1 integral format.
 Two-electron integral symmetry is turned on.
 One-electron integrals computed using PRISM.
   1 Symmetry operations used in ECPInt.
 ECPInt:  NShTT=    1225 NPrTT=    5557 LenC2=    1226 LenP2D=    4931.
 LDataN:  DoStor=T MaxTD1= 7 Len=  274
 NBasis=   147 RedAO= T EigKep=  2.88D-04  NBF=   147
 NBsUse=   147 1.00D-06 EigRej= -1.00D+00 NBFU=   147
 Initial guess from the checkpoint file:  "/gscratch/ilahie/mccoygrp/coire_hocl/oop_s_rOH_opt/ihod/ihod_oop_s.chk"
 B after Tr=     0.000000   -0.000000   -0.000000
         Rot=    1.000000   -0.000004   -0.000001   -0.000001 Ang=  -0.00 deg.
 Keep R1 ints in memory in canonical form, NReq=117069617.
 Requested convergence on RMS density matrix=1.00D-08 within 128 cycles.
 Requested convergence on MAX density matrix=1.00D-06.
 Requested convergence on             energy=1.00D-06.
 No special actions if energy rises.
 SCF Done:  E(RHF) =  -370.816259428     A.U. after    7 cycles
            NFock=  7  Conv=0.36D-08     -V/T= 2.9847
 ExpMin= 2.53D-02 ExpMax= 1.53D+04 ExpMxC= 5.22D+02 IAcc=3 IRadAn=         5 AccDes= 0.00D+00
 HarFok:  IExCor=  205 AccDes= 0.00D+00 IRadAn=         5 IDoV=-2 UseB2=F ITyADJ=14
 ICtDFT= 12500011 ScaDFX=  1.000000  1.000000  1.000000  1.000000
 Defaulting to unpruned grid for atomic number  53.
 Range of M.O.s used for correlation:     6   147
 NBasis=   147 NAE=    18 NBE=    18 NFC=     5 NFV=     0
 NROrb=    142 NOA=    13 NOB=    13 NVA=   129 NVB=   129

 **** Warning!!: The largest alpha MO coefficient is  0.15416841D+02

 Fully direct method using O(ONN) memory.
 JobTyp=1 Pass  1:  I=   6 to  18 NPSUse= 28 ParTrn=T ParDer=T DoDerP=T.
 Spin components of T(2) and E(2):
     alpha-alpha T2 =       0.2162284062D-01 E2=     -0.6737680229D-01
     alpha-beta  T2 =       0.1131475401D+00 E2=     -0.3620113393D+00
     beta-beta   T2 =       0.2162284062D-01 E2=     -0.6737680229D-01
 ANorm=    0.1075357253D+01
 E2 =    -0.4967649439D+00 EUMP2 =    -0.37131302437155D+03
          IDoAtm=1111
          Differentiating once with respect to electric field.
                with respect to dipole field.
          Differentiating once with respect to nuclear coordinates.
 Keep R1 ints in memory in canonical form, NReq=117072441.
          There are     1 degrees of freedom in the 1st order CPHF.  IDoFFX=0 NUNeed=     1.
 LinEq1:  Iter=  0 NonCon=     1 RMS=2.66D-03 Max=4.30D-02 NDo=     1
 AX will form     1 AO Fock derivatives at one time.
 LinEq1:  Iter=  1 NonCon=     1 RMS=4.28D-04 Max=5.23D-03 NDo=     1
 LinEq1:  Iter=  2 NonCon=     1 RMS=1.91D-04 Max=2.73D-03 NDo=     1
 LinEq1:  Iter=  3 NonCon=     1 RMS=4.44D-05 Max=6.69D-04 NDo=     1
 LinEq1:  Iter=  4 NonCon=     1 RMS=1.28D-05 Max=1.27D-04 NDo=     1
 LinEq1:  Iter=  5 NonCon=     1 RMS=3.44D-06 Max=3.39D-05 NDo=     1
 LinEq1:  Iter=  6 NonCon=     1 RMS=7.37D-07 Max=1.10D-05 NDo=     1
 LinEq1:  Iter=  7 NonCon=     1 RMS=1.64D-07 Max=2.17D-06 NDo=     1
 LinEq1:  Iter=  8 NonCon=     1 RMS=4.63D-08 Max=5.55D-07 NDo=     1
 LinEq1:  Iter=  9 NonCon=     1 RMS=9.32D-09 Max=1.39D-07 NDo=     1
 LinEq1:  Iter= 10 NonCon=     1 RMS=1.68D-09 Max=1.94D-08 NDo=     1
 LinEq1:  Iter= 11 NonCon=     1 RMS=3.37D-10 Max=4.20D-09 NDo=     1
 LinEq1:  Iter= 12 NonCon=     1 RMS=8.84D-11 Max=1.06D-09 NDo=     1
 LinEq1:  Iter= 13 NonCon=     0 RMS=2.17D-11 Max=2.27D-10 NDo=     1
 Linear equations converged to 1.000D-10 1.000D-09 after    13 iterations.
 End of Minotr F.D. properties file   721 does not exist.
 End of Minotr F.D. properties file   722 does not exist.
 End of Minotr F.D. properties file   788 does not exist.
   1 Symmetry operations used in ECPInt.
 ECPInt:  NShTT=    1225 NPrTT=    5557 LenC2=    1226 LenP2D=    4931.
 LDataN:  DoStor=T MaxTD1= 8 Len=  415
 Calling FoFJK, ICntrl=  10002127 FMM=F ISym2X=0 I1Cent= 0 IOpClX= 0 NMat=1 NMatS=1 NMatT=0.
 ***** Axes restored to original set *****
 -------------------------------------------------------------------
 Center     Atomic                   Forces (Hartrees/Bohr)
 Number     Number              X              Y              Z
 -------------------------------------------------------------------
      1        8           0.002253526    0.000113539    0.003875600
      2        1           0.000260464    0.000124479   -0.000594708
      3       53           0.000838843   -0.000238378    0.001247584
      4        1          -0.003352833    0.000000359   -0.004528476
 -------------------------------------------------------------------
 Cartesian Forces:  Max     0.004528476 RMS     0.002133348
 -----------------------------------------------------------------------------------------------
                       Internal Coordinate Forces (Hartree/Bohr or radian)
  Cent   Atom   N1       Length/X         N2         Alpha/Y        N3         Beta/Z          J
 -----------------------------------------------------------------------------------------------
      1  O 
         X        1   0.000000(     1)
      2  H        1   0.000260(     2)      2   0.001080(     5)
      3  I        1   0.000061(     3)      2  -0.008272(     6)      3  -0.005768(     8)     0
      4  H        1  -0.000108(     4)      2   0.008494(     7)      3   0.005994(     9)     0
 -----------------------------------------------------------------------------------------------
 Internal  Forces:  Max     0.008493523 RMS     0.004841948

 GradGradGradGradGradGradGradGradGradGradGradGradGradGradGradGradGradGrad
 Berny optimization.
 Search for a local minimum.
 Step number   2 out of a maximum of   20 on scan point     3 out of    11
 All quantities printed in internal units (Hartrees-Bohrs-Radians)
 Update second derivatives using D2CorN and points    1    2
 DE= -7.15D-07 DEPred=-6.29D-07 R= 1.14D+00
 Trust test= 1.14D+00 RLast= 1.57D-03 DXMaxT set to 3.00D-01
 The second derivative matrix:
                          r1        r2        r3        a1        OOP
           r1           0.55279
           r2           0.00000   0.01408
           r3          -0.00321   0.00197   0.44047
           a1          -0.00000   0.00000   0.01190   0.32000
           OOP          0.00000  -0.00000  -0.00485  -0.00000   0.16000
 ITU=  0  0
     Eigenvalues ---    0.440471000.000001000.000001000.000001000.00000
 RFO step:  Lambda= 0.00000000D+00 EMin= 4.40473233D-01
 Quartic linear search produced a step of  0.15537.
 Variable       Old X    -DE/DX   Delta X   Delta X   Delta X     New X
                                 (Linear)    (Quad)   (Total)
    r1        1.81585   0.00026   0.00000   0.00000   0.00000   1.81585
    r2        6.63011   0.00006   0.00000   0.00000   0.00000   6.63011
    r3        1.85478  -0.00011  -0.00024   0.00000  -0.00024   1.85454
    a1        1.77776   0.00023   0.00000   0.00000   0.00000   1.77776
   OOP        1.39626   0.00849   0.00000   0.00000   0.00000   1.39626
         Item               Value     Threshold  Converged?
 Maximum Force            0.000108     0.000450     YES
 RMS     Force            0.000108     0.000300     YES
 Maximum Displacement     0.000244     0.001800     YES
 RMS     Displacement     0.000109     0.001200     YES
 Predicted change in Energy=-1.328736D-08
 Optimization completed.
    -- Stationary point found.
                       ----------------------------
                       !   Optimized Parameters   !
                       ! (Angstroms and Degrees)  !
 ----------------------                            ----------------------
 !      Name          Value   Derivative information (Atomic Units)     !
 ------------------------------------------------------------------------
 !       r1          0.9609   -DE/DX =    0.0003                        !
 !       r2          3.5085   -DE/DX =    0.0001                        !
 !       r3          0.9815   -DE/DX =   -0.0001                        !
 !       a1        101.8583   -DE/DX =    0.0002                        !
 !       OOP        80.0      -DE/DX =    0.0085                        !
 ------------------------------------------------------------------------
 GradGradGradGradGradGradGradGradGradGradGradGradGradGradGradGradGradGrad

 ---------------------------------------------------------------------------------------------------
                            Z-MATRIX (ANGSTROMS AND DEGREES)
   CD    Cent   Atom    N1       Length/X        N2       Alpha/Y        N3        Beta/Z          J
 ---------------------------------------------------------------------------------------------------
      1      1  O 
      2         X        1  10.000000(     1)
      3      2  H        1   0.960908(     2)      2   90.000(     5)
      4      3  I        1   3.508501(     3)      2   90.000(     6)      3  101.858(     8)      0
      5      4  H        1   0.981508(     4)      2   75.000(     7)      3  101.858(     9)      0
 ---------------------------------------------------------------------------------------------------
                         Z-Matrix orientation:                         
 ---------------------------------------------------------------------
 Center     Atomic      Atomic             Coordinates (Angstroms)
 Number     Number       Type             X           Y           Z
 ---------------------------------------------------------------------
      1          8           0        0.000000    0.000000    0.000000
      2         -1           0        0.000000    0.000000   10.000000
      3          1           0        0.960908    0.000000    0.000000
      4         53           0       -0.720970   -3.433625    0.000000
      5          1           0       -0.194820   -0.927831    0.254033
 ---------------------------------------------------------------------
                    Distance matrix (angstroms):
                    1          2          3          4          5
     1  O    0.000000
     2  X   10.000000   0.000000
     3  H    0.960908  10.046061   0.000000
     4  I    3.508501  10.597622   3.823414   0.000000
     5  H    0.981508   9.791971   1.503699   2.573008   0.000000
 Stoichiometry    H2IO(1-)
 Framework group  C1[X(H2IO)]
 Deg. of freedom     6
 Full point group                 C1      NOp   1
 Largest Abelian subgroup         C1      NOp   1
 Largest concise Abelian subgroup C1      NOp   1
                         Standard orientation:                         
 ---------------------------------------------------------------------
 Center     Atomic      Atomic             Coordinates (Angstroms)
 Number     Number       Type             X           Y           Z
 ---------------------------------------------------------------------
      1          8           0       -2.961677    0.103071    0.021913
      2          1           0       -3.187190   -0.830702   -0.001691
      3         53           0        0.545207   -0.001423    0.001208
      4          1           0       -2.015349    0.081567   -0.237623
 ---------------------------------------------------------------------
 Rotational constants (GHZ):         310.1261702           2.5091521           2.4905567
 Basis read from rwf:  (5D, 7F)
 Pseudo-potential data read from rwf file.
 There are   170 symmetry adapted cartesian basis functions of A   symmetry.
 There are   147 symmetry adapted basis functions of A   symmetry.
   147 basis functions,   296 primitive gaussians,   170 cartesian basis functions
    18 alpha electrons       18 beta electrons
       nuclear repulsion energy        47.8378935826 Hartrees.
 NAtoms=    4 NActive=    4 NUniq=    4 SFac= 1.00D+00 NAtFMM=   60 NAOKFM=F Big=F
 Integral buffers will be    131072 words long.
 Raffenetti 1 integral format.
 Two-electron integral symmetry is turned on.
 One-electron integrals computed using PRISM.
   1 Symmetry operations used in ECPInt.
 ECPInt:  NShTT=    1225 NPrTT=    5557 LenC2=    1226 LenP2D=    4931.
 LDataN:  DoStor=T MaxTD1= 7 Len=  274
 NBasis=   147 RedAO= T EigKep=  2.99D-04  NBF=   147
 NBsUse=   147 1.00D-06 EigRej= -1.00D+00 NBFU=   147
 Initial guess from the checkpoint file:  "/gscratch/ilahie/mccoygrp/coire_hocl/oop_s_rOH_opt/ihod/ihod_oop_s.chk"
 B after Tr=    -0.000000    0.000000    0.000000
         Rot=    0.999999   -0.001065   -0.000038   -0.000015 Ang=  -0.12 deg.
 Keep R1 ints in memory in canonical form, NReq=117069573.
 Requested convergence on RMS density matrix=1.00D-08 within 128 cycles.
 Requested convergence on MAX density matrix=1.00D-06.
 Requested convergence on             energy=1.00D-06.
 No special actions if energy rises.
 SCF Done:  E(RHF) =  -370.815565649     A.U. after   10 cycles
            NFock= 10  Conv=0.32D-08     -V/T= 2.9847
 ExpMin= 2.53D-02 ExpMax= 1.53D+04 ExpMxC= 5.22D+02 IAcc=3 IRadAn=         5 AccDes= 0.00D+00
 HarFok:  IExCor=  205 AccDes= 0.00D+00 IRadAn=         5 IDoV=-2 UseB2=F ITyADJ=14
 ICtDFT= 12500011 ScaDFX=  1.000000  1.000000  1.000000  1.000000
 Defaulting to unpruned grid for atomic number  53.
 Range of M.O.s used for correlation:     6   147
 NBasis=   147 NAE=    18 NBE=    18 NFC=     5 NFV=     0
 NROrb=    142 NOA=    13 NOB=    13 NVA=   129 NVB=   129

 **** Warning!!: The largest alpha MO coefficient is  0.14976994D+02

 Fully direct method using O(ONN) memory.
 JobTyp=1 Pass  1:  I=   6 to  18 NPSUse= 28 ParTrn=T ParDer=T DoDerP=T.
 Spin components of T(2) and E(2):
     alpha-alpha T2 =       0.2161716577D-01 E2=     -0.6733384075D-01
     alpha-beta  T2 =       0.1131602042D+00 E2=     -0.3618831416D+00
     beta-beta   T2 =       0.2161716577D-01 E2=     -0.6733384075D-01
 ANorm=    0.1075357864D+01
 E2 =    -0.4965508231D+00 EUMP2 =    -0.37131211647217D+03
          IDoAtm=1111
          Differentiating once with respect to electric field.
                with respect to dipole field.
          Differentiating once with respect to nuclear coordinates.
 Keep R1 ints in memory in canonical form, NReq=117072441.
          There are     1 degrees of freedom in the 1st order CPHF.  IDoFFX=0 NUNeed=     1.
 LinEq1:  Iter=  0 NonCon=     1 RMS=2.65D-03 Max=4.01D-02 NDo=     1
 AX will form     1 AO Fock derivatives at one time.
 LinEq1:  Iter=  1 NonCon=     1 RMS=4.28D-04 Max=5.19D-03 NDo=     1
 LinEq1:  Iter=  2 NonCon=     1 RMS=1.92D-04 Max=2.71D-03 NDo=     1
 LinEq1:  Iter=  3 NonCon=     1 RMS=4.45D-05 Max=6.41D-04 NDo=     1
 LinEq1:  Iter=  4 NonCon=     1 RMS=1.28D-05 Max=1.23D-04 NDo=     1
 LinEq1:  Iter=  5 NonCon=     1 RMS=3.48D-06 Max=4.07D-05 NDo=     1
 LinEq1:  Iter=  6 NonCon=     1 RMS=7.51D-07 Max=1.05D-05 NDo=     1
 LinEq1:  Iter=  7 NonCon=     1 RMS=1.68D-07 Max=1.96D-06 NDo=     1
 LinEq1:  Iter=  8 NonCon=     1 RMS=4.73D-08 Max=5.13D-07 NDo=     1
 LinEq1:  Iter=  9 NonCon=     1 RMS=9.76D-09 Max=1.34D-07 NDo=     1
 LinEq1:  Iter= 10 NonCon=     1 RMS=1.87D-09 Max=2.39D-08 NDo=     1
 LinEq1:  Iter= 11 NonCon=     1 RMS=3.74D-10 Max=4.23D-09 NDo=     1
 LinEq1:  Iter= 12 NonCon=     1 RMS=9.19D-11 Max=1.03D-09 NDo=     1
 LinEq1:  Iter= 13 NonCon=     0 RMS=2.27D-11 Max=2.32D-10 NDo=     1
 Linear equations converged to 1.000D-10 1.000D-09 after    13 iterations.
 End of Minotr F.D. properties file   721 does not exist.
 End of Minotr F.D. properties file   722 does not exist.
 End of Minotr F.D. properties file   788 does not exist.
   1 Symmetry operations used in ECPInt.
 ECPInt:  NShTT=    1225 NPrTT=    5557 LenC2=    1226 LenP2D=    4931.
 LDataN:  DoStor=T MaxTD1= 8 Len=  415
 Calling FoFJK, ICntrl=  10002127 FMM=F ISym2X=0 I1Cent= 0 IOpClX= 0 NMat=1 NMatS=1 NMatT=0.
 ***** Axes restored to original set *****
 -------------------------------------------------------------------
 Center     Atomic                   Forces (Hartrees/Bohr)
 Number     Number              X              Y              Z
 -------------------------------------------------------------------
      1        8           0.002378975   -0.000162565    0.005852183
      2        1           0.000446652    0.000335372   -0.000976454
      3       53           0.000839599   -0.000307736    0.001791677
      4        1          -0.003665227    0.000134929   -0.006667406
 -------------------------------------------------------------------
 Cartesian Forces:  Max     0.006667406 RMS     0.002931376
 -----------------------------------------------------------------------------------------------
                       Internal Coordinate Forces (Hartree/Bohr or radian)
  Cent   Atom   N1       Length/X         N2         Alpha/Y        N3         Beta/Z          J
 -----------------------------------------------------------------------------------------------
      1  O 
         X        1   0.000000(     1)
      2  H        1   0.000447(     2)      2   0.001773(     5)
      3  I        1   0.000129(     3)      2  -0.011879(     6)      3  -0.005867(     8)     0
      4  H        1  -0.001126(     4)      2   0.012243(     7)      3   0.006476(     9)     0
 -----------------------------------------------------------------------------------------------
 Internal  Forces:  Max     0.012243375 RMS     0.006429107

 GradGradGradGradGradGradGradGradGradGradGradGradGradGradGradGradGradGrad
 Berny optimization.
 Search for a local minimum.
 Step number   1 out of a maximum of   20 on scan point     4 out of    11
 All quantities printed in internal units (Hartrees-Bohrs-Radians)
 Second derivative matrix not updated -- first step.
 The second derivative matrix:
                          r1        r2        r3        a1        OOP
           r1           0.55279
           r2           0.00000   0.01408
           r3          -0.00321   0.00197   0.44047
           a1          -0.00000   0.00000   0.01190   0.32000
           OOP          0.00000  -0.00000  -0.00485  -0.00000   0.16000
 ITU=  0
     Eigenvalues ---    0.440471000.000001000.000001000.000001000.00000
 RFO step:  Lambda=-2.87685218D-06 EMin= 4.40473233D-01
 Linear search not attempted -- first point.
 Variable       Old X    -DE/DX   Delta X   Delta X   Delta X     New X
                                 (Linear)    (Quad)   (Total)
    r1        1.81585   0.00045   0.00000   0.00000   0.00000   1.81585
    r2        6.63011   0.00013   0.00000   0.00000   0.00000   6.63011
    r3        1.85478  -0.00113   0.00000  -0.00256  -0.00256   1.85223
    a1        1.77776   0.00061   0.00000   0.00000   0.00000   1.77776
   OOP        1.30900   0.01224   0.00000   0.00000   0.00000   1.30900
         Item               Value     Threshold  Converged?
 Maximum Force            0.001126     0.000450     NO 
 RMS     Force            0.001126     0.000300     NO 
 Maximum Displacement     0.002556     0.001800     NO 
 RMS     Displacement     0.001143     0.001200     YES
 Predicted change in Energy=-1.438426D-06
 GradGradGradGradGradGradGradGradGradGradGradGradGradGradGradGradGradGrad

 ---------------------------------------------------------------------------------------------------
                            Z-MATRIX (ANGSTROMS AND DEGREES)
   CD    Cent   Atom    N1       Length/X        N2       Alpha/Y        N3        Beta/Z          J
 ---------------------------------------------------------------------------------------------------
      1      1  O 
      2         X        1  10.000000(     1)
      3      2  H        1   0.960908(     2)      2   90.000(     5)
      4      3  I        1   3.508501(     3)      2   90.000(     6)      3  101.858(     8)      0
      5      4  H        1   0.980156(     4)      2   75.000(     7)      3  101.858(     9)      0
 ---------------------------------------------------------------------------------------------------
                         Z-Matrix orientation:                         
 ---------------------------------------------------------------------
 Center     Atomic      Atomic             Coordinates (Angstroms)
 Number     Number       Type             X           Y           Z
 ---------------------------------------------------------------------
      1          8           0        0.000000    0.000000    0.000000
      2         -1           0        0.000000    0.000000   10.000000
      3          1           0        0.960908    0.000000    0.000000
      4         53           0       -0.720970   -3.433625    0.000000
      5          1           0       -0.194551   -0.926553    0.253683
 ---------------------------------------------------------------------
                    Distance matrix (angstroms):
                    1          2          3          4          5
     1  O    0.000000
     2  X   10.000000   0.000000
     3  H    0.960908  10.046061   0.000000
     4  I    3.508501  10.597622   3.823414   0.000000
     5  H    0.980156   9.792193   1.502645   2.574274   0.000000
 Stoichiometry    H2IO(1-)
 Framework group  C1[X(H2IO)]
 Deg. of freedom     6
 Full point group                 C1      NOp   1
 Largest Abelian subgroup         C1      NOp   1
 Largest concise Abelian subgroup C1      NOp   1
                         Standard orientation:                         
 ---------------------------------------------------------------------
 Center     Atomic      Atomic             Coordinates (Angstroms)
 Number     Number       Type             X           Y           Z
 ---------------------------------------------------------------------
      1          8           0       -2.961657    0.103066    0.021892
      2          1           0       -3.187168   -0.830707   -0.001685
      3         53           0        0.545227   -0.001423    0.001204
      4          1           0       -2.016631    0.081586   -0.237282
 ---------------------------------------------------------------------
 Rotational constants (GHZ):         310.1583902           2.5090853           2.4904886
 Basis read from rwf:  (5D, 7F)
 Pseudo-potential data read from rwf file.
 There are   170 symmetry adapted cartesian basis functions of A   symmetry.
 There are   147 symmetry adapted basis functions of A   symmetry.
   147 basis functions,   296 primitive gaussians,   170 cartesian basis functions
    18 alpha electrons       18 beta electrons
       nuclear repulsion energy        47.8415641728 Hartrees.
 NAtoms=    4 NActive=    4 NUniq=    4 SFac= 1.00D+00 NAtFMM=   60 NAOKFM=F Big=F
 Integral buffers will be    131072 words long.
 Raffenetti 1 integral format.
 Two-electron integral symmetry is turned on.
 One-electron integrals computed using PRISM.
   1 Symmetry operations used in ECPInt.
 ECPInt:  NShTT=    1225 NPrTT=    5557 LenC2=    1226 LenP2D=    4931.
 LDataN:  DoStor=T MaxTD1= 7 Len=  274
 NBasis=   147 RedAO= T EigKep=  2.98D-04  NBF=   147
 NBsUse=   147 1.00D-06 EigRej= -1.00D+00 NBFU=   147
 Initial guess from the checkpoint file:  "/gscratch/ilahie/mccoygrp/coire_hocl/oop_s_rOH_opt/ihod/ihod_oop_s.chk"
 B after Tr=    -0.000000    0.000000    0.000000
         Rot=    1.000000   -0.000006   -0.000003   -0.000001 Ang=  -0.00 deg.
 Keep R1 ints in memory in canonical form, NReq=117069573.
 Requested convergence on RMS density matrix=1.00D-08 within 128 cycles.
 Requested convergence on MAX density matrix=1.00D-06.
 Requested convergence on             energy=1.00D-06.
 No special actions if energy rises.
 SCF Done:  E(RHF) =  -370.815637246     A.U. after    7 cycles
            NFock=  7  Conv=0.56D-08     -V/T= 2.9846
 ExpMin= 2.53D-02 ExpMax= 1.53D+04 ExpMxC= 5.22D+02 IAcc=3 IRadAn=         5 AccDes= 0.00D+00
 HarFok:  IExCor=  205 AccDes= 0.00D+00 IRadAn=         5 IDoV=-2 UseB2=F ITyADJ=14
 ICtDFT= 12500011 ScaDFX=  1.000000  1.000000  1.000000  1.000000
 Defaulting to unpruned grid for atomic number  53.
 Range of M.O.s used for correlation:     6   147
 NBasis=   147 NAE=    18 NBE=    18 NFC=     5 NFV=     0
 NROrb=    142 NOA=    13 NOB=    13 NVA=   129 NVB=   129

 **** Warning!!: The largest alpha MO coefficient is  0.14989950D+02

 Fully direct method using O(ONN) memory.
 JobTyp=1 Pass  1:  I=   6 to  18 NPSUse= 28 ParTrn=T ParDer=T DoDerP=T.
 Spin components of T(2) and E(2):
     alpha-alpha T2 =       0.2160981546D-01 E2=     -0.6732331740D-01
     alpha-beta  T2 =       0.1131221842D+00 E2=     -0.3618340139D+00
     beta-beta   T2 =       0.2160981546D-01 E2=     -0.6732331740D-01
 ANorm=    0.1075333351D+01
 E2 =    -0.4964806487D+00 EUMP2 =    -0.37131211789422D+03
          IDoAtm=1111
          Differentiating once with respect to electric field.
                with respect to dipole field.
          Differentiating once with respect to nuclear coordinates.
[...]
      3         53           0        0.550469   -0.001756    0.002019
      4          1           0       -2.345895    0.229785   -0.656793
 ---------------------------------------------------------------------
 Rotational constants (GHZ):         240.2150288           2.4848812           2.4722320
 Basis read from rwf:  (5D, 7F)
 Pseudo-potential data read from rwf file.
 There are   170 symmetry adapted cartesian basis functions of A   symmetry.
 There are   147 symmetry adapted basis functions of A   symmetry.
   147 basis functions,   296 primitive gaussians,   170 cartesian basis functions
    18 alpha electrons       18 beta electrons
       nuclear repulsion energy        47.2023788902 Hartrees.
 NAtoms=    4 NActive=    4 NUniq=    4 SFac= 1.00D+00 NAtFMM=   60 NAOKFM=F Big=F
 Integral buffers will be    131072 words long.
 Raffenetti 1 integral format.
 Two-electron integral symmetry is turned on.
 One-electron integrals computed using PRISM.
   1 Symmetry operations used in ECPInt.
 ECPInt:  NShTT=    1225 NPrTT=    5557 LenC2=    1226 LenP2D=    4924.
 LDataN:  DoStor=T MaxTD1= 7 Len=  274
 NBasis=   147 RedAO= T EigKep=  3.52D-04  NBF=   147
 NBsUse=   147 1.00D-06 EigRej= -1.00D+00 NBFU=   147
 Initial guess from the checkpoint file:  "/gscratch/ilahie/mccoygrp/coire_hocl/oop_s_rOH_opt/ihod/ihod_oop_s.chk"
 B after Tr=     0.000000   -0.000000   -0.000000
         Rot=    1.000000    0.000457   -0.000004   -0.000001 Ang=   0.05 deg.
 Keep R1 ints in memory in canonical form, NReq=117068473.
 Requested convergence on RMS density matrix=1.00D-08 within 128 cycles.
 Requested convergence on MAX density matrix=1.00D-06.
 Requested convergence on             energy=1.00D-06.
 No special actions if energy rises.
 SCF Done:  E(RHF) =  -370.805758008     A.U. after    7 cycles
            NFock=  7  Conv=0.30D-08     -V/T= 2.9845
 ExpMin= 2.53D-02 ExpMax= 1.53D+04 ExpMxC= 5.22D+02 IAcc=3 IRadAn=         5 AccDes= 0.00D+00
 HarFok:  IExCor=  205 AccDes= 0.00D+00 IRadAn=         5 IDoV=-2 UseB2=F ITyADJ=14
 ICtDFT= 12500011 ScaDFX=  1.000000  1.000000  1.000000  1.000000
 Defaulting to unpruned grid for atomic number  53.
 Range of M.O.s used for correlation:     6   147
 NBasis=   147 NAE=    18 NBE=    18 NFC=     5 NFV=     0
 NROrb=    142 NOA=    13 NOB=    13 NVA=   129 NVB=   129

 **** Warning!!: The largest alpha MO coefficient is  0.13901663D+02

 Fully direct method using O(ONN) memory.
 JobTyp=1 Pass  1:  I=   6 to  18 NPSUse= 28 ParTrn=T ParDer=T DoDerP=T.
 Spin components of T(2) and E(2):
     alpha-alpha T2 =       0.2151080045D-01 E2=     -0.6685488381D-01
     alpha-beta  T2 =       0.1130704199D+00 E2=     -0.3604008801D+00
     beta-beta   T2 =       0.2151080045D-01 E2=     -0.6685488381D-01
 ANorm=    0.1075217197D+01
 E2 =    -0.4941106477D+00 EUMP2 =    -0.37129986865612D+03
          IDoAtm=1111
          Differentiating once with respect to electric field.
                with respect to dipole field.
          Differentiating once with respect to nuclear coordinates.
 Keep R1 ints in memory in canonical form, NReq=117071737.
          There are     1 degrees of freedom in the 1st order CPHF.  IDoFFX=0 NUNeed=     1.
 LinEq1:  Iter=  0 NonCon=     1 RMS=2.62D-03 Max=3.34D-02 NDo=     1
 AX will form     1 AO Fock derivatives at one time.
 LinEq1:  Iter=  1 NonCon=     1 RMS=4.23D-04 Max=3.93D-03 NDo=     1
 LinEq1:  Iter=  2 NonCon=     1 RMS=1.96D-04 Max=2.03D-03 NDo=     1
 LinEq1:  Iter=  3 NonCon=     1 RMS=4.43D-05 Max=4.85D-04 NDo=     1
 LinEq1:  Iter=  4 NonCon=     1 RMS=1.26D-05 Max=1.18D-04 NDo=     1
 LinEq1:  Iter=  5 NonCon=     1 RMS=3.87D-06 Max=3.92D-05 NDo=     1
 LinEq1:  Iter=  6 NonCon=     1 RMS=8.77D-07 Max=8.46D-06 NDo=     1
 LinEq1:  Iter=  7 NonCon=     1 RMS=1.85D-07 Max=1.52D-06 NDo=     1
 LinEq1:  Iter=  8 NonCon=     1 RMS=5.04D-08 Max=4.78D-07 NDo=     1
 LinEq1:  Iter=  9 NonCon=     1 RMS=1.17D-08 Max=1.25D-07 NDo=     1
 LinEq1:  Iter= 10 NonCon=     1 RMS=2.35D-09 Max=1.90D-08 NDo=     1
 LinEq1:  Iter= 11 NonCon=     1 RMS=4.10D-10 Max=3.93D-09 NDo=     1
 LinEq1:  Iter= 12 NonCon=     0 RMS=7.22D-11 Max=7.23D-10 NDo=     1
 Linear equations converged to 1.000D-10 1.000D-09 after    12 iterations.
 End of Minotr F.D. properties file   721 does not exist.
 End of Minotr F.D. properties file   722 does not exist.
 End of Minotr F.D. properties file   788 does not exist.
   1 Symmetry operations used in ECPInt.
 ECPInt:  NShTT=    1225 NPrTT=    5557 LenC2=    1226 LenP2D=    4924.
 LDataN:  DoStor=T MaxTD1= 8 Len=  415
 Calling FoFJK, ICntrl=  10002127 FMM=F ISym2X=0 I1Cent= 0 IOpClX= 0 NMat=1 NMatS=1 NMatT=0.
 ***** Axes restored to original set *****
 -------------------------------------------------------------------
 Center     Atomic                   Forces (Hartrees/Bohr)
 Number     Number              X              Y              Z
 -------------------------------------------------------------------
      1        8           0.007703881    0.006872255    0.012947213
      2        1           0.003309809    0.002634223   -0.007782388
      3       53           0.000666700   -0.001831634    0.003134201
      4        1          -0.011680390   -0.007674844   -0.008299026
 -------------------------------------------------------------------
 Cartesian Forces:  Max     0.012947213 RMS     0.007248556
 -----------------------------------------------------------------------------------------------
                       Internal Coordinate Forces (Hartree/Bohr or radian)
  Cent   Atom   N1       Length/X         N2         Alpha/Y        N3         Beta/Z          J
 -----------------------------------------------------------------------------------------------
      1  O 
         X        1   0.000000(     1)
      2  H        1   0.003310(     2)      2   0.014132(     5)
      3  I        1   0.001656(     3)      2  -0.020780(     6)      3  -0.006821(     8)     0
      4  H        1   0.000013(     4)      2   0.023684(     7)      3   0.011605(     9)     0
 -----------------------------------------------------------------------------------------------
 Internal  Forces:  Max     0.023684023 RMS     0.012415709

 GradGradGradGradGradGradGradGradGradGradGradGradGradGradGradGradGradGrad
 Berny optimization.
 Search for a local minimum.
 Step number   2 out of a maximum of   20 on scan point    11 out of    11
 All quantities printed in internal units (Hartrees-Bohrs-Radians)
 Update second derivatives using D2CorN and points    1    2
 DE= -9.96D-07 DEPred=-1.01D-06 R= 9.89D-01
 TightC=F SS=  1.41D+00  RLast= 2.01D-03 DXNew= 5.0454D-01 6.0248D-03
 Trust test= 9.89D-01 RLast= 2.01D-03 DXMaxT set to 3.00D-01
 The second derivative matrix:
                          r1        r2        r3        a1        OOP
           r1           0.55279
           r2           0.00000   0.01408
           r3          -0.00523   0.00132   0.50632
           a1          -0.00000   0.00000   0.02082   0.32000
           OOP          0.00000  -0.00000  -0.01250  -0.00000   0.16000
 ITU=  1  0
     Eigenvalues ---    0.506321000.000001000.000001000.000001000.00000
 RFO step:  Lambda= 0.00000000D+00 EMin= 5.06324567D-01
 Quartic linear search produced a step of -0.01311.
 Variable       Old X    -DE/DX   Delta X   Delta X   Delta X     New X
                                 (Linear)    (Quad)   (Total)
    r1        1.81585   0.00331   0.00000   0.00000   0.00000   1.81585
    r2        6.63011   0.00166   0.00000   0.00000   0.00000   6.63011
    r3        1.83214   0.00001   0.00003   0.00000   0.00003   1.83216
    a1        1.77776   0.00478   0.00000   0.00000   0.00000   1.77776
   OOP        0.69813   0.02368   0.00000   0.00000   0.00000   0.69813
         Item               Value     Threshold  Converged?
 Maximum Force            0.000013     0.000450     YES
 RMS     Force            0.000013     0.000300     YES
 Maximum Displacement     0.000026     0.001800     YES
 RMS     Displacement     0.000012     0.001200     YES
 Predicted change in Energy=-1.780234D-10
 Optimization completed.
    -- Stationary point found.
                       ----------------------------
                       !   Optimized Parameters   !
                       ! (Angstroms and Degrees)  !
 ----------------------                            ----------------------
 !      Name          Value   Derivative information (Atomic Units)     !
 ------------------------------------------------------------------------
 !       r1          0.9609   -DE/DX =    0.0033                        !
 !       r2          3.5085   -DE/DX =    0.0017                        !
 !       r3          0.9695   -DE/DX =    0.0                           !
 !       a1        101.8583   -DE/DX =    0.0048                        !
 !       OOP        40.0      -DE/DX =    0.0237                        !
 ------------------------------------------------------------------------
 Summary of Optimized Potential Surface Scan (add -371.0 to energies):
                           1         2         3         4         5
     Eigenvalues --    -0.31378  -0.31359  -0.31302  -0.31212  -0.31091
           r1           0.96091   0.96091   0.96091   0.96091   0.96091
           r2           3.50850   3.50850   3.50850   3.50850   3.50850
           r3           0.98234   0.98234   0.98151   0.98016   0.97863
           a1         101.85832 101.85832 101.85832 101.85832 101.85832
           OOP         90.00000  85.00000  80.00000  75.00000  70.00000
                           6         7         8         9        10
     Eigenvalues --    -0.30944  -0.30776  -0.30591  -0.30396  -0.30193
           r1           0.96091   0.96091   0.96091   0.96091   0.96091
           r2           3.50850   3.50850   3.50850   3.50850   3.50850
           r3           0.97692   0.97516   0.97346   0.97191   0.97059
           a1         101.85832 101.85832 101.85832 101.85832 101.85832
           OOP         65.00000  60.00000  55.00000  50.00000  45.00000
                          11
     Eigenvalues --    -0.29987
           r1           0.96091
           r2           3.50850
           r3           0.96953
           a1         101.85832
           OOP         40.00000
 GradGradGradGradGradGradGradGradGradGradGradGradGradGradGradGradGradGrad

 ---------------------------------------------------------------------------------------------------
                            Z-MATRIX (ANGSTROMS AND DEGREES)
   CD    Cent   Atom    N1       Length/X        N2       Alpha/Y        N3        Beta/Z          J
 ---------------------------------------------------------------------------------------------------
      1      1  O 
      2         X        1  10.000000(     1)
      3      2  H        1   0.960908(     2)      2   90.000(     5)
      4      3  I        1   3.508501(     3)      2   90.000(     6)      3  101.858(     8)      0
      5      4  H        1   0.969525(     4)      2   40.000(     7)      3  101.858(     9)      0
 ---------------------------------------------------------------------------------------------------
                         Z-Matrix orientation:                         
 ---------------------------------------------------------------------
 Center     Atomic      Atomic             Coordinates (Angstroms)
 Number     Number       Type             X           Y           Z
 ---------------------------------------------------------------------
      1          8           0        0.000000    0.000000    0.000000
      2         -1           0        0.000000    0.000000   10.000000
      3          1           0        0.960908    0.000000    0.000000
      4         53           0       -0.720970   -3.433625    0.000000
      5          1           0       -0.128063   -0.609899    0.742699
 ---------------------------------------------------------------------
                    Distance matrix (angstroms):
                    1          2          3          4          5
     1  O    0.000000
     2  X   10.000000   0.000000
     3  H    0.960908  10.046061   0.000000
     4  I    3.508501  10.597622   3.823414   0.000000
     5  H    0.969525   9.278254   1.452389   2.979358   0.000000
 Stoichiometry    H2IO(1-)
 Framework group  C1[X(H2IO)]
 Deg. of freedom     6
 Full point group                 C1      NOp   1
 Largest Abelian subgroup         C1      NOp   1
 Largest concise Abelian subgroup C1      NOp   1
                         Standard orientation:                         
 ---------------------------------------------------------------------
 Center     Atomic      Atomic             Coordinates (Angstroms)
 Number     Number       Type             X           Y           Z
 ---------------------------------------------------------------------
      1          8           0       -2.955994    0.086286    0.082914
      2          1           0       -3.181031   -0.827016   -0.113510
      3         53           0        0.550469   -0.001756    0.002019
      4          1           0       -2.345895    0.229785   -0.656793
 ---------------------------------------------------------------------
 Rotational constants (GHZ):         240.2150288           2.4848812           2.4722320

 **********************************************************************

            Population analysis using the MP2 Density.

 **********************************************************************

 Orbital symmetries:
       Occupied  (A) (A) (A) (A) (A) (A) (A) (A) (A) (A) (A) (A)
                 (A) (A) (A) (A) (A) (A)
       Virtual   (A) (A) (A) (A) (A) (A) (A) (A) (A) (A) (A) (A)
                 (A) (A) (A) (A) (A) (A) (A) (A) (A) (A) (A) (A)
                 (A) (A) (A) (A) (A) (A) (A) (A) (A) (A) (A) (A)
                 (A) (A) (A) (A) (A) (A) (A) (A) (A) (A) (A) (A)
                 (A) (A) (A) (A) (A) (A) (A) (A) (A) (A) (A) (A)
                 (A) (A) (A) (A) (A) (A) (A) (A) (A) (A) (A) (A)
                 (A) (A) (A) (A) (A) (A) (A) (A) (A) (A) (A) (A)
                 (A) (A) (A) (A) (A) (A) (A) (A) (A) (A) (A) (A)
                 (A) (A) (A) (A) (A) (A) (A) (A) (A) (A) (A) (A)
                 (A) (A) (A) (A) (A) (A) (A) (A) (A) (A) (A) (A)
                 (A) (A) (A) (A) (A) (A) (A) (A) (A)
 The electronic state is 1-A.
 Alpha  occ. eigenvalues --  -20.41940  -7.45568  -5.28125  -5.28107  -5.28074
 Alpha  occ. eigenvalues --   -2.00869  -2.00866  -2.00832  -2.00811  -2.00803
 Alpha  occ. eigenvalues --   -1.20433  -0.61421  -0.54943  -0.44925  -0.36256
 Alpha  occ. eigenvalues --   -0.13315  -0.13124  -0.12914
 Alpha virt. eigenvalues --    0.13163   0.15772   0.23653   0.24404   0.25951
 Alpha virt. eigenvalues --    0.26444   0.26847   0.29083   0.31582   0.33709
 Alpha virt. eigenvalues --    0.35175   0.36487   0.38103   0.39427   0.40528
 Alpha virt. eigenvalues --    0.41043   0.46718   0.48051   0.50883   0.52427
 Alpha virt. eigenvalues --    0.55007   0.57460   0.61873   0.65777   0.73809
 Alpha virt. eigenvalues --    0.77587   0.78735   0.79409   0.79672   0.80371
 Alpha virt. eigenvalues --    0.81087   0.81268   0.82644   0.83451   0.86889
 Alpha virt. eigenvalues --    0.87424   0.89211   0.89232   0.90698   0.91445
 Alpha virt. eigenvalues --    0.92502   0.94499   0.96277   1.00365   1.02824
 Alpha virt. eigenvalues --    1.06754   1.09151   1.09472   1.13270   1.16608
 Alpha virt. eigenvalues --    1.20892   1.23047   1.24338   1.26044   1.33185
 Alpha virt. eigenvalues --    1.37818   1.40910   1.44613   1.50185   1.64464
 Alpha virt. eigenvalues --    1.67818   1.73302   1.76290   1.76340   1.78049
 Alpha virt. eigenvalues --    1.79255   1.79693   1.83086   1.84895   1.88872
 Alpha virt. eigenvalues --    2.01365   2.04167   2.06425   2.07044   2.08655
 Alpha virt. eigenvalues --    2.10580   2.13879   2.27222   2.30644   2.45144
 Alpha virt. eigenvalues --    2.49159   2.54687   2.59070   2.60785   2.67666
 Alpha virt. eigenvalues --    2.70198   2.84755   2.90046   2.91658   2.95957
 Alpha virt. eigenvalues --    3.08341   3.20768   3.22114   3.57330   3.83777
 Alpha virt. eigenvalues --    3.87316   4.23266   4.25777   4.32215   4.37619
 Alpha virt. eigenvalues --    4.44654   4.52153   4.55191   4.58038   4.70748
 Alpha virt. eigenvalues --    4.91944   5.02807   5.28292   5.33262   5.41573
 Alpha virt. eigenvalues --    5.44389   5.69092   5.75675   6.39780   6.65725
 Alpha virt. eigenvalues --    6.88022   7.14677   7.27724   7.34360   7.43876
 Alpha virt. eigenvalues --    7.48661   7.51916   7.56720   7.68737   7.95440
 Alpha virt. eigenvalues --    8.11196   8.98665  15.86361  59.20207
          Condensed to atoms (all electrons):
               1          2          3          4
     1  O    8.117204   0.205741  -0.057253   0.175476
     2  H    0.205741   0.579594   0.003558   0.019204
     3  I   -0.057253   0.003558  25.988514   0.034501
     4  H    0.175476   0.019204   0.034501   0.552235
 Mulliken charges:
               1
     1  O   -0.441167
     2  H    0.191903
     3  I   -0.969320
     4  H    0.218584
 Sum of Mulliken charges =  -1.00000
 Mulliken charges with hydrogens summed into heavy atoms:
               1
     1  O   -0.030680
     3  I   -0.969320
 Electronic spatial extent (au):  <R**2>=            434.0338
 Charge=             -1.0000 electrons
 Dipole moment (field-independent basis, Debye):
    X=             -1.3960    Y=             -1.0910    Z=             -0.9772  Tot=              2.0234
 Quadrupole moment (field-independent basis, Debye-Ang):
   XX=            -49.0720   YY=            -40.2072   ZZ=            -41.1050
   XY=              4.4364   XZ=              3.0411   YZ=             -0.1416
 Traceless Quadrupole moment (field-independent basis, Debye-Ang):
   XX=             -5.6106   YY=              3.2542   ZZ=              2.3564
   XY=              4.4364   XZ=              3.0411   YZ=             -0.1416
 Octapole moment (field-independent basis, Debye-Ang**2):
  XXX=             31.1277  YYY=             -1.1412  ZZZ=              0.6762  XYY=             -2.0214
  XXY=            -15.8443  XXZ=             -5.7510  XZZ=              1.3478  YZZ=              0.1624
  YYZ=              0.1980  XYZ=              0.1988
 Hexadecapole moment (field-independent basis, Debye-Ang**3):
 XXXX=           -612.4191 YYYY=            -79.4697 ZZZZ=            -80.2762 XXXY=             56.4932
 XXXZ=             12.4070 YYYX=              5.2916 YYYZ=              0.1022 ZZZX=              1.3093
 ZZZY=             -0.2030 XXYY=            -86.2491 XXZZ=            -98.0738 YYZZ=            -26.8287
 XXYZ=             -0.1207 YYXZ=              0.6213 ZZXY=              0.1559
 N-N= 4.720237889018D+01 E-N=-9.076266479643D+02  KE= 1.870421719603D+02
 1\1\GINC-N2097\Scan\RMP2-FC\Gen\H2I1O1(1-)\CGAVINH\26-Oct-2021\1\\# op
 t=(z-matrix) mp2/gen Pseudo=read density=current\\title\\-1,1\O\X,1,10
 .\H,1,r1,2,90.\I,1,r2,2,90.,3,a1,0\H,1,r3,2,OOP,3,a1,0\\r1=0.96090774,
 s,-1000,0.\r2=3.50850135,s,-1000,0.\r3=0.96952506\a1=101.85832064,s,-1
 000,0.\OOP=40.,s,10,-5.\\Version=ES64L-G16RevB.01\State=1-A\HF=-370.81
 67792,-370.8166375,-370.8162594,-370.8156372,-370.8147685,-370.8136768
 ,-370.812384,-370.8109169,-370.8093044,-370.8075756,-370.805758\MP2=-3
 71.3137799,-371.3135881,-371.3130244,-371.3121179,-371.3109074,-371.30
 94375,-371.3077563,-371.3059133,-371.3039565,-371.3019293,-371.2998687
 \RMSD=3.145e-09,2.851e-09,3.631e-09,5.613e-09,5.910e-09,6.104e-09,5.79
 4e-09,5.209e-09,4.515e-09,3.780e-09,3.017e-09\PG=C01 [X(H2I1O1)]\\@


 A MAN IS NEVER SO BRILLIANT AS WHEN HE TAKES THE WORDS RIGHT OUT
 OF YOUR MOUTH. -- ARNOT SHEPPARD, JR.
 Job cpu time:       0 days  1 hours 47 minutes 28.0 seconds.
 Elapsed time:       0 days  0 hours  4 minutes 36.2 seconds.
 File lengths (MBytes):  RWF=     16 Int=      0 D2E=      0 Chk=      8 Scr=      1
 Normal termination of Gaussian 16 at Tue Oct 26 12:26:46 2021.
