 Entering Gaussian System, Link 0=g16
 Input=ihod_oop_40_sp.gjf
 Output=ihod_oop_40_sp.log
 Initial command:
 /sw/contrib/gaussian/g16/B01/g16/l1.exe "/scr/Gau-238435.inp" -scrdir="/scr/"
 Entering Link 1 = /sw/contrib/gaussian/g16/B01/g16/l1.exe PID=    238436.
  
 Copyright (c) 1988-2017, Gaussian, Inc.  All Rights Reserved.
  
 This is part of the Gaussian(R) 16 program.  It is based on
 the Gaussian(R) 09 system (copyright 2009, Gaussian, Inc.),
 the Gaussian(R) 03 system (copyright 2003, Gaussian, Inc.),
 the Gaussian(R) 98 system (copyright 1998, Gaussian, Inc.),
 the Gaussian(R) 94 system (copyright 1995, Gaussian, Inc.),
 the Gaussian 92(TM) system (copyright 1992, Gaussian, Inc.),
 the Gaussian 90(TM) system (copyright 1990, Gaussian, Inc.),
 the Gaussian 88(TM) system (copyright 1988, Gaussian, Inc.),
 the Gaussian 86(TM) system (copyright 1986, Carnegie Mellon
 University), and the Gaussian 82(TM) system (copyright 1983,
 Carnegie Mellon University). Gaussian is a federally registered
 trademark of Gaussian, Inc.
  
 This software contains proprietary and confidential information,
 including trade secrets, belonging to Gaussian, Inc.
  
 This software is provided under written license and may be
 used, copied, transmitted, or stored only in accord with that
 written license.
  
 The following legend is applicable only to US Government
 contracts under FAR:
  
                    RESTRICTED RIGHTS LEGEND
  
 Use, reproduction and disclosure by the US Government is
 subject to restrictions as set forth in subparagraphs (a)
 and (c) of the Commercial Computer Software - Restricted
 Rights clause in FAR 52.227-19.
  
 Gaussian, Inc.
 340 Quinnipiac St., Bldg. 40, Wallingford CT 06492
  
  
 ---------------------------------------------------------------
 Warning -- This program may not be used in any manner that
 competes with the business of Gaussian, Inc. or will provide
 assistance to any competitor of Gaussian, Inc.  The licensee
 of this program is prohibited from giving any competitor of
 Gaussian, Inc. access to this program.  By using this program,
 the user acknowledges that Gaussian, Inc. is engaged in the
 business of creating and licensing software in the field of
 computational chemistry and represents and warrants to the
 licensee that it is not a competitor of Gaussian, Inc. and that
 it will not use this program in any manner prohibited above.
 ---------------------------------------------------------------
  

 Cite this work as:
 Gaussian 16, Revision B.01,
 M. J. Frisch, G. W. Trucks, H. B. Schlegel, G. E. Scuseria, 
 M. A. Robb, J. R. Cheeseman, G. Scalmani, V. Barone, 
 G. A. Petersson, H. Nakatsuji, X. Li, M. Caricato, A. V. Marenich, 
 J. Bloino, B. G. Janesko, R. Gomperts, B. Mennucci, H. P. Hratchian, 
 J. V. Ortiz, A. F. Izmaylov, J. L. Sonnenberg, D. Williams-Young, 
 F. Ding, F. Lipparini, F. Egidi, J. Goings, B. Peng, A. Petrone, 
 T. Henderson, D. Ranasinghe, V. G. Zakrzewski, J. Gao, N. Rega, 
 G. Zheng, W. Liang, M. Hada, M. Ehara, K. Toyota, R. Fukuda, 
 J. Hasegawa, M. Ishida, T. Nakajima, Y. Honda, O. Kitao, H. Nakai, 
 T. Vreven, K. Throssell, J. A. Montgomery, Jr., J. E. Peralta, 
 F. Ogliaro, M. J. Bearpark, J. J. Heyd, E. N. Brothers, K. N. Kudin, 
 V. N. Staroverov, T. A. Keith, R. Kobayashi, J. Normand, 
 K. Raghavachari, A. P. Rendell, J. C. Burant, S. S. Iyengar, 
 J. Tomasi, M. Cossi, J. M. Millam, M. Klene, C. Adamo, R. Cammi, 
 J. W. Ochterski, R. L. Martin, K. Morokuma, O. Farkas, 
 J. B. Foresman, and D. J. Fox, Gaussian, Inc., Wallingford CT, 2016.
 
 ******************************************
 Gaussian 16:  ES64L-G16RevB.01 20-Dec-2017
                19-Oct-2021 
 ******************************************
 %nproc=28
 Will use up to   28 processors via shared memory.
 %mem=120GB
 %chk=/gscratch/ilahie/mccoygrp/coire_hocl/oop_s_rOH_opt/ihod/ihod_oop_40.chk
 --------------------------------------------------------
 #p pop=NBO SP NoSymm mp2/gen Pseudo=read density=current
 --------------------------------------------------------
 1/30=1,38=1,172=1/1;
 2/12=2,15=1,17=6,18=5,40=1/2;
 3/5=7,11=9,16=1,17=8,25=1,30=1,71=1/1,2,3;
 4//1;
 5/5=2,38=5/2;
 8/6=4,10=1/1;
 9/15=1,16=-3/6;
 10/5=1,13=10,31=1/2;
 6/7=2,8=2,9=2,10=2,22=-1,40=1/1,7;
 99/5=1,9=1/99;
 Leave Link    1 at Tue Oct 19 17:08:07 2021, MaxMem= 16106127360 cpu:               2.2 elap:               0.1
 (Enter /sw/contrib/gaussian/g16/B01/g16/l101.exe)
 -----
 title
 -----
 Symbolic Z-matrix:
 Charge = -1 Multiplicity = 1
 O
 X                    1     10. 
 H(iso=2)             1    r1       2     90. 
 I                    1    r2       2     90.      3    a1       0
 H                    1    r3       2    oop      3    a1       0
       Variables:
  r1                    0.96091                  
  r2                    3.5085                   
  r3                    0.97191                  
  a1                  101.85831                  
  OOP                  50.                       
 
 ITRead=  0  0  0  0
 MicOpt= -1 -1 -1 -1
 NAtoms=      4 NQM=        4 NQMF=       0 NMMI=      0 NMMIF=      0
                NMic=       0 NMicF=      0.
                    Isotopes and Nuclear Properties:
 (Nuclear quadrupole moments (NQMom) in fm**2, nuclear magnetic moments (NMagM)
  in nuclear magnetons)

  Atom         1           2           3           4
 IAtWgt=          16           2         127           1
 AtmWgt=  15.9949146   2.0141018 126.9004000   1.0078250
 NucSpn=           0           2           5           1
 AtZEff=  -0.0000000  -0.0000000  -0.0000000  -0.0000000
 NQMom=    0.0000000   0.2860000 -71.0000000   0.0000000
 NMagM=    0.0000000   0.8574380   2.8132800   2.7928460
 AtZNuc=   8.0000000   1.0000000  53.0000000   1.0000000
 Leave Link  101 at Tue Oct 19 17:08:07 2021, MaxMem= 16106127360 cpu:               2.5 elap:               0.1
 (Enter /sw/contrib/gaussian/g16/B01/g16/l202.exe)
                          Input orientation:                          
 ---------------------------------------------------------------------
 Center     Atomic      Atomic             Coordinates (Angstroms)
 Number     Number       Type             X           Y           Z
 ---------------------------------------------------------------------
      1          8           0        0.000000    0.000000    0.000000
      2          1           0        0.960908    0.000000    0.000000
      3         53           0       -0.720970   -3.433628    0.000000
      4          1           0       -0.152994   -0.728637    0.624732
 ---------------------------------------------------------------------
                    Distance matrix (angstroms):
                    1          2          3          4
     1  O    0.000000
     2  H    0.960908   0.000000
     3  I    3.508504   3.823416   0.000000
     4  H    0.971910   1.470367   2.833701   0.000000
 Symmetry turned off by external request.
 Stoichiometry    H2IO(1-)
 Framework group  C1[X(H2IO)]
 Deg. of freedom     6
 Full point group                 C1      NOp   1
 Rotational constants (GHZ):         259.4829803           2.4939335           2.4793495
 Leave Link  202 at Tue Oct 19 17:08:07 2021, MaxMem= 16106127360 cpu:               0.2 elap:               0.0
 (Enter /sw/contrib/gaussian/g16/B01/g16/l301.exe)
 General basis read from cards:  (5D, 7F)
 Centers:       2      4      1      2      4
 aug-cc-pVTZ
 ****
 Centers:       3
 S 11 1.00
     Exponent=  5.5465000000D+03 Coefficients=  1.5600000000D-04
     Exponent=  8.3821400000D+02 Coefficients=  9.8600000000D-04
     Exponent=  1.8218700000D+02 Coefficients=  2.7920000000D-03
     Exponent=  3.1212300000D+01 Coefficients= -4.3251000000D-02
     Exponent=  1.9531400000D+01 Coefficients=  2.3413400000D-01
     Exponent=  8.2409900000D+00 Coefficients= -7.5094300000D-01
     Exponent=  2.1945500000D+00 Coefficients=  8.8296800000D-01
     Exponent=  1.1091100000D+00 Coefficients=  4.6206100000D-01
     Exponent=  3.7464100000D-01 Coefficients=  2.2286000000D-02
     Exponent=  1.7708000000D-01 Coefficients= -4.3530000000D-03
     Exponent=  8.1061000000D-02 Coefficients=  1.1020000000D-03
 S 11 1.00
     Exponent=  5.5465000000D+03 Coefficients= -7.3000000000D-05
     Exponent=  8.3821400000D+02 Coefficients= -5.0800000000D-04
     Exponent=  1.8218700000D+02 Coefficients= -1.1580000000D-03
     Exponent=  3.1212300000D+01 Coefficients=  1.2193000000D-02
     Exponent=  1.9531400000D+01 Coefficients= -8.7854000000D-02
     Exponent=  8.2409900000D+00 Coefficients=  3.3820000000D-01
     Exponent=  2.1945500000D+00 Coefficients= -5.7655000000D-01
     Exponent=  1.1091100000D+00 Coefficients= -4.0929800000D-01
     Exponent=  3.7464100000D-01 Coefficients=  5.6745900000D-01
     Exponent=  1.7708000000D-01 Coefficients=  6.1248900000D-01
     Exponent=  8.1061000000D-02 Coefficients=  1.4323100000D-01
 S 1 1.00
     Exponent=  3.7464100000D-01 Coefficients=  1.0000000000D+00
 S 1 1.00
     Exponent=  1.7708000000D-01 Coefficients=  1.0000000000D+00
 S 1 1.00
     Exponent=  1.0010000000D-01 Coefficients=  1.0000000000D+00
 S 1 1.00
     Exponent=  4.1200000000D-02 Coefficients=  1.0000000000D+00
 P 9 1.00
     Exponent=  1.8898800000D+02 Coefficients=  5.8500000000D-04
     Exponent=  2.1286800000D+01 Coefficients=  3.6923000000D-02
     Exponent=  1.0039600000D+01 Coefficients= -2.3532400000D-01
     Exponent=  3.4518000000D+00 Coefficients=  3.4148300000D-01
     Exponent=  1.9745600000D+00 Coefficients=  5.3478800000D-01
     Exponent=  1.0242000000D+00 Coefficients=  2.6514100000D-01
     Exponent=  4.4943700000D-01 Coefficients=  2.5787000000D-02
     Exponent=  1.8664800000D-01 Coefficients=  5.2200000000D-04
     Exponent=  7.3481000000D-02 Coefficients=  6.0600000000D-04
 P 9 1.00
     Exponent=  1.8898800000D+02 Coefficients= -2.5600000000D-04
     Exponent=  2.1286800000D+01 Coefficients= -1.1682000000D-02
     Exponent=  1.0039600000D+01 Coefficients=  8.3192000000D-02
     Exponent=  3.4518000000D+00 Coefficients= -1.5697000000D-01
     Exponent=  1.9745600000D+00 Coefficients= -2.2451800000D-01
     Exponent=  1.0242000000D+00 Coefficients= -1.1445100000D-01
     Exponent=  4.4943700000D-01 Coefficients=  3.7535600000D-01
     Exponent=  1.8664800000D-01 Coefficients=  5.7513600000D-01
     Exponent=  7.3481000000D-02 Coefficients=  2.4591700000D-01
 P 1 1.00
     Exponent=  5.9810000000D-01 Coefficients=  1.0000000000D+00
 P 1 1.00
     Exponent=  9.6180000000D-02 Coefficients=  1.0000000000D+00
 P 1 1.00
     Exponent=  3.5900000000D-02 Coefficients=  1.0000000000D+00
 D 9 1.00
     Exponent=  1.3266200000D+02 Coefficients=  5.7200000000D-04
     Exponent=  3.7605400000D+01 Coefficients=  4.4020000000D-03
     Exponent=  1.0389100000D+01 Coefficients= -4.0922000000D-02
     Exponent=  6.4901700000D+00 Coefficients=  9.9661000000D-02
     Exponent=  3.4545100000D+00 Coefficients=  3.2266300000D-01
     Exponent=  1.8441300000D+00 Coefficients=  4.0034300000D-01
     Exponent=  9.6247800000D-01 Coefficients=  2.6830600000D-01
     Exponent=  4.7285300000D-01 Coefficients=  8.4847000000D-02
     Exponent=  1.9320000000D-01 Coefficients=  7.6320000000D-03
 D 1 1.00
     Exponent=  4.7285300000D-01 Coefficients=  1.0000000000D+00
 D 1 1.00
     Exponent=  1.9320000000D-01 Coefficients=  1.0000000000D+00
 D 1 1.00
     Exponent=  7.8200000000D-02 Coefficients=  1.0000000000D+00
 F 1 1.00
     Exponent=  4.0640000000D-01 Coefficients=  1.0000000000D+00
 F 1 1.00
     Exponent=  1.8480000000D-01 Coefficients=  1.0000000000D+00
 ****
 ======================================================================================================
                                       Pseudopotential Parameters
 ======================================================================================================
  Center     Atomic      Valence      Angular      Power
  Number     Number     Electrons     Momentum     of R      Exponent        Coefficient   SO-Coeffient
 ======================================================================================================
    1          8
                                   No pseudopotential on this center.
    2          1
                                   No pseudopotential on this center.
    3         53           25
                                      G and up 
                                                     2        1.0000000        0.00000000    0.00000000
                                      S - G
                                                     2       40.0333760       49.98964900    0.00000000
                                                     2       17.3005760      281.00655600    0.00000000
                                                     2        8.8517200       61.41673900    0.00000000
                                      P - G
                                                     2       15.7201410       67.41623900    0.00000000
                                                     2       15.2082220      134.80769600    0.00000000
                                                     2        8.2941860       14.56654800    0.00000000
                                                     2        7.7539490       28.96842200    0.00000000
                                      D - G
                                                     2       13.8177510       35.53875600    0.00000000
                                                     2       13.5878050       53.33975900    0.00000000
                                                     2        6.9476300        9.71646600    0.00000000
                                                     2        6.9600990       14.97750000    0.00000000
                                      F - G
                                                     2       18.5229500      -20.17661800    0.00000000
                                                     2       18.2510350      -26.08807700    0.00000000
                                                     2        7.5579010       -0.22043400    0.00000000
                                                     2        7.5974040       -0.22164600    0.00000000
    4          1
                                   No pseudopotential on this center.
 ======================================================================================================
 Ernie: Thresh=  0.10000D-02 Tol=  0.10000D-05 Strict=F.
 Ernie:  16 primitive shells out of 135 were deleted.
   191 basis functions,   344 primitive gaussians,   218 cartesian basis functions
    18 alpha electrons       18 beta electrons
       nuclear repulsion energy        47.4154304415 Hartrees.
 IExCor=    0 DFT=F Ex=HF Corr=None ExCW=0 ScaHFX=  1.000000
 ScaDFX=  1.000000  1.000000  1.000000  1.000000 ScalE2=  1.000000  1.000000
 IRadAn=      5 IRanWt=     -1 IRanGd=            0 ICorTp=0 IEmpDi=  4
 NAtoms=    4 NActive=    4 NUniq=    4 SFac= 1.00D+00 NAtFMM=   60 NAOKFM=F Big=F
 Integral buffers will be    131072 words long.
 Raffenetti 1 integral format.
 Two-electron integral symmetry is turned off.
 Leave Link  301 at Tue Oct 19 17:08:08 2021, MaxMem= 16106127360 cpu:               2.5 elap:               0.1
 (Enter /sw/contrib/gaussian/g16/B01/g16/l302.exe)
 NPDir=0 NMtPBC=     1 NCelOv=     1 NCel=       1 NClECP=     1 NCelD=      1
         NCelK=      1 NCelE2=     1 NClLst=     1 CellRange=     0.0.
 One-electron integrals computed using PRISM.
   1 Symmetry operations used in ECPInt.
 ECPInt:  NShTT=    2145 NPrTT=    7341 LenC2=    2146 LenP2D=    6683.
 LDataN:  DoStor=T MaxTD1= 7 Len=  274
 NBasis=   191 RedAO= T EigKep=  4.24D-04  NBF=   191
 NBsUse=   147 1.00D-06 EigRej=  8.93D-16 NBFU=   147
 Leave Link  302 at Tue Oct 19 17:08:08 2021, MaxMem= 16106127360 cpu:               7.4 elap:               0.3
 (Enter /sw/contrib/gaussian/g16/B01/g16/l303.exe)
 DipDrv:  MaxL=1.
 Leave Link  303 at Tue Oct 19 17:08:08 2021, MaxMem= 16106127360 cpu:               0.7 elap:               0.0
 (Enter /sw/contrib/gaussian/g16/B01/g16/l401.exe)
 ExpMin= 2.53D-02 ExpMax= 1.53D+04 ExpMxC= 5.22D+02 IAcc=3 IRadAn=         5 AccDes= 0.00D+00
 Harris functional with IExCor=  205 and IRadAn=       5 diagonalized for initial guess.
 HarFok:  IExCor=  205 AccDes= 0.00D+00 IRadAn=         5 IDoV= 1 UseB2=F ITyADJ=14
 ICtDFT=  3500011 ScaDFX=  1.000000  1.000000  1.000000  1.000000
 Defaulting to unpruned grid for atomic number  53.
 FoFCou: FMM=F IPFlag=           0 FMFlag=      100000 FMFlg1=           0
         NFxFlg=           0 DoJE=T BraDBF=F KetDBF=T FulRan=T
         wScrn=  0.000000 ICntrl=       500 IOpCl=  0 I1Cent=   200000004 NGrid=           0
         NMat0=    1 NMatS0=      1 NMatT0=    0 NMatD0=    1 NMtDS0=    0 NMtDT0=    0
 Symmetry not used in FoFCou.
 Harris En= -372.676556121598    
 JPrj=0 DoOrth=F DoCkMO=F.
 Leave Link  401 at Tue Oct 19 17:08:08 2021, MaxMem= 16106127360 cpu:               6.4 elap:               0.3
 (Enter /sw/contrib/gaussian/g16/B01/g16/l502.exe)
 Keep R1 ints in memory in canonical form, NReq=226100518.
 FoFCou: FMM=F IPFlag=           0 FMFlag=           0 FMFlg1=           0
         NFxFlg=           0 DoJE=F BraDBF=F KetDBF=F FulRan=T
         wScrn=  0.000000 ICntrl=       600 IOpCl=  0 I1Cent=           0 NGrid=           0
         NMat0=    1 NMatS0=  18336 NMatT0=    0 NMatD0=    1 NMtDS0=    0 NMtDT0=    0
 Symmetry not used in FoFCou.
 Two-electron integral symmetry not used.
 Closed shell SCF:
 Using DIIS extrapolation, IDIIS=  1040.
 NGot= 16106127360 LenX= 15937911228 LenY= 15937863263
 Requested convergence on RMS density matrix=1.00D-08 within 128 cycles.
 Requested convergence on MAX density matrix=1.00D-06.
 Requested convergence on             energy=1.00D-06.
 No special actions if energy rises.

 Cycle   1  Pass 1  IDiag  1:
 E= -370.649298973454    
 DIIS: error= 3.62D-02 at cycle   1 NSaved=   1.
 NSaved= 1 IEnMin= 1 EnMin= -370.649298973454     IErMin= 1 ErrMin= 3.62D-02
 ErrMax= 3.62D-02  0.00D+00 EMaxC= 1.00D-01 BMatC= 3.65D-01 BMatP= 3.65D-01
 IDIUse=3 WtCom= 6.38D-01 WtEn= 3.62D-01
 Coeff-Com:  0.100D+01
 Coeff-En:   0.100D+01
 Coeff:      0.100D+01
 Gap=     0.375 Goal=   None    Shift=    0.000
 GapD=    0.375 DampG=1.000 DampE=0.500 DampFc=0.5000 IDamp=-1.
 Damping current iteration by 5.00D-01
 RMSDP=3.25D-03 MaxDP=9.55D-02              OVMax= 1.22D-01

 Cycle   2  Pass 1  IDiag  1:
 E= -370.732666923650     Delta-E=       -0.083367950196 Rises=F Damp=T
 DIIS: error= 1.19D-02 at cycle   2 NSaved=   2.
 NSaved= 2 IEnMin= 2 EnMin= -370.732666923650     IErMin= 2 ErrMin= 1.19D-02
 ErrMax= 1.19D-02  0.00D+00 EMaxC= 1.00D-01 BMatC= 5.73D-02 BMatP= 3.65D-01
 IDIUse=3 WtCom= 8.81D-01 WtEn= 1.19D-01
 Coeff-Com: -0.459D+00 0.146D+01
 Coeff-En:   0.000D+00 0.100D+01
 Coeff:     -0.404D+00 0.140D+01
 Gap=     0.252 Goal=   None    Shift=    0.000
 RMSDP=1.56D-03 MaxDP=7.74D-02 DE=-8.34D-02 OVMax= 6.47D-02

 Cycle   3  Pass 1  IDiag  1:
 E= -370.807631853556     Delta-E=       -0.074964929906 Rises=F Damp=F
 DIIS: error= 4.35D-03 at cycle   3 NSaved=   3.
 NSaved= 3 IEnMin= 3 EnMin= -370.807631853556     IErMin= 3 ErrMin= 4.35D-03
 ErrMax= 4.35D-03  0.00D+00 EMaxC= 1.00D-01 BMatC= 2.42D-03 BMatP= 5.73D-02
 IDIUse=3 WtCom= 9.57D-01 WtEn= 4.35D-02
 Coeff-Com: -0.144D+00 0.290D+00 0.854D+00
 Coeff-En:   0.000D+00 0.000D+00 0.100D+01
 Coeff:     -0.137D+00 0.277D+00 0.860D+00
 Gap=     0.263 Goal=   None    Shift=    0.000
 RMSDP=3.68D-04 MaxDP=1.55D-02 DE=-7.50D-02 OVMax= 1.19D-02

 Cycle   4  Pass 1  IDiag  1:
 E= -370.809239332470     Delta-E=       -0.001607478914 Rises=F Damp=F
 DIIS: error= 7.66D-04 at cycle   4 NSaved=   4.
 NSaved= 4 IEnMin= 4 EnMin= -370.809239332470     IErMin= 4 ErrMin= 7.66D-04
 ErrMax= 7.66D-04  0.00D+00 EMaxC= 1.00D-01 BMatC= 5.03D-05 BMatP= 2.42D-03
 IDIUse=3 WtCom= 9.92D-01 WtEn= 7.66D-03
 Coeff-Com:  0.366D-02-0.210D-01 0.726D-01 0.945D+00
 Coeff-En:   0.000D+00 0.000D+00 0.000D+00 0.100D+01
 Coeff:      0.364D-02-0.209D-01 0.721D-01 0.945D+00
 Gap=     0.266 Goal=   None    Shift=    0.000
 RMSDP=1.01D-04 MaxDP=6.03D-03 DE=-1.61D-03 OVMax= 2.41D-03

 Cycle   5  Pass 1  IDiag  1:
 E= -370.809295403315     Delta-E=       -0.000056070845 Rises=F Damp=F
 DIIS: error= 1.25D-04 at cycle   5 NSaved=   5.
 NSaved= 5 IEnMin= 5 EnMin= -370.809295403315     IErMin= 5 ErrMin= 1.25D-04
 ErrMax= 1.25D-04  0.00D+00 EMaxC= 1.00D-01 BMatC= 4.11D-06 BMatP= 5.03D-05
 IDIUse=3 WtCom= 9.99D-01 WtEn= 1.25D-03
 Coeff-Com:  0.103D-01-0.183D-01-0.603D-01 0.158D-01 0.105D+01
 Coeff-En:   0.000D+00 0.000D+00 0.000D+00 0.000D+00 0.100D+01
 Coeff:      0.102D-01-0.183D-01-0.602D-01 0.158D-01 0.105D+01
 Gap=     0.265 Goal=   None    Shift=    0.000
 RMSDP=3.85D-05 MaxDP=1.51D-03 DE=-5.61D-05 OVMax= 1.06D-03

 Cycle   6  Pass 1  IDiag  1:
 E= -370.809303494383     Delta-E=       -0.000008091068 Rises=F Damp=F
 DIIS: error= 6.19D-05 at cycle   6 NSaved=   6.
 NSaved= 6 IEnMin= 6 EnMin= -370.809303494383     IErMin= 6 ErrMin= 6.19D-05
 ErrMax= 6.19D-05  0.00D+00 EMaxC= 1.00D-01 BMatC= 3.22D-07 BMatP= 4.11D-06
 IDIUse=1 WtCom= 1.00D+00 WtEn= 0.00D+00
 Coeff-Com: -0.360D-02 0.738D-02 0.116D-01-0.968D-01-0.198D+00 0.128D+01
 Coeff:     -0.360D-02 0.738D-02 0.116D-01-0.968D-01-0.198D+00 0.128D+01
 Gap=     0.265 Goal=   None    Shift=    0.000
 RMSDP=1.04D-05 MaxDP=6.39D-04 DE=-8.09D-06 OVMax= 5.07D-04

 Cycle   7  Pass 1  IDiag  1:
 E= -370.809304452688     Delta-E=       -0.000000958305 Rises=F Damp=F
 DIIS: error= 1.10D-05 at cycle   7 NSaved=   7.
 NSaved= 7 IEnMin= 7 EnMin= -370.809304452688     IErMin= 7 ErrMin= 1.10D-05
 ErrMax= 1.10D-05  0.00D+00 EMaxC= 1.00D-01 BMatC= 1.04D-08 BMatP= 3.22D-07
 IDIUse=1 WtCom= 1.00D+00 WtEn= 0.00D+00
 Coeff-Com:  0.385D-03-0.899D-03-0.379D-04 0.233D-01-0.156D-01-0.278D+00
 Coeff-Com:  0.127D+01
 Coeff:      0.385D-03-0.899D-03-0.379D-04 0.233D-01-0.156D-01-0.278D+00
 Coeff:      0.127D+01
 Gap=     0.265 Goal=   None    Shift=    0.000
 RMSDP=2.37D-06 MaxDP=1.10D-04 DE=-9.58D-07 OVMax= 1.06D-04

 Cycle   8  Pass 1  IDiag  1:
 E= -370.809304489611     Delta-E=       -0.000000036923 Rises=F Damp=F
 DIIS: error= 1.56D-06 at cycle   8 NSaved=   8.
 NSaved= 8 IEnMin= 8 EnMin= -370.809304489611     IErMin= 8 ErrMin= 1.56D-06
 ErrMax= 1.56D-06  0.00D+00 EMaxC= 1.00D-01 BMatC= 3.85D-10 BMatP= 1.04D-08
 IDIUse=1 WtCom= 1.00D+00 WtEn= 0.00D+00
 Coeff-Com:  0.131D-03-0.264D-03-0.442D-03 0.327D-02 0.861D-02-0.409D-01
 Coeff-Com: -0.396D-01 0.107D+01
 Coeff:      0.131D-03-0.264D-03-0.442D-03 0.327D-02 0.861D-02-0.409D-01
 Coeff:     -0.396D-01 0.107D+01
 Gap=     0.265 Goal=   None    Shift=    0.000
 RMSDP=4.83D-07 MaxDP=2.73D-05 DE=-3.69D-08 OVMax= 1.62D-05

 Cycle   9  Pass 1  IDiag  1:
 E= -370.809304490727     Delta-E=       -0.000000001116 Rises=F Damp=F
 DIIS: error= 4.72D-07 at cycle   9 NSaved=   9.
 NSaved= 9 IEnMin= 9 EnMin= -370.809304490727     IErMin= 9 ErrMin= 4.72D-07
 ErrMax= 4.72D-07  0.00D+00 EMaxC= 1.00D-01 BMatC= 3.83D-11 BMatP= 3.85D-10
 IDIUse=1 WtCom= 1.00D+00 WtEn= 0.00D+00
 Coeff-Com: -0.352D-04 0.815D-04 0.159D-05-0.200D-02 0.134D-02 0.226D-01
 Coeff-Com: -0.965D-01-0.841D-01 0.116D+01
 Coeff:     -0.352D-04 0.815D-04 0.159D-05-0.200D-02 0.134D-02 0.226D-01
 Coeff:     -0.965D-01-0.841D-01 0.116D+01
 Gap=     0.265 Goal=   None    Shift=    0.000
 RMSDP=1.33D-07 MaxDP=6.38D-06 DE=-1.12D-09 OVMax= 6.57D-06

 Cycle  10  Pass 1  IDiag  1:
 E= -370.809304490844     Delta-E=       -0.000000000117 Rises=F Damp=F
 DIIS: error= 8.86D-08 at cycle  10 NSaved=  10.
 NSaved=10 IEnMin=10 EnMin= -370.809304490844     IErMin=10 ErrMin= 8.86D-08
 ErrMax= 8.86D-08  0.00D+00 EMaxC= 1.00D-01 BMatC= 2.48D-12 BMatP= 3.83D-11
 IDIUse=1 WtCom= 1.00D+00 WtEn= 0.00D+00
 Coeff-Com: -0.912D-05 0.178D-04 0.297D-04-0.213D-03-0.654D-03 0.272D-02
 Coeff-Com:  0.414D-02-0.770D-01 0.194D-01 0.105D+01
 Coeff:     -0.912D-05 0.178D-04 0.297D-04-0.213D-03-0.654D-03 0.272D-02
 Coeff:      0.414D-02-0.770D-01 0.194D-01 0.105D+01
 Gap=     0.265 Goal=   None    Shift=    0.000
 RMSDP=2.85D-08 MaxDP=9.30D-07 DE=-1.17D-10 OVMax= 1.25D-06

 Cycle  11  Pass 1  IDiag  1:
 E= -370.809304490852     Delta-E=       -0.000000000008 Rises=F Damp=F
 DIIS: error= 2.91D-08 at cycle  11 NSaved=  11.
 NSaved=11 IEnMin=11 EnMin= -370.809304490852     IErMin=11 ErrMin= 2.91D-08
 ErrMax= 2.91D-08  0.00D+00 EMaxC= 1.00D-01 BMatC= 1.69D-13 BMatP= 2.48D-12
 IDIUse=1 WtCom= 1.00D+00 WtEn= 0.00D+00
 Coeff-Com:  0.371D-05-0.825D-05-0.283D-05 0.175D-03-0.342D-04-0.189D-02
 Coeff-Com:  0.586D-02 0.163D-01-0.861D-01-0.166D+00 0.123D+01
 Coeff:      0.371D-05-0.825D-05-0.283D-05 0.175D-03-0.342D-04-0.189D-02
 Coeff:      0.586D-02 0.163D-01-0.861D-01-0.166D+00 0.123D+01
 Gap=     0.265 Goal=   None    Shift=    0.000
 RMSDP=1.33D-08 MaxDP=8.31D-07 DE=-7.67D-12 OVMax= 5.17D-07

 Cycle  12  Pass 1  IDiag  1:
 E= -370.809304490853     Delta-E=       -0.000000000001 Rises=F Damp=F
 DIIS: error= 6.08D-09 at cycle  12 NSaved=  12.
 NSaved=12 IEnMin=12 EnMin= -370.809304490853     IErMin=12 ErrMin= 6.08D-09
 ErrMax= 6.08D-09  0.00D+00 EMaxC= 1.00D-01 BMatC= 7.74D-15 BMatP= 1.69D-13
 IDIUse=1 WtCom= 1.00D+00 WtEn= 0.00D+00
 Coeff-Com: -0.653D-06 0.161D-05-0.410D-06-0.424D-04 0.469D-04 0.410D-03
 Coeff-Com: -0.182D-02-0.103D-02 0.247D-01-0.481D-02-0.338D+00 0.132D+01
 Coeff:     -0.653D-06 0.161D-05-0.410D-06-0.424D-04 0.469D-04 0.410D-03
 Coeff:     -0.182D-02-0.103D-02 0.247D-01-0.481D-02-0.338D+00 0.132D+01
 Gap=     0.265 Goal=   None    Shift=    0.000
 RMSDP=2.78D-09 MaxDP=1.68D-07 DE=-5.12D-13 OVMax= 8.03D-08

 SCF Done:  E(RHF) =  -370.809304491     A.U. after   12 cycles
            NFock= 12  Conv=0.28D-08     -V/T= 2.9845
 KE= 1.868491836053D+02 PE=-9.085866753637D+02 EE= 3.035127568261D+02
 Leave Link  502 at Tue Oct 19 17:08:12 2021, MaxMem= 16106127360 cpu:              31.1 elap:               4.1
 (Enter /sw/contrib/gaussian/g16/B01/g16/l801.exe)
 ExpMin= 2.53D-02 ExpMax= 1.53D+04 ExpMxC= 5.22D+02 IAcc=3 IRadAn=         5 AccDes= 0.00D+00
 HarFok:  IExCor=  205 AccDes= 0.00D+00 IRadAn=         5 IDoV=-2 UseB2=F ITyADJ=14
 ICtDFT= 12500011 ScaDFX=  1.000000  1.000000  1.000000  1.000000
 Defaulting to unpruned grid for atomic number  53.
 Largest valence mixing into a core orbital is  1.30D-04
 Largest core mixing into a valence orbital is  2.12D-05
 Range of M.O.s used for correlation:     6   147
 NBasis=   191 NAE=    18 NBE=    18 NFC=     5 NFV=     0
 NROrb=    142 NOA=    13 NOB=    13 NVA=   129 NVB=   129

 **** Warning!!: The largest alpha MO coefficient is  0.11253523D+02

 Leave Link  801 at Tue Oct 19 17:08:13 2021, MaxMem= 16106127360 cpu:               3.0 elap:               0.1
 (Enter /sw/contrib/gaussian/g16/B01/g16/l906.exe)
 Frozen-core derivative calculation, NFC=   5 NFV=   0.
 FulOut=F Deriv=T AODrv=F NAtomX=     4
   MMem=         107  MDisk=          13 MDiskD=          13
  W3Min=      576828 MinDsk=     1313419 NBas6D=         218
 NBas2D=       24339    NTT=       23871    LW2=    26219120
    MDV= 16105788473 MDiskM=      369352 NBas2p=       24339
 Fully in-core method, ICMem=   673638917.
 IMap=   1   2   3   4   5   6   7   8   9  10  11  12  13  14  15  16  17  18
 JobTyp=1 Pass  1 fully in-core, NPsUse= 28.
 Compute canonical integrals.
 FoFCou: FMM=F IPFlag=           0 FMFlag=           0 FMFlg1=           0
         NFxFlg=           0 DoJE=F BraDBF=F KetDBF=F FulRan=T
         wScrn=  0.000000 ICntrl=       600 IOpCl=  1 I1Cent=           0 NGrid=           0
         NMat0=    1 NMatS0=  24339 NMatT0=    0 NMatD0=    1 NMtDS0=    0 NMtDT0=    0
 Symmetry not used in FoFCou.
 Spin components of T(2) and E(2):
     alpha-alpha T2 =       0.2152989576D-01 E2=     -0.6696923213D-01
     alpha-beta  T2 =       0.1130390471D+00 E2=     -0.3607135258D+00
     beta-beta   T2 =       0.2152989576D-01 E2=     -0.6696923213D-01
 The integrals were generated   1 times.
 ANorm=    0.1075220367D+01
 E2 =    -0.4946519901D+00 EUMP2 =    -0.37130395648093D+03
 Leave Link  906 at Tue Oct 19 17:08:17 2021, MaxMem= 16106127360 cpu:             134.2 elap:               4.8
 (Enter /sw/contrib/gaussian/g16/B01/g16/l1002.exe)
 Minotr:  Closed shell wavefunction.
          Computing MP2/KS-MP2 derivatives.
          Using Z-Vector for PSCF gradient.
          Skipping F1 and S1 gradient terms here.
          Frozen-core window.
          Direct CPHF calculation.
          Differentiating once with respect to electric field.
                with respect to dipole field.
          Electric field/nuclear overlap derivatives assumed to be zero.
          Requested convergence is 1.0D-10 RMS, and 1.0D-09 maximum.
          NewPWx=F KeepS1=T KeepF1=T KeepIn=T MapXYZ=F SortEE=F KeepMc=T.
 Keep R1 ints in memory in canonical form, NReq=226104130.
 FoFCou: FMM=F IPFlag=           0 FMFlag=           0 FMFlg1=           0
         NFxFlg=           0 DoJE=F BraDBF=F KetDBF=F FulRan=T
         wScrn=  0.000000 ICntrl=       600 IOpCl=  0 I1Cent=           0 NGrid=           0
         NMat0=    1 NMatS0=  18336 NMatT0=    0 NMatD0=    1 NMtDS0=    0 NMtDT0=    0
 Symmetry not used in FoFCou.
 Two-electron integral symmetry not used.
          MDV=   16106127360 using IRadAn=       5.
          Solving linear equations separately, MaxMat=       0.
          There are     1 degrees of freedom in the 1st order CPHF.  IDoFFX=0 NUNeed=     1.
 LinEq1:  Iter=  0 NonCon=     1 RMS=2.62D-03 Max=3.17D-02 NDo=     1
 AX will form     1 AO Fock derivatives at one time.
 LinEq1:  Iter=  1 NonCon=     1 RMS=4.24D-04 Max=4.29D-03 NDo=     1
 LinEq1:  Iter=  2 NonCon=     1 RMS=1.95D-04 Max=2.16D-03 NDo=     1
 LinEq1:  Iter=  3 NonCon=     1 RMS=4.44D-05 Max=5.14D-04 NDo=     1
 LinEq1:  Iter=  4 NonCon=     1 RMS=1.28D-05 Max=1.37D-04 NDo=     1
 LinEq1:  Iter=  5 NonCon=     1 RMS=3.75D-06 Max=3.09D-05 NDo=     1
 LinEq1:  Iter=  6 NonCon=     1 RMS=8.39D-07 Max=7.68D-06 NDo=     1
 LinEq1:  Iter=  7 NonCon=     1 RMS=1.82D-07 Max=1.45D-06 NDo=     1
 LinEq1:  Iter=  8 NonCon=     1 RMS=5.08D-08 Max=4.35D-07 NDo=     1
 LinEq1:  Iter=  9 NonCon=     1 RMS=1.14D-08 Max=1.28D-07 NDo=     1
 LinEq1:  Iter= 10 NonCon=     1 RMS=2.31D-09 Max=2.14D-08 NDo=     1
 LinEq1:  Iter= 11 NonCon=     1 RMS=4.15D-10 Max=4.26D-09 NDo=     1
 LinEq1:  Iter= 12 NonCon=     0 RMS=8.12D-11 Max=8.70D-10 NDo=     1
 Linear equations converged to 1.000D-10 1.000D-09 after    12 iterations.
 End of Minotr F.D. properties file   721 does not exist.
 End of Minotr F.D. properties file   722 does not exist.
 End of Minotr F.D. properties file   788 does not exist.
 Leave Link 1002 at Tue Oct 19 17:08:22 2021, MaxMem= 16106127360 cpu:              37.5 elap:               4.6
 (Enter /sw/contrib/gaussian/g16/B01/g16/l601.exe)
 Copying SCF densities to generalized density rwf, IOpCl= 0 IROHF=0.

 **********************************************************************

            Population analysis using the MP2 Density.

 **********************************************************************

 Alpha  occ. eigenvalues --  -20.41500  -7.45886  -5.28444  -5.28423  -5.28395
 Alpha  occ. eigenvalues --   -2.01187  -2.01183  -2.01155  -2.01129  -2.01123
 Alpha  occ. eigenvalues --   -1.19916  -0.61809  -0.54830  -0.44332  -0.35865
 Alpha  occ. eigenvalues --   -0.13711  -0.13438  -0.13275
 Alpha virt. eigenvalues --    0.13206   0.16162   0.23579   0.24435   0.25827
 Alpha virt. eigenvalues --    0.26615   0.26885   0.29138   0.32104   0.33457
 Alpha virt. eigenvalues --    0.35787   0.36609   0.37831   0.39201   0.40640
 Alpha virt. eigenvalues --    0.41253   0.46649   0.47913   0.51240   0.53642
 Alpha virt. eigenvalues --    0.55516   0.58258   0.63512   0.66203   0.74323
 Alpha virt. eigenvalues --    0.77897   0.78891   0.79183   0.80252   0.80629
 Alpha virt. eigenvalues --    0.80865   0.81161   0.82549   0.84193   0.87043
 Alpha virt. eigenvalues --    0.87670   0.88959   0.88977   0.90420   0.91640
 Alpha virt. eigenvalues --    0.92612   0.94718   0.96877   1.01497   1.04052
 Alpha virt. eigenvalues --    1.07286   1.09545   1.10340   1.13542   1.16671
 Alpha virt. eigenvalues --    1.19823   1.22597   1.26866   1.29154   1.32378
 Alpha virt. eigenvalues --    1.38156   1.43963   1.46100   1.56889   1.65894
 Alpha virt. eigenvalues --    1.68321   1.73433   1.75987   1.76088   1.77802
 Alpha virt. eigenvalues --    1.79093   1.80553   1.82852   1.84551   1.89843
 Alpha virt. eigenvalues --    2.00644   2.04381   2.06120   2.07178   2.09929
 Alpha virt. eigenvalues --    2.10783   2.14907   2.28568   2.31370   2.45124
 Alpha virt. eigenvalues --    2.49353   2.56340   2.60274   2.60279   2.67470
 Alpha virt. eigenvalues --    2.70665   2.84999   2.90098   2.93054   2.96330
 Alpha virt. eigenvalues --    3.08730   3.20891   3.22866   3.62600   3.86215
 Alpha virt. eigenvalues --    3.87143   4.23568   4.26769   4.36826   4.39972
 Alpha virt. eigenvalues --    4.45034   4.52456   4.55671   4.58297   4.70905
 Alpha virt. eigenvalues --    4.91908   5.03136   5.28707   5.35136   5.38828
 Alpha virt. eigenvalues --    5.45607   5.68529   5.77347   6.38601   6.66635
 Alpha virt. eigenvalues --    6.89123   7.13243   7.27833   7.37058   7.44136
 Alpha virt. eigenvalues --    7.48337   7.54251   7.55843   7.68940   7.97868
 Alpha virt. eigenvalues --    8.10900   8.97333  15.80453  59.20260
          Condensed to atoms (all electrons):
               1          2          3          4
     1  O    8.140776   0.207054  -0.055515   0.162256
     2  H    0.207054   0.581815   0.004692   0.018926
     3  I   -0.055515   0.004692  25.964250   0.042063
     4  H    0.162256   0.018926   0.042063   0.554206
 Mulliken charges:
               1
     1  O   -0.454571
     2  H    0.187512
     3  I   -0.955490
     4  H    0.222549
 Sum of Mulliken charges =  -1.00000
 Mulliken charges with hydrogens summed into heavy atoms:
               1
     1  O   -0.044510
     3  I   -0.955490
 Electronic spatial extent (au):  <R**2>=           1238.6592
 Charge=             -1.0000 electrons
 Dipole moment (field-independent basis, Debye):
    X=              4.3410    Y=             14.5883    Z=              0.5289  Tot=             15.2297
 Quadrupole moment (field-independent basis, Debye-Ang):
   XX=            -41.8803   YY=            -95.8213   ZZ=            -41.2273
   XY=            -10.6827   XZ=             -0.1549   YZ=             -0.1334
 Traceless Quadrupole moment (field-independent basis, Debye-Ang):
   XX=             17.7626   YY=            -36.1783   ZZ=             18.4156
   XY=            -10.6827   XZ=             -0.1549   YZ=             -0.1334
 Octapole moment (field-independent basis, Debye-Ang**2):
  XXX=             75.2122  YYY=            540.5905  ZZZ=             -2.0797  XYY=             61.7444
  XXY=            125.5293  XXZ=             -0.9839  XZZ=             23.7985  YZZ=            117.2866
  YYZ=             -3.6149  XYZ=             -0.5819
 Hexadecapole moment (field-independent basis, Debye-Ang**3):
 XXXX=           -184.3331 YYYY=          -3141.8595 ZZZZ=            -79.3510 XXXY=           -257.7558
 XXXZ=              0.6869 YYYX=           -382.2861 YYYZ=             14.7162 ZZZX=              0.5567
 ZZZY=              3.4792 XXYY=           -474.2010 XXZZ=            -44.1509 YYZZ=           -429.7076
 XXYZ=              1.7021 YYXZ=              2.4355 ZZXY=            -84.0315
 N-N= 4.741543044151D+01 E-N=-9.080136254904D+02  KE= 1.870390688424D+02
 No NMR shielding tensors so no spin-rotation constants.
 Leave Link  601 at Tue Oct 19 17:08:22 2021, MaxMem= 16106127360 cpu:               3.1 elap:               0.1
 (Enter /sw/contrib/gaussian/g16/B01/g16/l607.exe)
 ******************************Gaussian NBO Version 3.1******************************
             N A T U R A L   A T O M I C   O R B I T A L   A N D
          N A T U R A L   B O N D   O R B I T A L   A N A L Y S I S
 ******************************Gaussian NBO Version 3.1******************************
       /RESON  / : Allow strongly delocalized NBO set

 Analyzing the MP2 density

 Job title: title                                                           

 Storage needed:    110417 in NPA,    146568 in NBO (********** available)
 GSVD:  LWork=       13161 too small for GESVD, short by       32525 words or       32525 for optimal perf.


 NATURAL POPULATIONS:  Natural atomic orbital occupancies 
                                                          
   NAO  Atom  No  lang   Type(AO)    Occupancy
 --------------------------------------------
     1    O    1  S      Cor( 1S)     1.99992
     2    O    1  S      Val( 2S)     1.88967
     3    O    1  S      Ryd( 3S)     0.00659
     4    O    1  S      Ryd( 4S)     0.00030
     5    O    1  S      Ryd( 5S)     0.00016
     6    O    1  px     Val( 2p)     1.67481
     7    O    1  px     Ryd( 3p)     0.01217
     8    O    1  px     Ryd( 4p)     0.00061
     9    O    1  px     Ryd( 5p)     0.00009
    10    O    1  py     Val( 2p)     1.82916
    11    O    1  py     Ryd( 3p)     0.01598
    12    O    1  py     Ryd( 4p)     0.00058
    13    O    1  py     Ryd( 5p)     0.00025
    14    O    1  pz     Val( 2p)     1.85649
    15    O    1  pz     Ryd( 3p)     0.01725
    16    O    1  pz     Ryd( 4p)     0.00058
    17    O    1  pz     Ryd( 5p)     0.00011
    18    O    1  dxy    Ryd( 3d)     0.00929
    19    O    1  dxy    Ryd( 4d)     0.00070
    20    O    1  dxy    Ryd( 5d)     0.00013
    21    O    1  dxz    Ryd( 3d)     0.00984
    22    O    1  dxz    Ryd( 4d)     0.00077
    23    O    1  dxz    Ryd( 5d)     0.00011
    24    O    1  dyz    Ryd( 3d)     0.00884
    25    O    1  dyz    Ryd( 4d)     0.00054
    26    O    1  dyz    Ryd( 5d)     0.00014
    27    O    1  dx2y2  Ryd( 3d)     0.00897
    28    O    1  dx2y2  Ryd( 4d)     0.00075
    29    O    1  dx2y2  Ryd( 5d)     0.00024
    30    O    1  dz2    Ryd( 3d)     0.00858
    31    O    1  dz2    Ryd( 4d)     0.00059
    32    O    1  dz2    Ryd( 5d)     0.00018
    33    O    1  f(0)   Ryd( 4f)     0.00059
    34    O    1  f(0)   Ryd( 5f)     0.00011
    35    O    1  f(C1)  Ryd( 4f)     0.00045
    36    O    1  f(C1)  Ryd( 5f)     0.00009
    37    O    1  f(S1)  Ryd( 4f)     0.00065
    38    O    1  f(S1)  Ryd( 5f)     0.00011
    39    O    1  f(C2)  Ryd( 4f)     0.00067
    40    O    1  f(C2)  Ryd( 5f)     0.00014
    41    O    1  f(S2)  Ryd( 4f)     0.00056
    42    O    1  f(S2)  Ryd( 5f)     0.00010
    43    O    1  f(C3)  Ryd( 4f)     0.00043
    44    O    1  f(C3)  Ryd( 5f)     0.00011
    45    O    1  f(S3)  Ryd( 4f)     0.00061
    46    O    1  f(S3)  Ryd( 5f)     0.00014

    47    H    2  S      Val( 1S)     0.32996
    48    H    2  S      Ryd( 2S)     0.00054
    49    H    2  S      Ryd( 3S)     0.00026
    50    H    2  S      Ryd( 4S)     0.00005
    51    H    2  px     Ryd( 2p)     0.00075
    52    H    2  px     Ryd( 3p)     0.00066
    53    H    2  px     Ryd( 4p)     0.00005
    54    H    2  py     Ryd( 2p)     0.00080
    55    H    2  py     Ryd( 3p)     0.00018
    56    H    2  py     Ryd( 4p)     0.00007
    57    H    2  pz     Ryd( 2p)     0.00090
    58    H    2  pz     Ryd( 3p)     0.00016
    59    H    2  pz     Ryd( 4p)     0.00006
    60    H    2  dxy    Ryd( 3d)     0.00017
    61    H    2  dxy    Ryd( 4d)     0.00007
    62    H    2  dxz    Ryd( 3d)     0.00019
    63    H    2  dxz    Ryd( 4d)     0.00007
    64    H    2  dyz    Ryd( 3d)     0.00011
    65    H    2  dyz    Ryd( 4d)     0.00006
    66    H    2  dx2y2  Ryd( 3d)     0.00025
    67    H    2  dx2y2  Ryd( 4d)     0.00007
    68    H    2  dz2    Ryd( 3d)     0.00015
    69    H    2  dz2    Ryd( 4d)     0.00007

    70    I    3  S      Cor( 4S)     2.00003
    71    I    3  S      Val( 5S)     1.98058
    72    I    3  S      Ryd( 6S)     0.00449
    73    I    3  S      Ryd( 7S)     0.00066
    74    I    3  S      Ryd( 8S)     0.00012
    75    I    3  S      Ryd( 9S)     0.00000
    76    I    3  px     Cor( 4p)     2.00007
    77    I    3  px     Val( 5p)     1.95105
    78    I    3  px     Ryd( 6p)     0.01143
    79    I    3  px     Ryd( 7p)     0.00076
    80    I    3  px     Ryd( 8p)     0.00008
    81    I    3  py     Cor( 4p)     2.00006
    82    I    3  py     Val( 5p)     1.94676
    83    I    3  py     Ryd( 6p)     0.01077
    84    I    3  py     Ryd( 7p)     0.00070
    85    I    3  py     Ryd( 8p)     0.00011
    86    I    3  pz     Cor( 4p)     2.00007
    87    I    3  pz     Val( 5p)     1.95025
    88    I    3  pz     Ryd( 6p)     0.01140
    89    I    3  pz     Ryd( 7p)     0.00076
    90    I    3  pz     Ryd( 8p)     0.00008
    91    I    3  dxy    Cor( 4d)     1.99676
    92    I    3  dxy    Ryd( 5d)     0.02042
    93    I    3  dxy    Ryd( 6d)     0.00154
    94    I    3  dxy    Ryd( 7d)     0.00018
    95    I    3  dxz    Cor( 4d)     1.99679
    96    I    3  dxz    Ryd( 5d)     0.02031
    97    I    3  dxz    Ryd( 6d)     0.00169
    98    I    3  dxz    Ryd( 7d)     0.00017
    99    I    3  dyz    Cor( 4d)     1.99677
   100    I    3  dyz    Ryd( 5d)     0.02067
   101    I    3  dyz    Ryd( 6d)     0.00155
   102    I    3  dyz    Ryd( 7d)     0.00019
   103    I    3  dx2y2  Cor( 4d)     1.99675
   104    I    3  dx2y2  Ryd( 5d)     0.02030
   105    I    3  dx2y2  Ryd( 6d)     0.00157
   106    I    3  dx2y2  Ryd( 7d)     0.00023
   107    I    3  dz2    Cor( 4d)     1.99677
   108    I    3  dz2    Ryd( 5d)     0.02028
   109    I    3  dz2    Ryd( 6d)     0.00163
   110    I    3  dz2    Ryd( 7d)     0.00019
   111    I    3  f(0)   Ryd( 4f)     0.00276
   112    I    3  f(0)   Ryd( 5f)     0.00045
   113    I    3  f(C1)  Ryd( 4f)     0.00277
   114    I    3  f(C1)  Ryd( 5f)     0.00043
   115    I    3  f(S1)  Ryd( 4f)     0.00274
   116    I    3  f(S1)  Ryd( 5f)     0.00046
   117    I    3  f(C2)  Ryd( 4f)     0.00275
   118    I    3  f(C2)  Ryd( 5f)     0.00046
   119    I    3  f(S2)  Ryd( 4f)     0.00278
   120    I    3  f(S2)  Ryd( 5f)     0.00045
   121    I    3  f(C3)  Ryd( 4f)     0.00273
   122    I    3  f(C3)  Ryd( 5f)     0.00046
   123    I    3  f(S3)  Ryd( 4f)     0.00273
   124    I    3  f(S3)  Ryd( 5f)     0.00047

   125    H    4  S      Val( 1S)     0.29740
   126    H    4  S      Ryd( 2S)     0.00535
   127    H    4  S      Ryd( 3S)     0.00068
   128    H    4  S      Ryd( 4S)     0.00012
   129    H    4  px     Ryd( 2p)     0.00330
   130    H    4  px     Ryd( 3p)     0.00041
   131    H    4  px     Ryd( 4p)     0.00010
   132    H    4  py     Ryd( 2p)     0.00465
   133    H    4  py     Ryd( 3p)     0.00058
   134    H    4  py     Ryd( 4p)     0.00016
   135    H    4  pz     Ryd( 2p)     0.00308
   136    H    4  pz     Ryd( 3p)     0.00048
   137    H    4  pz     Ryd( 4p)     0.00011
   138    H    4  dxy    Ryd( 3d)     0.00019
   139    H    4  dxy    Ryd( 4d)     0.00008
   140    H    4  dxz    Ryd( 3d)     0.00012
   141    H    4  dxz    Ryd( 4d)     0.00007
   142    H    4  dyz    Ryd( 3d)     0.00022
   143    H    4  dyz    Ryd( 4d)     0.00008
   144    H    4  dx2y2  Ryd( 3d)     0.00025
   145    H    4  dx2y2  Ryd( 4d)     0.00009
   146    H    4  dz2    Ryd( 3d)     0.00015
   147    H    4  dz2    Ryd( 4d)     0.00008

 [ 28 electrons found in the effective core potential]

 WARNING:  5 low occupancy (<1.9990e) core orbitals found on  I    3


 Summary of Natural Population Analysis:                  
                                                          
                                       Natural Population 
                Natural  -----------------------------------------------
    Atom  No    Charge         Core      Valence    Rydberg      Total
 -----------------------------------------------------------------------
      O    1   -1.35914      1.99992     7.25013    0.10909     9.35914
      H    2    0.66435      0.00000     0.32996    0.00570     0.33565
      I    3   -0.98745     45.98407     7.82864    0.17475    53.98745
      H    4    0.68224      0.00000     0.29740    0.02035     0.31776
 =======================================================================
   * Total *   -1.00000     47.98399    15.70612    0.30989    64.00000

                                 Natural Population      
 --------------------------------------------------------
   Effective Core            28.00000
   Core                      19.98399 ( 99.9199% of  20)
   Valence                   15.70612 ( 98.1633% of  16)
   Natural Minimal Basis     63.69011 ( 99.5158% of  64)
   Natural Rydberg Basis      0.30989 (  0.4842% of  64)
 --------------------------------------------------------

    Atom  No          Natural Electron Configuration
 ----------------------------------------------------------------------------
      O    1      [core]2S( 1.89)2p( 5.36)3S( 0.01)3p( 0.05)3d( 0.05)
      H    2            1S( 0.33)
      I    3      [core]5S( 1.98)5p( 5.85)4f( 0.02)5d( 0.10)6p( 0.03)6d( 0.01)
      H    4            1S( 0.30)2S( 0.01)2p( 0.01)


 NATURAL BOND ORBITAL ANALYSIS:
 Warning:  a bond orbital has occupanc of -0.00001

                       Occupancies       Lewis Structure    Low   High
           Occ.    -------------------  -----------------   occ   occ
  Cycle   Thresh.   Lewis   Non-Lewis     CR  BD  3C  LP    (L)   (NL)   Dev
 =============================================================================
   1(1)    1.90    63.67625   0.32375     10   2   0   6     0      0    0.01
 -----------------------------------------------------------------------------

 Structure accepted: No low occupancy Lewis orbitals

 WARNING:  5 low occupancy (<1.9990e) core orbitals found on  I    3

 --------------------------------------------------------
   Effective Core           28.00000
   Core                     19.98399 ( 99.920% of  20)
   Valence Lewis            15.69226 ( 98.077% of  16)
  ==================       ============================
   Total Lewis              63.67625 ( 99.494% of  64)
  -----------------------------------------------------
   Valence non-Lewis         0.04109 (  0.064% of  64)
   Rydberg non-Lewis         0.28266 (  0.442% of  64)
  ==================       ============================
   Total non-Lewis           0.32375 (  0.506% of  64)
 --------------------------------------------------------


       (Occupancy)   Bond orbital/ Coefficients/ Hybrids
 ---------------------------------------------------------------------------------
     1. (1.96426) BD ( 1) O   1 - H   2  
                ( 83.99%)   0.9165* O   1 s( 14.64%)p 5.80( 84.96%)d 0.03(  0.39%)
                                                  f 0.00(  0.01%)
                                            0.0001  0.3826  0.0023  0.0031 -0.0032
                                            0.9214 -0.0168  0.0048 -0.0011  0.0124
                                           -0.0070 -0.0003 -0.0020  0.0005  0.0070
                                            0.0003  0.0016 -0.0162  0.0015  0.0014
                                            0.0197 -0.0040  0.0001 -0.0046 -0.0016
                                            0.0011  0.0481 -0.0075  0.0046 -0.0282
                                            0.0041 -0.0025 -0.0002  0.0003 -0.0052
                                           -0.0006 -0.0003  0.0000 -0.0003 -0.0002
                                           -0.0068  0.0024  0.0057  0.0009  0.0008
                                           -0.0000
                ( 16.01%)   0.4001* H   2 s( 99.78%)p 0.00(  0.17%)d 0.00(  0.04%)
                                            0.9989 -0.0019  0.0004 -0.0002  0.0000
                                            0.0414 -0.0014  0.0009  0.0013 -0.0000
                                            0.0029  0.0017 -0.0006  0.0026 -0.0019
                                            0.0017  0.0017 -0.0043 -0.0011  0.0170
                                           -0.0031 -0.0092  0.0019
     2. (1.96467) BD ( 1) O   1 - H   4  
                ( 85.78%)   0.9262* O   1 s( 15.86%)p 5.28( 83.77%)d 0.02(  0.36%)
                                                  f 0.00(  0.01%)
                                           -0.0001 -0.3982  0.0018  0.0010  0.0027
                                            0.1553 -0.0106 -0.0013  0.0003  0.6754
                                           -0.0134  0.0051 -0.0021 -0.5975  0.0102
                                           -0.0059  0.0044  0.0126 -0.0045  0.0003
                                           -0.0104  0.0040 -0.0004  0.0502 -0.0020
                                           -0.0006  0.0246 -0.0036  0.0017 -0.0111
                                            0.0031 -0.0015  0.0075 -0.0014 -0.0001
                                            0.0010  0.0047  0.0006  0.0032  0.0021
                                           -0.0021 -0.0008 -0.0004 -0.0015  0.0038
                                           -0.0029
                ( 14.22%)   0.3771* H   4 s( 99.75%)p 0.00(  0.24%)d 0.00(  0.01%)
                                           -0.9986  0.0145 -0.0034  0.0002 -0.0271
                                           -0.0015  0.0014 -0.0012 -0.0259 -0.0053
                                           -0.0200  0.0222  0.0072 -0.0028  0.0026
                                            0.0019 -0.0023  0.0074  0.0009 -0.0043
                                           -0.0010  0.0025  0.0010
     3. (1.99992) CR ( 1) O   1           s(100.00%)
                                            1.0000 -0.0003 -0.0000 -0.0000  0.0000
                                           -0.0000  0.0000 -0.0000  0.0000  0.0000
                                           -0.0000  0.0000 -0.0000 -0.0000  0.0000
                                           -0.0000  0.0000  0.0000 -0.0000  0.0000
                                           -0.0000  0.0000 -0.0000  0.0000  0.0000
                                           -0.0000 -0.0000 -0.0000  0.0000  0.0000
                                            0.0000 -0.0000  0.0000  0.0000  0.0000
                                            0.0000  0.0000  0.0000  0.0000  0.0000
                                            0.0000 -0.0000 -0.0000 -0.0000 -0.0000
                                           -0.0000
     4. (2.00003) CR ( 1) I   3           s(100.00%)
                                            1.0000 -0.0000  0.0000 -0.0000  0.0000
                                           -0.0000  0.0000 -0.0000 -0.0000 -0.0000
                                            0.0000  0.0000 -0.0000 -0.0000  0.0000
                                            0.0000  0.0000 -0.0000 -0.0000 -0.0000
                                           -0.0000  0.0000 -0.0000  0.0000  0.0000
                                            0.0000 -0.0000  0.0000 -0.0000  0.0000
                                           -0.0000  0.0000 -0.0000 -0.0000  0.0000
                                            0.0000 -0.0000  0.0000  0.0000  0.0000
                                           -0.0000  0.0000  0.0000 -0.0000 -0.0000
                                           -0.0000 -0.0000  0.0000  0.0000 -0.0000
                                           -0.0000  0.0000  0.0000  0.0000  0.0000
     5. (2.00007) CR ( 2) I   3           s(  0.00%)p 1.00(100.00%)
                                            0.0000  0.0000  0.0000 -0.0000  0.0000
                                            0.0000  1.0000 -0.0000 -0.0000 -0.0000
                                            0.0000 -0.0000  0.0000 -0.0000 -0.0000
                                            0.0000 -0.0000  0.0000  0.0000 -0.0000
                                            0.0000  0.0000 -0.0000  0.0000  0.0000
                                            0.0000 -0.0000  0.0000 -0.0000 -0.0000
                                            0.0000 -0.0000  0.0000  0.0000 -0.0000
                                            0.0000 -0.0000 -0.0000  0.0000 -0.0000
                                            0.0000 -0.0000 -0.0000  0.0000  0.0000
                                            0.0000  0.0000 -0.0000 -0.0000 -0.0000
                                           -0.0000  0.0000 -0.0000 -0.0000 -0.0000
     6. (2.00006) CR ( 3) I   3           s(  0.00%)p 1.00(100.00%)
                                            0.0000  0.0000 -0.0000  0.0000 -0.0000
                                            0.0000 -0.0000  0.0000  0.0000  0.0000
                                           -0.0000  1.0000  0.0000  0.0000 -0.0000
                                           -0.0000 -0.0000  0.0000  0.0000 -0.0000
                                            0.0000 -0.0000  0.0000 -0.0000  0.0000
                                           -0.0000  0.0000 -0.0000  0.0000 -0.0000
                                            0.0000 -0.0000  0.0000  0.0000 -0.0000
                                           -0.0000  0.0000  0.0000 -0.0000 -0.0000
                                            0.0000 -0.0000 -0.0000 -0.0000 -0.0000
                                            0.0000  0.0000 -0.0000 -0.0000  0.0000
                                            0.0000 -0.0000 -0.0000 -0.0000 -0.0000
     7. (2.00007) CR ( 4) I   3           s(  0.00%)p 1.00(100.00%)
                                            0.0000  0.0000  0.0000 -0.0000  0.0000
                                           -0.0000 -0.0000  0.0000  0.0000  0.0000
                                           -0.0000 -0.0000  0.0000 -0.0000 -0.0000
                                            0.0000  1.0000 -0.0000  0.0000 -0.0000
                                            0.0000 -0.0000  0.0000 -0.0000  0.0000
                                           -0.0000  0.0000  0.0000 -0.0000 -0.0000
                                            0.0000 -0.0000  0.0000  0.0000 -0.0000
                                           -0.0000  0.0000  0.0000 -0.0000  0.0000
                                           -0.0000 -0.0000 -0.0000 -0.0000 -0.0000
                                           -0.0000 -0.0000 -0.0000 -0.0000  0.0000
                                            0.0000 -0.0000 -0.0000 -0.0000 -0.0000
     8. (1.99676) CR ( 5) I   3           s(  0.00%)p 0.00(  0.00%)d 1.00(100.00%)
                                            0.0000  0.0000 -0.0000 -0.0000 -0.0000
                                            0.0000  0.0000  0.0000  0.0000  0.0000
                                           -0.0000 -0.0000  0.0000  0.0000 -0.0000
                                           -0.0000 -0.0000  0.0000  0.0000 -0.0000
                                            0.0000  1.0000  0.0000 -0.0000 -0.0000
                                           -0.0000  0.0000 -0.0000  0.0000 -0.0000
                                            0.0000 -0.0000  0.0000  0.0000 -0.0000
                                           -0.0000  0.0000  0.0000 -0.0000  0.0000
                                           -0.0000 -0.0000 -0.0000 -0.0000 -0.0000
                                           -0.0000 -0.0000 -0.0000 -0.0000  0.0000
                                            0.0000 -0.0000 -0.0000 -0.0000  0.0000
     9. (1.99679) CR ( 6) I   3           s(  0.00%)p 0.00(  0.00%)d 1.00(100.00%)
                                            0.0000  0.0000 -0.0000  0.0000 -0.0000
                                            0.0000  0.0000  0.0000  0.0000  0.0000
                                           -0.0000 -0.0000  0.0000  0.0000  0.0000
                                           -0.0000 -0.0000  0.0000  0.0000  0.0000
                                            0.0000 -0.0000  0.0000 -0.0000 -0.0000
                                            1.0000  0.0000 -0.0000  0.0000 -0.0000
                                            0.0000 -0.0000 -0.0000  0.0000 -0.0000
                                           -0.0000  0.0000 -0.0000 -0.0000 -0.0000
                                            0.0000 -0.0000 -0.0000 -0.0000 -0.0000
                                            0.0000  0.0000 -0.0000 -0.0000  0.0000
                                            0.0000 -0.0000 -0.0000  0.0000  0.0000
    10. (1.99677) CR ( 7) I   3           s(  0.00%)p 0.00(  0.00%)d 1.00(100.00%)
                                            0.0000  0.0000 -0.0000 -0.0000 -0.0000
                                            0.0000 -0.0000  0.0000  0.0000 -0.0000
                                           -0.0000 -0.0000  0.0000  0.0000 -0.0000
                                           -0.0000 -0.0000  0.0000  0.0000 -0.0000
                                            0.0000 -0.0000  0.0000 -0.0000  0.0000
                                           -0.0000  0.0000 -0.0000  0.0000  1.0000
                                            0.0000 -0.0000  0.0000  0.0000 -0.0000
                                            0.0000  0.0000  0.0000 -0.0000 -0.0000
                                            0.0000 -0.0000 -0.0000 -0.0000 -0.0000
                                            0.0000  0.0000 -0.0000 -0.0000  0.0000
                                            0.0000 -0.0000 -0.0000 -0.0000 -0.0000
    11. (1.99675) CR ( 8) I   3           s(  0.00%)p 0.00(  0.00%)d 1.00(100.00%)
                                           -0.0000 -0.0000 -0.0000  0.0000 -0.0000
                                           -0.0000  0.0000  0.0000 -0.0000  0.0000
                                            0.0000  0.0000 -0.0000  0.0000  0.0000
                                           -0.0000  0.0000 -0.0000 -0.0000  0.0000
                                           -0.0000  0.0000 -0.0000  0.0000 -0.0000
                                            0.0000 -0.0000 -0.0000  0.0000  0.0000
                                           -0.0000  0.0000 -0.0000  1.0000  0.0000
                                           -0.0000 -0.0000 -0.0000  0.0000  0.0000
                                           -0.0000  0.0000  0.0000  0.0000  0.0000
                                            0.0000  0.0000  0.0000  0.0000 -0.0000
                                           -0.0000  0.0000  0.0000  0.0000  0.0000
    12. (1.99677) CR ( 9) I   3           s(  0.00%)p 0.00(  0.00%)d 1.00(100.00%)
                                            0.0000 -0.0000 -0.0000  0.0000 -0.0000
                                            0.0000 -0.0000 -0.0000 -0.0000 -0.0000
                                            0.0000  0.0000 -0.0000  0.0000  0.0000
                                           -0.0000  0.0000  0.0000 -0.0000  0.0000
                                           -0.0000  0.0000 -0.0000  0.0000 -0.0000
                                           -0.0000 -0.0000 -0.0000  0.0000  0.0000
                                           -0.0000  0.0000 -0.0000 -0.0000  0.0000
                                            0.0000 -0.0000  1.0000  0.0000 -0.0000
                                            0.0000  0.0000  0.0000  0.0000  0.0000
                                            0.0000  0.0000  0.0000  0.0000 -0.0000
                                           -0.0000  0.0000  0.0000  0.0000  0.0000
    13. (1.97265) LP ( 1) O   1           s( 69.02%)p 0.45( 30.87%)d 0.00(  0.11%)
                                                  f 0.00(  0.00%)
                                            0.0002  0.8308  0.0008 -0.0005  0.0024
                                           -0.3486 -0.0102  0.0065 -0.0007  0.3676
                                            0.0098 -0.0044  0.0010 -0.2274 -0.0058
                                            0.0032  0.0006  0.0225 -0.0022 -0.0019
                                           -0.0188  0.0024  0.0011  0.0102 -0.0036
                                            0.0014 -0.0032  0.0073 -0.0056  0.0038
                                           -0.0038  0.0027  0.0026 -0.0013  0.0001
                                           -0.0015  0.0002 -0.0007 -0.0003 -0.0003
                                            0.0031 -0.0006  0.0002  0.0020  0.0035
                                           -0.0014
    14. (1.96121) LP ( 2) O   1           s(  0.42%)p99.99( 99.24%)d 0.74(  0.31%)
                                                  f 0.06(  0.03%)
                                            0.0000  0.0643 -0.0080 -0.0037 -0.0002
                                           -0.0176 -0.0020  0.0010 -0.0015 -0.6358
                                           -0.0123  0.0026 -0.0022 -0.7664 -0.0184
                                            0.0044 -0.0032 -0.0269  0.0088 -0.0026
                                           -0.0335  0.0099 -0.0025 -0.0014  0.0028
                                           -0.0019 -0.0139 -0.0004  0.0023 -0.0291
                                            0.0001  0.0037  0.0015 -0.0015  0.0013
                                           -0.0003  0.0089 -0.0027 -0.0107  0.0042
                                           -0.0002  0.0002  0.0007  0.0005 -0.0058
                                            0.0032
    15. (1.98063) LP ( 1) I   3           s( 99.94%)p 0.00(  0.06%)d 0.00(  0.00%)
                                                  f 0.00(  0.00%)
                                            0.0000  0.9997 -0.0000  0.0000 -0.0000
                                           -0.0000 -0.0000 -0.0027  0.0004 -0.0001
                                            0.0001 -0.0000 -0.0247  0.0005 -0.0004
                                            0.0002 -0.0000 -0.0014  0.0008 -0.0002
                                            0.0002 -0.0000  0.0009 -0.0003 -0.0000
                                           -0.0000  0.0004 -0.0001 -0.0000 -0.0000
                                            0.0021 -0.0007 -0.0000  0.0000 -0.0011
                                            0.0002  0.0002  0.0000 -0.0007  0.0002
                                            0.0000 -0.0005 -0.0005 -0.0001 -0.0001
                                           -0.0002 -0.0002 -0.0006 -0.0006  0.0003
                                            0.0002 -0.0003 -0.0003 -0.0003 -0.0002
    16. (1.95150) LP ( 2) I   3           s(  0.00%)p 1.00( 99.99%)d 0.00(  0.00%)
                                                  f 0.00(  0.00%)
                                           -0.0000  0.0047  0.0005 -0.0009  0.0010
                                           -0.0001  0.0000  0.7261  0.0004  0.0006
                                           -0.0003  0.0000  0.1503 -0.0010 -0.0001
                                            0.0000 -0.0000 -0.6709  0.0011 -0.0002
                                            0.0000 -0.0000  0.0029 -0.0009 -0.0001
                                           -0.0000  0.0011 -0.0006  0.0004  0.0000
                                           -0.0003 -0.0005  0.0010 -0.0000  0.0026
                                           -0.0014  0.0017  0.0000 -0.0030  0.0018
                                           -0.0015 -0.0002 -0.0004 -0.0005 -0.0005
                                           -0.0014 -0.0015  0.0001 -0.0002  0.0008
                                            0.0008 -0.0006 -0.0003  0.0007  0.0007
    17. (1.95139) LP ( 3) I   3           s(  0.01%)p99.99( 99.98%)d 0.27(  0.00%)
                                                  f 0.10(  0.00%)
                                           -0.0000  0.0087  0.0024 -0.0039  0.0038
                                           -0.0001 -0.0000 -0.6523 -0.0003 -0.0006
                                            0.0001  0.0000  0.4592 -0.0027 -0.0008
                                            0.0011 -0.0000 -0.6029  0.0013 -0.0002
                                            0.0001  0.0000 -0.0017  0.0002  0.0004
                                            0.0000 -0.0030  0.0017 -0.0016  0.0000
                                            0.0015 -0.0012  0.0015  0.0000 -0.0017
                                            0.0009  0.0002  0.0000 -0.0013  0.0008
                                           -0.0002 -0.0004 -0.0006 -0.0002 -0.0002
                                           -0.0013 -0.0013 -0.0009 -0.0013 -0.0011
                                           -0.0011  0.0000 -0.0003 -0.0010 -0.0009
    18. (1.94595) LP ( 4) I   3           s(  0.05%)p99.99( 99.92%)d 0.46(  0.02%)
                                                  f 0.04(  0.00%)
                                            0.0000  0.0228 -0.0006 -0.0004 -0.0002
                                            0.0002 -0.0000  0.2175  0.0014  0.0001
                                           -0.0004 -0.0000  0.8750  0.0009 -0.0008
                                           -0.0001 -0.0000  0.4315  0.0033 -0.0000
                                            0.0002 -0.0000  0.0050 -0.0009  0.0002
                                           -0.0000  0.0032 -0.0010  0.0005 -0.0000
                                            0.0121 -0.0033  0.0014  0.0000 -0.0059
                                           -0.0002  0.0019  0.0000 -0.0021 -0.0005
                                            0.0011 -0.0020 -0.0016 -0.0001 -0.0001
                                            0.0000 -0.0000 -0.0024 -0.0020  0.0012
                                            0.0008 -0.0010 -0.0006 -0.0008 -0.0005
    19. (0.01985) RY*( 1) O   1           s(  0.04%)p99.99( 97.02%)d79.00(  2.85%)
                                                  f 2.63(  0.09%)
                                            0.0000 -0.0003  0.0173  0.0078  0.0013
                                           -0.0003  0.0108 -0.0023  0.0037 -0.0205
                                            0.6397  0.0223 -0.0029 -0.0239  0.7475
                                            0.0227 -0.0018  0.0978 -0.0238  0.0050
                                            0.1102 -0.0262  0.0050  0.0102 -0.0066
                                            0.0039  0.0275 -0.0010 -0.0046  0.0667
                                           -0.0044 -0.0071 -0.0050  0.0035  0.0034
                                           -0.0006 -0.0101  0.0080  0.0177 -0.0122
                                            0.0004 -0.0008  0.0029 -0.0016  0.0129
                                           -0.0095
    20. (0.01574) RY*( 2) O   1           s( 13.10%)p 6.32( 82.82%)d 0.30(  3.94%)
                                                  f 0.01(  0.13%)
                                           -0.0000 -0.0164  0.3615  0.0024  0.0044
                                            0.0101 -0.5653  0.0034 -0.0022 -0.0061
                                            0.5427  0.0162 -0.0138  0.0051 -0.4618
                                           -0.0133  0.0071  0.1300 -0.0078 -0.0082
                                           -0.1355  0.0138  0.0040  0.0326 -0.0152
                                            0.0027 -0.0156  0.0353 -0.0184  0.0036
                                           -0.0230  0.0127  0.0081 -0.0078 -0.0082
                                           -0.0036 -0.0060 -0.0009 -0.0160  0.0036
                                            0.0164 -0.0066  0.0114  0.0055  0.0169
                                           -0.0076
    21. (0.00981) RY*( 3) O   1           s(  0.17%)p99.99( 93.30%)d37.09(  6.30%)
                                                  f 1.39(  0.24%)
                                           -0.0000  0.0012  0.0215  0.0342  0.0083
                                            0.0298  0.7719 -0.0127 -0.0041  0.0158
                                            0.4312  0.0155 -0.0230 -0.0138 -0.3846
                                           -0.0159  0.0269  0.1130 -0.0093  0.0054
                                           -0.0415  0.0042 -0.0037 -0.0805 -0.0256
                                            0.0034 -0.1626 -0.0943  0.0444  0.0177
                                            0.0536 -0.0264 -0.0033 -0.0015  0.0132
                                            0.0073 -0.0106  0.0014 -0.0255  0.0089
                                            0.0055  0.0009 -0.0137 -0.0106  0.0275
                                           -0.0137
    22. (0.00664) RY*( 4) O   1           s( 40.05%)p 0.05(  1.98%)d 1.43( 57.24%)
                                                  f 0.02(  0.73%)
                                            0.0000  0.0126  0.6325 -0.0179  0.0028
                                           -0.0064  0.1204 -0.0094 -0.0055  0.0051
                                           -0.0576  0.0037 -0.0157 -0.0135  0.0357
                                           -0.0079 -0.0069 -0.5729 -0.0333  0.0110
                                            0.3157  0.0127 -0.0048  0.1910  0.0367
                                            0.0001 -0.1056 -0.0236  0.0087  0.3043
                                            0.0297 -0.0036  0.0042 -0.0020  0.0250
                                           -0.0010 -0.0070  0.0094  0.0162 -0.0008
                                           -0.0425  0.0180 -0.0447  0.0078 -0.0428
                                            0.0143
    23. (0.00631) RY*( 5) O   1           s(  2.52%)p 0.28(  0.72%)d37.84( 95.43%)
                                                  f 0.53(  1.34%)
                                           -0.0000  0.0041  0.1585 -0.0073 -0.0042
                                           -0.0053 -0.0220 -0.0092  0.0067 -0.0070
                                           -0.0792 -0.0078  0.0090 -0.0007  0.0035
                                            0.0005 -0.0079  0.3207  0.0368 -0.0060
                                            0.5643  0.0581 -0.0149  0.2042  0.0278
                                           -0.0053 -0.3912 -0.0328  0.0008 -0.5733
                                           -0.0517  0.0056 -0.0657  0.0295  0.0123
                                           -0.0048  0.0518 -0.0229  0.0299 -0.0088
                                           -0.0070  0.0022 -0.0021 -0.0031  0.0558
                                           -0.0254
    24. (0.00589) RY*( 6) O   1           s(  0.06%)p42.34(  2.68%)d99.99( 96.30%)
                                                  f15.20(  0.96%)
                                            0.0000  0.0006  0.0251 -0.0012  0.0009
                                           -0.0010  0.0004 -0.0005 -0.0062 -0.0321
                                           -0.1050 -0.0143 -0.0135 -0.0362 -0.1123
                                           -0.0193 -0.0017  0.5233  0.0766 -0.0167
                                            0.4959  0.0750 -0.0154 -0.0610 -0.0061
                                            0.0026  0.3240  0.0344  0.0003  0.5630
                                            0.0659 -0.0043  0.0065 -0.0053  0.0347
                                           -0.0128 -0.0568  0.0250  0.0490 -0.0206
                                            0.0018 -0.0005  0.0285 -0.0103  0.0228
                                           -0.0066
    25. (0.00578) RY*( 7) O   1           s(  5.99%)p 1.12(  6.73%)d14.41( 86.29%)
                                                  f 0.17(  0.99%)
                                           -0.0000  0.0094  0.2439 -0.0127 -0.0116
                                            0.0281  0.1116  0.0114 -0.0088 -0.0359
                                           -0.1754 -0.0286  0.0069  0.0279  0.1412
                                            0.0137 -0.0012  0.3954  0.0368 -0.0074
                                           -0.4649 -0.0508  0.0113  0.6517  0.0973
                                           -0.0106 -0.1358 -0.0367  0.0110  0.1755
                                            0.0351 -0.0108  0.0536 -0.0200  0.0014
                                            0.0038  0.0240 -0.0089  0.0064 -0.0027
                                            0.0662 -0.0284  0.0055 -0.0085  0.0234
                                           -0.0082
    26. (0.00325) RY*( 8) O   1           s( 37.18%)p 0.23(  8.63%)d 1.44( 53.60%)
                                                  f 0.02(  0.59%)
                                            0.0000 -0.0079  0.6096  0.0027 -0.0121
                                           -0.0186  0.1614 -0.0235 -0.0125  0.0015
                                           -0.1815  0.0051 -0.0253 -0.0028  0.1592
                                           -0.0129  0.0112  0.2249  0.0393 -0.0013
                                           -0.2120 -0.0415  0.0023 -0.4517 -0.1146
                                            0.0006  0.3453  0.0766  0.0070 -0.2981
                                           -0.0774 -0.0021 -0.0154  0.0143 -0.0270
                                            0.0310 -0.0192  0.0188 -0.0080  0.0149
                                            0.0070 -0.0095  0.0313 -0.0398 -0.0073
                                           -0.0001
    27. (0.00288) RY*( 9) O   1           s(  0.61%)p10.70(  6.54%)d99.99( 91.27%)
                                                  f 2.57(  1.57%)
                                           -0.0000 -0.0017  0.0744  0.0239  0.0032
                                            0.0435 -0.1334  0.0693 -0.0223  0.0243
                                           -0.1410  0.0425 -0.0320 -0.0208  0.1230
                                           -0.0367  0.0166  0.1502  0.0451 -0.0007
                                           -0.1210 -0.0343  0.0017 -0.4784 -0.0975
                                           -0.0029 -0.7131 -0.1425 -0.0085  0.3183
                                            0.0611  0.0003  0.0018  0.0058  0.0311
                                           -0.0198 -0.0437  0.0285 -0.0655  0.0397
                                           -0.0099 -0.0030 -0.0451  0.0255  0.0485
                                           -0.0245
    28. (0.00063) RY*(10) O   1           s(  5.00%)p 8.65( 43.26%)d 8.96( 44.84%)
                                                  f 1.38(  6.89%)
                                            0.0000 -0.0053 -0.0201  0.2090  0.0769
                                           -0.0029  0.0110  0.3613 -0.1323 -0.0005
                                           -0.0054  0.0876 -0.3290 -0.0037 -0.0344
                                            0.4087 -0.0148 -0.0016  0.1299  0.0092
                                            0.0429 -0.2635  0.0126  0.0543 -0.0321
                                            0.1113  0.0321 -0.1837 -0.0399  0.0259
                                           -0.5523 -0.0402 -0.0138 -0.0294 -0.0073
                                           -0.0091 -0.2319  0.0245 -0.0303 -0.0527
                                           -0.0284  0.0318 -0.0339  0.0484 -0.0609
                                            0.0262
    29. (0.00059) RY*(11) O   1           s( 19.68%)p 3.00( 59.12%)d 0.72( 14.25%)
                                                  f 0.35(  6.95%)
                                           -0.0000 -0.0016 -0.0134  0.4366  0.0777
                                           -0.0003 -0.0171 -0.1980 -0.0359 -0.0078
                                           -0.0093 -0.6539 -0.2961 -0.0019  0.0222
                                           -0.1733  0.0664 -0.0228 -0.1348 -0.0434
                                            0.0080  0.0711  0.0298  0.0629 -0.3192
                                            0.0717 -0.0263  0.0593  0.0163 -0.0109
                                            0.0188 -0.0001  0.0925 -0.0395 -0.0605
                                            0.0030 -0.1865 -0.0065 -0.0510 -0.0406
                                            0.0322  0.0165  0.0252  0.0094  0.1205
                                            0.0077
    30. (0.00058) RY*(12) O   1           s(  0.11%)p99.99( 25.57%)d99.99( 62.91%)
                                                  f99.99( 11.41%)
                                            0.0000 -0.0057 -0.0017  0.0170  0.0277
                                            0.0019  0.0303  0.4486 -0.0152  0.0110
                                            0.0498 -0.2130 -0.0038  0.0090  0.0229
                                           -0.0657  0.0198 -0.0449  0.6416  0.1132
                                           -0.0215  0.3193  0.0795  0.0106  0.0010
                                            0.0046 -0.0196  0.2694  0.0050 -0.0290
                                            0.1314  0.0524  0.0501 -0.0128 -0.0915
                                           -0.0242  0.1045 -0.0130 -0.1910  0.0219
                                           -0.0521  0.0111 -0.0676  0.0271 -0.2135
                                            0.0256
    31. (0.00055) RY*(13) O   1           s(  0.99%)p35.10( 34.89%)d46.55( 46.27%)
                                                  f17.95( 17.84%)
                                           -0.0000  0.0047  0.0013  0.0994 -0.0064
                                            0.0002 -0.0223 -0.4750 -0.0153  0.0042
                                           -0.0136  0.2409 -0.0259  0.0104  0.0285
                                            0.2432  0.0599  0.0016  0.1270  0.0544
                                           -0.0201  0.5647  0.1407  0.0082 -0.0537
                                            0.0157  0.0140 -0.2809 -0.0101 -0.0026
                                           -0.1322 -0.0686  0.2649 -0.0219 -0.0399
                                            0.0216 -0.0340  0.0053 -0.2343  0.0007
                                            0.1053 -0.0041 -0.0561 -0.0282 -0.1849
                                            0.0191
    32. (0.00050) RY*(14) O   1           s(  1.37%)p12.49( 17.15%)d45.27( 62.17%)
                                                  f14.06( 19.31%)
                                            0.0000  0.0008  0.0237  0.1129  0.0207
                                           -0.0076 -0.0523 -0.1928 -0.0345  0.0082
                                            0.0185 -0.3257 -0.0616 -0.0050 -0.0017
                                            0.1402  0.0196  0.0211  0.1733  0.0676
                                           -0.0221 -0.1528 -0.0675 -0.1118  0.5543
                                            0.1402  0.0547 -0.3671 -0.0191 -0.0540
                                            0.2772  0.0320 -0.1981  0.0013  0.1258
                                            0.0497 -0.0308  0.0054  0.1364  0.0073
                                           -0.0489 -0.0157 -0.1874 -0.0645 -0.2720
                                           -0.0015
    33. (0.00046) RY*(15) O   1           s(  0.14%)p99.99( 20.22%)d87.79( 12.21%)
                                                  f99.99( 67.43%)
                                            0.0000 -0.0039  0.0288 -0.0053  0.0227
                                           -0.0015  0.0056  0.1390  0.0355 -0.0015
                                           -0.0028 -0.1700  0.0706  0.0022 -0.0015
                                            0.3765  0.0773  0.0005 -0.1194 -0.0347
                                           -0.0030  0.1018  0.0185 -0.0867  0.2831
                                            0.0404  0.0108  0.0480  0.0057 -0.0198
                                            0.0600  0.0114  0.5454  0.0658 -0.0079
                                            0.0033  0.1434  0.0398  0.0465  0.0483
                                           -0.3208 -0.0419 -0.0575 -0.0118  0.4872
                                            0.0179
    34. (0.00044) RY*(16) O   1           s(  0.05%)p74.72(  3.57%)d99.99( 10.28%)
                                                  f99.99( 86.10%)
                                            0.0000 -0.0003  0.0025  0.0077  0.0203
                                           -0.0024 -0.0096 -0.0057 -0.0351  0.0021
[...]
                                           -0.0030  0.0137 -0.5169  0.0256 -0.0118
                                            0.1952  0.0469  0.0385  0.0335 -0.0075
                                           -0.0094 -0.0008  0.0360  0.0109 -0.0390
                                            0.0140 -0.0524  0.0156
   125. (0.00485) RY*( 2) H   4           s(  6.67%)p13.76( 91.84%)d 0.22(  1.49%)
                                           -0.0153  0.2412 -0.0911  0.0002  0.3653
                                           -0.0201  0.0210  0.7014 -0.0007 -0.0010
                                            0.5218  0.1382 -0.0263  0.0200  0.0060
                                           -0.0014 -0.0126 -0.0714  0.0046  0.0566
                                           -0.0494 -0.0421 -0.0421
   126. (0.00287) RY*( 3) H   4           s(  1.69%)p56.89( 96.27%)d 1.21(  2.04%)
                                            0.0154  0.1223  0.0281 -0.0306 -0.8628
                                            0.0110 -0.0142  0.0816  0.1067 -0.0059
                                            0.4434  0.0572  0.0044  0.0524 -0.0244
                                            0.0662  0.0027  0.0454  0.0284 -0.0966
                                            0.0010  0.0068 -0.0210
   127. (0.00160) RY*( 4) H   4           s( 27.04%)p 2.68( 72.34%)d 0.02(  0.62%)
                                            0.0312  0.5005 -0.0926  0.1018 -0.2407
                                            0.0482  0.0234  0.4383 -0.0808  0.0007
                                           -0.6773  0.0678  0.0246  0.0433 -0.0081
                                            0.0241 -0.0050  0.0370 -0.0116  0.0023
                                           -0.0144  0.0436  0.0071
   128. (0.00094) RY*( 5) H   4           s( 60.35%)p 0.58( 35.09%)d 0.08(  4.57%)
                                           -0.0114  0.0130  0.7757  0.0391  0.0890
                                            0.2141 -0.0151  0.1009  0.4926 -0.1297
                                           -0.0689  0.1458 -0.0348  0.0269  0.0150
                                            0.0493 -0.0507  0.1646 -0.0691 -0.0316
                                           -0.0098  0.0806  0.0156
   129. (0.00042) RY*( 6) H   4           s(  0.15%)p99.99( 92.04%)d53.30(  7.81%)
                                            0.0004  0.0101  0.0350  0.0118 -0.0189
                                            0.8831 -0.0304 -0.0135 -0.3174  0.0348
                                            0.0752 -0.1750 -0.0282  0.0421  0.1325
                                            0.0625 -0.0989 -0.1504  0.0241  0.1257
                                            0.0465 -0.0551  0.0298
   130. (0.00032) RY*( 7) H   4           s( 11.85%)p 4.66( 55.26%)d 2.78( 32.89%)
                                           -0.0125  0.0505  0.2724  0.2040  0.0020
                                           -0.1593  0.1806  0.0951 -0.0936  0.3831
                                            0.0270 -0.5732  0.0276  0.1291  0.0609
                                           -0.0863 -0.0730 -0.1049 -0.1564 -0.3887
                                           -0.1385 -0.2879  0.0844
   131. (0.00025) RY*( 8) H   4           s(  5.38%)p 4.56( 24.54%)d13.02( 70.08%)
                                           -0.0079  0.0624  0.2227 -0.0175 -0.0805
                                           -0.2422  0.0836  0.0036 -0.0815 -0.2573
                                            0.0091 -0.2899 -0.1276  0.2687 -0.1075
                                            0.1212  0.1216 -0.3436 -0.0909  0.6611
                                            0.0775 -0.0405  0.1287
   132. (0.00021) RY*( 9) H   4           s(  3.70%)p10.79( 39.93%)d15.23( 56.37%)
                                            0.0046  0.0790  0.1607 -0.0702 -0.0193
                                           -0.0761 -0.1615  0.1036 -0.2847 -0.3959
                                            0.0620 -0.3286 -0.0815 -0.5289 -0.1328
                                           -0.2614 -0.0734  0.2297  0.0933 -0.1029
                                            0.2108  0.1170  0.2500
   133. (0.00019) RY*(10) H   4           s(  3.75%)p 3.76( 14.10%)d21.88( 82.14%)
                                           -0.0077  0.0483 -0.0428  0.1825 -0.0924
                                            0.0399  0.0012 -0.0392  0.3061  0.1257
                                           -0.0383  0.0734 -0.1141 -0.5591  0.0115
                                           -0.3516 -0.1257 -0.5124 -0.1226  0.1786
                                           -0.0411 -0.1620 -0.1786
   134. (0.00015) RY*(11) H   4           s( 35.75%)p 1.07( 38.36%)d 0.72( 25.89%)
                                           -0.0131 -0.0228 -0.3057  0.5132  0.0477
                                            0.0895 -0.2863 -0.0145  0.3047 -0.2255
                                            0.0183 -0.0995 -0.3705  0.1616 -0.0825
                                            0.1484  0.0882  0.0103 -0.1527 -0.1923
                                            0.2634 -0.1323  0.2211
   135. (0.00011) RY*(12) H   4           s(  8.26%)p 4.65( 38.43%)d 6.45( 53.31%)
                                           -0.0060  0.0359  0.0122  0.2848  0.0042
                                            0.0199 -0.4699 -0.0120 -0.0223  0.3361
                                            0.0794 -0.1816  0.1009  0.0259 -0.1836
                                           -0.1510  0.1379  0.1954 -0.1580  0.2610
                                           -0.2746  0.4858 -0.1191
   136. (0.00009) RY*(13) H   4           s(  1.37%)p40.55( 55.45%)d31.57( 43.18%)
   137. (0.00010) RY*(14) H   4           s(  9.47%)p 3.06( 28.95%)d 6.51( 61.58%)
                                           -0.0050  0.0280 -0.1178  0.2828  0.0196
                                           -0.0373  0.4201 -0.0077  0.1590 -0.0648
                                            0.0609 -0.2470  0.1305 -0.2224  0.4397
                                            0.3244 -0.0395  0.0040  0.0773  0.0410
                                            0.0918  0.4983 -0.0430
   138. (0.00006) RY*(15) H   4           s(  2.67%)p 5.86( 15.64%)d30.58( 81.68%)
   139. (0.00007) RY*(16) H   4           s(  0.69%)p14.45( 10.04%)d99.99( 89.26%)
   140. (0.00007) RY*(17) H   4           s(  1.96%)p 1.95(  3.84%)d47.94( 94.20%)
   141. (0.00005) RY*(18) H   4           s( 37.84%)p 1.38( 52.08%)d 0.27( 10.08%)
   142. (0.00006) RY*(19) H   4           s(  1.59%)p 9.99( 15.83%)d52.08( 82.58%)
   143. (0.00003) RY*(20) H   4           s(  0.24%)p98.55( 23.99%)d99.99( 75.76%)
   144. (0.00003) RY*(21) H   4           s(  2.58%)p 9.97( 25.69%)d27.83( 71.73%)
   145. (0.00001) RY*(22) H   4           s( 12.24%)p 2.93( 35.79%)d 4.25( 51.97%)
   146. (0.01928) BD*( 1) O   1 - H   2  
                ( 16.01%)   0.4001* O   1 s( 14.64%)p 5.80( 84.96%)d 0.03(  0.39%)
                                                  f 0.00(  0.01%)
                                           -0.0001 -0.3826 -0.0023 -0.0031  0.0032
                                           -0.9214  0.0168 -0.0048  0.0011 -0.0124
                                            0.0070  0.0003  0.0020 -0.0005 -0.0070
                                           -0.0003 -0.0016  0.0162 -0.0015 -0.0014
                                           -0.0197  0.0040 -0.0001  0.0046  0.0016
                                           -0.0011 -0.0481  0.0075 -0.0046  0.0282
                                           -0.0041  0.0025  0.0002 -0.0003  0.0052
                                            0.0006  0.0003 -0.0000  0.0003  0.0002
                                            0.0068 -0.0024 -0.0057 -0.0009 -0.0008
                                            0.0000
                ( 83.99%)  -0.9165* H   2 s( 99.78%)p 0.00(  0.17%)d 0.00(  0.04%)
                                           -0.9989  0.0019 -0.0004  0.0002 -0.0000
                                           -0.0414  0.0014 -0.0009 -0.0013  0.0000
                                           -0.0029 -0.0017  0.0006 -0.0026  0.0019
                                           -0.0017 -0.0017  0.0043  0.0011 -0.0170
                                            0.0031  0.0092 -0.0019
   147. (0.02181) BD*( 1) O   1 - H   4  
                ( 14.22%)   0.3771* O   1 s( 15.86%)p 5.28( 83.77%)d 0.02(  0.36%)
                                                  f 0.00(  0.01%)
                                            0.0001  0.3982 -0.0018 -0.0010 -0.0027
                                           -0.1553  0.0106  0.0013 -0.0003 -0.6754
                                            0.0134 -0.0051  0.0021  0.5975 -0.0102
                                            0.0059 -0.0044 -0.0126  0.0045 -0.0003
                                            0.0104 -0.0040  0.0004 -0.0502  0.0020
                                            0.0006 -0.0246  0.0036 -0.0017  0.0111
                                           -0.0031  0.0015 -0.0075  0.0014  0.0001
                                           -0.0010 -0.0047 -0.0006 -0.0032 -0.0021
                                            0.0021  0.0008  0.0004  0.0015 -0.0038
                                            0.0029
                ( 85.78%)  -0.9262* H   4 s( 99.75%)p 0.00(  0.24%)d 0.00(  0.01%)
                                            0.9986 -0.0145  0.0034 -0.0002  0.0271
                                            0.0015 -0.0014  0.0012  0.0259  0.0053
                                            0.0200 -0.0222 -0.0072  0.0028 -0.0026
                                           -0.0019  0.0023 -0.0074 -0.0009  0.0043
                                            0.0010 -0.0025 -0.0010


 NHO Directionality and "Bond Bending" (deviations from line of nuclear centers)

         [Thresholds for printing:  angular deviation  >  1.0 degree]
                                    hybrid p-character > 25.0%
                                    orbital occupancy  >  0.10e

                                Line of Centers        Hybrid 1              Hybrid 2
                                ---------------  -------------------   ------------------
                NBO               Theta   Phi    Theta   Phi    Dev    Theta   Phi    Dev
 ========================================================================================
    13. LP (   1) O   1             --     --    114.0  133.3   --       --     --    --
    14. LP (   2) O   1             --     --    140.4  268.2   --       --     --    --
    16. LP (   2) I   3             --     --    132.1   11.6   --       --     --    --
    17. LP (   3) I   3             --     --    127.1  145.0   --       --     --    --
    18. LP (   4) I   3             --     --     64.2   76.0   --       --     --    --


 Natural Bond Orbitals (Summary):

           NBO                  Occupancy  
 -----------------------------------------------
 Molecular unit  1  (H2O)
     1. BD (   1) O   1 - H   2          1.96426
     2. BD (   1) O   1 - H   4          1.96467
     3. CR (   1) O   1                  1.99992
    13. LP (   1) O   1                  1.97265
    14. LP (   2) O   1                  1.96121
    19. RY*(   1) O   1                  0.01985
    20. RY*(   2) O   1                  0.01574
    21. RY*(   3) O   1                  0.00981
    22. RY*(   4) O   1                  0.00664
    23. RY*(   5) O   1                  0.00631
    24. RY*(   6) O   1                  0.00589
    25. RY*(   7) O   1                  0.00578
    26. RY*(   8) O   1                  0.00325
    27. RY*(   9) O   1                  0.00288
    28. RY*(  10) O   1                  0.00063
    29. RY*(  11) O   1                  0.00059
    30. RY*(  12) O   1                  0.00058
    31. RY*(  13) O   1                  0.00055
    32. RY*(  14) O   1                  0.00050
    33. RY*(  15) O   1                  0.00046
    34. RY*(  16) O   1                  0.00044
    35. RY*(  17) O   1                  0.00043
    36. RY*(  18) O   1                  0.00044
    37. RY*(  19) O   1                  0.00040
    38. RY*(  20) O   1                  0.00041
    39. RY*(  21) O   1                  0.00041
    40. RY*(  22) O   1                  0.00034
    41. RY*(  23) O   1                  0.00028
    42. RY*(  24) O   1                  0.00025
    43. RY*(  25) O   1                  0.00021
    44. RY*(  26) O   1                  0.00015
    45. RY*(  27) O   1                  0.00010
    46. RY*(  28) O   1                  0.00007
    47. RY*(  29) O   1                  0.00008
    48. RY*(  30) O   1                  0.00007
    49. RY*(  31) O   1                  0.00008
    50. RY*(  32) O   1                  0.00008
    51. RY*(  33) O   1                  0.00006
    52. RY*(  34) O   1                  0.00007
    53. RY*(  35) O   1                  0.00007
    54. RY*(  36) O   1                  0.00005
    55. RY*(  37) O   1                  0.00004
    56. RY*(  38) O   1                  0.00005
    57. RY*(  39) O   1                  0.00003
    58. RY*(  40) O   1                  0.00001
    59. RY*(  41) O   1                 -0.00001
    60. RY*(   1) H   2                  0.00154
    61. RY*(   2) H   2                  0.00141
    62. RY*(   3) H   2                  0.00062
    63. RY*(   4) H   2                  0.00030
    64. RY*(   5) H   2                  0.00019
    65. RY*(   6) H   2                  0.00014
    66. RY*(   7) H   2                  0.00014
    67. RY*(   8) H   2                  0.00011
    68. RY*(   9) H   2                  0.00011
    69. RY*(  10) H   2                  0.00006
    70. RY*(  11) H   2                  0.00007
    71. RY*(  12) H   2                  0.00007
    72. RY*(  13) H   2                  0.00004
    73. RY*(  14) H   2                  0.00005
    74. RY*(  15) H   2                  0.00003
    75. RY*(  16) H   2                  0.00002
    76. RY*(  17) H   2                  0.00002
    77. RY*(  18) H   2                  0.00002
    78. RY*(  19) H   2                  0.00002
    79. RY*(  20) H   2                  0.00002
    80. RY*(  21) H   2                  0.00001
    81. RY*(  22) H   2                  0.00001
   124. RY*(   1) H   4                  0.00721
   125. RY*(   2) H   4                  0.00485
   126. RY*(   3) H   4                  0.00287
   127. RY*(   4) H   4                  0.00160
   128. RY*(   5) H   4                  0.00094
   129. RY*(   6) H   4                  0.00042
   130. RY*(   7) H   4                  0.00032
   131. RY*(   8) H   4                  0.00025
   132. RY*(   9) H   4                  0.00021
   133. RY*(  10) H   4                  0.00019
   134. RY*(  11) H   4                  0.00015
   135. RY*(  12) H   4                  0.00011
   136. RY*(  13) H   4                  0.00009
   137. RY*(  14) H   4                  0.00010
   138. RY*(  15) H   4                  0.00006
   139. RY*(  16) H   4                  0.00007
   140. RY*(  17) H   4                  0.00007
   141. RY*(  18) H   4                  0.00005
   142. RY*(  19) H   4                  0.00006
   143. RY*(  20) H   4                  0.00003
   144. RY*(  21) H   4                  0.00003
   145. RY*(  22) H   4                  0.00001
   146. BD*(   1) O   1 - H   2          0.01928
   147. BD*(   1) O   1 - H   4          0.02181
       -------------------------------
              Total Lewis    9.86272  ( 98.5036%)
        Valence non-Lewis    0.04109  (  0.4104%)
        Rydberg non-Lewis    0.10874  (  1.0860%)
       -------------------------------
            Total unit  1   10.01255  (100.0000%)
           Charge unit  1   -0.01255

 Molecular unit  2  (I)
     4. CR (   1) I   3                  2.00003
     5. CR (   2) I   3                  2.00007
     6. CR (   3) I   3                  2.00006
     7. CR (   4) I   3                  2.00007
     8. CR (   5) I   3                  1.99676
     9. CR (   6) I   3                  1.99679
    10. CR (   7) I   3                  1.99677
    11. CR (   8) I   3                  1.99675
    12. CR (   9) I   3                  1.99677
    15. LP (   1) I   3                  1.98063
    16. LP (   2) I   3                  1.95150
    17. LP (   3) I   3                  1.95139
    18. LP (   4) I   3                  1.94595
    82. RY*(   1) I   3                  0.02048
    83. RY*(   2) I   3                  0.02040
    84. RY*(   3) I   3                  0.02027
    85. RY*(   4) I   3                  0.02022
    86. RY*(   5) I   3                  0.02019
    87. RY*(   6) I   3                  0.01145
    88. RY*(   7) I   3                  0.01138
    89. RY*(   8) I   3                  0.01072
    90. RY*(   9) I   3                  0.00497
    91. RY*(  10) I   3                  0.00279
    92. RY*(  11) I   3                  0.00279
    93. RY*(  12) I   3                  0.00277
    94. RY*(  13) I   3                  0.00277
    95. RY*(  14) I   3                  0.00274
    96. RY*(  15) I   3                  0.00274
    97. RY*(  16) I   3                  0.00272
    98. RY*(  17) I   3                  0.00169
    99. RY*(  18) I   3                  0.00169
   100. RY*(  19) I   3                  0.00153
   101. RY*(  20) I   3                  0.00150
   102. RY*(  21) I   3                  0.00129
   103. RY*(  22) I   3                  0.00076
   104. RY*(  23) I   3                  0.00076
   105. RY*(  24) I   3                  0.00074
   106. RY*(  25) I   3                  0.00055
   107. RY*(  26) I   3                  0.00043
   108. RY*(  27) I   3                  0.00044
   109. RY*(  28) I   3                  0.00044
   110. RY*(  29) I   3                  0.00044
   111. RY*(  30) I   3                  0.00043
   112. RY*(  31) I   3                  0.00042
   113. RY*(  32) I   3                  0.00038
   114. RY*(  33) I   3                  0.00016
   115. RY*(  34) I   3                  0.00017
   116. RY*(  35) I   3                  0.00016
   117. RY*(  36) I   3                  0.00014
   118. RY*(  37) I   3                  0.00012
   119. RY*(  38) I   3                  0.00008
   120. RY*(  39) I   3                  0.00008
   121. RY*(  40) I   3                  0.00007
   122. RY*(  41) I   3                  0.00007
   123. RY*(  42) I   3                  0.00000
       -------------------------------
              Total Lewis   53.81353  ( 99.6778%)
        Valence non-Lewis    0.00000  (  0.0000%)
        Rydberg non-Lewis    0.17392  (  0.3222%)
       -------------------------------
            Total unit  2   53.98745  (100.0000%)
           Charge unit  2   -0.98745
 Leave Link  607 at Tue Oct 19 17:08:24 2021, MaxMem= 16106127360 cpu:              61.2 elap:               2.2
 (Enter /sw/contrib/gaussian/g16/B01/g16/l9999.exe)
 1\1\GINC-N2398\SP\RMP2-FC\Gen\H2I1O1(1-)\CGAVINH\19-Oct-2021\0\\#p pop
 =NBO SP NoSymm mp2/gen Pseudo=read density=current\\title\\-1,1\O\X,1,
 10.\H,1,0.9609077,2,90.\I,1,3.50850362,2,90.,3,101.85830594,0\H,1,0.97
 191,2,50.,3,101.85830594,0\\Version=ES64L-G16RevB.01\HF=-370.8093045\M
 P2=-371.3039565\RMSD=2.779e-09\Dipole=0.7783421,1.0654292,0.241824\Qua
 drupole=13.2060898,-26.8976713,13.6915815,-7.9423093,-0.1151488,-0.099
 1631\PG=C01 [X(H2I1O1)]\\@


 TOWERING GENIUS DISDAINS A BEATEN PATH.  IT SEEKS 
 REGIONS HITHERTO UNEXPLORED.

                                -- ABRAHAM LINCOLN
 Job cpu time:       0 days  0 hours  4 minutes 53.5 seconds.
 Elapsed time:       0 days  0 hours  0 minutes 17.1 seconds.
 File lengths (MBytes):  RWF=     16 Int=      0 D2E=      0 Chk=      8 Scr=      1
 Normal termination of Gaussian 16 at Tue Oct 19 17:08:25 2021.
