 Entering Gaussian System, Link 0=g16
 Input=ihod_oop_20_sp.gjf
 Output=ihod_oop_20_sp.log
 Initial command:
 /sw/contrib/gaussian/g16/B01/g16/l1.exe "/scr/Gau-236799.inp" -scrdir="/scr/"
 Entering Link 1 = /sw/contrib/gaussian/g16/B01/g16/l1.exe PID=    236800.
  
 Copyright (c) 1988-2017, Gaussian, Inc.  All Rights Reserved.
  
 This is part of the Gaussian(R) 16 program.  It is based on
 the Gaussian(R) 09 system (copyright 2009, Gaussian, Inc.),
 the Gaussian(R) 03 system (copyright 2003, Gaussian, Inc.),
 the Gaussian(R) 98 system (copyright 1998, Gaussian, Inc.),
 the Gaussian(R) 94 system (copyright 1995, Gaussian, Inc.),
 the Gaussian 92(TM) system (copyright 1992, Gaussian, Inc.),
 the Gaussian 90(TM) system (copyright 1990, Gaussian, Inc.),
 the Gaussian 88(TM) system (copyright 1988, Gaussian, Inc.),
 the Gaussian 86(TM) system (copyright 1986, Carnegie Mellon
 University), and the Gaussian 82(TM) system (copyright 1983,
 Carnegie Mellon University). Gaussian is a federally registered
 trademark of Gaussian, Inc.
  
 This software contains proprietary and confidential information,
 including trade secrets, belonging to Gaussian, Inc.
  
 This software is provided under written license and may be
 used, copied, transmitted, or stored only in accord with that
 written license.
  
 The following legend is applicable only to US Government
 contracts under FAR:
  
                    RESTRICTED RIGHTS LEGEND
  
 Use, reproduction and disclosure by the US Government is
 subject to restrictions as set forth in subparagraphs (a)
 and (c) of the Commercial Computer Software - Restricted
 Rights clause in FAR 52.227-19.
  
 Gaussian, Inc.
 340 Quinnipiac St., Bldg. 40, Wallingford CT 06492
  
  
 ---------------------------------------------------------------
 Warning -- This program may not be used in any manner that
 competes with the business of Gaussian, Inc. or will provide
 assistance to any competitor of Gaussian, Inc.  The licensee
 of this program is prohibited from giving any competitor of
 Gaussian, Inc. access to this program.  By using this program,
 the user acknowledges that Gaussian, Inc. is engaged in the
 business of creating and licensing software in the field of
 computational chemistry and represents and warrants to the
 licensee that it is not a competitor of Gaussian, Inc. and that
 it will not use this program in any manner prohibited above.
 ---------------------------------------------------------------
  

 Cite this work as:
 Gaussian 16, Revision B.01,
 M. J. Frisch, G. W. Trucks, H. B. Schlegel, G. E. Scuseria, 
 M. A. Robb, J. R. Cheeseman, G. Scalmani, V. Barone, 
 G. A. Petersson, H. Nakatsuji, X. Li, M. Caricato, A. V. Marenich, 
 J. Bloino, B. G. Janesko, R. Gomperts, B. Mennucci, H. P. Hratchian, 
 J. V. Ortiz, A. F. Izmaylov, J. L. Sonnenberg, D. Williams-Young, 
 F. Ding, F. Lipparini, F. Egidi, J. Goings, B. Peng, A. Petrone, 
 T. Henderson, D. Ranasinghe, V. G. Zakrzewski, J. Gao, N. Rega, 
 G. Zheng, W. Liang, M. Hada, M. Ehara, K. Toyota, R. Fukuda, 
 J. Hasegawa, M. Ishida, T. Nakajima, Y. Honda, O. Kitao, H. Nakai, 
 T. Vreven, K. Throssell, J. A. Montgomery, Jr., J. E. Peralta, 
 F. Ogliaro, M. J. Bearpark, J. J. Heyd, E. N. Brothers, K. N. Kudin, 
 V. N. Staroverov, T. A. Keith, R. Kobayashi, J. Normand, 
 K. Raghavachari, A. P. Rendell, J. C. Burant, S. S. Iyengar, 
 J. Tomasi, M. Cossi, J. M. Millam, M. Klene, C. Adamo, R. Cammi, 
 J. W. Ochterski, R. L. Martin, K. Morokuma, O. Farkas, 
 J. B. Foresman, and D. J. Fox, Gaussian, Inc., Wallingford CT, 2016.
 
 ******************************************
 Gaussian 16:  ES64L-G16RevB.01 20-Dec-2017
                19-Oct-2021 
 ******************************************
 %nproc=28
 Will use up to   28 processors via shared memory.
 %mem=120GB
 %chk=/gscratch/ilahie/mccoygrp/coire_hocl/oop_s_rOH_opt/ihod/ihod_oop_20.chk
 --------------------------------------------------------
 #p pop=NBO SP NoSymm mp2/gen Pseudo=read density=current
 --------------------------------------------------------
 1/30=1,38=1,172=1/1;
 2/12=2,15=1,17=6,18=5,40=1/2;
 3/5=7,11=9,16=1,17=8,25=1,30=1,71=1/1,2,3;
 4//1;
 5/5=2,38=5/2;
 8/6=4,10=1/1;
 9/15=1,16=-3/6;
 10/5=1,13=10,31=1/2;
 6/7=2,8=2,9=2,10=2,22=-1,40=1/1,7;
 99/5=1,9=1/99;
 Leave Link    1 at Tue Oct 19 17:06:54 2021, MaxMem= 16106127360 cpu:               1.5 elap:               0.1
 (Enter /sw/contrib/gaussian/g16/B01/g16/l101.exe)
 -----
 title
 -----
 Symbolic Z-matrix:
 Charge = -1 Multiplicity = 1
 O
 X                    1     10. 
 H(iso=2)             1    r1       2     90. 
 I                    1    r2       2     90.      3    a1       0
 H                    1    r3       2    oop      3    a1       0
       Variables:
  r1                    0.96091                  
  r2                    3.5085                   
  r3                    0.97863                  
  a1                  101.85831                  
  OOP                  70.                       
 
 ITRead=  0  0  0  0
 MicOpt= -1 -1 -1 -1
 NAtoms=      4 NQM=        4 NQMF=       0 NMMI=      0 NMMIF=      0
                NMic=       0 NMicF=      0.
                    Isotopes and Nuclear Properties:
 (Nuclear quadrupole moments (NQMom) in fm**2, nuclear magnetic moments (NMagM)
  in nuclear magnetons)

  Atom         1           2           3           4
 IAtWgt=          16           2         127           1
 AtmWgt=  15.9949146   2.0141018 126.9004000   1.0078250
 NucSpn=           0           2           5           1
 AtZEff=  -0.0000000  -0.0000000  -0.0000000  -0.0000000
 NQMom=    0.0000000   0.2860000 -71.0000000   0.0000000
 NMagM=    0.0000000   0.8574380   2.8132800   2.7928460
 AtZNuc=   8.0000000   1.0000000  53.0000000   1.0000000
 Leave Link  101 at Tue Oct 19 17:06:54 2021, MaxMem= 16106127360 cpu:               2.5 elap:               0.1
 (Enter /sw/contrib/gaussian/g16/B01/g16/l202.exe)
                          Input orientation:                          
 ---------------------------------------------------------------------
 Center     Atomic      Atomic             Coordinates (Angstroms)
 Number     Number       Type             X           Y           Z
 ---------------------------------------------------------------------
      1          8           0        0.000000    0.000000    0.000000
      2          1           0        0.960908    0.000000    0.000000
      3         53           0       -0.720970   -3.433628    0.000000
      4          1           0       -0.188973   -0.899986    0.334711
 ---------------------------------------------------------------------
                    Distance matrix (angstroms):
                    1          2          3          4
     1  O    0.000000
     2  H    0.960908   0.000000
     3  I    3.508504   3.823416   0.000000
     4  H    0.978630   1.498076   2.610440   0.000000
 Symmetry turned off by external request.
 Stoichiometry    H2IO(1-)
 Framework group  C1[X(H2IO)]
 Deg. of freedom     6
 Full point group                 C1      NOp   1
 Rotational constants (GHZ):         301.5134551           2.5070474           2.4890448
 Leave Link  202 at Tue Oct 19 17:06:54 2021, MaxMem= 16106127360 cpu:               1.5 elap:               0.1
 (Enter /sw/contrib/gaussian/g16/B01/g16/l301.exe)
 General basis read from cards:  (5D, 7F)
 Centers:       2      4      1      2      4
 aug-cc-pVTZ
 ****
 Centers:       3
 S 11 1.00
     Exponent=  5.5465000000D+03 Coefficients=  1.5600000000D-04
     Exponent=  8.3821400000D+02 Coefficients=  9.8600000000D-04
     Exponent=  1.8218700000D+02 Coefficients=  2.7920000000D-03
     Exponent=  3.1212300000D+01 Coefficients= -4.3251000000D-02
     Exponent=  1.9531400000D+01 Coefficients=  2.3413400000D-01
     Exponent=  8.2409900000D+00 Coefficients= -7.5094300000D-01
     Exponent=  2.1945500000D+00 Coefficients=  8.8296800000D-01
     Exponent=  1.1091100000D+00 Coefficients=  4.6206100000D-01
     Exponent=  3.7464100000D-01 Coefficients=  2.2286000000D-02
     Exponent=  1.7708000000D-01 Coefficients= -4.3530000000D-03
     Exponent=  8.1061000000D-02 Coefficients=  1.1020000000D-03
 S 11 1.00
     Exponent=  5.5465000000D+03 Coefficients= -7.3000000000D-05
     Exponent=  8.3821400000D+02 Coefficients= -5.0800000000D-04
     Exponent=  1.8218700000D+02 Coefficients= -1.1580000000D-03
     Exponent=  3.1212300000D+01 Coefficients=  1.2193000000D-02
     Exponent=  1.9531400000D+01 Coefficients= -8.7854000000D-02
     Exponent=  8.2409900000D+00 Coefficients=  3.3820000000D-01
     Exponent=  2.1945500000D+00 Coefficients= -5.7655000000D-01
     Exponent=  1.1091100000D+00 Coefficients= -4.0929800000D-01
     Exponent=  3.7464100000D-01 Coefficients=  5.6745900000D-01
     Exponent=  1.7708000000D-01 Coefficients=  6.1248900000D-01
     Exponent=  8.1061000000D-02 Coefficients=  1.4323100000D-01
 S 1 1.00
     Exponent=  3.7464100000D-01 Coefficients=  1.0000000000D+00
 S 1 1.00
     Exponent=  1.7708000000D-01 Coefficients=  1.0000000000D+00
 S 1 1.00
     Exponent=  1.0010000000D-01 Coefficients=  1.0000000000D+00
 S 1 1.00
     Exponent=  4.1200000000D-02 Coefficients=  1.0000000000D+00
 P 9 1.00
     Exponent=  1.8898800000D+02 Coefficients=  5.8500000000D-04
     Exponent=  2.1286800000D+01 Coefficients=  3.6923000000D-02
     Exponent=  1.0039600000D+01 Coefficients= -2.3532400000D-01
     Exponent=  3.4518000000D+00 Coefficients=  3.4148300000D-01
     Exponent=  1.9745600000D+00 Coefficients=  5.3478800000D-01
     Exponent=  1.0242000000D+00 Coefficients=  2.6514100000D-01
     Exponent=  4.4943700000D-01 Coefficients=  2.5787000000D-02
     Exponent=  1.8664800000D-01 Coefficients=  5.2200000000D-04
     Exponent=  7.3481000000D-02 Coefficients=  6.0600000000D-04
 P 9 1.00
     Exponent=  1.8898800000D+02 Coefficients= -2.5600000000D-04
     Exponent=  2.1286800000D+01 Coefficients= -1.1682000000D-02
     Exponent=  1.0039600000D+01 Coefficients=  8.3192000000D-02
     Exponent=  3.4518000000D+00 Coefficients= -1.5697000000D-01
     Exponent=  1.9745600000D+00 Coefficients= -2.2451800000D-01
     Exponent=  1.0242000000D+00 Coefficients= -1.1445100000D-01
     Exponent=  4.4943700000D-01 Coefficients=  3.7535600000D-01
     Exponent=  1.8664800000D-01 Coefficients=  5.7513600000D-01
     Exponent=  7.3481000000D-02 Coefficients=  2.4591700000D-01
 P 1 1.00
     Exponent=  5.9810000000D-01 Coefficients=  1.0000000000D+00
 P 1 1.00
     Exponent=  9.6180000000D-02 Coefficients=  1.0000000000D+00
 P 1 1.00
     Exponent=  3.5900000000D-02 Coefficients=  1.0000000000D+00
 D 9 1.00
     Exponent=  1.3266200000D+02 Coefficients=  5.7200000000D-04
     Exponent=  3.7605400000D+01 Coefficients=  4.4020000000D-03
     Exponent=  1.0389100000D+01 Coefficients= -4.0922000000D-02
     Exponent=  6.4901700000D+00 Coefficients=  9.9661000000D-02
     Exponent=  3.4545100000D+00 Coefficients=  3.2266300000D-01
     Exponent=  1.8441300000D+00 Coefficients=  4.0034300000D-01
     Exponent=  9.6247800000D-01 Coefficients=  2.6830600000D-01
     Exponent=  4.7285300000D-01 Coefficients=  8.4847000000D-02
     Exponent=  1.9320000000D-01 Coefficients=  7.6320000000D-03
 D 1 1.00
     Exponent=  4.7285300000D-01 Coefficients=  1.0000000000D+00
 D 1 1.00
     Exponent=  1.9320000000D-01 Coefficients=  1.0000000000D+00
 D 1 1.00
     Exponent=  7.8200000000D-02 Coefficients=  1.0000000000D+00
 F 1 1.00
     Exponent=  4.0640000000D-01 Coefficients=  1.0000000000D+00
 F 1 1.00
     Exponent=  1.8480000000D-01 Coefficients=  1.0000000000D+00
 ****
 ======================================================================================================
                                       Pseudopotential Parameters
 ======================================================================================================
  Center     Atomic      Valence      Angular      Power
  Number     Number     Electrons     Momentum     of R      Exponent        Coefficient   SO-Coeffient
 ======================================================================================================
    1          8
                                   No pseudopotential on this center.
    2          1
                                   No pseudopotential on this center.
    3         53           25
                                      G and up 
                                                     2        1.0000000        0.00000000    0.00000000
                                      S - G
                                                     2       40.0333760       49.98964900    0.00000000
                                                     2       17.3005760      281.00655600    0.00000000
                                                     2        8.8517200       61.41673900    0.00000000
                                      P - G
                                                     2       15.7201410       67.41623900    0.00000000
                                                     2       15.2082220      134.80769600    0.00000000
                                                     2        8.2941860       14.56654800    0.00000000
                                                     2        7.7539490       28.96842200    0.00000000
                                      D - G
                                                     2       13.8177510       35.53875600    0.00000000
                                                     2       13.5878050       53.33975900    0.00000000
                                                     2        6.9476300        9.71646600    0.00000000
                                                     2        6.9600990       14.97750000    0.00000000
                                      F - G
                                                     2       18.5229500      -20.17661800    0.00000000
                                                     2       18.2510350      -26.08807700    0.00000000
                                                     2        7.5579010       -0.22043400    0.00000000
                                                     2        7.5974040       -0.22164600    0.00000000
    4          1
                                   No pseudopotential on this center.
 ======================================================================================================
 Ernie: Thresh=  0.10000D-02 Tol=  0.10000D-05 Strict=F.
 Ernie:  16 primitive shells out of 135 were deleted.
   191 basis functions,   344 primitive gaussians,   218 cartesian basis functions
    18 alpha electrons       18 beta electrons
       nuclear repulsion energy        47.7781524795 Hartrees.
 IExCor=    0 DFT=F Ex=HF Corr=None ExCW=0 ScaHFX=  1.000000
 ScaDFX=  1.000000  1.000000  1.000000  1.000000 ScalE2=  1.000000  1.000000
 IRadAn=      5 IRanWt=     -1 IRanGd=            0 ICorTp=0 IEmpDi=  4
 NAtoms=    4 NActive=    4 NUniq=    4 SFac= 1.00D+00 NAtFMM=   60 NAOKFM=F Big=F
 Integral buffers will be    131072 words long.
 Raffenetti 1 integral format.
 Two-electron integral symmetry is turned off.
 Leave Link  301 at Tue Oct 19 17:06:54 2021, MaxMem= 16106127360 cpu:               2.7 elap:               0.1
 (Enter /sw/contrib/gaussian/g16/B01/g16/l302.exe)
 NPDir=0 NMtPBC=     1 NCelOv=     1 NCel=       1 NClECP=     1 NCelD=      1
         NCelK=      1 NCelE2=     1 NClLst=     1 CellRange=     0.0.
 One-electron integrals computed using PRISM.
   1 Symmetry operations used in ECPInt.
 ECPInt:  NShTT=    2145 NPrTT=    7341 LenC2=    2146 LenP2D=    6689.
 LDataN:  DoStor=T MaxTD1= 7 Len=  274
 NBasis=   191 RedAO= T EigKep=  4.05D-04  NBF=   191
 NBsUse=   147 1.00D-06 EigRej=  8.94D-16 NBFU=   147
 Leave Link  302 at Tue Oct 19 17:06:55 2021, MaxMem= 16106127360 cpu:               8.8 elap:               0.4
 (Enter /sw/contrib/gaussian/g16/B01/g16/l303.exe)
 DipDrv:  MaxL=1.
 Leave Link  303 at Tue Oct 19 17:06:55 2021, MaxMem= 16106127360 cpu:               1.2 elap:               0.1
 (Enter /sw/contrib/gaussian/g16/B01/g16/l401.exe)
 ExpMin= 2.53D-02 ExpMax= 1.53D+04 ExpMxC= 5.22D+02 IAcc=3 IRadAn=         5 AccDes= 0.00D+00
 Harris functional with IExCor=  205 and IRadAn=       5 diagonalized for initial guess.
 HarFok:  IExCor=  205 AccDes= 0.00D+00 IRadAn=         5 IDoV= 1 UseB2=F ITyADJ=14
 ICtDFT=  3500011 ScaDFX=  1.000000  1.000000  1.000000  1.000000
 Defaulting to unpruned grid for atomic number  53.
 FoFCou: FMM=F IPFlag=           0 FMFlag=      100000 FMFlg1=           0
         NFxFlg=           0 DoJE=T BraDBF=F KetDBF=T FulRan=T
         wScrn=  0.000000 ICntrl=       500 IOpCl=  0 I1Cent=   200000004 NGrid=           0
         NMat0=    1 NMatS0=      1 NMatT0=    0 NMatD0=    1 NMtDS0=    0 NMtDT0=    0
 Symmetry not used in FoFCou.
 Harris En= -372.680409686526    
 JPrj=0 DoOrth=F DoCkMO=F.
 Leave Link  401 at Tue Oct 19 17:06:55 2021, MaxMem= 16106127360 cpu:               6.4 elap:               0.3
 (Enter /sw/contrib/gaussian/g16/B01/g16/l502.exe)
 Keep R1 ints in memory in canonical form, NReq=226101442.
 FoFCou: FMM=F IPFlag=           0 FMFlag=           0 FMFlg1=           0
         NFxFlg=           0 DoJE=F BraDBF=F KetDBF=F FulRan=T
         wScrn=  0.000000 ICntrl=       600 IOpCl=  0 I1Cent=           0 NGrid=           0
         NMat0=    1 NMatS0=  18336 NMatT0=    0 NMatD0=    1 NMtDS0=    0 NMtDT0=    0
 Symmetry not used in FoFCou.
 Two-electron integral symmetry not used.
 Closed shell SCF:
 Using DIIS extrapolation, IDIIS=  1040.
 NGot= 16106127360 LenX= 15937911228 LenY= 15937863263
 Requested convergence on RMS density matrix=1.00D-08 within 128 cycles.
 Requested convergence on MAX density matrix=1.00D-06.
 Requested convergence on             energy=1.00D-06.
 No special actions if energy rises.

 Cycle   1  Pass 1  IDiag  1:
 E= -370.654451044429    
 DIIS: error= 3.44D-02 at cycle   1 NSaved=   1.
 NSaved= 1 IEnMin= 1 EnMin= -370.654451044429     IErMin= 1 ErrMin= 3.44D-02
 ErrMax= 3.44D-02  0.00D+00 EMaxC= 1.00D-01 BMatC= 3.69D-01 BMatP= 3.69D-01
 IDIUse=3 WtCom= 6.56D-01 WtEn= 3.44D-01
 Coeff-Com:  0.100D+01
 Coeff-En:   0.100D+01
 Coeff:      0.100D+01
 Gap=     0.392 Goal=   None    Shift=    0.000
 GapD=    0.392 DampG=1.000 DampE=0.500 DampFc=0.5000 IDamp=-1.
 Damping current iteration by 5.00D-01
 RMSDP=3.33D-03 MaxDP=9.80D-02              OVMax= 1.25D-01

 Cycle   2  Pass 1  IDiag  1:
 E= -370.738029680298     Delta-E=       -0.083578635869 Rises=F Damp=T
 DIIS: error= 1.13D-02 at cycle   2 NSaved=   2.
 NSaved= 2 IEnMin= 2 EnMin= -370.738029680298     IErMin= 2 ErrMin= 1.13D-02
 ErrMax= 1.13D-02  0.00D+00 EMaxC= 1.00D-01 BMatC= 5.71D-02 BMatP= 3.69D-01
 IDIUse=3 WtCom= 8.87D-01 WtEn= 1.13D-01
 Coeff-Com: -0.452D+00 0.145D+01
 Coeff-En:   0.000D+00 0.100D+01
 Coeff:     -0.401D+00 0.140D+01
 Gap=     0.262 Goal=   None    Shift=    0.000
 RMSDP=1.58D-03 MaxDP=8.02D-02 DE=-8.36D-02 OVMax= 6.57D-02

 Cycle   3  Pass 1  IDiag  1:
 E= -370.813044112500     Delta-E=       -0.075014432202 Rises=F Damp=F
 DIIS: error= 4.37D-03 at cycle   3 NSaved=   3.
 NSaved= 3 IEnMin= 3 EnMin= -370.813044112500     IErMin= 3 ErrMin= 4.37D-03
 ErrMax= 4.37D-03  0.00D+00 EMaxC= 1.00D-01 BMatC= 2.47D-03 BMatP= 5.71D-02
 IDIUse=3 WtCom= 9.56D-01 WtEn= 4.37D-02
 Coeff-Com: -0.143D+00 0.288D+00 0.855D+00
 Coeff-En:   0.000D+00 0.000D+00 0.100D+01
 Coeff:     -0.137D+00 0.276D+00 0.861D+00
 Gap=     0.270 Goal=   None    Shift=    0.000
 RMSDP=3.71D-04 MaxDP=1.57D-02 DE=-7.50D-02 OVMax= 1.17D-02

 Cycle   4  Pass 1  IDiag  1:
 E= -370.814698638172     Delta-E=       -0.001654525672 Rises=F Damp=F
 DIIS: error= 6.47D-04 at cycle   4 NSaved=   4.
 NSaved= 4 IEnMin= 4 EnMin= -370.814698638172     IErMin= 4 ErrMin= 6.47D-04
 ErrMax= 6.47D-04  0.00D+00 EMaxC= 1.00D-01 BMatC= 5.35D-05 BMatP= 2.47D-03
 IDIUse=3 WtCom= 9.94D-01 WtEn= 6.47D-03
 Coeff-Com:  0.218D-02-0.186D-01 0.823D-01 0.934D+00
 Coeff-En:   0.000D+00 0.000D+00 0.000D+00 0.100D+01
 Coeff:      0.217D-02-0.185D-01 0.818D-01 0.935D+00
 Gap=     0.272 Goal=   None    Shift=    0.000
 RMSDP=9.80D-05 MaxDP=6.17D-03 DE=-1.65D-03 OVMax= 3.09D-03

 Cycle   5  Pass 1  IDiag  1:
 E= -370.814758680012     Delta-E=       -0.000060041840 Rises=F Damp=F
 DIIS: error= 1.39D-04 at cycle   5 NSaved=   5.
 NSaved= 5 IEnMin= 5 EnMin= -370.814758680012     IErMin= 5 ErrMin= 1.39D-04
 ErrMax= 1.39D-04  0.00D+00 EMaxC= 1.00D-01 BMatC= 4.20D-06 BMatP= 5.35D-05
 IDIUse=3 WtCom= 9.99D-01 WtEn= 1.39D-03
 Coeff-Com:  0.103D-01-0.182D-01-0.618D-01 0.534D-02 0.106D+01
 Coeff-En:   0.000D+00 0.000D+00 0.000D+00 0.000D+00 0.100D+01
 Coeff:      0.102D-01-0.182D-01-0.618D-01 0.534D-02 0.106D+01
 Gap=     0.271 Goal=   None    Shift=    0.000
 RMSDP=4.12D-05 MaxDP=1.55D-03 DE=-6.00D-05 OVMax= 1.30D-03

 Cycle   6  Pass 1  IDiag  1:
 E= -370.814767524007     Delta-E=       -0.000008843995 Rises=F Damp=F
 DIIS: error= 4.98D-05 at cycle   6 NSaved=   6.
 NSaved= 6 IEnMin= 6 EnMin= -370.814767524007     IErMin= 6 ErrMin= 4.98D-05
 ErrMax= 4.98D-05  0.00D+00 EMaxC= 1.00D-01 BMatC= 3.33D-07 BMatP= 4.20D-06
 IDIUse=1 WtCom= 1.00D+00 WtEn= 0.00D+00
 Coeff-Com: -0.371D-02 0.757D-02 0.123D-01-0.908D-01-0.217D+00 0.129D+01
 Coeff:     -0.371D-02 0.757D-02 0.123D-01-0.908D-01-0.217D+00 0.129D+01
 Gap=     0.272 Goal=   None    Shift=    0.000
 RMSDP=1.13D-05 MaxDP=7.45D-04 DE=-8.84D-06 OVMax= 6.67D-04

 Cycle   7  Pass 1  IDiag  1:
 E= -370.814768567254     Delta-E=       -0.000001043248 Rises=F Damp=F
 DIIS: error= 1.05D-05 at cycle   7 NSaved=   7.
 NSaved= 7 IEnMin= 7 EnMin= -370.814768567254     IErMin= 7 ErrMin= 1.05D-05
 ErrMax= 1.05D-05  0.00D+00 EMaxC= 1.00D-01 BMatC= 1.15D-08 BMatP= 3.33D-07
 IDIUse=1 WtCom= 1.00D+00 WtEn= 0.00D+00
 Coeff-Com:  0.442D-03-0.101D-02-0.144D-03 0.237D-01-0.106D-01-0.298D+00
 Coeff-Com:  0.129D+01
 Coeff:      0.442D-03-0.101D-02-0.144D-03 0.237D-01-0.106D-01-0.298D+00
 Coeff:      0.129D+01
 Gap=     0.271 Goal=   None    Shift=    0.000
 RMSDP=2.45D-06 MaxDP=1.17D-04 DE=-1.04D-06 OVMax= 1.32D-04

 Cycle   8  Pass 1  IDiag  1:
 E= -370.814768608713     Delta-E=       -0.000000041459 Rises=F Damp=F
 DIIS: error= 1.71D-06 at cycle   8 NSaved=   8.
 NSaved= 8 IEnMin= 8 EnMin= -370.814768608713     IErMin= 8 ErrMin= 1.71D-06
 ErrMax= 1.71D-06  0.00D+00 EMaxC= 1.00D-01 BMatC= 3.94D-10 BMatP= 1.15D-08
 IDIUse=1 WtCom= 1.00D+00 WtEn= 0.00D+00
 Coeff-Com:  0.116D-03-0.230D-03-0.428D-03 0.233D-02 0.901D-02-0.337D-01
 Coeff-Com: -0.664D-01 0.109D+01
 Coeff:      0.116D-03-0.230D-03-0.428D-03 0.233D-02 0.901D-02-0.337D-01
 Coeff:     -0.664D-01 0.109D+01
 Gap=     0.271 Goal=   None    Shift=    0.000
 RMSDP=4.34D-07 MaxDP=2.16D-05 DE=-4.15D-08 OVMax= 1.58D-05

 Cycle   9  Pass 1  IDiag  1:
 E= -370.814768609816     Delta-E=       -0.000000001102 Rises=F Damp=F
 DIIS: error= 4.07D-07 at cycle   9 NSaved=   9.
 NSaved= 9 IEnMin= 9 EnMin= -370.814768609816     IErMin= 9 ErrMin= 4.07D-07
 ErrMax= 4.07D-07  0.00D+00 EMaxC= 1.00D-01 BMatC= 3.65D-11 BMatP= 3.94D-10
 IDIUse=1 WtCom= 1.00D+00 WtEn= 0.00D+00
 Coeff-Com: -0.407D-04 0.920D-04 0.189D-04-0.200D-02 0.726D-03 0.243D-01
 Coeff-Com: -0.915D-01-0.100D+00 0.117D+01
 Coeff:     -0.407D-04 0.920D-04 0.189D-04-0.200D-02 0.726D-03 0.243D-01
 Coeff:     -0.915D-01-0.100D+00 0.117D+01
 Gap=     0.271 Goal=   None    Shift=    0.000
 RMSDP=1.02D-07 MaxDP=3.37D-06 DE=-1.10D-09 OVMax= 5.78D-06

 Cycle  10  Pass 1  IDiag  1:
 E= -370.814768609924     Delta-E=       -0.000000000109 Rises=F Damp=F
 DIIS: error= 7.82D-08 at cycle  10 NSaved=  10.
 NSaved=10 IEnMin=10 EnMin= -370.814768609924     IErMin=10 ErrMin= 7.82D-08
 ErrMax= 7.82D-08  0.00D+00 EMaxC= 1.00D-01 BMatC= 2.46D-12 BMatP= 3.65D-11
 IDIUse=1 WtCom= 1.00D+00 WtEn= 0.00D+00
 Coeff-Com: -0.961D-05 0.187D-04 0.313D-04-0.215D-03-0.683D-03 0.317D-02
 Coeff-Com:  0.192D-02-0.753D-01 0.422D-01 0.103D+01
 Coeff:     -0.961D-05 0.187D-04 0.313D-04-0.215D-03-0.683D-03 0.317D-02
 Coeff:      0.192D-02-0.753D-01 0.422D-01 0.103D+01
 Gap=     0.271 Goal=   None    Shift=    0.000
 RMSDP=2.90D-08 MaxDP=1.45D-06 DE=-1.09D-10 OVMax= 1.12D-06

 Cycle  11  Pass 1  IDiag  1:
 E= -370.814768609931     Delta-E=       -0.000000000006 Rises=F Damp=F
 DIIS: error= 3.03D-08 at cycle  11 NSaved=  11.
 NSaved=11 IEnMin=11 EnMin= -370.814768609931     IErMin=11 ErrMin= 3.03D-08
 ErrMax= 3.03D-08  0.00D+00 EMaxC= 1.00D-01 BMatC= 1.60D-13 BMatP= 2.46D-12
 IDIUse=1 WtCom= 1.00D+00 WtEn= 0.00D+00
 Coeff-Com:  0.371D-05-0.827D-05-0.214D-05 0.170D-03-0.375D-04-0.198D-02
 Coeff-Com:  0.620D-02 0.146D-01-0.966D-01-0.104D+00 0.118D+01
 Coeff:      0.371D-05-0.827D-05-0.214D-05 0.170D-03-0.375D-04-0.198D-02
 Coeff:      0.620D-02 0.146D-01-0.966D-01-0.104D+00 0.118D+01
 Gap=     0.271 Goal=   None    Shift=    0.000
 RMSDP=1.47D-08 MaxDP=9.73D-07 DE=-6.20D-12 OVMax= 5.40D-07

 Cycle  12  Pass 1  IDiag  1:
 E= -370.814768609931     Delta-E=       -0.000000000001 Rises=F Damp=F
 DIIS: error= 7.77D-09 at cycle  12 NSaved=  12.
 NSaved=12 IEnMin=12 EnMin= -370.814768609931     IErMin=12 ErrMin= 7.77D-09
 ErrMax= 7.77D-09  0.00D+00 EMaxC= 1.00D-01 BMatC= 5.90D-15 BMatP= 1.60D-13
 IDIUse=1 WtCom= 1.00D+00 WtEn= 0.00D+00
 Coeff-Com: -0.603D-06 0.148D-05-0.438D-06-0.374D-04 0.428D-04 0.386D-03
 Coeff-Com: -0.167D-02-0.459D-03 0.231D-01-0.200D-01-0.272D+00 0.127D+01
 Coeff:     -0.603D-06 0.148D-05-0.438D-06-0.374D-04 0.428D-04 0.386D-03
 Coeff:     -0.167D-02-0.459D-03 0.231D-01-0.200D-01-0.272D+00 0.127D+01
 Gap=     0.271 Goal=   None    Shift=    0.000
 RMSDP=2.88D-09 MaxDP=1.80D-07 DE=-5.68D-13 OVMax= 8.64D-08

 SCF Done:  E(RHF) =  -370.814768610     A.U. after   12 cycles
            NFock= 12  Conv=0.29D-08     -V/T= 2.9846
 KE= 1.868435029111D+02 PE=-9.092435360688D+02 EE= 3.038071120683D+02
 Leave Link  502 at Tue Oct 19 17:07:00 2021, MaxMem= 16106127360 cpu:              32.8 elap:               4.5
 (Enter /sw/contrib/gaussian/g16/B01/g16/l801.exe)
 ExpMin= 2.53D-02 ExpMax= 1.53D+04 ExpMxC= 5.22D+02 IAcc=3 IRadAn=         5 AccDes= 0.00D+00
 HarFok:  IExCor=  205 AccDes= 0.00D+00 IRadAn=         5 IDoV=-2 UseB2=F ITyADJ=14
 ICtDFT= 12500011 ScaDFX=  1.000000  1.000000  1.000000  1.000000
 Defaulting to unpruned grid for atomic number  53.
 Largest valence mixing into a core orbital is  1.30D-04
 Largest core mixing into a valence orbital is  2.13D-05
 Range of M.O.s used for correlation:     6   147
 NBasis=   191 NAE=    18 NBE=    18 NFC=     5 NFV=     0
 NROrb=    142 NOA=    13 NOB=    13 NVA=   129 NVB=   129

 **** Warning!!: The largest alpha MO coefficient is  0.13885925D+02

 Leave Link  801 at Tue Oct 19 17:07:00 2021, MaxMem= 16106127360 cpu:               1.5 elap:               0.1
 (Enter /sw/contrib/gaussian/g16/B01/g16/l906.exe)
 Frozen-core derivative calculation, NFC=   5 NFV=   0.
 FulOut=F Deriv=T AODrv=F NAtomX=     4
   MMem=         107  MDisk=          13 MDiskD=          13
  W3Min=      576828 MinDsk=     1313419 NBas6D=         218
 NBas2D=       24339    NTT=       23871    LW2=    26219120
    MDV= 16105788011 MDiskM=      369352 NBas2p=       24339
 Fully in-core method, ICMem=   673638917.
 IMap=   1   2   3   4   5   6   7   8   9  10  11  12  13  14  15  16  17  18
 JobTyp=1 Pass  1 fully in-core, NPsUse= 28.
 Compute canonical integrals.
 FoFCou: FMM=F IPFlag=           0 FMFlag=           0 FMFlg1=           0
         NFxFlg=           0 DoJE=F BraDBF=F KetDBF=F FulRan=T
         wScrn=  0.000000 ICntrl=       600 IOpCl=  1 I1Cent=           0 NGrid=           0
         NMat0=    1 NMatS0=  24339 NMatT0=    0 NMatD0=    1 NMtDS0=    0 NMtDT0=    0
 Symmetry not used in FoFCou.
 Spin components of T(2) and E(2):
     alpha-alpha T2 =       0.2159450707D-01 E2=     -0.6725848729D-01
     alpha-beta  T2 =       0.1130977323D+00 E2=     -0.3616218576D+00
     beta-beta   T2 =       0.2159450707D-01 E2=     -0.6725848729D-01
 The integrals were generated   1 times.
 ANorm=    0.1075307745D+01
 E2 =    -0.4961388322D+00 EUMP2 =    -0.37131090744216D+03
 Leave Link  906 at Tue Oct 19 17:07:04 2021, MaxMem= 16106127360 cpu:             132.0 elap:               4.8
 (Enter /sw/contrib/gaussian/g16/B01/g16/l1002.exe)
 Minotr:  Closed shell wavefunction.
          Computing MP2/KS-MP2 derivatives.
          Using Z-Vector for PSCF gradient.
          Skipping F1 and S1 gradient terms here.
          Frozen-core window.
          Direct CPHF calculation.
          Differentiating once with respect to electric field.
                with respect to dipole field.
          Electric field/nuclear overlap derivatives assumed to be zero.
          Requested convergence is 1.0D-10 RMS, and 1.0D-09 maximum.
          NewPWx=F KeepS1=T KeepF1=T KeepIn=T MapXYZ=F SortEE=F KeepMc=T.
 Keep R1 ints in memory in canonical form, NReq=226104658.
 FoFCou: FMM=F IPFlag=           0 FMFlag=           0 FMFlg1=           0
         NFxFlg=           0 DoJE=F BraDBF=F KetDBF=F FulRan=T
         wScrn=  0.000000 ICntrl=       600 IOpCl=  0 I1Cent=           0 NGrid=           0
         NMat0=    1 NMatS0=  18336 NMatT0=    0 NMatD0=    1 NMtDS0=    0 NMtDT0=    0
 Symmetry not used in FoFCou.
 Two-electron integral symmetry not used.
          MDV=   16106127360 using IRadAn=       5.
          Solving linear equations separately, MaxMat=       0.
          There are     1 degrees of freedom in the 1st order CPHF.  IDoFFX=0 NUNeed=     1.
 LinEq1:  Iter=  0 NonCon=     1 RMS=2.65D-03 Max=3.71D-02 NDo=     1
 AX will form     1 AO Fock derivatives at one time.
 LinEq1:  Iter=  1 NonCon=     1 RMS=4.26D-04 Max=5.09D-03 NDo=     1
 LinEq1:  Iter=  2 NonCon=     1 RMS=1.92D-04 Max=2.66D-03 NDo=     1
 LinEq1:  Iter=  3 NonCon=     1 RMS=4.44D-05 Max=6.03D-04 NDo=     1
 LinEq1:  Iter=  4 NonCon=     1 RMS=1.28D-05 Max=1.26D-04 NDo=     1
 LinEq1:  Iter=  5 NonCon=     1 RMS=3.51D-06 Max=4.32D-05 NDo=     1
 LinEq1:  Iter=  6 NonCon=     1 RMS=7.64D-07 Max=9.91D-06 NDo=     1
 LinEq1:  Iter=  7 NonCon=     1 RMS=1.71D-07 Max=1.72D-06 NDo=     1
 LinEq1:  Iter=  8 NonCon=     1 RMS=4.82D-08 Max=4.73D-07 NDo=     1
 LinEq1:  Iter=  9 NonCon=     1 RMS=1.02D-08 Max=1.28D-07 NDo=     1
 LinEq1:  Iter= 10 NonCon=     1 RMS=2.02D-09 Max=2.55D-08 NDo=     1
 LinEq1:  Iter= 11 NonCon=     1 RMS=3.94D-10 Max=3.84D-09 NDo=     1
 LinEq1:  Iter= 12 NonCon=     1 RMS=9.20D-11 Max=1.06D-09 NDo=     1
 LinEq1:  Iter= 13 NonCon=     0 RMS=2.31D-11 Max=2.28D-10 NDo=     1
 Linear equations converged to 1.000D-10 1.000D-09 after    13 iterations.
 End of Minotr F.D. properties file   721 does not exist.
 End of Minotr F.D. properties file   722 does not exist.
 End of Minotr F.D. properties file   788 does not exist.
 Leave Link 1002 at Tue Oct 19 17:07:10 2021, MaxMem= 16106127360 cpu:              37.4 elap:               5.4
 (Enter /sw/contrib/gaussian/g16/B01/g16/l601.exe)
 Copying SCF densities to generalized density rwf, IOpCl= 0 IROHF=0.

 **********************************************************************

            Population analysis using the MP2 Density.

 **********************************************************************

 Alpha  occ. eigenvalues --  -20.40669  -7.46450  -5.29008  -5.28983  -5.28968
 Alpha  occ. eigenvalues --   -2.01751  -2.01741  -2.01728  -2.01698  -2.01696
 Alpha  occ. eigenvalues --   -1.18923  -0.62538  -0.54390  -0.43302  -0.35085
 Alpha  occ. eigenvalues --   -0.14450  -0.13995  -0.13917
 Alpha virt. eigenvalues --    0.13229   0.16774   0.23413   0.24503   0.25481
 Alpha virt. eigenvalues --    0.26981   0.27638   0.29221   0.32053   0.33394
 Alpha virt. eigenvalues --    0.36740   0.37132   0.37335   0.38950   0.40828
 Alpha virt. eigenvalues --    0.41678   0.45810   0.47680   0.52407   0.55335
 Alpha virt. eigenvalues --    0.56258   0.59594   0.66289   0.69090   0.76252
 Alpha virt. eigenvalues --    0.78223   0.78527   0.79579   0.79879   0.80297
 Alpha virt. eigenvalues --    0.81042   0.82946   0.84480   0.85611   0.86928
 Alpha virt. eigenvalues --    0.87942   0.88544   0.88945   0.89263   0.91094
 Alpha virt. eigenvalues --    0.92656   0.96183   0.98428   1.04609   1.05042
 Alpha virt. eigenvalues --    1.08711   1.10457   1.12993   1.14229   1.16463
 Alpha virt. eigenvalues --    1.18834   1.21423   1.25201   1.32162   1.35892
 Alpha virt. eigenvalues --    1.39711   1.48821   1.51488   1.62726   1.67281
 Alpha virt. eigenvalues --    1.71550   1.73998   1.75439   1.75666   1.77191
 Alpha virt. eigenvalues --    1.78527   1.81397   1.83555   1.84747   1.91989
 Alpha virt. eigenvalues --    1.99501   2.03235   2.05875   2.07260   2.10063
 Alpha virt. eigenvalues --    2.13018   2.15270   2.27873   2.43286   2.45992
 Alpha virt. eigenvalues --    2.51660   2.58061   2.59792   2.62200   2.66388
 Alpha virt. eigenvalues --    2.71243   2.85843   2.92033   2.95915   2.98994
 Alpha virt. eigenvalues --    3.09149   3.23258   3.24843   3.73304   3.86804
 Alpha virt. eigenvalues --    4.04943   4.22828   4.30031   4.39747   4.43169
 Alpha virt. eigenvalues --    4.47038   4.54388   4.55084   4.60722   4.73644
 Alpha virt. eigenvalues --    4.93017   5.06523   5.28648   5.35528   5.40340
 Alpha virt. eigenvalues --    5.48724   5.67345   5.79364   6.36765   6.67448
 Alpha virt. eigenvalues --    6.89587   7.10334   7.27868   7.40854   7.44219
 Alpha virt. eigenvalues --    7.46929   7.52766   7.58688   7.74735   8.02686
 Alpha virt. eigenvalues --    8.11003   8.95399  15.89466  59.21060
          Condensed to atoms (all electrons):
               1          2          3          4
     1  O    8.216080   0.207207  -0.052964   0.125276
     2  H    0.207207   0.594774   0.007538   0.014766
     3  I   -0.052964   0.007538  25.927285   0.044193
     4  H    0.125276   0.014766   0.044193   0.569829
 Mulliken charges:
               1
     1  O   -0.495599
     2  H    0.175715
     3  I   -0.926052
     4  H    0.245936
 Sum of Mulliken charges =  -1.00000
 Mulliken charges with hydrogens summed into heavy atoms:
               1
     1  O   -0.073948
     3  I   -0.926052
 Electronic spatial extent (au):  <R**2>=           1236.7224
 Charge=             -1.0000 electrons
 Dipole moment (field-independent basis, Debye):
    X=              4.2128    Y=             13.9373    Z=              0.2368  Tot=             14.5620
 Quadrupole moment (field-independent basis, Debye-Ang):
   XX=            -41.5362   YY=            -93.0133   ZZ=            -41.7115
   XY=            -10.1425   XZ=             -0.0827   YZ=             -0.0808
 Traceless Quadrupole moment (field-independent basis, Debye-Ang):
   XX=             17.2175   YY=            -34.2597   ZZ=             17.0422
   XY=            -10.1425   XZ=             -0.0827   YZ=             -0.0808
 Octapole moment (field-independent basis, Debye-Ang**2):
  XXX=             74.5951  YYY=            529.0927  ZZZ=             -1.3921  XYY=             59.8095
  XXY=            124.2551  XXZ=             -0.5710  XZZ=             23.6768  YZZ=            116.6746
  YYZ=             -2.2550  XYZ=             -0.3734
 Hexadecapole moment (field-independent basis, Debye-Ang**3):
 XXXX=           -181.6076 YYYY=          -3081.9128 ZZZZ=            -77.3451 XXXY=           -255.1605
 XXXZ=              0.4518 YYYX=           -372.7206 YYYZ=              9.7833 ZZZX=              0.4009
 ZZZY=              2.3161 XXYY=           -468.2050 XXZZ=            -43.3425 YYZZ=           -425.4778
 XXYZ=              1.0845 YYXZ=              1.6463 ZZXY=            -83.3295
 N-N= 4.777815247945D+01 E-N=-9.086748183769D+02  KE= 1.870336043834D+02
 No NMR shielding tensors so no spin-rotation constants.
 Leave Link  601 at Tue Oct 19 17:07:10 2021, MaxMem= 16106127360 cpu:               3.1 elap:               0.1
 (Enter /sw/contrib/gaussian/g16/B01/g16/l607.exe)
 ******************************Gaussian NBO Version 3.1******************************
             N A T U R A L   A T O M I C   O R B I T A L   A N D
          N A T U R A L   B O N D   O R B I T A L   A N A L Y S I S
 ******************************Gaussian NBO Version 3.1******************************
       /RESON  / : Allow strongly delocalized NBO set

 Analyzing the MP2 density

 Job title: title                                                           

 Storage needed:    110417 in NPA,    146568 in NBO (********** available)
 GSVD:  LWork=       13161 too small for GESVD, short by       32525 words or       32525 for optimal perf.


 NATURAL POPULATIONS:  Natural atomic orbital occupancies 
                                                          
   NAO  Atom  No  lang   Type(AO)    Occupancy
 --------------------------------------------
     1    O    1  S      Cor( 1S)     1.99992
     2    O    1  S      Val( 2S)     1.88845
     3    O    1  S      Ryd( 3S)     0.00637
     4    O    1  S      Ryd( 4S)     0.00036
     5    O    1  S      Ryd( 5S)     0.00016
     6    O    1  px     Val( 2p)     1.67396
     7    O    1  px     Ryd( 3p)     0.01216
     8    O    1  px     Ryd( 4p)     0.00060
     9    O    1  px     Ryd( 5p)     0.00008
    10    O    1  py     Val( 2p)     1.77637
    11    O    1  py     Ryd( 3p)     0.01394
    12    O    1  py     Ryd( 4p)     0.00061
    13    O    1  py     Ryd( 5p)     0.00026
    14    O    1  pz     Val( 2p)     1.92784
    15    O    1  pz     Ryd( 3p)     0.01960
    16    O    1  pz     Ryd( 4p)     0.00055
    17    O    1  pz     Ryd( 5p)     0.00004
    18    O    1  dxy    Ryd( 3d)     0.00885
    19    O    1  dxy    Ryd( 4d)     0.00055
    20    O    1  dxy    Ryd( 5d)     0.00013
    21    O    1  dxz    Ryd( 3d)     0.00963
    22    O    1  dxz    Ryd( 4d)     0.00090
    23    O    1  dxz    Ryd( 5d)     0.00012
    24    O    1  dyz    Ryd( 3d)     0.00827
    25    O    1  dyz    Ryd( 4d)     0.00049
    26    O    1  dyz    Ryd( 5d)     0.00016
    27    O    1  dx2y2  Ryd( 3d)     0.00967
    28    O    1  dx2y2  Ryd( 4d)     0.00071
    29    O    1  dx2y2  Ryd( 5d)     0.00025
    30    O    1  dz2    Ryd( 3d)     0.00796
    31    O    1  dz2    Ryd( 4d)     0.00066
    32    O    1  dz2    Ryd( 5d)     0.00018
    33    O    1  f(0)   Ryd( 4f)     0.00075
    34    O    1  f(0)   Ryd( 5f)     0.00013
    35    O    1  f(C1)  Ryd( 4f)     0.00052
    36    O    1  f(C1)  Ryd( 5f)     0.00009
    37    O    1  f(S1)  Ryd( 4f)     0.00067
    38    O    1  f(S1)  Ryd( 5f)     0.00011
    39    O    1  f(C2)  Ryd( 4f)     0.00059
    40    O    1  f(C2)  Ryd( 5f)     0.00013
    41    O    1  f(S2)  Ryd( 4f)     0.00050
    42    O    1  f(S2)  Ryd( 5f)     0.00009
    43    O    1  f(C3)  Ryd( 4f)     0.00040
    44    O    1  f(C3)  Ryd( 5f)     0.00012
    45    O    1  f(S3)  Ryd( 4f)     0.00050
    46    O    1  f(S3)  Ryd( 5f)     0.00013

    47    H    2  S      Val( 1S)     0.32958
    48    H    2  S      Ryd( 2S)     0.00056
    49    H    2  S      Ryd( 3S)     0.00025
    50    H    2  S      Ryd( 4S)     0.00006
    51    H    2  px     Ryd( 2p)     0.00082
    52    H    2  px     Ryd( 3p)     0.00069
    53    H    2  px     Ryd( 4p)     0.00006
    54    H    2  py     Ryd( 2p)     0.00059
    55    H    2  py     Ryd( 3p)     0.00020
    56    H    2  py     Ryd( 4p)     0.00008
    57    H    2  pz     Ryd( 2p)     0.00118
    58    H    2  pz     Ryd( 3p)     0.00017
    59    H    2  pz     Ryd( 4p)     0.00006
    60    H    2  dxy    Ryd( 3d)     0.00011
    61    H    2  dxy    Ryd( 4d)     0.00007
    62    H    2  dxz    Ryd( 3d)     0.00029
    63    H    2  dxz    Ryd( 4d)     0.00007
    64    H    2  dyz    Ryd( 3d)     0.00011
    65    H    2  dyz    Ryd( 4d)     0.00006
    66    H    2  dx2y2  Ryd( 3d)     0.00023
    67    H    2  dx2y2  Ryd( 4d)     0.00007
    68    H    2  dz2    Ryd( 3d)     0.00018
    69    H    2  dz2    Ryd( 4d)     0.00007

    70    I    3  S      Cor( 4S)     2.00003
    71    I    3  S      Val( 5S)     1.98032
    72    I    3  S      Ryd( 6S)     0.00353
    73    I    3  S      Ryd( 7S)     0.00061
    74    I    3  S      Ryd( 8S)     0.00009
    75    I    3  S      Ryd( 9S)     0.00000
    76    I    3  px     Cor( 4p)     2.00007
    77    I    3  px     Val( 5p)     1.95079
    78    I    3  px     Ryd( 6p)     0.01113
    79    I    3  px     Ryd( 7p)     0.00075
    80    I    3  px     Ryd( 8p)     0.00008
    81    I    3  py     Cor( 4p)     2.00005
    82    I    3  py     Val( 5p)     1.94047
    83    I    3  py     Ryd( 6p)     0.01032
    84    I    3  py     Ryd( 7p)     0.00067
    85    I    3  py     Ryd( 8p)     0.00015
    86    I    3  pz     Cor( 4p)     2.00007
    87    I    3  pz     Val( 5p)     1.95086
    88    I    3  pz     Ryd( 6p)     0.01110
    89    I    3  pz     Ryd( 7p)     0.00075
    90    I    3  pz     Ryd( 8p)     0.00008
    91    I    3  dxy    Cor( 4d)     1.99675
    92    I    3  dxy    Ryd( 5d)     0.02042
    93    I    3  dxy    Ryd( 6d)     0.00146
    94    I    3  dxy    Ryd( 7d)     0.00018
    95    I    3  dxz    Cor( 4d)     1.99678
    96    I    3  dxz    Ryd( 5d)     0.02021
    97    I    3  dxz    Ryd( 6d)     0.00167
    98    I    3  dxz    Ryd( 7d)     0.00017
    99    I    3  dyz    Cor( 4d)     1.99676
   100    I    3  dyz    Ryd( 5d)     0.02047
   101    I    3  dyz    Ryd( 6d)     0.00147
   102    I    3  dyz    Ryd( 7d)     0.00018
   103    I    3  dx2y2  Cor( 4d)     1.99673
   104    I    3  dx2y2  Ryd( 5d)     0.02044
   105    I    3  dx2y2  Ryd( 6d)     0.00157
   106    I    3  dx2y2  Ryd( 7d)     0.00021
   107    I    3  dz2    Cor( 4d)     1.99677
   108    I    3  dz2    Ryd( 5d)     0.02029
   109    I    3  dz2    Ryd( 6d)     0.00163
   110    I    3  dz2    Ryd( 7d)     0.00018
   111    I    3  f(0)   Ryd( 4f)     0.00274
   112    I    3  f(0)   Ryd( 5f)     0.00044
   113    I    3  f(C1)  Ryd( 4f)     0.00276
   114    I    3  f(C1)  Ryd( 5f)     0.00043
   115    I    3  f(S1)  Ryd( 4f)     0.00275
   116    I    3  f(S1)  Ryd( 5f)     0.00046
   117    I    3  f(C2)  Ryd( 4f)     0.00273
   118    I    3  f(C2)  Ryd( 5f)     0.00044
   119    I    3  f(S2)  Ryd( 4f)     0.00277
   120    I    3  f(S2)  Ryd( 5f)     0.00044
   121    I    3  f(C3)  Ryd( 4f)     0.00270
   122    I    3  f(C3)  Ryd( 5f)     0.00045
   123    I    3  f(S3)  Ryd( 4f)     0.00273
   124    I    3  f(S3)  Ryd( 5f)     0.00047

   125    H    4  S      Val( 1S)     0.28889
   126    H    4  S      Ryd( 2S)     0.00595
   127    H    4  S      Ryd( 3S)     0.00067
   128    H    4  S      Ryd( 4S)     0.00013
   129    H    4  px     Ryd( 2p)     0.00376
   130    H    4  px     Ryd( 3p)     0.00041
   131    H    4  px     Ryd( 4p)     0.00012
   132    H    4  py     Ryd( 2p)     0.00461
   133    H    4  py     Ryd( 3p)     0.00060
   134    H    4  py     Ryd( 4p)     0.00022
   135    H    4  pz     Ryd( 2p)     0.00392
   136    H    4  pz     Ryd( 3p)     0.00046
   137    H    4  pz     Ryd( 4p)     0.00011
   138    H    4  dxy    Ryd( 3d)     0.00023
   139    H    4  dxy    Ryd( 4d)     0.00009
   140    H    4  dxz    Ryd( 3d)     0.00015
   141    H    4  dxz    Ryd( 4d)     0.00007
   142    H    4  dyz    Ryd( 3d)     0.00023
   143    H    4  dyz    Ryd( 4d)     0.00008
   144    H    4  dx2y2  Ryd( 3d)     0.00024
   145    H    4  dx2y2  Ryd( 4d)     0.00009
   146    H    4  dz2    Ryd( 3d)     0.00023
   147    H    4  dz2    Ryd( 4d)     0.00008

 [ 28 electrons found in the effective core potential]

 WARNING:  5 low occupancy (<1.9990e) core orbitals found on  I    3


 Summary of Natural Population Analysis:                  
                                                          
                                       Natural Population 
                Natural  -----------------------------------------------
    Atom  No    Charge         Core      Valence    Rydberg      Total
 -----------------------------------------------------------------------
      O    1   -1.37453      1.99992     7.26662    0.10800     9.37453
      H    2    0.66449      0.00000     0.32958    0.00593     0.33551
      I    3   -0.97861     45.98401     7.82245    0.17215    53.97861
      H    4    0.68865      0.00000     0.28889    0.02246     0.31135
 =======================================================================
   * Total *   -1.00000     47.98393    15.70753    0.30853    64.00000

                                 Natural Population      
 --------------------------------------------------------
   Effective Core            28.00000
   Core                      19.98393 ( 99.9197% of  20)
   Valence                   15.70753 ( 98.1721% of  16)
   Natural Minimal Basis     63.69147 ( 99.5179% of  64)
   Natural Rydberg Basis      0.30853 (  0.4821% of  64)
 --------------------------------------------------------

    Atom  No          Natural Electron Configuration
 ----------------------------------------------------------------------------
      O    1      [core]2S( 1.89)2p( 5.38)3S( 0.01)3p( 0.05)3d( 0.04)
      H    2            1S( 0.33)
      I    3      [core]5S( 1.98)5p( 5.84)4f( 0.02)5d( 0.10)6p( 0.03)6d( 0.01)
      H    4            1S( 0.29)2S( 0.01)2p( 0.01)


 NATURAL BOND ORBITAL ANALYSIS:
 Warning:  a bond orbital has occupanc of -0.00006

                       Occupancies       Lewis Structure    Low   High
           Occ.    -------------------  -----------------   occ   occ
  Cycle   Thresh.   Lewis   Non-Lewis     CR  BD  3C  LP    (L)   (NL)   Dev
 =============================================================================
   1(1)    1.90    63.67022   0.32978     10   2   0   6     0      0    0.02
 -----------------------------------------------------------------------------

 Structure accepted: No low occupancy Lewis orbitals

 WARNING:  5 low occupancy (<1.9990e) core orbitals found on  I    3

 --------------------------------------------------------
   Effective Core           28.00000
   Core                     19.98393 ( 99.920% of  20)
   Valence Lewis            15.68629 ( 98.039% of  16)
  ==================       ============================
   Total Lewis              63.67022 ( 99.485% of  64)
  -----------------------------------------------------
   Valence non-Lewis         0.04725 (  0.074% of  64)
   Rydberg non-Lewis         0.28252 (  0.441% of  64)
  ==================       ============================
   Total non-Lewis           0.32978 (  0.515% of  64)
 --------------------------------------------------------


       (Occupancy)   Bond orbital/ Coefficients/ Hybrids
 ---------------------------------------------------------------------------------
     1. (1.96425) BD ( 1) O   1 - H   2  
                ( 84.02%)   0.9166* O   1 s( 15.10%)p 5.60( 84.53%)d 0.02(  0.37%)
                                                  f 0.00(  0.01%)
                                            0.0001  0.3885  0.0010  0.0018 -0.0037
                                            0.9191 -0.0178  0.0051 -0.0017  0.0003
                                           -0.0093  0.0001 -0.0027  0.0051  0.0039
                                            0.0000  0.0010 -0.0214  0.0028  0.0014
                                            0.0105 -0.0023  0.0000 -0.0028 -0.0010
                                            0.0007  0.0457 -0.0079  0.0050 -0.0299
                                            0.0032 -0.0020 -0.0001  0.0002 -0.0084
                                            0.0006 -0.0001 -0.0001 -0.0004 -0.0000
                                           -0.0044  0.0016  0.0033  0.0018  0.0013
                                           -0.0001
                ( 15.98%)   0.3998* H   2 s( 99.77%)p 0.00(  0.18%)d 0.00(  0.04%)
                                            0.9989 -0.0019  0.0002 -0.0001  0.0050
                                            0.0425 -0.0020 -0.0007 -0.0003 -0.0008
                                            0.0020  0.0012 -0.0000  0.0014 -0.0026
                                            0.0011  0.0010 -0.0027 -0.0006  0.0159
                                           -0.0034 -0.0115  0.0015
     2. (1.96461) BD ( 1) O   1 - H   4  
                ( 86.50%)   0.9300* O   1 s( 17.02%)p 4.86( 82.63%)d 0.02(  0.34%)
                                                  f 0.00(  0.01%)
                                           -0.0001 -0.4125  0.0046  0.0029  0.0016
                                            0.1743 -0.0111 -0.0009 -0.0002  0.8322
                                           -0.0159  0.0067 -0.0043 -0.3208  0.0051
                                           -0.0032  0.0030  0.0114 -0.0051  0.0003
                                           -0.0041  0.0020 -0.0002  0.0348 -0.0023
                                           -0.0002  0.0408 -0.0054  0.0017  0.0177
                                            0.0013 -0.0017  0.0073 -0.0009 -0.0013
                                            0.0007 -0.0048  0.0008  0.0041  0.0009
                                           -0.0019 -0.0005 -0.0018 -0.0017  0.0022
                                           -0.0034
                ( 13.50%)   0.3675* H   4 s( 99.79%)p 0.00(  0.20%)d 0.00(  0.01%)
                                           -0.9986  0.0245 -0.0038 -0.0001 -0.0262
                                           -0.0027 -0.0004  0.0074 -0.0296 -0.0108
                                           -0.0108  0.0107  0.0046 -0.0039  0.0040
                                            0.0011 -0.0016  0.0048 -0.0003 -0.0016
                                           -0.0004  0.0066  0.0006
     3. (1.99992) CR ( 1) O   1           s(100.00%)
                                            1.0000 -0.0003  0.0000  0.0000  0.0000
                                           -0.0000  0.0000 -0.0000  0.0000  0.0000
                                           -0.0000  0.0000 -0.0000 -0.0000  0.0000
                                           -0.0000  0.0000 -0.0000 -0.0000  0.0000
                                            0.0000  0.0000 -0.0000  0.0000  0.0000
                                           -0.0000 -0.0000 -0.0000  0.0000  0.0000
                                            0.0000 -0.0000  0.0000  0.0000  0.0000
                                            0.0000 -0.0000 -0.0000  0.0000  0.0000
                                            0.0000 -0.0000 -0.0000 -0.0000 -0.0000
                                           -0.0000
     4. (2.00003) CR ( 1) I   3           s(100.00%)
                                            1.0000 -0.0000  0.0000 -0.0000  0.0000
                                            0.0000 -0.0000  0.0000  0.0000 -0.0000
                                           -0.0000 -0.0000  0.0000 -0.0000 -0.0000
                                            0.0000 -0.0000 -0.0000  0.0000 -0.0000
                                            0.0000 -0.0000  0.0000 -0.0000 -0.0000
                                           -0.0000  0.0000 -0.0000 -0.0000 -0.0000
                                            0.0000 -0.0000  0.0000  0.0000 -0.0000
                                            0.0000  0.0000  0.0000 -0.0000  0.0000
                                            0.0000 -0.0000 -0.0000 -0.0000 -0.0000
                                           -0.0000 -0.0000 -0.0000 -0.0000  0.0000
                                            0.0000 -0.0000 -0.0000 -0.0000 -0.0000
     5. (2.00007) CR ( 2) I   3           s(  0.00%)p 1.00(100.00%)
                                           -0.0000  0.0000  0.0000 -0.0000  0.0000
                                            0.0000  1.0000 -0.0000 -0.0000 -0.0000
                                            0.0000 -0.0000  0.0000 -0.0000 -0.0000
                                            0.0000 -0.0000  0.0000  0.0000 -0.0000
                                            0.0000  0.0000 -0.0000  0.0000  0.0000
                                            0.0000 -0.0000  0.0000 -0.0000 -0.0000
                                            0.0000 -0.0000  0.0000  0.0000 -0.0000
                                            0.0000  0.0000  0.0000 -0.0000 -0.0000
                                            0.0000 -0.0000 -0.0000  0.0000  0.0000
                                           -0.0000 -0.0000 -0.0000 -0.0000 -0.0000
                                           -0.0000  0.0000  0.0000 -0.0000 -0.0000
     6. (2.00005) CR ( 3) I   3           s(  0.00%)p 1.00(100.00%)
                                           -0.0000  0.0000 -0.0000 -0.0000  0.0000
                                            0.0000 -0.0000  0.0000  0.0000 -0.0000
                                           -0.0000  1.0000  0.0001 -0.0000 -0.0000
                                            0.0000 -0.0000  0.0000  0.0000 -0.0000
                                            0.0000 -0.0000  0.0000 -0.0000 -0.0000
                                           -0.0000  0.0000 -0.0000  0.0000 -0.0000
                                            0.0000 -0.0000  0.0000  0.0000 -0.0000
                                            0.0000  0.0000  0.0000 -0.0000  0.0000
                                            0.0000 -0.0000 -0.0000 -0.0000 -0.0000
                                           -0.0000 -0.0000 -0.0000 -0.0000  0.0000
                                            0.0000 -0.0000 -0.0000 -0.0000 -0.0000
     7. (2.00007) CR ( 4) I   3           s(  0.00%)p 1.00(100.00%)
                                           -0.0000  0.0000  0.0000 -0.0000  0.0000
                                           -0.0000 -0.0000  0.0000  0.0000 -0.0000
                                           -0.0000 -0.0000  0.0000 -0.0000 -0.0000
                                            0.0000  1.0000 -0.0000  0.0000 -0.0000
                                            0.0000 -0.0000  0.0000 -0.0000 -0.0000
                                            0.0000 -0.0000  0.0000 -0.0000  0.0000
                                            0.0000 -0.0000  0.0000  0.0000 -0.0000
                                            0.0000  0.0000  0.0000 -0.0000  0.0000
                                           -0.0000  0.0000 -0.0000 -0.0000 -0.0000
                                           -0.0000 -0.0000 -0.0000 -0.0000 -0.0000
                                           -0.0000 -0.0000 -0.0000 -0.0000 -0.0000
     8. (1.99675) CR ( 5) I   3           s(  0.00%)p 0.00(  0.00%)d 1.00(100.00%)
                                           -0.0000  0.0000 -0.0000 -0.0000 -0.0000
                                            0.0000  0.0000  0.0000  0.0000  0.0000
                                           -0.0000 -0.0000  0.0000 -0.0000 -0.0000
                                            0.0000 -0.0000  0.0000  0.0000 -0.0000
                                            0.0000  1.0000  0.0000 -0.0000 -0.0000
                                           -0.0000  0.0000 -0.0000  0.0000 -0.0000
                                            0.0000 -0.0000  0.0000  0.0000 -0.0000
                                           -0.0000  0.0000  0.0000 -0.0000  0.0000
                                            0.0000 -0.0000 -0.0000 -0.0000 -0.0000
                                           -0.0000 -0.0000 -0.0000 -0.0000  0.0000
                                            0.0000 -0.0000 -0.0000 -0.0000 -0.0000
     9. (1.99678) CR ( 6) I   3           s(  0.00%)p 0.00(  0.00%)d 1.00(100.00%)
                                           -0.0000  0.0000 -0.0000  0.0000 -0.0000
                                            0.0000  0.0000  0.0000  0.0000  0.0000
                                           -0.0000 -0.0000  0.0000  0.0000 -0.0000
                                           -0.0000  0.0000  0.0000  0.0000  0.0000
                                            0.0000 -0.0000  0.0000 -0.0000 -0.0000
                                            1.0000  0.0000 -0.0000  0.0000 -0.0000
                                            0.0000 -0.0000 -0.0000  0.0000 -0.0000
                                           -0.0000  0.0000  0.0000 -0.0000  0.0000
                                            0.0000 -0.0000 -0.0000 -0.0000 -0.0000
                                           -0.0000 -0.0000 -0.0000 -0.0000  0.0000
                                            0.0000 -0.0000 -0.0000 -0.0000 -0.0000
    10. (1.99676) CR ( 7) I   3           s(  0.00%)p 0.00(  0.00%)d 1.00(100.00%)
                                           -0.0000  0.0000 -0.0000 -0.0000 -0.0000
                                            0.0000 -0.0000  0.0000  0.0000 -0.0000
                                           -0.0000 -0.0000  0.0000  0.0000 -0.0000
                                            0.0000  0.0000  0.0000  0.0000  0.0000
                                            0.0000 -0.0000  0.0000 -0.0000 -0.0000
                                           -0.0000  0.0000 -0.0000  0.0000  1.0000
                                            0.0000 -0.0000 -0.0000  0.0000 -0.0000
                                            0.0000  0.0000  0.0000 -0.0000 -0.0000
                                            0.0000 -0.0000 -0.0000 -0.0000 -0.0000
                                           -0.0000 -0.0000 -0.0000 -0.0000  0.0000
                                            0.0000 -0.0000 -0.0000 -0.0000 -0.0000
    11. (1.99673) CR ( 8) I   3           s(  0.00%)p 0.00(  0.00%)d 1.00(100.00%)
                                            0.0000 -0.0000 -0.0000  0.0000 -0.0000
                                           -0.0000  0.0000 -0.0000 -0.0000  0.0000
                                            0.0000  0.0000 -0.0000  0.0000  0.0000
                                           -0.0000  0.0000 -0.0000 -0.0000  0.0000
                                           -0.0000  0.0000 -0.0000  0.0000  0.0000
                                            0.0000 -0.0000  0.0000  0.0000  0.0000
                                           -0.0000  0.0000 -0.0000  1.0000  0.0000
                                           -0.0000 -0.0000 -0.0000  0.0000 -0.0000
                                           -0.0000  0.0000  0.0000  0.0000  0.0000
                                            0.0000  0.0000  0.0000  0.0000 -0.0000
                                           -0.0000  0.0000  0.0000  0.0000  0.0000
    12. (1.99677) CR ( 9) I   3           s(  0.00%)p 0.00(  0.00%)d 1.00(100.00%)
                                            0.0000 -0.0000 -0.0000  0.0000 -0.0000
                                           -0.0000  0.0000 -0.0000 -0.0000  0.0000
                                            0.0000  0.0000 -0.0000  0.0000  0.0000
                                           -0.0000  0.0000  0.0000 -0.0000  0.0000
                                           -0.0000  0.0000 -0.0000  0.0000  0.0000
                                            0.0000 -0.0000  0.0000  0.0000  0.0000
                                           -0.0000  0.0000 -0.0000 -0.0000  0.0000
                                           -0.0000 -0.0000  1.0000  0.0000 -0.0000
                                           -0.0000  0.0000  0.0000  0.0000  0.0000
                                            0.0000  0.0000  0.0000  0.0000 -0.0000
                                           -0.0000  0.0000  0.0000  0.0000  0.0000
    13. (1.97256) LP ( 1) O   1           s( 67.70%)p 0.48( 32.19%)d 0.00(  0.11%)
                                                  f 0.00(  0.00%)
                                            0.0002  0.8228  0.0020  0.0007  0.0021
                                           -0.3462 -0.0103  0.0063 -0.0007  0.4319
                                            0.0099 -0.0047  0.0002 -0.1236 -0.0028
                                            0.0017  0.0003  0.0268 -0.0026 -0.0024
                                           -0.0098  0.0012  0.0007  0.0068 -0.0025
                                            0.0010  0.0001  0.0067 -0.0056  0.0088
                                           -0.0060  0.0037  0.0020 -0.0012  0.0016
                                           -0.0018 -0.0018  0.0009  0.0004 -0.0006
                                            0.0020 -0.0004  0.0012  0.0019  0.0032
                                           -0.0012
    14. (1.96140) LP ( 2) O   1           s(  0.12%)p99.99( 99.57%)d 2.31(  0.28%)
                                                  f 0.22(  0.03%)
                                            0.0000  0.0348 -0.0037 -0.0020  0.0005
                                           -0.0093 -0.0011  0.0005 -0.0008 -0.3419
                                           -0.0066  0.0011 -0.0014 -0.9371 -0.0219
                                            0.0051 -0.0045 -0.0139  0.0050 -0.0016
                                           -0.0394  0.0126 -0.0036  0.0199  0.0019
                                           -0.0044 -0.0098 -0.0002  0.0016 -0.0195
                                            0.0003  0.0025  0.0099 -0.0040  0.0011
                                           -0.0002  0.0086 -0.0025 -0.0069  0.0037
                                           -0.0015  0.0002  0.0007  0.0003 -0.0022
                                            0.0016
    15. (1.98048) LP ( 1) I   3           s( 99.71%)p 0.00(  0.29%)d 0.00(  0.00%)
                                                  f 0.00(  0.00%)
                                            0.0000  0.9986 -0.0000  0.0001 -0.0001
                                           -0.0000 -0.0000 -0.0085  0.0004 -0.0001
                                            0.0001 -0.0000 -0.0525  0.0005 -0.0007
                                            0.0002 -0.0000 -0.0067  0.0004 -0.0001
                                            0.0001 -0.0000  0.0012 -0.0003 -0.0001
                                           -0.0000  0.0002 -0.0001 -0.0000 -0.0000
                                            0.0013 -0.0004 -0.0001  0.0000 -0.0020
                                            0.0004  0.0003  0.0000 -0.0015  0.0004
                                            0.0001 -0.0004 -0.0003 -0.0002 -0.0001
                                           -0.0007 -0.0005 -0.0005 -0.0004  0.0002
                                            0.0001 -0.0005 -0.0004 -0.0006 -0.0004
    16. (1.95162) LP ( 2) I   3           s(  0.00%)p 1.00( 99.99%)d 0.00(  0.00%)
                                                  f 0.00(  0.00%)
                                           -0.0000  0.0050  0.0004 -0.0015  0.0017
                                           -0.0001  0.0000  0.2641  0.0003  0.0003
                                           -0.0002  0.0000  0.1731 -0.0012 -0.0005
                                            0.0004 -0.0000 -0.9488  0.0004 -0.0008
                                            0.0000 -0.0000  0.0017 -0.0005 -0.0002
                                            0.0000 -0.0015  0.0008 -0.0007  0.0000
                                           -0.0028  0.0001  0.0016  0.0000  0.0006
                                           -0.0004  0.0011  0.0000 -0.0029  0.0015
                                           -0.0009  0.0009  0.0005 -0.0005 -0.0005
                                           -0.0017 -0.0016  0.0009  0.0003 -0.0005
                                           -0.0005 -0.0006 -0.0003  0.0000  0.0001
    17. (1.95147) LP ( 3) I   3           s(  0.00%)p 1.00( 99.99%)d 0.00(  0.00%)
                                                  f 0.00(  0.00%)
                                           -0.0000  0.0046  0.0013 -0.0026  0.0024
                                           -0.0001 -0.0000 -0.9399 -0.0012 -0.0013
                                            0.0005  0.0000  0.2666 -0.0014 -0.0005
                                            0.0009 -0.0000 -0.2129  0.0002 -0.0002
                                            0.0001  0.0000 -0.0043  0.0007  0.0009
                                            0.0000 -0.0024  0.0012 -0.0010  0.0000
                                            0.0001 -0.0003  0.0005  0.0000 -0.0037
                                            0.0015 -0.0005  0.0000  0.0003 -0.0003
                                            0.0007  0.0001  0.0000  0.0005  0.0003
                                           -0.0005 -0.0004 -0.0003 -0.0004 -0.0012
                                           -0.0010  0.0011  0.0003 -0.0017 -0.0014
    18. (1.93990) LP ( 4) I   3           s(  0.28%)p99.99( 99.68%)d 0.12(  0.04%)
                                                  f 0.01(  0.00%)
                                           -0.0000  0.0530 -0.0000 -0.0020  0.0007
                                            0.0003 -0.0000  0.2159  0.0009 -0.0002
                                           -0.0004 -0.0001  0.9465 -0.0008 -0.0019
                                            0.0003 -0.0000  0.2330  0.0018 -0.0002
                                            0.0001 -0.0000  0.0074 -0.0009 -0.0003
                                           -0.0000  0.0023 -0.0005  0.0002 -0.0000
                                            0.0093 -0.0022  0.0007  0.0000 -0.0117
                                            0.0006  0.0025  0.0000 -0.0075  0.0007
                                            0.0009 -0.0019 -0.0013 -0.0006 -0.0004
                                           -0.0022 -0.0016 -0.0022 -0.0015  0.0010
                                            0.0005 -0.0021 -0.0010 -0.0025 -0.0015
    19. (0.01991) RY*( 1) O   1           s(  0.01%)p 1.00( 97.31%)d 0.03(  2.59%)
                                                  f 0.00(  0.09%)
                                            0.0000 -0.0001  0.0072  0.0053 -0.0013
                                           -0.0001  0.0060 -0.0010  0.0015 -0.0108
                                            0.3457  0.0120 -0.0022 -0.0293  0.9228
                                            0.0290 -0.0051  0.0519 -0.0134  0.0032
                                            0.1346 -0.0338  0.0074 -0.0369 -0.0008
                                            0.0083  0.0194 -0.0017 -0.0029  0.0431
                                           -0.0045 -0.0042 -0.0151  0.0112  0.0019
                                           -0.0002 -0.0102  0.0077  0.0148 -0.0106
                                           -0.0022  0.0001  0.0016 -0.0011  0.0057
                                           -0.0046
    20. (0.01591) RY*( 2) O   1           s( 12.94%)p 6.45( 83.49%)d 0.27(  3.44%)
                                                  f 0.01(  0.12%)
                                           -0.0000 -0.0158  0.3594  0.0055  0.0009
                                            0.0097 -0.5452  0.0023 -0.0000 -0.0073
                                            0.6867  0.0184 -0.0164  0.0029 -0.2554
                                           -0.0068  0.0046  0.1604 -0.0121 -0.0095
                                           -0.0698  0.0079  0.0020  0.0239 -0.0113
                                            0.0022 -0.0026  0.0292 -0.0176  0.0221
                                           -0.0309  0.0141  0.0032 -0.0059 -0.0001
                                           -0.0067 -0.0037  0.0046 -0.0086  0.0004
                                            0.0111 -0.0044  0.0181  0.0029  0.0211
                                           -0.0083
    21. (0.00978) RY*( 3) O   1           s(  0.19%)p99.99( 92.69%)d36.26(  6.87%)
                                                  f 1.31(  0.25%)
                                           -0.0000  0.0021  0.0260  0.0348 -0.0014
                                            0.0315  0.7890 -0.0133 -0.0071  0.0200
                                            0.5115  0.0206 -0.0276 -0.0074 -0.1988
                                           -0.0095  0.0157  0.1304 -0.0094  0.0071
                                           -0.0209  0.0014 -0.0022 -0.0332 -0.0167
                                            0.0009 -0.1863 -0.1030  0.0451 -0.0017
                                            0.0416 -0.0263 -0.0042 -0.0012  0.0166
                                            0.0080  0.0037 -0.0003 -0.0148  0.0046
                                            0.0034  0.0010 -0.0121 -0.0108  0.0360
                                           -0.0173
    22. (0.00658) RY*( 4) O   1           s( 36.74%)p 0.05(  1.67%)d 1.66( 60.88%)
                                                  f 0.02(  0.72%)
                                            0.0000  0.0130  0.6058 -0.0146  0.0070
                                           -0.0063  0.1129 -0.0094 -0.0059  0.0089
                                           -0.0542  0.0011 -0.0146 -0.0067  0.0219
                                           -0.0030 -0.0030 -0.6798 -0.0333  0.0083
                                            0.1078 -0.0000  0.0003 -0.0174  0.0122
                                            0.0027 -0.0802 -0.0151  0.0108  0.3532
                                            0.0429 -0.0019 -0.0067  0.0048  0.0027
                                            0.0082 -0.0080  0.0048 -0.0103  0.0087
                                           -0.0275  0.0114 -0.0610  0.0157 -0.0419
                                            0.0122
    23. (0.00629) RY*( 5) O   1           s(  1.80%)p 0.27(  0.49%)d53.68( 96.39%)
                                                  f 0.74(  1.32%)
                                            0.0000  0.0033  0.1337 -0.0082 -0.0004
                                           -0.0053 -0.0120 -0.0063  0.0039 -0.0023
                                           -0.0486 -0.0042  0.0072 -0.0067 -0.0450
                                           -0.0000 -0.0126  0.0685  0.0135 -0.0016
                                            0.6984  0.0696 -0.0164  0.5398  0.0523
                                           -0.0076 -0.2442 -0.0182  0.0001 -0.3338
                                           -0.0255  0.0022 -0.0191  0.0075  0.0069
                                           -0.0025  0.0548 -0.0261  0.0801 -0.0320
                                           -0.0182  0.0084 -0.0085  0.0002  0.0301
                                           -0.0152
    24. (0.00590) RY*( 6) O   1           s(  0.08%)p29.53(  2.32%)d99.99( 96.70%)
                                                  f11.49(  0.90%)
                                           -0.0000  0.0008  0.0280 -0.0000  0.0007
                                            0.0019  0.0101  0.0010 -0.0045 -0.0202
                                           -0.0685 -0.0094 -0.0104 -0.0413 -0.1249
                                           -0.0214 -0.0007  0.3381  0.0447 -0.0102
                                            0.6025  0.0891 -0.0190 -0.4639 -0.0512
                                            0.0041  0.2432  0.0232  0.0025  0.4462
                                            0.0519 -0.0024 -0.0441  0.0174  0.0267
                                           -0.0097 -0.0600  0.0270  0.0188 -0.0062
                                           -0.0229  0.0081  0.0232 -0.0085  0.0068
                                           -0.0003
    25. (0.00578) RY*( 7) O   1           s(  7.25%)p 0.83(  6.01%)d11.85( 85.90%)
                                                  f 0.12(  0.85%)
                                           -0.0000  0.0099  0.2684 -0.0171 -0.0048
                                            0.0235  0.0940  0.0096 -0.0105 -0.0416
                                           -0.2014 -0.0319  0.0051  0.0183  0.0820
                                            0.0094 -0.0019  0.4698  0.0458 -0.0098
                                           -0.2622 -0.0304  0.0066  0.5443  0.0761
                                           -0.0061  0.0629 -0.0107  0.0112  0.5033
                                            0.0816 -0.0131  0.0498 -0.0189  0.0329
                                           -0.0099 -0.0224  0.0080  0.0214 -0.0089
                                            0.0440 -0.0185  0.0249 -0.0162  0.0126
                                           -0.0030
    26. (0.00318) RY*( 8) O   1           s( 37.93%)p 0.22(  8.24%)d 1.40( 53.23%)
                                                  f 0.02(  0.61%)
                                            0.0000 -0.0077  0.6155  0.0049 -0.0180
                                           -0.0227  0.1686 -0.0265 -0.0163 -0.0028
                                           -0.2118 -0.0087 -0.0289  0.0007  0.0817
                                           -0.0011  0.0028  0.2617  0.0467 -0.0038
                                           -0.1047 -0.0200  0.0015 -0.2305 -0.0583
                                            0.0011  0.3208  0.0546  0.0149 -0.5204
                                           -0.1294 -0.0027 -0.0176  0.0157 -0.0232
                                            0.0274  0.0071 -0.0066 -0.0062  0.0106
                                            0.0086 -0.0076  0.0396 -0.0460 -0.0126
                                            0.0008
    27. (0.00292) RY*( 9) O   1           s(  2.71%)p 2.97(  8.04%)d32.43( 87.80%)
                                                  f 0.54(  1.45%)
                                           -0.0000 -0.0032  0.1640  0.0134 -0.0011
                                            0.0416 -0.1266  0.0673 -0.0269  0.0271
                                           -0.2139  0.0454 -0.0430 -0.0100  0.0816
                                           -0.0148  0.0046  0.2459  0.0672 -0.0026
                                           -0.0877 -0.0228  0.0014 -0.3256 -0.0568
                                           -0.0042 -0.8206 -0.1466 -0.0116  0.0218
                                           -0.0016 -0.0002 -0.0186  0.0180  0.0246
                                           -0.0191  0.0030 -0.0065 -0.0505  0.0324
                                           -0.0022 -0.0053 -0.0397  0.0165  0.0762
                                           -0.0396
    28. (0.00067) RY*(10) O   1           s( 34.98%)p 1.40( 48.98%)d 0.34( 11.85%)
                                                  f 0.12(  4.18%)
                                            0.0000 -0.0043 -0.0234  0.5885  0.0542
                                           -0.0035 -0.0242  0.0270 -0.0874 -0.0030
                                            0.0007 -0.6175 -0.3113 -0.0010  0.0051
                                           -0.0097  0.0501 -0.0349  0.1186 -0.0553
                                            0.0110  0.0117  0.0209  0.0419 -0.0605
                                            0.1000  0.0214 -0.1697  0.0859  0.0233
                                           -0.2085  0.0586 -0.0771 -0.0287 -0.0117
                                            0.0137 -0.0813  0.0514 -0.1199 -0.0298
                                            0.0434  0.0147 -0.0090  0.0465  0.0563
                                            0.0516
    29. (0.00059) RY*(11) O   1           s(  0.65%)p88.02( 57.19%)d58.31( 37.89%)
                                                  f 6.57(  4.27%)
                                           -0.0000  0.0055  0.0189  0.0570 -0.0535
                                            0.0009 -0.0330 -0.5469  0.0664 -0.0022
                                           -0.0209 -0.1964  0.1103  0.0025  0.0404
                                           -0.4631 -0.0022  0.0152 -0.2728 -0.0257
                                           -0.0360  0.2562  0.0205  0.0037 -0.3358
                                           -0.0918 -0.0313 -0.0467  0.0239 -0.0367
                                            0.3316  0.0028  0.1609 -0.0073  0.0240
                                            0.0118  0.0304 -0.0244  0.0726  0.0144
                                            0.0373 -0.0082  0.0212 -0.0579  0.0580
                                           -0.0197
    30. (0.00057) RY*(12) O   1           s(  0.46%)p61.20( 28.15%)d99.99( 60.97%)
                                                  f22.67( 10.42%)
                                           -0.0000  0.0049  0.0010  0.0667 -0.0113
                                           -0.0016 -0.0329 -0.4579  0.0072 -0.0070
                                           -0.0410  0.1156 -0.0461 -0.0107 -0.0364
                                            0.2280 -0.0046  0.0279 -0.4544 -0.0860
                                            0.0342 -0.4537 -0.1004 -0.0282  0.2089
                                            0.0532  0.0166 -0.3094 -0.0012  0.0231
                                           -0.1762 -0.0557 -0.1627  0.0187  0.0964
                                            0.0206 -0.1576  0.0188  0.1491 -0.0265
                                           -0.0087 -0.0117  0.0637 -0.0245  0.1212
                                           -0.0053
    31. (0.00055) RY*(13) O   1           s(  0.26%)p99.99( 32.81%)d99.99( 47.73%)
                                                  f74.96( 19.21%)
                                           -0.0000  0.0033 -0.0007  0.0500 -0.0073
                                           -0.0001 -0.0159 -0.3091 -0.0073  0.0021
                                           -0.0133  0.2109 -0.0179  0.0130  0.0194
                                            0.4242  0.0824  0.0040  0.0295  0.0230
                                           -0.0133  0.5987  0.1643  0.0041  0.1340
                                            0.0533  0.0106 -0.2178 -0.0055  0.0039
                                           -0.1385 -0.0515  0.2057 -0.0139  0.0064
                                            0.0124 -0.0689  0.0144 -0.3439  0.0175
                                            0.1118 -0.0013 -0.0112 -0.0166 -0.1125
                                            0.0175
    32. (0.00050) RY*(14) O   1           s(  0.28%)p36.66( 10.34%)d99.99( 68.72%)
                                                  f73.21( 20.65%)
                                            0.0000  0.0010  0.0256  0.0404 -0.0230
                                           -0.0058 -0.0439 -0.1384 -0.0012  0.0103
                                            0.0207 -0.2245  0.0585 -0.0022 -0.0055
                                            0.1650  0.0263  0.0337  0.2239  0.1030
                                           -0.0124 -0.0839 -0.0415 -0.0859  0.4324
                                            0.0886  0.0101 -0.1297  0.0113 -0.1113
                                            0.6123  0.0996 -0.1111  0.0146  0.0719
                                            0.0340  0.0933 -0.0098  0.0772  0.0162
                                           -0.0729 -0.0178 -0.2126 -0.0750 -0.3405
                                           -0.0165
    33. (0.00047) RY*(15) O   1           s(  0.21%)p77.65( 16.20%)d58.40( 12.18%)
                                                  f99.99( 71.41%)
                                           -0.0000  0.0037 -0.0260  0.0348  0.0136
                                            0.0005 -0.0126 -0.1488 -0.0424  0.0027
                                            0.0023  0.2473 -0.0870 -0.0015  0.0034
                                           -0.2577 -0.0525 -0.0057  0.1809  0.0416
                                            0.0017 -0.0604 -0.0091  0.0550 -0.1690
                                           -0.0115  0.0170 -0.1650 -0.0074  0.0499
                                           -0.1470 -0.0154 -0.4757 -0.0632  0.2009
                                            0.0249  0.3547  0.0448 -0.1552 -0.0495
                                            0.2353  0.0309  0.1619  0.0239 -0.4531
                                            0.0126
    34. (0.00044) RY*(16) O   1           s(  0.05%)p30.86(  1.52%)d79.34(  3.92%)
                                                  f99.99( 94.51%)
                                            0.0000 -0.0010  0.0035  0.0166  0.0143
[...]
                                            0.0125 -0.0125 -0.0513  0.0359  0.0314
                                           -0.0392 -0.0482 -0.0298
   126. (0.00358) RY*( 3) H   4           s(  0.35%)p99.99( 98.48%)d 3.32(  1.17%)
                                            0.0155  0.0061  0.0549 -0.0149 -0.8688
                                            0.0211 -0.0198 -0.0420  0.0923 -0.0059
                                            0.4639  0.0593 -0.0038  0.0560 -0.0217
                                            0.0458 -0.0028  0.0161  0.0260 -0.0548
                                            0.0102  0.0431 -0.0089
   127. (0.00214) RY*( 4) H   4           s( 34.10%)p 1.92( 65.39%)d 0.01(  0.50%)
                                            0.0351  0.5260 -0.2426  0.0657 -0.2703
                                           -0.0001  0.0431  0.6174 -0.1935  0.0480
                                           -0.3964  0.0141  0.0267  0.0592  0.0014
                                            0.0090  0.0007  0.0069  0.0013 -0.0103
                                           -0.0343 -0.0076 -0.0069
   128. (0.00082) RY*( 5) H   4           s( 55.21%)p 0.73( 40.44%)d 0.08(  4.35%)
                                           -0.0046  0.1518  0.7208  0.0970  0.0367
                                            0.3059 -0.0154  0.2208  0.4124 -0.1523
                                           -0.1255  0.2265 -0.0133 -0.0218  0.0196
                                            0.0531 -0.0361  0.1138 -0.0140  0.1098
                                            0.0057  0.1140  0.0170
   129. (0.00042) RY*( 6) H   4           s(  0.48%)p99.99( 91.01%)d17.86(  8.51%)
                                           -0.0007 -0.0174  0.0658 -0.0117 -0.0079
                                            0.7970  0.0038 -0.0146 -0.3254  0.1589
                                            0.0801 -0.3675 -0.0450  0.0067  0.1746
                                           -0.0158 -0.0549 -0.1703 -0.0503 -0.0290
                                            0.0051 -0.1369  0.0131
   130. (0.00033) RY*( 7) H   4           s( 13.30%)p 3.99( 53.10%)d 2.53( 33.60%)
                                           -0.0149  0.0106  0.3410  0.1279  0.0066
                                           -0.3291  0.2354  0.0869  0.1423  0.4497
                                            0.0186 -0.3699  0.0136  0.2004  0.0795
                                           -0.0483 -0.0352 -0.0514 -0.1641 -0.3384
                                           -0.2441 -0.2744 -0.0836
   131. (0.00031) RY*( 8) H   4           s(  2.76%)p19.91( 54.93%)d15.33( 42.31%)
                                           -0.0029  0.0772  0.1355  0.0572 -0.0337
                                           -0.2235  0.0383  0.0626 -0.0037 -0.3944
                                            0.0620 -0.5645 -0.1217  0.1061 -0.1532
                                           -0.0014  0.0637 -0.2875 -0.0979  0.4922
                                            0.1376 -0.0160  0.1750
   132. (0.00026) RY*( 9) H   4           s(  1.98%)p13.19( 26.10%)d36.36( 71.93%)
                                            0.0040  0.0686  0.0285  0.1194  0.0118
                                           -0.0667 -0.2517  0.0966  0.0121 -0.1169
                                            0.0834 -0.4022  0.0335 -0.5738 -0.0188
                                           -0.2196 -0.0794  0.3260 -0.0386 -0.3694
                                            0.1235  0.2491  0.1168
   133. (0.00022) RY*(10) H   4           s(  5.14%)p 2.93( 15.07%)d15.51( 79.78%)
                                           -0.0064  0.0287 -0.0735  0.2125 -0.0657
                                           -0.0055 -0.1054 -0.0117  0.2393  0.0450
                                           -0.0622  0.1923 -0.1871 -0.4458  0.0223
                                           -0.3010 -0.0185 -0.6524  0.0161 -0.0215
                                            0.0127 -0.2482 -0.1399
   134. (0.00017) RY*(11) H   4           s( 41.13%)p 0.60( 24.77%)d 0.83( 34.10%)
                                           -0.0144 -0.0060 -0.3128  0.5597  0.0766
                                            0.1497 -0.2396 -0.0242  0.3659  0.0032
                                            0.0114 -0.0987 -0.1327  0.2991 -0.0507
                                            0.3854  0.1142 -0.0435 -0.0890 -0.2114
                                            0.1325  0.1160  0.0442
   135. (0.00014) RY*(12) H   4           s(  2.06%)p 3.39(  6.99%)d44.09( 90.94%)
                                            0.0060  0.0336  0.1073 -0.0891  0.0302
                                           -0.0875  0.1236 -0.0116 -0.0943  0.0435
                                           -0.0048 -0.0603  0.1775 -0.0446  0.2280
                                            0.2334  0.1028 -0.4788  0.1855 -0.1576
                                           -0.1259  0.6949 -0.0570
   136. (0.00013) RY*(13) H   4           s(  2.09%)p 5.21( 10.87%)d41.74( 87.04%)
                                           -0.0055  0.0010 -0.0468  0.1365  0.0244
                                            0.0956 -0.2250 -0.0192  0.0716  0.1314
                                            0.0231 -0.0348  0.1544  0.3994 -0.2211
                                           -0.6976 -0.0413 -0.0107  0.1547  0.1132
                                           -0.1962  0.3119 -0.0342
   137. (0.00011) RY*(14) H   4           s(  1.23%)p49.55( 60.97%)d30.72( 37.80%)
                                            0.0080 -0.0019  0.0826 -0.0736  0.0078
                                           -0.0501  0.0504 -0.0161 -0.2353 -0.1212
                                           -0.0077  0.2028 -0.7022  0.1861  0.0473
                                           -0.1907 -0.0361 -0.0417 -0.3786 -0.2577
                                           -0.0136  0.2281  0.1997
   138. (0.00010) RY*(15) H   4           s( 13.28%)p 3.76( 49.96%)d 2.77( 36.76%)
                                           -0.0021 -0.0204 -0.2301  0.2819 -0.0180
                                            0.0619  0.6650 -0.0500  0.1997 -0.0964
                                            0.0327 -0.0198 -0.0071 -0.0447  0.4439
                                           -0.2411 -0.1381  0.1831 -0.0119  0.1609
                                            0.1157  0.1334 -0.0232
   139. (0.00010) RY*(16) H   4           s(  7.31%)p 2.43( 17.79%)d10.25( 74.91%)
   140. (0.00007) RY*(17) H   4           s(  0.45%)p 2.67(  1.19%)d99.99( 98.37%)
   141. (0.00005) RY*(18) H   4           s( 36.47%)p 1.26( 45.83%)d 0.49( 17.70%)
   142. (0.00006) RY*(19) H   4           s(  2.35%)p 4.47( 10.48%)d37.15( 87.17%)
   143. (0.00004) RY*(20) H   4           s(  0.25%)p99.99( 29.84%)d99.99( 69.90%)
   144. (0.00004) RY*(21) H   4           s(  2.04%)p14.60( 29.84%)d33.33( 68.11%)
   145. (0.00002) RY*(22) H   4           s(  9.74%)p 3.79( 36.96%)d 5.47( 53.30%)
   146. (0.01944) BD*( 1) O   1 - H   2  
                ( 15.98%)   0.3998* O   1 s( 15.10%)p 5.60( 84.53%)d 0.02(  0.37%)
                                                  f 0.00(  0.01%)
                                           -0.0001 -0.3885 -0.0010 -0.0018  0.0037
                                           -0.9191  0.0178 -0.0051  0.0017 -0.0003
                                            0.0093 -0.0001  0.0027 -0.0051 -0.0039
                                           -0.0000 -0.0010  0.0214 -0.0028 -0.0014
                                           -0.0105  0.0023 -0.0000  0.0028  0.0010
                                           -0.0007 -0.0457  0.0079 -0.0050  0.0299
                                           -0.0032  0.0020  0.0001 -0.0002  0.0084
                                           -0.0006  0.0001  0.0001  0.0004  0.0000
                                            0.0044 -0.0016 -0.0033 -0.0018 -0.0013
                                            0.0001
                ( 84.02%)  -0.9166* H   2 s( 99.77%)p 0.00(  0.18%)d 0.00(  0.04%)
                                           -0.9989  0.0019 -0.0002  0.0001 -0.0050
                                           -0.0425  0.0020  0.0007  0.0003  0.0008
                                           -0.0020 -0.0012  0.0000 -0.0014  0.0026
                                           -0.0011 -0.0010  0.0027  0.0006 -0.0159
                                            0.0034  0.0115 -0.0015
   147. (0.02782) BD*( 1) O   1 - H   4  
                ( 13.50%)   0.3675* O   1 s( 17.02%)p 4.86( 82.63%)d 0.02(  0.34%)
                                                  f 0.00(  0.01%)
                                            0.0001  0.4125 -0.0046 -0.0029 -0.0016
                                           -0.1743  0.0111  0.0009  0.0002 -0.8322
                                            0.0159 -0.0067  0.0043  0.3208 -0.0051
                                            0.0032 -0.0030 -0.0114  0.0051 -0.0003
                                            0.0041 -0.0020  0.0002 -0.0348  0.0023
                                            0.0002 -0.0408  0.0054 -0.0017 -0.0177
                                           -0.0013  0.0017 -0.0073  0.0009  0.0013
                                           -0.0007  0.0048 -0.0008 -0.0041 -0.0009
                                            0.0019  0.0005  0.0018  0.0017 -0.0022
                                            0.0034
                ( 86.50%)  -0.9300* H   4 s( 99.79%)p 0.00(  0.20%)d 0.00(  0.01%)
                                            0.9986 -0.0245  0.0038  0.0001  0.0262
                                            0.0027  0.0004 -0.0074  0.0296  0.0108
                                            0.0108 -0.0107 -0.0046  0.0039 -0.0040
                                           -0.0011  0.0016 -0.0048  0.0003  0.0016
                                            0.0004 -0.0066 -0.0006


 NHO Directionality and "Bond Bending" (deviations from line of nuclear centers)

         [Thresholds for printing:  angular deviation  >  1.0 degree]
                                    hybrid p-character > 25.0%
                                    orbital occupancy  >  0.10e

                                Line of Centers        Hybrid 1              Hybrid 2
                                ---------------  -------------------   ------------------
                NBO               Theta   Phi    Theta   Phi    Dev    Theta   Phi    Dev
 ========================================================================================
    13. LP (   1) O   1             --     --    102.5  128.8   --       --     --    --
    14. LP (   2) O   1             --     --    160.0  268.2   --       --     --    --
    16. LP (   2) I   3             --     --    161.6   33.0   --       --     --    --
    17. LP (   3) I   3             --     --    102.3  164.3   --       --     --    --
    18. LP (   4) I   3             --     --     76.4   77.1   --       --     --    --


 Natural Bond Orbitals (Summary):

           NBO                  Occupancy  
 -----------------------------------------------
 Molecular unit  1  (H2O)
     1. BD (   1) O   1 - H   2          1.96425
     2. BD (   1) O   1 - H   4          1.96461
     3. CR (   1) O   1                  1.99992
    13. LP (   1) O   1                  1.97256
    14. LP (   2) O   1                  1.96140
    19. RY*(   1) O   1                  0.01991
    20. RY*(   2) O   1                  0.01591
    21. RY*(   3) O   1                  0.00978
    22. RY*(   4) O   1                  0.00658
    23. RY*(   5) O   1                  0.00629
    24. RY*(   6) O   1                  0.00590
    25. RY*(   7) O   1                  0.00578
    26. RY*(   8) O   1                  0.00318
    27. RY*(   9) O   1                  0.00292
    28. RY*(  10) O   1                  0.00067
    29. RY*(  11) O   1                  0.00059
    30. RY*(  12) O   1                  0.00057
    31. RY*(  13) O   1                  0.00055
    32. RY*(  14) O   1                  0.00050
    33. RY*(  15) O   1                  0.00047
    34. RY*(  16) O   1                  0.00044
    35. RY*(  17) O   1                  0.00044
    36. RY*(  18) O   1                  0.00044
    37. RY*(  19) O   1                  0.00042
    38. RY*(  20) O   1                  0.00042
    39. RY*(  21) O   1                  0.00038
    40. RY*(  22) O   1                  0.00034
    41. RY*(  23) O   1                  0.00028
    42. RY*(  24) O   1                  0.00026
    43. RY*(  25) O   1                  0.00023
    44. RY*(  26) O   1                  0.00015
    45. RY*(  27) O   1                  0.00009
    46. RY*(  28) O   1                  0.00008
    47. RY*(  29) O   1                  0.00008
    48. RY*(  30) O   1                  0.00008
    49. RY*(  31) O   1                  0.00007
    50. RY*(  32) O   1                  0.00007
    51. RY*(  33) O   1                  0.00007
    52. RY*(  34) O   1                  0.00006
    53. RY*(  35) O   1                  0.00007
    54. RY*(  36) O   1                  0.00006
    55. RY*(  37) O   1                  0.00006
    56. RY*(  38) O   1                  0.00005
    57. RY*(  39) O   1                  0.00002
    58. RY*(  40) O   1                  0.00001
    59. RY*(  41) O   1                 -0.00006
    60. RY*(   1) H   2                  0.00162
    61. RY*(   2) H   2                  0.00149
    62. RY*(   3) H   2                  0.00062
    63. RY*(   4) H   2                  0.00032
    64. RY*(   5) H   2                  0.00020
    65. RY*(   6) H   2                  0.00015
    66. RY*(   7) H   2                  0.00013
    67. RY*(   8) H   2                  0.00011
    68. RY*(   9) H   2                  0.00011
    69. RY*(  10) H   2                  0.00008
    70. RY*(  11) H   2                  0.00005
    71. RY*(  12) H   2                  0.00006
    72. RY*(  13) H   2                  0.00006
    73. RY*(  14) H   2                  0.00003
    74. RY*(  15) H   2                  0.00004
    75. RY*(  16) H   2                  0.00003
    76. RY*(  17) H   2                  0.00003
    77. RY*(  18) H   2                  0.00003
    78. RY*(  19) H   2                  0.00001
    79. RY*(  20) H   2                  0.00001
    80. RY*(  21) H   2                  0.00001
    81. RY*(  22) H   2                  0.00001
   124. RY*(   1) H   4                  0.00830
   125. RY*(   2) H   4                  0.00462
   126. RY*(   3) H   4                  0.00358
   127. RY*(   4) H   4                  0.00214
   128. RY*(   5) H   4                  0.00082
   129. RY*(   6) H   4                  0.00042
   130. RY*(   7) H   4                  0.00033
   131. RY*(   8) H   4                  0.00031
   132. RY*(   9) H   4                  0.00026
   133. RY*(  10) H   4                  0.00022
   134. RY*(  11) H   4                  0.00017
   135. RY*(  12) H   4                  0.00014
   136. RY*(  13) H   4                  0.00013
   137. RY*(  14) H   4                  0.00011
   138. RY*(  15) H   4                  0.00010
   139. RY*(  16) H   4                  0.00010
   140. RY*(  17) H   4                  0.00007
   141. RY*(  18) H   4                  0.00005
   142. RY*(  19) H   4                  0.00006
   143. RY*(  20) H   4                  0.00004
   144. RY*(  21) H   4                  0.00004
   145. RY*(  22) H   4                  0.00002
   146. BD*(   1) O   1 - H   2          0.01944
   147. BD*(   1) O   1 - H   4          0.02782
       -------------------------------
              Total Lewis    9.86273  ( 98.4167%)
        Valence non-Lewis    0.04725  (  0.4715%)
        Rydberg non-Lewis    0.11141  (  1.1117%)
       -------------------------------
            Total unit  1   10.02139  (100.0000%)
           Charge unit  1   -0.02139

 Molecular unit  2  (I)
     4. CR (   1) I   3                  2.00003
     5. CR (   2) I   3                  2.00007
     6. CR (   3) I   3                  2.00005
     7. CR (   4) I   3                  2.00007
     8. CR (   5) I   3                  1.99675
     9. CR (   6) I   3                  1.99678
    10. CR (   7) I   3                  1.99676
    11. CR (   8) I   3                  1.99673
    12. CR (   9) I   3                  1.99677
    15. LP (   1) I   3                  1.98048
    16. LP (   2) I   3                  1.95162
    17. LP (   3) I   3                  1.95147
    18. LP (   4) I   3                  1.93990
    82. RY*(   1) I   3                  0.02035
    83. RY*(   2) I   3                  0.02031
    84. RY*(   3) I   3                  0.02021
    85. RY*(   4) I   3                  0.02015
    86. RY*(   5) I   3                  0.02016
    87. RY*(   6) I   3                  0.01115
    88. RY*(   7) I   3                  0.01110
    89. RY*(   8) I   3                  0.01028
    90. RY*(   9) I   3                  0.00414
    91. RY*(  10) I   3                  0.00279
    92. RY*(  11) I   3                  0.00279
    93. RY*(  12) I   3                  0.00277
    94. RY*(  13) I   3                  0.00277
    95. RY*(  14) I   3                  0.00272
    96. RY*(  15) I   3                  0.00271
    97. RY*(  16) I   3                  0.00271
    98. RY*(  17) I   3                  0.00168
    99. RY*(  18) I   3                  0.00168
   100. RY*(  19) I   3                  0.00144
   101. RY*(  20) I   3                  0.00143
   102. RY*(  21) I   3                  0.00121
   103. RY*(  22) I   3                  0.00074
   104. RY*(  23) I   3                  0.00075
   105. RY*(  24) I   3                  0.00070
   106. RY*(  25) I   3                  0.00051
   107. RY*(  26) I   3                  0.00043
   108. RY*(  27) I   3                  0.00044
   109. RY*(  28) I   3                  0.00044
   110. RY*(  29) I   3                  0.00043
   111. RY*(  30) I   3                  0.00041
   112. RY*(  31) I   3                  0.00041
   113. RY*(  32) I   3                  0.00034
   114. RY*(  33) I   3                  0.00016
   115. RY*(  34) I   3                  0.00015
   116. RY*(  35) I   3                  0.00016
   117. RY*(  36) I   3                  0.00014
   118. RY*(  37) I   3                  0.00011
   119. RY*(  38) I   3                  0.00008
   120. RY*(  39) I   3                  0.00008
   121. RY*(  40) I   3                  0.00006
   122. RY*(  41) I   3                  0.00007
   123. RY*(  42) I   3                  0.00000
       -------------------------------
              Total Lewis   53.80750  ( 99.6830%)
        Valence non-Lewis    0.00000  (  0.0000%)
        Rydberg non-Lewis    0.17111  (  0.3170%)
       -------------------------------
            Total unit  2   53.97861  (100.0000%)
           Charge unit  2   -0.97861
 Leave Link  607 at Tue Oct 19 17:07:12 2021, MaxMem= 16106127360 cpu:              59.0 elap:               2.1
 (Enter /sw/contrib/gaussian/g16/B01/g16/l9999.exe)
 1\1\GINC-N2398\SP\RMP2-FC\Gen\H2I1O1(1-)\CGAVINH\19-Oct-2021\0\\#p pop
 =NBO SP NoSymm mp2/gen Pseudo=read density=current\\title\\-1,1\O\X,1,
 10.\H,1,0.9609077,2,90.\I,1,3.50850362,2,90.,3,101.85830594,0\H,1,0.97
 863,2,70.,3,101.85830594,0\\Version=ES64L-G16RevB.01\HF=-370.8147686\M
 P2=-371.3109074\RMSD=2.883e-09\Dipole=0.7259437,0.8000347,0.111242\Qua
 drupole=12.8007731,-25.471221,12.670448,-7.540678,-0.0614581,-0.060056
 7\PG=C01 [X(H2I1O1)]\\@


 FESTINA LENTE!
     - IMPERATOR AUGUSTUS 
 Job cpu time:       0 days  0 hours  4 minutes 51.7 seconds.
 Elapsed time:       0 days  0 hours  0 minutes 18.1 seconds.
 File lengths (MBytes):  RWF=     16 Int=      0 D2E=      0 Chk=      8 Scr=      1
 Normal termination of Gaussian 16 at Tue Oct 19 17:07:13 2021.
