 Entering Gaussian System, Link 0=g16
 Input=ihod_oop_10_sp.gjf
 Output=ihod_oop_10_sp.log
 Initial command:
 /sw/contrib/gaussian/g16/B01/g16/l1.exe "/scr/Gau-235981.inp" -scrdir="/scr/"
 Entering Link 1 = /sw/contrib/gaussian/g16/B01/g16/l1.exe PID=    235982.
  
 Copyright (c) 1988-2017, Gaussian, Inc.  All Rights Reserved.
  
 This is part of the Gaussian(R) 16 program.  It is based on
 the Gaussian(R) 09 system (copyright 2009, Gaussian, Inc.),
 the Gaussian(R) 03 system (copyright 2003, Gaussian, Inc.),
 the Gaussian(R) 98 system (copyright 1998, Gaussian, Inc.),
 the Gaussian(R) 94 system (copyright 1995, Gaussian, Inc.),
 the Gaussian 92(TM) system (copyright 1992, Gaussian, Inc.),
 the Gaussian 90(TM) system (copyright 1990, Gaussian, Inc.),
 the Gaussian 88(TM) system (copyright 1988, Gaussian, Inc.),
 the Gaussian 86(TM) system (copyright 1986, Carnegie Mellon
 University), and the Gaussian 82(TM) system (copyright 1983,
 Carnegie Mellon University). Gaussian is a federally registered
 trademark of Gaussian, Inc.
  
 This software contains proprietary and confidential information,
 including trade secrets, belonging to Gaussian, Inc.
  
 This software is provided under written license and may be
 used, copied, transmitted, or stored only in accord with that
 written license.
  
 The following legend is applicable only to US Government
 contracts under FAR:
  
                    RESTRICTED RIGHTS LEGEND
  
 Use, reproduction and disclosure by the US Government is
 subject to restrictions as set forth in subparagraphs (a)
 and (c) of the Commercial Computer Software - Restricted
 Rights clause in FAR 52.227-19.
  
 Gaussian, Inc.
 340 Quinnipiac St., Bldg. 40, Wallingford CT 06492
  
  
 ---------------------------------------------------------------
 Warning -- This program may not be used in any manner that
 competes with the business of Gaussian, Inc. or will provide
 assistance to any competitor of Gaussian, Inc.  The licensee
 of this program is prohibited from giving any competitor of
 Gaussian, Inc. access to this program.  By using this program,
 the user acknowledges that Gaussian, Inc. is engaged in the
 business of creating and licensing software in the field of
 computational chemistry and represents and warrants to the
 licensee that it is not a competitor of Gaussian, Inc. and that
 it will not use this program in any manner prohibited above.
 ---------------------------------------------------------------
  

 Cite this work as:
 Gaussian 16, Revision B.01,
 M. J. Frisch, G. W. Trucks, H. B. Schlegel, G. E. Scuseria, 
 M. A. Robb, J. R. Cheeseman, G. Scalmani, V. Barone, 
 G. A. Petersson, H. Nakatsuji, X. Li, M. Caricato, A. V. Marenich, 
 J. Bloino, B. G. Janesko, R. Gomperts, B. Mennucci, H. P. Hratchian, 
 J. V. Ortiz, A. F. Izmaylov, J. L. Sonnenberg, D. Williams-Young, 
 F. Ding, F. Lipparini, F. Egidi, J. Goings, B. Peng, A. Petrone, 
 T. Henderson, D. Ranasinghe, V. G. Zakrzewski, J. Gao, N. Rega, 
 G. Zheng, W. Liang, M. Hada, M. Ehara, K. Toyota, R. Fukuda, 
 J. Hasegawa, M. Ishida, T. Nakajima, Y. Honda, O. Kitao, H. Nakai, 
 T. Vreven, K. Throssell, J. A. Montgomery, Jr., J. E. Peralta, 
 F. Ogliaro, M. J. Bearpark, J. J. Heyd, E. N. Brothers, K. N. Kudin, 
 V. N. Staroverov, T. A. Keith, R. Kobayashi, J. Normand, 
 K. Raghavachari, A. P. Rendell, J. C. Burant, S. S. Iyengar, 
 J. Tomasi, M. Cossi, J. M. Millam, M. Klene, C. Adamo, R. Cammi, 
 J. W. Ochterski, R. L. Martin, K. Morokuma, O. Farkas, 
 J. B. Foresman, and D. J. Fox, Gaussian, Inc., Wallingford CT, 2016.
 
 ******************************************
 Gaussian 16:  ES64L-G16RevB.01 20-Dec-2017
                19-Oct-2021 
 ******************************************
 %nproc=28
 Will use up to   28 processors via shared memory.
 %mem=120GB
 %chk=/gscratch/ilahie/mccoygrp/coire_hocl/oop_s_rOH_opt/ihod/ihod_oop_10.chk
 --------------------------------------------------------
 #p pop=NBO SP NoSymm mp2/gen Pseudo=read density=current
 --------------------------------------------------------
 1/30=1,38=1,172=1/1;
 2/12=2,15=1,17=6,18=5,40=1/2;
 3/5=7,11=9,16=1,17=8,25=1,30=1,71=1/1,2,3;
 4//1;
 5/5=2,38=5/2;
 8/6=4,10=1/1;
 9/15=1,16=-3/6;
 10/5=1,13=10,31=1/2;
 6/7=2,8=2,9=2,10=2,22=-1,40=1/1,7;
 99/5=1,9=1/99;
 Leave Link    1 at Tue Oct 19 17:06:17 2021, MaxMem= 16106127360 cpu:               1.7 elap:               0.1
 (Enter /sw/contrib/gaussian/g16/B01/g16/l101.exe)
 -----
 title
 -----
 Symbolic Z-matrix:
 Charge = -1 Multiplicity = 1
 O
 X                    1     10. 
 H(iso=2)             1    r1       2     90. 
 I                    1    r2       2     90.      3    a1       0
 H                    1    r3       2    oop      3    a1       0
       Variables:
  r1                    0.96091                  
  r2                    3.5085                   
  r3                    0.98151                  
  a1                  101.85831                  
  OOP                  80.                       
 
 ITRead=  0  0  0  0
 MicOpt= -1 -1 -1 -1
 NAtoms=      4 NQM=        4 NQMF=       0 NMMI=      0 NMMIF=      0
                NMic=       0 NMicF=      0.
                    Isotopes and Nuclear Properties:
 (Nuclear quadrupole moments (NQMom) in fm**2, nuclear magnetic moments (NMagM)
  in nuclear magnetons)

  Atom         1           2           3           4
 IAtWgt=          16           2         127           1
 AtmWgt=  15.9949146   2.0141018 126.9004000   1.0078250
 NucSpn=           0           2           5           1
 AtZEff=  -0.0000000  -0.0000000  -0.0000000  -0.0000000
 NQMom=    0.0000000   0.2860000 -71.0000000   0.0000000
 NMagM=    0.0000000   0.8574380   2.8132800   2.7928460
 AtZNuc=   8.0000000   1.0000000  53.0000000   1.0000000
 Leave Link  101 at Tue Oct 19 17:06:17 2021, MaxMem= 16106127360 cpu:               2.5 elap:               0.1
 (Enter /sw/contrib/gaussian/g16/B01/g16/l202.exe)
                          Input orientation:                          
 ---------------------------------------------------------------------
 Center     Atomic      Atomic             Coordinates (Angstroms)
 Number     Number       Type             X           Y           Z
 ---------------------------------------------------------------------
      1          8           0        0.000000    0.000000    0.000000
      2          1           0        0.960908    0.000000    0.000000
      3         53           0       -0.720970   -3.433628    0.000000
      4          1           0       -0.198628   -0.945970    0.170437
 ---------------------------------------------------------------------
                    Distance matrix (angstroms):
                    1          2          3          4
     1  O    0.000000
     2  H    0.960908   0.000000
     3  I    3.508504   3.823416   0.000000
     4  H    0.981510   1.506132   2.547613   0.000000
 Symmetry turned off by external request.
 Stoichiometry    H2IO(1-)
 Framework group  C1[X(H2IO)]
 Deg. of freedom     6
 Full point group                 C1      NOp   1
 Rotational constants (GHZ):         316.8932428           2.5105655           2.4915276
 Leave Link  202 at Tue Oct 19 17:06:18 2021, MaxMem= 16106127360 cpu:               0.2 elap:               0.0
 (Enter /sw/contrib/gaussian/g16/B01/g16/l301.exe)
 General basis read from cards:  (5D, 7F)
 Centers:       2      4      1      2      4
 aug-cc-pVTZ
 ****
 Centers:       3
 S 11 1.00
     Exponent=  5.5465000000D+03 Coefficients=  1.5600000000D-04
     Exponent=  8.3821400000D+02 Coefficients=  9.8600000000D-04
     Exponent=  1.8218700000D+02 Coefficients=  2.7920000000D-03
     Exponent=  3.1212300000D+01 Coefficients= -4.3251000000D-02
     Exponent=  1.9531400000D+01 Coefficients=  2.3413400000D-01
     Exponent=  8.2409900000D+00 Coefficients= -7.5094300000D-01
     Exponent=  2.1945500000D+00 Coefficients=  8.8296800000D-01
     Exponent=  1.1091100000D+00 Coefficients=  4.6206100000D-01
     Exponent=  3.7464100000D-01 Coefficients=  2.2286000000D-02
     Exponent=  1.7708000000D-01 Coefficients= -4.3530000000D-03
     Exponent=  8.1061000000D-02 Coefficients=  1.1020000000D-03
 S 11 1.00
     Exponent=  5.5465000000D+03 Coefficients= -7.3000000000D-05
     Exponent=  8.3821400000D+02 Coefficients= -5.0800000000D-04
     Exponent=  1.8218700000D+02 Coefficients= -1.1580000000D-03
     Exponent=  3.1212300000D+01 Coefficients=  1.2193000000D-02
     Exponent=  1.9531400000D+01 Coefficients= -8.7854000000D-02
     Exponent=  8.2409900000D+00 Coefficients=  3.3820000000D-01
     Exponent=  2.1945500000D+00 Coefficients= -5.7655000000D-01
     Exponent=  1.1091100000D+00 Coefficients= -4.0929800000D-01
     Exponent=  3.7464100000D-01 Coefficients=  5.6745900000D-01
     Exponent=  1.7708000000D-01 Coefficients=  6.1248900000D-01
     Exponent=  8.1061000000D-02 Coefficients=  1.4323100000D-01
 S 1 1.00
     Exponent=  3.7464100000D-01 Coefficients=  1.0000000000D+00
 S 1 1.00
     Exponent=  1.7708000000D-01 Coefficients=  1.0000000000D+00
 S 1 1.00
     Exponent=  1.0010000000D-01 Coefficients=  1.0000000000D+00
 S 1 1.00
     Exponent=  4.1200000000D-02 Coefficients=  1.0000000000D+00
 P 9 1.00
     Exponent=  1.8898800000D+02 Coefficients=  5.8500000000D-04
     Exponent=  2.1286800000D+01 Coefficients=  3.6923000000D-02
     Exponent=  1.0039600000D+01 Coefficients= -2.3532400000D-01
     Exponent=  3.4518000000D+00 Coefficients=  3.4148300000D-01
     Exponent=  1.9745600000D+00 Coefficients=  5.3478800000D-01
     Exponent=  1.0242000000D+00 Coefficients=  2.6514100000D-01
     Exponent=  4.4943700000D-01 Coefficients=  2.5787000000D-02
     Exponent=  1.8664800000D-01 Coefficients=  5.2200000000D-04
     Exponent=  7.3481000000D-02 Coefficients=  6.0600000000D-04
 P 9 1.00
     Exponent=  1.8898800000D+02 Coefficients= -2.5600000000D-04
     Exponent=  2.1286800000D+01 Coefficients= -1.1682000000D-02
     Exponent=  1.0039600000D+01 Coefficients=  8.3192000000D-02
     Exponent=  3.4518000000D+00 Coefficients= -1.5697000000D-01
     Exponent=  1.9745600000D+00 Coefficients= -2.2451800000D-01
     Exponent=  1.0242000000D+00 Coefficients= -1.1445100000D-01
     Exponent=  4.4943700000D-01 Coefficients=  3.7535600000D-01
     Exponent=  1.8664800000D-01 Coefficients=  5.7513600000D-01
     Exponent=  7.3481000000D-02 Coefficients=  2.4591700000D-01
 P 1 1.00
     Exponent=  5.9810000000D-01 Coefficients=  1.0000000000D+00
 P 1 1.00
     Exponent=  9.6180000000D-02 Coefficients=  1.0000000000D+00
 P 1 1.00
     Exponent=  3.5900000000D-02 Coefficients=  1.0000000000D+00
 D 9 1.00
     Exponent=  1.3266200000D+02 Coefficients=  5.7200000000D-04
     Exponent=  3.7605400000D+01 Coefficients=  4.4020000000D-03
     Exponent=  1.0389100000D+01 Coefficients= -4.0922000000D-02
     Exponent=  6.4901700000D+00 Coefficients=  9.9661000000D-02
     Exponent=  3.4545100000D+00 Coefficients=  3.2266300000D-01
     Exponent=  1.8441300000D+00 Coefficients=  4.0034300000D-01
     Exponent=  9.6247800000D-01 Coefficients=  2.6830600000D-01
     Exponent=  4.7285300000D-01 Coefficients=  8.4847000000D-02
     Exponent=  1.9320000000D-01 Coefficients=  7.6320000000D-03
 D 1 1.00
     Exponent=  4.7285300000D-01 Coefficients=  1.0000000000D+00
 D 1 1.00
     Exponent=  1.9320000000D-01 Coefficients=  1.0000000000D+00
 D 1 1.00
     Exponent=  7.8200000000D-02 Coefficients=  1.0000000000D+00
 F 1 1.00
     Exponent=  4.0640000000D-01 Coefficients=  1.0000000000D+00
 F 1 1.00
     Exponent=  1.8480000000D-01 Coefficients=  1.0000000000D+00
 ****
 ======================================================================================================
                                       Pseudopotential Parameters
 ======================================================================================================
  Center     Atomic      Valence      Angular      Power
  Number     Number     Electrons     Momentum     of R      Exponent        Coefficient   SO-Coeffient
 ======================================================================================================
    1          8
                                   No pseudopotential on this center.
    2          1
                                   No pseudopotential on this center.
    3         53           25
                                      G and up 
                                                     2        1.0000000        0.00000000    0.00000000
                                      S - G
                                                     2       40.0333760       49.98964900    0.00000000
                                                     2       17.3005760      281.00655600    0.00000000
                                                     2        8.8517200       61.41673900    0.00000000
                                      P - G
                                                     2       15.7201410       67.41623900    0.00000000
                                                     2       15.2082220      134.80769600    0.00000000
                                                     2        8.2941860       14.56654800    0.00000000
                                                     2        7.7539490       28.96842200    0.00000000
                                      D - G
                                                     2       13.8177510       35.53875600    0.00000000
                                                     2       13.5878050       53.33975900    0.00000000
                                                     2        6.9476300        9.71646600    0.00000000
                                                     2        6.9600990       14.97750000    0.00000000
                                      F - G
                                                     2       18.5229500      -20.17661800    0.00000000
                                                     2       18.2510350      -26.08807700    0.00000000
                                                     2        7.5579010       -0.22043400    0.00000000
                                                     2        7.5974040       -0.22164600    0.00000000
    4          1
                                   No pseudopotential on this center.
 ======================================================================================================
 Ernie: Thresh=  0.10000D-02 Tol=  0.10000D-05 Strict=F.
 Ernie:  16 primitive shells out of 135 were deleted.
   191 basis functions,   344 primitive gaussians,   218 cartesian basis functions
    18 alpha electrons       18 beta electrons
       nuclear repulsion energy        47.8885498717 Hartrees.
 IExCor=    0 DFT=F Ex=HF Corr=None ExCW=0 ScaHFX=  1.000000
 ScaDFX=  1.000000  1.000000  1.000000  1.000000 ScalE2=  1.000000  1.000000
 IRadAn=      5 IRanWt=     -1 IRanGd=            0 ICorTp=0 IEmpDi=  4
 NAtoms=    4 NActive=    4 NUniq=    4 SFac= 1.00D+00 NAtFMM=   60 NAOKFM=F Big=F
 Integral buffers will be    131072 words long.
 Raffenetti 1 integral format.
 Two-electron integral symmetry is turned off.
 Leave Link  301 at Tue Oct 19 17:06:18 2021, MaxMem= 16106127360 cpu:               3.8 elap:               0.2
 (Enter /sw/contrib/gaussian/g16/B01/g16/l302.exe)
 NPDir=0 NMtPBC=     1 NCelOv=     1 NCel=       1 NClECP=     1 NCelD=      1
         NCelK=      1 NCelE2=     1 NClLst=     1 CellRange=     0.0.
 One-electron integrals computed using PRISM.
   1 Symmetry operations used in ECPInt.
 ECPInt:  NShTT=    2145 NPrTT=    7341 LenC2=    2146 LenP2D=    6689.
 LDataN:  DoStor=T MaxTD1= 7 Len=  274
 NBasis=   191 RedAO= T EigKep=  3.90D-04  NBF=   191
 NBsUse=   147 1.00D-06 EigRej=  8.94D-16 NBFU=   147
 Leave Link  302 at Tue Oct 19 17:06:18 2021, MaxMem= 16106127360 cpu:               7.1 elap:               0.3
 (Enter /sw/contrib/gaussian/g16/B01/g16/l303.exe)
 DipDrv:  MaxL=1.
 Leave Link  303 at Tue Oct 19 17:06:18 2021, MaxMem= 16106127360 cpu:               1.0 elap:               0.1
 (Enter /sw/contrib/gaussian/g16/B01/g16/l401.exe)
 ExpMin= 2.53D-02 ExpMax= 1.53D+04 ExpMxC= 5.22D+02 IAcc=3 IRadAn=         5 AccDes= 0.00D+00
 Harris functional with IExCor=  205 and IRadAn=       5 diagonalized for initial guess.
 HarFok:  IExCor=  205 AccDes= 0.00D+00 IRadAn=         5 IDoV= 1 UseB2=F ITyADJ=14
 ICtDFT=  3500011 ScaDFX=  1.000000  1.000000  1.000000  1.000000
 Defaulting to unpruned grid for atomic number  53.
 FoFCou: FMM=F IPFlag=           0 FMFlag=      100000 FMFlg1=           0
         NFxFlg=           0 DoJE=T BraDBF=F KetDBF=T FulRan=T
         wScrn=  0.000000 ICntrl=       500 IOpCl=  0 I1Cent=   200000004 NGrid=           0
         NMat0=    1 NMatS0=      1 NMatT0=    0 NMatD0=    1 NMtDS0=    0 NMtDT0=    0
 Symmetry not used in FoFCou.
 Harris En= -372.681711294990    
 JPrj=0 DoOrth=F DoCkMO=F.
 Leave Link  401 at Tue Oct 19 17:06:18 2021, MaxMem= 16106127360 cpu:               7.0 elap:               0.3
 (Enter /sw/contrib/gaussian/g16/B01/g16/l502.exe)
 Keep R1 ints in memory in canonical form, NReq=226101530.
 FoFCou: FMM=F IPFlag=           0 FMFlag=           0 FMFlg1=           0
         NFxFlg=           0 DoJE=F BraDBF=F KetDBF=F FulRan=T
         wScrn=  0.000000 ICntrl=       600 IOpCl=  0 I1Cent=           0 NGrid=           0
         NMat0=    1 NMatS0=  18336 NMatT0=    0 NMatD0=    1 NMtDS0=    0 NMtDT0=    0
 Symmetry not used in FoFCou.
 Two-electron integral symmetry not used.
 Closed shell SCF:
 Using DIIS extrapolation, IDIIS=  1040.
 NGot= 16106127360 LenX= 15937911228 LenY= 15937863263
 Requested convergence on RMS density matrix=1.00D-08 within 128 cycles.
 Requested convergence on MAX density matrix=1.00D-06.
 Requested convergence on             energy=1.00D-06.
 No special actions if energy rises.

 Cycle   1  Pass 1  IDiag  1:
 E= -370.655523597520    
 DIIS: error= 4.76D-02 at cycle   1 NSaved=   1.
 NSaved= 1 IEnMin= 1 EnMin= -370.655523597520     IErMin= 1 ErrMin= 4.76D-02
 ErrMax= 4.76D-02  0.00D+00 EMaxC= 1.00D-01 BMatC= 3.70D-01 BMatP= 3.70D-01
 IDIUse=3 WtCom= 5.24D-01 WtEn= 4.76D-01
 Coeff-Com:  0.100D+01
 Coeff-En:   0.100D+01
 Coeff:      0.100D+01
 Gap=     0.397 Goal=   None    Shift=    0.000
 GapD=    0.397 DampG=1.000 DampE=0.500 DampFc=0.5000 IDamp=-1.
 Damping current iteration by 5.00D-01
 RMSDP=3.45D-03 MaxDP=1.01D-01              OVMax= 1.27D-01

 Cycle   2  Pass 1  IDiag  1:
 E= -370.739328082922     Delta-E=       -0.083804485402 Rises=F Damp=T
 DIIS: error= 1.25D-02 at cycle   2 NSaved=   2.
 NSaved= 2 IEnMin= 2 EnMin= -370.739328082922     IErMin= 2 ErrMin= 1.25D-02
 ErrMax= 1.25D-02  0.00D+00 EMaxC= 1.00D-01 BMatC= 5.71D-02 BMatP= 3.70D-01
 IDIUse=3 WtCom= 8.75D-01 WtEn= 1.25D-01
 Coeff-Com: -0.449D+00 0.145D+01
 Coeff-En:   0.000D+00 0.100D+01
 Coeff:     -0.393D+00 0.139D+01
 Gap=     0.265 Goal=   None    Shift=    0.000
 RMSDP=1.59D-03 MaxDP=8.11D-02 DE=-8.38D-02 OVMax= 6.60D-02

 Cycle   3  Pass 1  IDiag  1:
 E= -370.814582548454     Delta-E=       -0.075254465531 Rises=F Damp=F
 DIIS: error= 5.78D-03 at cycle   3 NSaved=   3.
 NSaved= 3 IEnMin= 3 EnMin= -370.814582548454     IErMin= 3 ErrMin= 5.78D-03
 ErrMax= 5.78D-03  0.00D+00 EMaxC= 1.00D-01 BMatC= 2.38D-03 BMatP= 5.71D-02
 IDIUse=3 WtCom= 9.42D-01 WtEn= 5.78D-02
 Coeff-Com: -0.139D+00 0.280D+00 0.859D+00
 Coeff-En:   0.000D+00 0.000D+00 0.100D+01
 Coeff:     -0.131D+00 0.264D+00 0.867D+00
 Gap=     0.272 Goal=   None    Shift=    0.000
 RMSDP=3.80D-04 MaxDP=1.61D-02 DE=-7.53D-02 OVMax= 1.16D-02

 Cycle   4  Pass 1  IDiag  1:
 E= -370.816185707941     Delta-E=       -0.001603159487 Rises=F Damp=F
 DIIS: error= 9.03D-04 at cycle   4 NSaved=   4.
 NSaved= 4 IEnMin= 4 EnMin= -370.816185707941     IErMin= 4 ErrMin= 9.03D-04
 ErrMax= 9.03D-04  0.00D+00 EMaxC= 1.00D-01 BMatC= 5.81D-05 BMatP= 2.38D-03
 IDIUse=3 WtCom= 9.91D-01 WtEn= 9.03D-03
 Coeff-Com:  0.283D-02-0.201D-01 0.889D-01 0.928D+00
 Coeff-En:   0.000D+00 0.000D+00 0.000D+00 0.100D+01
 Coeff:      0.280D-02-0.199D-01 0.881D-01 0.929D+00
 Gap=     0.274 Goal=   None    Shift=    0.000
 RMSDP=9.81D-05 MaxDP=6.16D-03 DE=-1.60D-03 OVMax= 3.27D-03

 Cycle   5  Pass 1  IDiag  1:
 E= -370.816249129995     Delta-E=       -0.000063422054 Rises=F Damp=F
 DIIS: error= 1.44D-04 at cycle   5 NSaved=   5.
 NSaved= 5 IEnMin= 5 EnMin= -370.816249129995     IErMin= 5 ErrMin= 1.44D-04
 ErrMax= 1.44D-04  0.00D+00 EMaxC= 1.00D-01 BMatC= 4.26D-06 BMatP= 5.81D-05
 IDIUse=3 WtCom= 9.99D-01 WtEn= 1.44D-03
 Coeff-Com:  0.999D-02-0.176D-01-0.629D-01 0.167D-02 0.107D+01
 Coeff-En:   0.000D+00 0.000D+00 0.000D+00 0.000D+00 0.100D+01
 Coeff:      0.998D-02-0.176D-01-0.628D-01 0.167D-02 0.107D+01
 Gap=     0.273 Goal=   None    Shift=    0.000
 RMSDP=4.32D-05 MaxDP=1.57D-03 DE=-6.34D-05 OVMax= 1.40D-03

 Cycle   6  Pass 1  IDiag  1:
 E= -370.816258246986     Delta-E=       -0.000009116992 Rises=F Damp=F
 DIIS: error= 6.35D-05 at cycle   6 NSaved=   6.
 NSaved= 6 IEnMin= 6 EnMin= -370.816258246986     IErMin= 6 ErrMin= 6.35D-05
 ErrMax= 6.35D-05  0.00D+00 EMaxC= 1.00D-01 BMatC= 3.36D-07 BMatP= 4.26D-06
 IDIUse=1 WtCom= 1.00D+00 WtEn= 0.00D+00
 Coeff-Com: -0.376D-02 0.766D-02 0.123D-01-0.880D-01-0.224D+00 0.130D+01
 Coeff:     -0.376D-02 0.766D-02 0.123D-01-0.880D-01-0.224D+00 0.130D+01
 Gap=     0.273 Goal=   None    Shift=    0.000
 RMSDP=1.17D-05 MaxDP=7.77D-04 DE=-9.12D-06 OVMax= 7.08D-04

 Cycle   7  Pass 1  IDiag  1:
 E= -370.816259312213     Delta-E=       -0.000001065227 Rises=F Damp=F
 DIIS: error= 1.40D-05 at cycle   7 NSaved=   7.
 NSaved= 7 IEnMin= 7 EnMin= -370.816259312213     IErMin= 7 ErrMin= 1.40D-05
 ErrMax= 1.40D-05  0.00D+00 EMaxC= 1.00D-01 BMatC= 1.18D-08 BMatP= 3.36D-07
 IDIUse=1 WtCom= 1.00D+00 WtEn= 0.00D+00
 Coeff-Com:  0.483D-03-0.109D-02-0.112D-03 0.237D-01-0.881D-02-0.305D+00
 Coeff-Com:  0.129D+01
 Coeff:      0.483D-03-0.109D-02-0.112D-03 0.237D-01-0.881D-02-0.305D+00
 Coeff:      0.129D+01
 Gap=     0.273 Goal=   None    Shift=    0.000
 RMSDP=2.47D-06 MaxDP=1.19D-04 DE=-1.07D-06 OVMax= 1.38D-04

 Cycle   8  Pass 1  IDiag  1:
 E= -370.816259354789     Delta-E=       -0.000000042577 Rises=F Damp=F
 DIIS: error= 2.36D-06 at cycle   8 NSaved=   8.
 NSaved= 8 IEnMin= 8 EnMin= -370.816259354789     IErMin= 8 ErrMin= 2.36D-06
 ErrMax= 2.36D-06  0.00D+00 EMaxC= 1.00D-01 BMatC= 3.85D-10 BMatP= 1.18D-08
 IDIUse=1 WtCom= 1.00D+00 WtEn= 0.00D+00
 Coeff-Com:  0.103D-03-0.201D-03-0.408D-03 0.174D-02 0.902D-02-0.277D-01
 Coeff-Com: -0.869D-01 0.110D+01
 Coeff:      0.103D-03-0.201D-03-0.408D-03 0.174D-02 0.902D-02-0.277D-01
 Coeff:     -0.869D-01 0.110D+01
 Gap=     0.273 Goal=   None    Shift=    0.000
 RMSDP=4.35D-07 MaxDP=1.97D-05 DE=-4.26D-08 OVMax= 1.51D-05

 Cycle   9  Pass 1  IDiag  1:
 E= -370.816259355862     Delta-E=       -0.000000001073 Rises=F Damp=F
 DIIS: error= 4.56D-07 at cycle   9 NSaved=   9.
 NSaved= 9 IEnMin= 9 EnMin= -370.816259355862     IErMin= 9 ErrMin= 4.56D-07
 ErrMax= 4.56D-07  0.00D+00 EMaxC= 1.00D-01 BMatC= 3.36D-11 BMatP= 3.85D-10
 IDIUse=1 WtCom= 1.00D+00 WtEn= 0.00D+00
 Coeff-Com: -0.437D-04 0.973D-04 0.214D-04-0.193D-02 0.411D-03 0.244D-01
 Coeff-Com: -0.859D-01-0.114D+00 0.118D+01
 Coeff:     -0.437D-04 0.973D-04 0.214D-04-0.193D-02 0.411D-03 0.244D-01
 Coeff:     -0.859D-01-0.114D+00 0.118D+01
 Gap=     0.273 Goal=   None    Shift=    0.000
 RMSDP=9.88D-08 MaxDP=2.73D-06 DE=-1.07D-09 OVMax= 5.41D-06

 Cycle  10  Pass 1  IDiag  1:
 E= -370.816259355959     Delta-E=       -0.000000000097 Rises=F Damp=F
 DIIS: error= 8.45D-08 at cycle  10 NSaved=  10.
 NSaved=10 IEnMin=10 EnMin= -370.816259355959     IErMin=10 ErrMin= 8.45D-08
 ErrMax= 8.45D-08  0.00D+00 EMaxC= 1.00D-01 BMatC= 2.25D-12 BMatP= 3.36D-11
 IDIUse=1 WtCom= 1.00D+00 WtEn= 0.00D+00
 Coeff-Com: -0.904D-05 0.175D-04 0.299D-04-0.190D-03-0.671D-03 0.300D-02
 Coeff-Com:  0.162D-02-0.712D-01 0.459D-01 0.102D+01
 Coeff:     -0.904D-05 0.175D-04 0.299D-04-0.190D-03-0.671D-03 0.300D-02
 Coeff:      0.162D-02-0.712D-01 0.459D-01 0.102D+01
 Gap=     0.273 Goal=   None    Shift=    0.000
 RMSDP=2.99D-08 MaxDP=1.64D-06 DE=-9.66D-11 OVMax= 1.06D-06

 Cycle  11  Pass 1  IDiag  1:
 E= -370.816259355962     Delta-E=       -0.000000000004 Rises=F Damp=F
 DIIS: error= 2.92D-08 at cycle  11 NSaved=  11.
 NSaved=11 IEnMin=11 EnMin= -370.816259355962     IErMin=11 ErrMin= 2.92D-08
 ErrMax= 2.92D-08  0.00D+00 EMaxC= 1.00D-01 BMatC= 1.55D-13 BMatP= 2.25D-12
 IDIUse=1 WtCom= 1.00D+00 WtEn= 0.00D+00
 Coeff-Com:  0.382D-05-0.849D-05-0.127D-05 0.166D-03-0.395D-04-0.200D-02
 Coeff-Com:  0.632D-02 0.141D-01-0.105D+00-0.607D-01 0.115D+01
 Coeff:      0.382D-05-0.849D-05-0.127D-05 0.166D-03-0.395D-04-0.200D-02
 Coeff:      0.632D-02 0.141D-01-0.105D+00-0.607D-01 0.115D+01
 Gap=     0.273 Goal=   None    Shift=    0.000
 RMSDP=1.49D-08 MaxDP=9.89D-07 DE=-3.58D-12 OVMax= 5.46D-07

 Cycle  12  Pass 1  IDiag  1:
 E= -370.816259355966     Delta-E=       -0.000000000004 Rises=F Damp=F
 DIIS: error= 8.18D-09 at cycle  12 NSaved=  12.
 NSaved=12 IEnMin=12 EnMin= -370.816259355966     IErMin=12 ErrMin= 8.18D-09
 ErrMax= 8.18D-09  0.00D+00 EMaxC= 1.00D-01 BMatC= 5.27D-15 BMatP= 1.55D-13
 IDIUse=1 WtCom= 1.00D+00 WtEn= 0.00D+00
 Coeff-Com: -0.699D-06 0.169D-05-0.539D-06-0.390D-04 0.427D-04 0.420D-03
 Coeff-Com: -0.176D-02-0.504D-03 0.253D-01-0.293D-01-0.268D+00 0.127D+01
 Coeff:     -0.699D-06 0.169D-05-0.539D-06-0.390D-04 0.427D-04 0.420D-03
 Coeff:     -0.176D-02-0.504D-03 0.253D-01-0.293D-01-0.268D+00 0.127D+01
 Gap=     0.273 Goal=   None    Shift=    0.000
 RMSDP=2.91D-09 MaxDP=1.82D-07 DE=-3.52D-12 OVMax= 9.20D-08

 SCF Done:  E(RHF) =  -370.816259356     A.U. after   12 cycles
            NFock= 12  Conv=0.29D-08     -V/T= 2.9847
 KE= 1.868411431712D+02 PE=-9.094437296308D+02 EE= 3.038977772320D+02
 Leave Link  502 at Tue Oct 19 17:06:22 2021, MaxMem= 16106127360 cpu:              31.0 elap:               4.0
 (Enter /sw/contrib/gaussian/g16/B01/g16/l801.exe)
 ExpMin= 2.53D-02 ExpMax= 1.53D+04 ExpMxC= 5.22D+02 IAcc=3 IRadAn=         5 AccDes= 0.00D+00
 HarFok:  IExCor=  205 AccDes= 0.00D+00 IRadAn=         5 IDoV=-2 UseB2=F ITyADJ=14
 ICtDFT= 12500011 ScaDFX=  1.000000  1.000000  1.000000  1.000000
 Defaulting to unpruned grid for atomic number  53.
 Largest valence mixing into a core orbital is  1.30D-04
 Largest core mixing into a valence orbital is  2.13D-05
 Range of M.O.s used for correlation:     6   147
 NBasis=   191 NAE=    18 NBE=    18 NFC=     5 NFV=     0
 NROrb=    142 NOA=    13 NOB=    13 NVA=   129 NVB=   129

 **** Warning!!: The largest alpha MO coefficient is  0.11930197D+02

 Leave Link  801 at Tue Oct 19 17:06:23 2021, MaxMem= 16106127360 cpu:               1.4 elap:               0.1
 (Enter /sw/contrib/gaussian/g16/B01/g16/l906.exe)
 Frozen-core derivative calculation, NFC=   5 NFV=   0.
 FulOut=F Deriv=T AODrv=F NAtomX=     4
   MMem=         107  MDisk=          13 MDiskD=          13
  W3Min=      576828 MinDsk=     1313419 NBas6D=         218
 NBas2D=       24339    NTT=       23871    LW2=    26219120
    MDV= 16105787871 MDiskM=      369352 NBas2p=       24339
 Fully in-core method, ICMem=   673638917.
 IMap=   1   2   3   4   5   6   7   8   9  10  11  12  13  14  15  16  17  18
 JobTyp=1 Pass  1 fully in-core, NPsUse= 28.
 Compute canonical integrals.
 FoFCou: FMM=F IPFlag=           0 FMFlag=           0 FMFlg1=           0
         NFxFlg=           0 DoJE=F BraDBF=F KetDBF=F FulRan=T
         wScrn=  0.000000 ICntrl=       600 IOpCl=  1 I1Cent=           0 NGrid=           0
         NMat0=    1 NMatS0=  24339 NMatT0=    0 NMatD0=    1 NMtDS0=    0 NMtDT0=    0
 Symmetry not used in FoFCou.
 Spin components of T(2) and E(2):
     alpha-alpha T2 =       0.2162284901D-01 E2=     -0.6737681159D-01
     alpha-beta  T2 =       0.1131475885D+00 E2=     -0.3620113915D+00
     beta-beta   T2 =       0.2162284901D-01 E2=     -0.6737681159D-01
 The integrals were generated   1 times.
 ANorm=    0.1075357283D+01
 E2 =    -0.4967650147D+00 EUMP2 =    -0.37131302437068D+03
 Leave Link  906 at Tue Oct 19 17:06:27 2021, MaxMem= 16106127360 cpu:             132.7 elap:               4.8
 (Enter /sw/contrib/gaussian/g16/B01/g16/l1002.exe)
 Minotr:  Closed shell wavefunction.
          Computing MP2/KS-MP2 derivatives.
          Using Z-Vector for PSCF gradient.
          Skipping F1 and S1 gradient terms here.
          Frozen-core window.
          Direct CPHF calculation.
          Differentiating once with respect to electric field.
                with respect to dipole field.
          Electric field/nuclear overlap derivatives assumed to be zero.
          Requested convergence is 1.0D-10 RMS, and 1.0D-09 maximum.
          NewPWx=F KeepS1=T KeepF1=T KeepIn=T MapXYZ=F SortEE=F KeepMc=T.
 Keep R1 ints in memory in canonical form, NReq=226104658.
 FoFCou: FMM=F IPFlag=           0 FMFlag=           0 FMFlg1=           0
         NFxFlg=           0 DoJE=F BraDBF=F KetDBF=F FulRan=T
         wScrn=  0.000000 ICntrl=       600 IOpCl=  0 I1Cent=           0 NGrid=           0
         NMat0=    1 NMatS0=  18336 NMatT0=    0 NMatD0=    1 NMtDS0=    0 NMtDT0=    0
 Symmetry not used in FoFCou.
 Two-electron integral symmetry not used.
          MDV=   16106127360 using IRadAn=       5.
          Solving linear equations separately, MaxMat=       0.
          There are     1 degrees of freedom in the 1st order CPHF.  IDoFFX=0 NUNeed=     1.
 LinEq1:  Iter=  0 NonCon=     1 RMS=2.66D-03 Max=4.30D-02 NDo=     1
 AX will form     1 AO Fock derivatives at one time.
 LinEq1:  Iter=  1 NonCon=     1 RMS=4.28D-04 Max=5.23D-03 NDo=     1
 LinEq1:  Iter=  2 NonCon=     1 RMS=1.91D-04 Max=2.73D-03 NDo=     1
 LinEq1:  Iter=  3 NonCon=     1 RMS=4.44D-05 Max=6.69D-04 NDo=     1
 LinEq1:  Iter=  4 NonCon=     1 RMS=1.28D-05 Max=1.27D-04 NDo=     1
 LinEq1:  Iter=  5 NonCon=     1 RMS=3.44D-06 Max=3.39D-05 NDo=     1
 LinEq1:  Iter=  6 NonCon=     1 RMS=7.37D-07 Max=1.10D-05 NDo=     1
 LinEq1:  Iter=  7 NonCon=     1 RMS=1.64D-07 Max=2.17D-06 NDo=     1
 LinEq1:  Iter=  8 NonCon=     1 RMS=4.63D-08 Max=5.55D-07 NDo=     1
 LinEq1:  Iter=  9 NonCon=     1 RMS=9.32D-09 Max=1.39D-07 NDo=     1
 LinEq1:  Iter= 10 NonCon=     1 RMS=1.68D-09 Max=1.94D-08 NDo=     1
 LinEq1:  Iter= 11 NonCon=     1 RMS=3.37D-10 Max=4.20D-09 NDo=     1
 LinEq1:  Iter= 12 NonCon=     1 RMS=8.84D-11 Max=1.06D-09 NDo=     1
 LinEq1:  Iter= 13 NonCon=     0 RMS=2.17D-11 Max=2.27D-10 NDo=     1
 Linear equations converged to 1.000D-10 1.000D-09 after    13 iterations.
 End of Minotr F.D. properties file   721 does not exist.
 End of Minotr F.D. properties file   722 does not exist.
 End of Minotr F.D. properties file   788 does not exist.
 Leave Link 1002 at Tue Oct 19 17:06:32 2021, MaxMem= 16106127360 cpu:              37.2 elap:               4.8
 (Enter /sw/contrib/gaussian/g16/B01/g16/l601.exe)
 Copying SCF densities to generalized density rwf, IOpCl= 0 IROHF=0.

 **********************************************************************

            Population analysis using the MP2 Density.

 **********************************************************************

 Alpha  occ. eigenvalues --  -20.40395  -7.46627  -5.29183  -5.29158  -5.29150
 Alpha  occ. eigenvalues --   -2.01928  -2.01914  -2.01907  -2.01878  -2.01878
 Alpha  occ. eigenvalues --   -1.18585  -0.62779  -0.54195  -0.42978  -0.34814
 Alpha  occ. eigenvalues --   -0.14690  -0.14170  -0.14121
 Alpha virt. eigenvalues --    0.13222   0.16931   0.23357   0.24531   0.25317
 Alpha virt. eigenvalues --    0.26990   0.28375   0.29230   0.31544   0.33572
 Alpha virt. eigenvalues --    0.36705   0.37219   0.37512   0.39262   0.40918
 Alpha virt. eigenvalues --    0.41894   0.45011   0.47608   0.53256   0.54980
 Alpha virt. eigenvalues --    0.56844   0.59800   0.66668   0.70866   0.77492
 Alpha virt. eigenvalues --    0.78018   0.78405   0.79596   0.79984   0.80110
 Alpha virt. eigenvalues --    0.82495   0.83551   0.85053   0.86142   0.86434
 Alpha virt. eigenvalues --    0.87688   0.88437   0.88881   0.89728   0.90593
 Alpha virt. eigenvalues --    0.92757   0.97020   0.99908   1.05048   1.06689
 Alpha virt. eigenvalues --    1.09524   1.10182   1.12891   1.14311   1.15725
 Alpha virt. eigenvalues --    1.17864   1.19748   1.29228   1.34456   1.37441
 Alpha virt. eigenvalues --    1.40418   1.50217   1.52734   1.57972   1.67657
 Alpha virt. eigenvalues --    1.72917   1.73666   1.75248   1.75396   1.76943
 Alpha virt. eigenvalues --    1.78159   1.81265   1.84566   1.86977   1.89958
 Alpha virt. eigenvalues --    2.02142   2.04241   2.05708   2.07432   2.09817
 Alpha virt. eigenvalues --    2.12383   2.15064   2.28690   2.44355   2.51636
 Alpha virt. eigenvalues --    2.53511   2.59998   2.61067   2.62784   2.65310
 Alpha virt. eigenvalues --    2.76543   2.86736   2.91378   2.96950   3.01250
 Alpha virt. eigenvalues --    3.08314   3.25411   3.26769   3.76402   3.87057
 Alpha virt. eigenvalues --    4.17092   4.22077   4.31126   4.37221   4.43422
 Alpha virt. eigenvalues --    4.43908   4.54556   4.56051   4.60773   4.74438
 Alpha virt. eigenvalues --    4.93862   5.11046   5.28446   5.35442   5.43390
 Alpha virt. eigenvalues --    5.50556   5.66905   5.80489   6.36851   6.68181
 Alpha virt. eigenvalues --    6.88658   7.09717   7.27870   7.42040   7.43689
 Alpha virt. eigenvalues --    7.46652   7.53009   7.57918   7.79810   8.04702
 Alpha virt. eigenvalues --    8.10983   8.95169  16.09846  59.21755
          Condensed to atoms (all electrons):
               1          2          3          4
     1  O    8.254654   0.211641  -0.054821   0.104164
     2  H    0.211641   0.599910   0.007509   0.010220
     3  I   -0.054821   0.007509  25.923899   0.039757
     4  H    0.104164   0.010220   0.039757   0.584597
 Mulliken charges:
               1
     1  O   -0.515639
     2  H    0.170720
     3  I   -0.916344
     4  H    0.261262
 Sum of Mulliken charges =  -1.00000
 Mulliken charges with hydrogens summed into heavy atoms:
               1
     1  O   -0.083656
     3  I   -0.916344
 Electronic spatial extent (au):  <R**2>=           1236.0865
 Charge=             -1.0000 electrons
 Dipole moment (field-independent basis, Debye):
    X=              4.1722    Y=             13.7352    Z=              0.1132  Tot=             14.3553
 Quadrupole moment (field-independent basis, Debye-Ang):
   XX=            -41.4253   YY=            -92.1097   ZZ=            -41.8436
   XY=             -9.9706   XZ=             -0.0410   YZ=             -0.0387
 Traceless Quadrupole moment (field-independent basis, Debye-Ang):
   XX=             17.0342   YY=            -33.6501   ZZ=             16.6159
   XY=             -9.9706   XZ=             -0.0410   YZ=             -0.0387
 Octapole moment (field-independent basis, Debye-Ang**2):
  XXX=             74.3875  YYY=            525.2756  ZZZ=             -0.7470  XYY=             59.1654
  XXY=            123.8309  XXZ=             -0.2971  XZZ=             23.6417  YZZ=            116.4965
  YYZ=             -1.2050  XYZ=             -0.2015
 Hexadecapole moment (field-independent basis, Debye-Ang**3):
 XXXX=           -180.7443 YYYY=          -3062.1085 ZZZZ=            -76.6439 XXXY=           -254.3201
 XXXZ=              0.2439 YYYX=           -369.5260 YYYZ=              5.3116 ZZZX=              0.2212
 ZZZY=              1.2490 XXYY=           -466.2540 XXZZ=            -43.0926 YYZZ=           -424.2233
 XXYZ=              0.5798 YYXZ=              0.8992 ZZXY=            -83.1244
 N-N= 4.788854987167D+01 E-N=-9.088765627929D+02  KE= 1.870314419155D+02
 No NMR shielding tensors so no spin-rotation constants.
 Leave Link  601 at Tue Oct 19 17:06:32 2021, MaxMem= 16106127360 cpu:               3.1 elap:               0.1
 (Enter /sw/contrib/gaussian/g16/B01/g16/l607.exe)
 ******************************Gaussian NBO Version 3.1******************************
             N A T U R A L   A T O M I C   O R B I T A L   A N D
          N A T U R A L   B O N D   O R B I T A L   A N A L Y S I S
 ******************************Gaussian NBO Version 3.1******************************
       /RESON  / : Allow strongly delocalized NBO set

 Analyzing the MP2 density

 Job title: title                                                           

 Storage needed:    110417 in NPA,    146568 in NBO (********** available)
 GSVD:  LWork=       13161 too small for GESVD, short by       32525 words or       32525 for optimal perf.


 NATURAL POPULATIONS:  Natural atomic orbital occupancies 
                                                          
   NAO  Atom  No  lang   Type(AO)    Occupancy
 --------------------------------------------
     1    O    1  S      Cor( 1S)     1.99992
     2    O    1  S      Val( 2S)     1.88812
     3    O    1  S      Ryd( 3S)     0.00632
     4    O    1  S      Ryd( 4S)     0.00038
     5    O    1  S      Ryd( 5S)     0.00016
     6    O    1  px     Val( 2p)     1.67370
     7    O    1  px     Ryd( 3p)     0.01217
     8    O    1  px     Ryd( 4p)     0.00060
     9    O    1  px     Ryd( 5p)     0.00008
    10    O    1  py     Val( 2p)     1.76222
    11    O    1  py     Ryd( 3p)     0.01334
    12    O    1  py     Ryd( 4p)     0.00062
    13    O    1  py     Ryd( 5p)     0.00028
    14    O    1  pz     Val( 2p)     1.94766
    15    O    1  pz     Ryd( 3p)     0.02035
    16    O    1  pz     Ryd( 4p)     0.00054
    17    O    1  pz     Ryd( 5p)     0.00001
    18    O    1  dxy    Ryd( 3d)     0.00871
    19    O    1  dxy    Ryd( 4d)     0.00050
    20    O    1  dxy    Ryd( 5d)     0.00013
    21    O    1  dxz    Ryd( 3d)     0.00960
    22    O    1  dxz    Ryd( 4d)     0.00094
    23    O    1  dxz    Ryd( 5d)     0.00012
    24    O    1  dyz    Ryd( 3d)     0.00780
    25    O    1  dyz    Ryd( 4d)     0.00046
    26    O    1  dyz    Ryd( 5d)     0.00017
    27    O    1  dx2y2  Ryd( 3d)     0.01003
    28    O    1  dx2y2  Ryd( 4d)     0.00071
    29    O    1  dx2y2  Ryd( 5d)     0.00026
    30    O    1  dz2    Ryd( 3d)     0.00797
    31    O    1  dz2    Ryd( 4d)     0.00069
    32    O    1  dz2    Ryd( 5d)     0.00018
    33    O    1  f(0)   Ryd( 4f)     0.00084
    34    O    1  f(0)   Ryd( 5f)     0.00014
    35    O    1  f(C1)  Ryd( 4f)     0.00055
    36    O    1  f(C1)  Ryd( 5f)     0.00010
    37    O    1  f(S1)  Ryd( 4f)     0.00062
    38    O    1  f(S1)  Ryd( 5f)     0.00010
    39    O    1  f(C2)  Ryd( 4f)     0.00056
    40    O    1  f(C2)  Ryd( 5f)     0.00012
    41    O    1  f(S2)  Ryd( 4f)     0.00047
    42    O    1  f(S2)  Ryd( 5f)     0.00008
    43    O    1  f(C3)  Ryd( 4f)     0.00040
    44    O    1  f(C3)  Ryd( 5f)     0.00013
    45    O    1  f(S3)  Ryd( 4f)     0.00048
    46    O    1  f(S3)  Ryd( 5f)     0.00013

    47    H    2  S      Val( 1S)     0.32958
    48    H    2  S      Ryd( 2S)     0.00057
    49    H    2  S      Ryd( 3S)     0.00024
    50    H    2  S      Ryd( 4S)     0.00006
    51    H    2  px     Ryd( 2p)     0.00084
    52    H    2  px     Ryd( 3p)     0.00069
    53    H    2  px     Ryd( 4p)     0.00006
    54    H    2  py     Ryd( 2p)     0.00051
    55    H    2  py     Ryd( 3p)     0.00021
    56    H    2  py     Ryd( 4p)     0.00008
    57    H    2  pz     Ryd( 2p)     0.00127
    58    H    2  pz     Ryd( 3p)     0.00017
    59    H    2  pz     Ryd( 4p)     0.00005
    60    H    2  dxy    Ryd( 3d)     0.00008
    61    H    2  dxy    Ryd( 4d)     0.00007
    62    H    2  dxz    Ryd( 3d)     0.00032
    63    H    2  dxz    Ryd( 4d)     0.00007
    64    H    2  dyz    Ryd( 3d)     0.00011
    65    H    2  dyz    Ryd( 4d)     0.00006
    66    H    2  dx2y2  Ryd( 3d)     0.00022
    67    H    2  dx2y2  Ryd( 4d)     0.00007
    68    H    2  dz2    Ryd( 3d)     0.00019
    69    H    2  dz2    Ryd( 4d)     0.00007

    70    I    3  S      Cor( 4S)     2.00003
    71    I    3  S      Val( 5S)     1.98014
    72    I    3  S      Ryd( 6S)     0.00323
    73    I    3  S      Ryd( 7S)     0.00059
    74    I    3  S      Ryd( 8S)     0.00009
    75    I    3  S      Ryd( 9S)     0.00000
    76    I    3  px     Cor( 4p)     2.00007
    77    I    3  px     Val( 5p)     1.95066
    78    I    3  px     Ryd( 6p)     0.01103
    79    I    3  px     Ryd( 7p)     0.00075
    80    I    3  px     Ryd( 8p)     0.00008
    81    I    3  py     Cor( 4p)     2.00005
    82    I    3  py     Val( 5p)     1.93747
    83    I    3  py     Ryd( 6p)     0.01017
    84    I    3  py     Ryd( 7p)     0.00067
    85    I    3  py     Ryd( 8p)     0.00016
    86    I    3  pz     Cor( 4p)     2.00007
    87    I    3  pz     Val( 5p)     1.95138
    88    I    3  pz     Ryd( 6p)     0.01101
    89    I    3  pz     Ryd( 7p)     0.00075
    90    I    3  pz     Ryd( 8p)     0.00008
    91    I    3  dxy    Cor( 4d)     1.99675
    92    I    3  dxy    Ryd( 5d)     0.02041
    93    I    3  dxy    Ryd( 6d)     0.00144
    94    I    3  dxy    Ryd( 7d)     0.00018
    95    I    3  dxz    Cor( 4d)     1.99678
    96    I    3  dxz    Ryd( 5d)     0.02018
    97    I    3  dxz    Ryd( 6d)     0.00166
    98    I    3  dxz    Ryd( 7d)     0.00016
    99    I    3  dyz    Cor( 4d)     1.99676
   100    I    3  dyz    Ryd( 5d)     0.02033
   101    I    3  dyz    Ryd( 6d)     0.00142
   102    I    3  dyz    Ryd( 7d)     0.00018
   103    I    3  dx2y2  Cor( 4d)     1.99673
   104    I    3  dx2y2  Ryd( 5d)     0.02050
   105    I    3  dx2y2  Ryd( 6d)     0.00157
   106    I    3  dx2y2  Ryd( 7d)     0.00020
   107    I    3  dz2    Cor( 4d)     1.99676
   108    I    3  dz2    Ryd( 5d)     0.02032
   109    I    3  dz2    Ryd( 6d)     0.00164
   110    I    3  dz2    Ryd( 7d)     0.00018
   111    I    3  f(0)   Ryd( 4f)     0.00273
   112    I    3  f(0)   Ryd( 5f)     0.00043
   113    I    3  f(C1)  Ryd( 4f)     0.00276
   114    I    3  f(C1)  Ryd( 5f)     0.00043
   115    I    3  f(S1)  Ryd( 4f)     0.00276
   116    I    3  f(S1)  Ryd( 5f)     0.00047
   117    I    3  f(C2)  Ryd( 4f)     0.00272
   118    I    3  f(C2)  Ryd( 5f)     0.00043
   119    I    3  f(S2)  Ryd( 4f)     0.00277
   120    I    3  f(S2)  Ryd( 5f)     0.00044
   121    I    3  f(C3)  Ryd( 4f)     0.00270
   122    I    3  f(C3)  Ryd( 5f)     0.00045
   123    I    3  f(S3)  Ryd( 4f)     0.00273
   124    I    3  f(S3)  Ryd( 5f)     0.00047

   125    H    4  S      Val( 1S)     0.28698
   126    H    4  S      Ryd( 2S)     0.00608
   127    H    4  S      Ryd( 3S)     0.00064
   128    H    4  S      Ryd( 4S)     0.00014
   129    H    4  px     Ryd( 2p)     0.00393
   130    H    4  px     Ryd( 3p)     0.00041
   131    H    4  px     Ryd( 4p)     0.00013
   132    H    4  py     Ryd( 2p)     0.00453
   133    H    4  py     Ryd( 3p)     0.00060
   134    H    4  py     Ryd( 4p)     0.00025
   135    H    4  pz     Ryd( 2p)     0.00421
   136    H    4  pz     Ryd( 3p)     0.00046
   137    H    4  pz     Ryd( 4p)     0.00011
   138    H    4  dxy    Ryd( 3d)     0.00024
   139    H    4  dxy    Ryd( 4d)     0.00009
   140    H    4  dxz    Ryd( 3d)     0.00016
   141    H    4  dxz    Ryd( 4d)     0.00007
   142    H    4  dyz    Ryd( 3d)     0.00024
   143    H    4  dyz    Ryd( 4d)     0.00009
   144    H    4  dx2y2  Ryd( 3d)     0.00024
   145    H    4  dx2y2  Ryd( 4d)     0.00009
   146    H    4  dz2    Ryd( 3d)     0.00026
   147    H    4  dz2    Ryd( 4d)     0.00008

 [ 28 electrons found in the effective core potential]

 WARNING:  5 low occupancy (<1.9990e) core orbitals found on  I    3


 Summary of Natural Population Analysis:                  
                                                          
                                       Natural Population 
                Natural  -----------------------------------------------
    Atom  No    Charge         Core      Valence    Rydberg      Total
 -----------------------------------------------------------------------
      O    1   -1.37947      1.99992     7.27170    0.10785     9.37947
      H    2    0.66441      0.00000     0.32958    0.00601     0.33559
      I    3   -0.97491     45.98399     7.81965    0.17127    53.97491
      H    4    0.68996      0.00000     0.28698    0.02306     0.31004
 =======================================================================
   * Total *   -1.00000     47.98391    15.70791    0.30819    64.00000

                                 Natural Population      
 --------------------------------------------------------
   Effective Core            28.00000
   Core                      19.98391 ( 99.9195% of  20)
   Valence                   15.70791 ( 98.1744% of  16)
   Natural Minimal Basis     63.69181 ( 99.5185% of  64)
   Natural Rydberg Basis      0.30819 (  0.4815% of  64)
 --------------------------------------------------------

    Atom  No          Natural Electron Configuration
 ----------------------------------------------------------------------------
      O    1      [core]2S( 1.89)2p( 5.38)3S( 0.01)3p( 0.05)3d( 0.04)
      H    2            1S( 0.33)
      I    3      [core]5S( 1.98)5p( 5.84)4f( 0.02)5d( 0.10)6p( 0.03)6d( 0.01)
      H    4            1S( 0.29)2S( 0.01)2p( 0.01)


 NATURAL BOND ORBITAL ANALYSIS:
 Warning:  a bond orbital has occupanc of -0.00008

                       Occupancies       Lewis Structure    Low   High
           Occ.    -------------------  -----------------   occ   occ
  Cycle   Thresh.   Lewis   Non-Lewis     CR  BD  3C  LP    (L)   (NL)   Dev
 =============================================================================
   1(1)    1.90    63.66744   0.33256     10   2   0   6     0      0    0.02
 -----------------------------------------------------------------------------

 Structure accepted: No low occupancy Lewis orbitals

 WARNING:  5 low occupancy (<1.9990e) core orbitals found on  I    3

 --------------------------------------------------------
   Effective Core           28.00000
   Core                     19.98391 ( 99.920% of  20)
   Valence Lewis            15.68354 ( 98.022% of  16)
  ==================       ============================
   Total Lewis              63.66744 ( 99.480% of  64)
  -----------------------------------------------------
   Valence non-Lewis         0.05014 (  0.078% of  64)
   Rydberg non-Lewis         0.28242 (  0.441% of  64)
  ==================       ============================
   Total non-Lewis           0.33256 (  0.520% of  64)
 --------------------------------------------------------


       (Occupancy)   Bond orbital/ Coefficients/ Hybrids
 ---------------------------------------------------------------------------------
     1. (1.96423) BD ( 1) O   1 - H   2  
                ( 84.02%)   0.9166* O   1 s( 15.21%)p 5.55( 84.42%)d 0.02(  0.36%)
                                                  f 0.00(  0.01%)
                                            0.0001  0.3899  0.0007  0.0014 -0.0037
                                            0.9185 -0.0181  0.0052 -0.0018 -0.0034
                                           -0.0100  0.0002 -0.0029  0.0032  0.0020
                                           -0.0000  0.0005 -0.0227  0.0031  0.0014
                                            0.0053 -0.0012  0.0000 -0.0014 -0.0005
                                            0.0004  0.0452 -0.0080  0.0050 -0.0303
                                            0.0030 -0.0018 -0.0001  0.0001 -0.0094
                                            0.0009  0.0000 -0.0001 -0.0002  0.0000
                                           -0.0023  0.0009  0.0026  0.0021  0.0014
                                           -0.0002
                ( 15.98%)   0.3998* H   2 s( 99.77%)p 0.00(  0.19%)d 0.00(  0.04%)
                                            0.9988 -0.0020  0.0001 -0.0000  0.0065
                                            0.0428 -0.0022 -0.0013 -0.0008 -0.0011
                                            0.0011  0.0007  0.0000  0.0010 -0.0028
                                            0.0006  0.0005 -0.0014 -0.0003  0.0157
                                           -0.0035 -0.0122  0.0014
     2. (1.96456) BD ( 1) O   1 - H   4  
                ( 86.73%)   0.9313* O   1 s( 17.39%)p 4.73( 82.26%)d 0.02(  0.34%)
                                                  f 0.00(  0.01%)
                                           -0.0001 -0.4170  0.0052  0.0034  0.0011
                                            0.1792 -0.0111 -0.0008 -0.0004  0.8737
                                           -0.0164  0.0072 -0.0051 -0.1635  0.0026
                                           -0.0017  0.0016  0.0108 -0.0052  0.0003
                                           -0.0019  0.0010 -0.0001  0.0189 -0.0014
                                           -0.0001  0.0459 -0.0061  0.0017  0.0267
                                            0.0005 -0.0017  0.0042 -0.0005 -0.0018
                                            0.0006 -0.0083  0.0010  0.0025  0.0004
                                           -0.0011 -0.0002 -0.0023 -0.0017  0.0015
                                           -0.0035
                ( 13.27%)   0.3643* H   4 s( 99.80%)p 0.00(  0.19%)d 0.00(  0.01%)
                                           -0.9986  0.0283 -0.0038  0.0003 -0.0258
                                           -0.0030 -0.0010  0.0109 -0.0300 -0.0129
                                           -0.0054  0.0052  0.0025 -0.0042  0.0045
                                            0.0006 -0.0009  0.0026 -0.0004 -0.0005
                                           -0.0005  0.0080  0.0001
     3. (1.99992) CR ( 1) O   1           s(100.00%)
                                            1.0000 -0.0003  0.0000  0.0000  0.0000
                                           -0.0000  0.0000 -0.0000  0.0000  0.0000
                                           -0.0000  0.0000 -0.0000 -0.0000  0.0000
                                           -0.0000  0.0000 -0.0000 -0.0000  0.0000
                                            0.0000  0.0000 -0.0000  0.0000  0.0000
                                           -0.0000 -0.0000 -0.0000  0.0000  0.0000
                                            0.0000 -0.0000  0.0000  0.0000  0.0000
                                            0.0000 -0.0000 -0.0000  0.0000  0.0000
                                            0.0000 -0.0000 -0.0000 -0.0000 -0.0000
                                           -0.0000
     4. (2.00003) CR ( 1) I   3           s(100.00%)
                                            1.0000 -0.0000  0.0000 -0.0000  0.0000
                                            0.0000 -0.0000  0.0000  0.0000 -0.0000
                                           -0.0000 -0.0000  0.0000 -0.0000 -0.0000
                                            0.0000 -0.0000  0.0000  0.0000 -0.0000
                                            0.0000 -0.0000  0.0000 -0.0000 -0.0000
                                           -0.0000  0.0000 -0.0000 -0.0000 -0.0000
                                            0.0000 -0.0000  0.0000  0.0000 -0.0000
                                            0.0000  0.0000  0.0000 -0.0000  0.0000
                                            0.0000 -0.0000 -0.0000 -0.0000 -0.0000
                                           -0.0000 -0.0000 -0.0000 -0.0000  0.0000
                                            0.0000 -0.0000 -0.0000 -0.0000 -0.0000
     5. (2.00007) CR ( 2) I   3           s(  0.00%)p 1.00(100.00%)
                                           -0.0000  0.0000  0.0000 -0.0000  0.0000
                                            0.0000  1.0000 -0.0000 -0.0000 -0.0000
                                            0.0000 -0.0000  0.0000 -0.0000 -0.0000
                                            0.0000 -0.0000  0.0000  0.0000 -0.0000
                                            0.0000  0.0000 -0.0000  0.0000  0.0000
                                            0.0000 -0.0000  0.0000 -0.0000 -0.0000
                                            0.0000 -0.0000  0.0000  0.0000 -0.0000
                                            0.0000  0.0000  0.0000 -0.0000 -0.0000
                                            0.0000 -0.0000 -0.0000  0.0000  0.0000
                                           -0.0000 -0.0000 -0.0000 -0.0000 -0.0000
                                           -0.0000  0.0000  0.0000 -0.0000 -0.0000
     6. (2.00005) CR ( 3) I   3           s(  0.00%)p 1.00(100.00%)
                                           -0.0000  0.0000 -0.0000 -0.0000  0.0000
                                            0.0000 -0.0000  0.0000  0.0000 -0.0000
                                           -0.0000  1.0000  0.0001 -0.0000 -0.0000
                                            0.0000 -0.0000  0.0000  0.0000 -0.0000
                                            0.0000 -0.0000  0.0000 -0.0000 -0.0000
                                           -0.0000  0.0000 -0.0000  0.0000 -0.0000
                                            0.0000 -0.0000  0.0000  0.0000 -0.0000
                                            0.0000  0.0000  0.0000 -0.0000  0.0000
                                            0.0000 -0.0000 -0.0000 -0.0000 -0.0000
                                           -0.0000 -0.0000 -0.0000 -0.0000  0.0000
                                            0.0000 -0.0000 -0.0000 -0.0000 -0.0000
     7. (2.00007) CR ( 4) I   3           s(  0.00%)p 1.00(100.00%)
                                           -0.0000  0.0000  0.0000 -0.0000  0.0000
                                           -0.0000 -0.0000  0.0000  0.0000 -0.0000
                                           -0.0000 -0.0000  0.0000 -0.0000 -0.0000
                                            0.0000  1.0000 -0.0000  0.0000 -0.0000
                                            0.0000 -0.0000  0.0000 -0.0000 -0.0000
                                            0.0000 -0.0000  0.0000 -0.0000  0.0000
                                           -0.0000  0.0000  0.0000  0.0000 -0.0000
                                            0.0000  0.0000  0.0000 -0.0000  0.0000
                                           -0.0000  0.0000  0.0000 -0.0000 -0.0000
                                           -0.0000 -0.0000  0.0000  0.0000 -0.0000
                                           -0.0000 -0.0000 -0.0000 -0.0000 -0.0000
     8. (1.99675) CR ( 5) I   3           s(  0.00%)p 0.00(  0.00%)d 1.00(100.00%)
                                           -0.0000  0.0000 -0.0000 -0.0000  0.0000
                                            0.0000  0.0000  0.0000  0.0000  0.0000
                                           -0.0000 -0.0000  0.0000 -0.0000 -0.0000
                                            0.0000 -0.0000  0.0000  0.0000 -0.0000
                                            0.0000  1.0000  0.0000 -0.0000 -0.0000
                                           -0.0000  0.0000 -0.0000  0.0000 -0.0000
                                            0.0000 -0.0000  0.0000  0.0000 -0.0000
                                            0.0000  0.0000  0.0000 -0.0000  0.0000
                                            0.0000 -0.0000 -0.0000 -0.0000 -0.0000
                                           -0.0000 -0.0000 -0.0000 -0.0000  0.0000
                                            0.0000 -0.0000 -0.0000 -0.0000 -0.0000
     9. (1.99678) CR ( 6) I   3           s(  0.00%)p 0.00(  0.00%)d 1.00(100.00%)
                                           -0.0000  0.0000 -0.0000  0.0000 -0.0000
                                            0.0000  0.0000  0.0000  0.0000  0.0000
                                           -0.0000 -0.0000  0.0000  0.0000 -0.0000
                                           -0.0000  0.0000  0.0000  0.0000  0.0000
                                            0.0000 -0.0000  0.0000 -0.0000 -0.0000
                                            1.0000  0.0000 -0.0000  0.0000 -0.0000
                                            0.0000 -0.0000 -0.0000  0.0000 -0.0000
                                           -0.0000  0.0000  0.0000 -0.0000  0.0000
                                            0.0000 -0.0000 -0.0000 -0.0000 -0.0000
                                           -0.0000 -0.0000 -0.0000 -0.0000  0.0000
                                            0.0000 -0.0000 -0.0000 -0.0000 -0.0000
    10. (1.99676) CR ( 7) I   3           s(  0.00%)p 0.00(  0.00%)d 1.00(100.00%)
                                           -0.0000  0.0000 -0.0000 -0.0000 -0.0000
                                            0.0000 -0.0000  0.0000  0.0000 -0.0000
                                           -0.0000 -0.0000  0.0000 -0.0000 -0.0000
                                            0.0000  0.0000  0.0000  0.0000  0.0000
                                            0.0000 -0.0000  0.0000 -0.0000 -0.0000
                                           -0.0000  0.0000 -0.0000  0.0000  1.0000
                                            0.0000 -0.0000 -0.0000  0.0000 -0.0000
                                            0.0000  0.0000  0.0000 -0.0000  0.0000
                                            0.0000 -0.0000 -0.0000 -0.0000 -0.0000
                                           -0.0000 -0.0000 -0.0000 -0.0000  0.0000
                                            0.0000 -0.0000 -0.0000 -0.0000 -0.0000
    11. (1.99673) CR ( 8) I   3           s(  0.00%)p 0.00(  0.00%)d 1.00(100.00%)
                                            0.0000 -0.0000 -0.0000  0.0000 -0.0000
                                           -0.0000  0.0000 -0.0000 -0.0000  0.0000
                                            0.0000  0.0000 -0.0001  0.0000  0.0000
                                           -0.0000  0.0000 -0.0000 -0.0000  0.0000
                                           -0.0000  0.0000 -0.0000  0.0000  0.0000
                                            0.0000 -0.0000  0.0000  0.0000  0.0000
                                           -0.0000  0.0000 -0.0000  1.0000  0.0000
                                           -0.0000 -0.0000 -0.0000  0.0000 -0.0000
                                           -0.0000  0.0000  0.0000  0.0000  0.0000
                                            0.0000  0.0000  0.0000  0.0000 -0.0000
                                           -0.0000  0.0000  0.0000  0.0000  0.0000
    12. (1.99676) CR ( 9) I   3           s(  0.00%)p 0.00(  0.00%)d 1.00(100.00%)
                                            0.0000 -0.0000 -0.0000  0.0000 -0.0000
                                           -0.0000  0.0000 -0.0000 -0.0000  0.0000
                                            0.0000  0.0000 -0.0000  0.0000  0.0000
                                           -0.0000  0.0000  0.0000 -0.0000  0.0000
                                           -0.0000  0.0000 -0.0000  0.0000  0.0000
                                            0.0000 -0.0000  0.0000  0.0000  0.0000
                                           -0.0000  0.0000 -0.0000 -0.0000  0.0000
                                           -0.0000 -0.0000  1.0000  0.0000 -0.0000
                                           -0.0000  0.0000  0.0000  0.0000  0.0000
                                            0.0000  0.0000  0.0000  0.0000 -0.0000
                                           -0.0000  0.0000  0.0000  0.0000  0.0000
    13. (1.97252) LP ( 1) O   1           s( 67.30%)p 0.48( 32.59%)d 0.00(  0.11%)
                                                  f 0.00(  0.00%)
                                            0.0002  0.8204  0.0023  0.0010  0.0019
                                           -0.3454 -0.0103  0.0062 -0.0008  0.4497
                                            0.0098 -0.0048  0.0000 -0.0639 -0.0014
                                            0.0009  0.0002  0.0279 -0.0027 -0.0025
                                           -0.0049  0.0006  0.0004  0.0037 -0.0014
                                            0.0005  0.0011  0.0065 -0.0056  0.0104
                                           -0.0068  0.0040  0.0011 -0.0007  0.0020
                                           -0.0019 -0.0026  0.0015  0.0003 -0.0004
                                            0.0010 -0.0002  0.0015  0.0018  0.0031
                                           -0.0011
    14. (1.96146) LP ( 2) O   1           s(  0.03%)p99.99( 99.67%)d 9.17(  0.28%)
                                                  f 0.88(  0.03%)
                                            0.0000  0.0173 -0.0018 -0.0010  0.0004
                                           -0.0045 -0.0005  0.0002 -0.0004 -0.1747
                                           -0.0034  0.0005 -0.0008 -0.9826 -0.0229
                                            0.0052 -0.0049 -0.0071  0.0026 -0.0009
                                           -0.0409  0.0133 -0.0038  0.0262  0.0016
                                           -0.0052 -0.0053 -0.0001  0.0009 -0.0104
                                            0.0002  0.0014  0.0131 -0.0049  0.0007
                                           -0.0001  0.0050 -0.0014 -0.0052  0.0034
                                           -0.0020  0.0002  0.0004  0.0002 -0.0010
                                            0.0008
    15. (1.98038) LP ( 1) I   3           s( 99.55%)p 0.00(  0.45%)d 0.00(  0.00%)
                                                  f 0.00(  0.00%)
                                            0.0000  0.9977 -0.0000  0.0002 -0.0001
                                           -0.0000 -0.0000 -0.0114  0.0003 -0.0002
                                            0.0001 -0.0000 -0.0661  0.0004 -0.0008
                                            0.0002 -0.0000 -0.0048  0.0002 -0.0001
                                            0.0000 -0.0000  0.0013 -0.0003 -0.0001
                                           -0.0000  0.0001 -0.0000 -0.0000 -0.0000
                                            0.0007 -0.0002 -0.0001  0.0000 -0.0022
                                            0.0005  0.0003  0.0000 -0.0016  0.0004
                                            0.0001 -0.0002 -0.0002 -0.0002 -0.0001
                                           -0.0008 -0.0006 -0.0002 -0.0002  0.0001
                                            0.0001 -0.0006 -0.0004 -0.0007 -0.0005
    16. (1.95168) LP ( 2) I   3           s(  0.00%)p 1.00( 99.99%)d 0.00(  0.00%)
                                                  f 0.00(  0.00%)
                                           -0.0000  0.0029  0.0002 -0.0008  0.0010
                                           -0.0001  0.0000  0.1168  0.0001  0.0001
                                           -0.0001  0.0000  0.0947 -0.0007 -0.0003
                                            0.0002 -0.0001 -0.9886 -0.0001 -0.0010
                                           -0.0000 -0.0000  0.0009 -0.0002 -0.0001
                                            0.0000 -0.0022  0.0011 -0.0008  0.0000
                                           -0.0041  0.0006  0.0016  0.0000  0.0001
                                           -0.0001  0.0006  0.0000 -0.0017  0.0008
                                           -0.0005  0.0015  0.0010 -0.0003 -0.0003
                                           -0.0010 -0.0009  0.0014  0.0007 -0.0010
                                           -0.0008 -0.0004 -0.0002 -0.0001  0.0000
    17. (1.95149) LP ( 3) I   3           s(  0.00%)p 1.00( 99.99%)d 0.00(  0.00%)
                                                  f 0.00(  0.00%)
                                           -0.0000  0.0037  0.0011 -0.0023  0.0020
                                           -0.0001 -0.0000 -0.9691 -0.0016 -0.0015
                                            0.0006  0.0000  0.2284 -0.0010 -0.0004
                                            0.0007 -0.0000 -0.0926  0.0000 -0.0001
                                            0.0000  0.0000 -0.0050  0.0007  0.0011
                                            0.0000 -0.0013  0.0006 -0.0005  0.0000
                                           -0.0000 -0.0001  0.0002  0.0000 -0.0040
                                            0.0016 -0.0005 -0.0000  0.0007 -0.0005
                                            0.0009  0.0001  0.0001  0.0007  0.0005
                                           -0.0002 -0.0002 -0.0001 -0.0002 -0.0007
                                           -0.0006  0.0014  0.0005 -0.0018 -0.0014
    18. (1.93721) LP ( 4) I   3           s(  0.45%)p99.99( 99.51%)d 0.09(  0.04%)
                                                  f 0.01(  0.00%)
                                           -0.0000  0.0670  0.0001 -0.0026  0.0010
                                            0.0004 -0.0000  0.2167  0.0006 -0.0003
                                           -0.0004 -0.0001  0.9665 -0.0016 -0.0024
                                            0.0005 -0.0000  0.1184  0.0009 -0.0001
                                            0.0001 -0.0000  0.0082 -0.0008 -0.0005
                                           -0.0000  0.0012 -0.0003  0.0001 -0.0000
                                            0.0052 -0.0012  0.0003  0.0001 -0.0137
                                            0.0009  0.0027  0.0000 -0.0096  0.0011
                                            0.0009 -0.0011 -0.0007 -0.0008 -0.0005
                                           -0.0033 -0.0022 -0.0013 -0.0009  0.0006
                                            0.0003 -0.0025 -0.0010 -0.0031 -0.0018
    19. (0.01995) RY*( 1) O   1           s(  0.00%)p 1.00( 97.39%)d 0.03(  2.52%)
                                                  f 0.00(  0.09%)
                                            0.0000 -0.0000  0.0031  0.0028 -0.0012
                                           -0.0001  0.0033 -0.0005  0.0005 -0.0054
                                            0.1763  0.0061 -0.0013 -0.0308  0.9700
                                            0.0306 -0.0068  0.0263 -0.0069  0.0017
                                            0.1408 -0.0358  0.0078 -0.0504  0.0017
                                            0.0091  0.0105 -0.0011 -0.0015  0.0229
                                           -0.0028 -0.0020 -0.0190  0.0142  0.0009
                                           -0.0000 -0.0060  0.0044  0.0130 -0.0095
                                           -0.0027  0.0003  0.0008 -0.0006  0.0027
                                           -0.0023
    20. (0.01598) RY*( 2) O   1           s( 12.91%)p 6.48( 83.67%)d 0.26(  3.30%)
                                                  f 0.01(  0.12%)
                                           -0.0000 -0.0156  0.3590  0.0065 -0.0002
                                            0.0095 -0.5392  0.0017  0.0004 -0.0076
                                            0.7267  0.0192 -0.0175  0.0015 -0.1308
                                           -0.0034  0.0026  0.1675 -0.0130 -0.0099
                                           -0.0350  0.0040  0.0010  0.0132 -0.0064
                                            0.0014  0.0014  0.0269 -0.0171  0.0285
                                           -0.0338  0.0148  0.0015 -0.0033  0.0024
                                           -0.0076 -0.0029  0.0067 -0.0043 -0.0001
                                            0.0059 -0.0023  0.0199  0.0021  0.0222
                                           -0.0083
    21. (0.00979) RY*( 3) O   1           s(  0.19%)p99.99( 92.58%)d36.96(  6.98%)
                                                  f 1.33(  0.25%)
                                           -0.0000  0.0023  0.0260  0.0346 -0.0034
                                            0.0321  0.7938 -0.0131 -0.0079  0.0211
                                            0.5316  0.0223 -0.0285 -0.0038 -0.1003
                                           -0.0052  0.0082  0.1346 -0.0095  0.0078
                                           -0.0104  0.0006 -0.0012 -0.0142 -0.0088
                                            0.0001 -0.1890 -0.1059  0.0449 -0.0014
                                            0.0381 -0.0268 -0.0021 -0.0009  0.0173
                                            0.0085  0.0067 -0.0001 -0.0074  0.0022
                                            0.0017  0.0006 -0.0118 -0.0108  0.0380
                                           -0.0183
    22. (0.00656) RY*( 4) O   1           s( 37.12%)p 0.04(  1.62%)d 1.63( 60.58%)
                                                  f 0.02(  0.68%)
                                            0.0000  0.0135  0.6089 -0.0149  0.0081
                                           -0.0067  0.1099 -0.0101 -0.0054  0.0093
                                           -0.0586 -0.0005 -0.0138 -0.0032  0.0130
                                           -0.0012 -0.0012 -0.7006 -0.0318  0.0067
                                            0.0431 -0.0014  0.0007 -0.0380  0.0044
                                            0.0019 -0.1095 -0.0152  0.0116  0.3105
                                            0.0429 -0.0004 -0.0071  0.0045 -0.0034
                                            0.0107  0.0045 -0.0026 -0.0102  0.0068
                                           -0.0146  0.0060 -0.0664  0.0180 -0.0365
                                            0.0093
    23. (0.00629) RY*( 5) O   1           s(  0.58%)p 0.80(  0.46%)d99.99( 97.63%)
                                                  f 2.31(  1.33%)
                                            0.0000  0.0019  0.0757 -0.0050  0.0003
                                           -0.0031 -0.0061 -0.0035  0.0021 -0.0009
                                           -0.0255 -0.0020  0.0041 -0.0079 -0.0603
                                            0.0000 -0.0135  0.0159  0.0060 -0.0006
                                            0.7157  0.0725 -0.0165  0.6376  0.0571
                                           -0.0071 -0.1312 -0.0092 -0.0002 -0.1760
                                           -0.0127  0.0010 -0.0004 -0.0020  0.0028
                                           -0.0009  0.0326 -0.0159  0.0979 -0.0412
                                           -0.0172  0.0086 -0.0061  0.0007  0.0156
                                           -0.0082
    24. (0.00590) RY*( 6) O   1           s(  0.04%)p51.74(  2.16%)d99.99( 96.92%)
                                                  f21.16(  0.88%)
                                           -0.0000  0.0006  0.0204  0.0001  0.0003
                                            0.0017  0.0082  0.0009 -0.0029 -0.0116
                                           -0.0402 -0.0057 -0.0062 -0.0436 -0.1313
                                           -0.0226 -0.0002  0.1912  0.0243 -0.0056
                                            0.6417  0.0939 -0.0202 -0.6411 -0.0710
                                            0.0040  0.1437  0.0131  0.0021  0.2703
                                            0.0317 -0.0013 -0.0670  0.0278  0.0162
                                           -0.0059 -0.0377  0.0170  0.0035  0.0012
                                           -0.0341  0.0121  0.0141 -0.0053  0.0022
                                            0.0007
    25. (0.00579) RY*( 7) O   1           s(  7.38%)p 0.78(  5.79%)d11.66( 86.01%)
                                                  f 0.11(  0.82%)
                                           -0.0000  0.0100  0.2709 -0.0171 -0.0027
                                            0.0225  0.0909  0.0097 -0.0118 -0.0444
                                           -0.2091 -0.0330  0.0023  0.0107  0.0446
                                            0.0057 -0.0012  0.5059  0.0503 -0.0110
                                           -0.1463 -0.0176  0.0039  0.3307  0.0448
                                           -0.0028  0.1578  0.0005  0.0120  0.6579
                                            0.1014 -0.0131  0.0316 -0.0123  0.0434
                                           -0.0144 -0.0471  0.0179  0.0152 -0.0065
                                            0.0248 -0.0102  0.0326 -0.0189  0.0071
                                           -0.0001
    26. (0.00316) RY*( 8) O   1           s( 37.69%)p 0.21(  8.07%)d 1.42( 53.63%)
                                                  f 0.02(  0.62%)
                                            0.0000 -0.0076  0.6135  0.0044 -0.0194
                                           -0.0238  0.1712 -0.0272 -0.0176 -0.0042
                                           -0.2166 -0.0132 -0.0317  0.0007  0.0407
                                            0.0005  0.0010  0.2661  0.0479 -0.0050
                                           -0.0513 -0.0097  0.0010 -0.1123 -0.0282
                                            0.0010  0.3240  0.0506  0.0184 -0.5654
                                           -0.1394 -0.0024 -0.0103  0.0090 -0.0208
                                            0.0259  0.0158 -0.0144 -0.0034  0.0055
                                            0.0053 -0.0042  0.0430 -0.0477 -0.0146
                                            0.0017
    27. (0.00294) RY*( 9) O   1           s(  3.65%)p 2.33(  8.52%)d23.68( 86.42%)
                                                  f 0.39(  1.41%)
                                           -0.0000 -0.0036  0.1909  0.0069 -0.0015
                                            0.0410 -0.1241  0.0663 -0.0286  0.0275
                                           -0.2363  0.0450 -0.0477 -0.0049  0.0438
                                           -0.0061  0.0015  0.2747  0.0734 -0.0032
                                           -0.0475 -0.0122  0.0009 -0.1733 -0.0285
                                           -0.0024 -0.8509 -0.1457 -0.0125 -0.0665
                                           -0.0163 -0.0008 -0.0127  0.0116  0.0242
                                           -0.0199  0.0228 -0.0214 -0.0282  0.0182
                                           -0.0003 -0.0033 -0.0367  0.0131  0.0852
                                           -0.0444
    28. (0.00070) RY*(10) O   1           s( 37.95%)p 1.25( 47.59%)d 0.32( 12.06%)
                                                  f 0.06(  2.40%)
                                            0.0000 -0.0041 -0.0244  0.6141  0.0414
                                           -0.0039 -0.0295  0.0171 -0.0855 -0.0027
                                            0.0004 -0.6236 -0.2781 -0.0004  0.0034
                                           -0.0171  0.0284 -0.0356  0.1261 -0.0696
                                            0.0049  0.0119  0.0101  0.0216 -0.0216
                                            0.0530  0.0265 -0.2033  0.1189  0.0299
                                           -0.1764  0.0804 -0.0562 -0.0127  0.0121
                                            0.0156  0.0119  0.0564 -0.0715 -0.0130
                                            0.0286  0.0063  0.0004  0.0490  0.0720
                                            0.0572
    29. (0.00057) RY*(11) O   1           s(  0.06%)p99.99( 26.19%)d99.99( 63.86%)
                                                  f99.99(  9.89%)
                                            0.0000 -0.0007 -0.0089  0.0059  0.0228
                                           -0.0010  0.0024  0.0739 -0.0232 -0.0019
                                           -0.0047  0.0995 -0.0655 -0.0113 -0.0575
                                            0.4880  0.0083  0.0010 -0.0508 -0.0258
                                            0.0502 -0.5837 -0.1173 -0.0446  0.4676
                                            0.1071  0.0204 -0.0801 -0.0059  0.0276
                                           -0.1958 -0.0167 -0.2799  0.0306  0.0298
                                            0.0031 -0.0518  0.0202  0.0912 -0.0231
                                           -0.0676 -0.0101  0.0225  0.0186  0.0351
                                            0.0077
    30. (0.00058) RY*(12) O   1           s(  1.04%)p56.38( 58.83%)d33.87( 35.34%)
                                                  f 4.59(  4.79%)
                                           -0.0000  0.0078  0.0166  0.0855 -0.0528
                                           -0.0005 -0.0495 -0.7554  0.0516 -0.0047
                                           -0.0459 -0.0016  0.0488 -0.0038 -0.0004
                                           -0.0890 -0.0068  0.0329 -0.4802 -0.0661
                                            0.0007 -0.1091 -0.0387 -0.0123 -0.0397
                                           -0.0156 -0.0119 -0.3020  0.0104 -0.0173
                                            0.0888 -0.0487 -0.0064  0.0061  0.0911
                                            0.0215 -0.1235 -0.0052  0.1044 -0.0057
                                            0.0037 -0.0086  0.0513 -0.0654  0.0753
                                           -0.0139
    31. (0.00055) RY*(13) O   1           s(  0.09%)p99.99( 36.78%)d99.99( 44.64%)
                                                  f99.99( 18.49%)
                                           -0.0000  0.0019 -0.0019  0.0298 -0.0011
                                           -0.0002 -0.0092 -0.1725 -0.0056  0.0008
                                           -0.0090  0.1335 -0.0200  0.0130  0.0111
                                            0.5566  0.0978  0.0021 -0.0016  0.0063
                                           -0.0074  0.5641  0.1636 -0.0040  0.2527
                                            0.0789  0.0087 -0.1374 -0.0026  0.0070
                                           -0.1062 -0.0318  0.1571 -0.0059  0.0150
                                            0.0073 -0.0473  0.0127 -0.3808  0.0242
                                            0.0939 -0.0017  0.0040 -0.0069 -0.0533
                                            0.0119
    32. (0.00050) RY*(14) O   1           s(  0.26%)p36.58(  9.60%)d99.99( 69.81%)
                                                  f77.45( 20.33%)
                                           -0.0000 -0.0008 -0.0281 -0.0191  0.0384
                                            0.0050  0.0397  0.1112 -0.0092 -0.0106
                                           -0.0224  0.2437 -0.0918  0.0010  0.0038
                                           -0.1147 -0.0188 -0.0376 -0.2278 -0.1146
                                            0.0062  0.0402  0.0213  0.0494 -0.2460
                                           -0.0470  0.0080  0.0344 -0.0156  0.1340
                                           -0.7287 -0.1178  0.0419 -0.0121 -0.0286
                                           -0.0256 -0.0875  0.0260 -0.0451 -0.0122
                                            0.0514  0.0113  0.2356  0.0808  0.3520
                                            0.0255
    33. (0.00047) RY*(15) O   1           s(  0.36%)p36.26( 13.20%)d34.13( 12.42%)
                                                  f99.99( 74.02%)
                                            0.0000  0.0037 -0.0256  0.0482  0.0254
                                           -0.0001 -0.0163 -0.1568 -0.0447  0.0033
                                            0.0020  0.2741 -0.0945 -0.0009  0.0022
                                           -0.1421 -0.0285 -0.0071  0.2069  0.0452
                                            0.0008 -0.0329 -0.0048  0.0293 -0.0849
                                           -0.0023  0.0269 -0.2050 -0.0025  0.0571
                                           -0.1550 -0.0084 -0.2806 -0.0372  0.2722
                                            0.0353  0.5674  0.0783 -0.1047 -0.0295
                                            0.1312  0.0171  0.1958  0.0272 -0.4332
                                            0.0253
    34. (0.00044) RY*(16) O   1           s(  0.06%)p24.84(  1.53%)d50.03(  3.09%)
                                                  f99.99( 95.32%)
                                            0.0000 -0.0012  0.0049  0.0205  0.0131
[...]
   126. (0.00387) RY*( 3) H   4           s(  0.81%)p99.99( 98.10%)d 1.33(  1.08%)
                                            0.0158 -0.0488  0.0735  0.0099 -0.9074
                                            0.0256 -0.0240 -0.1497  0.0972 -0.0101
                                            0.3499  0.0456 -0.0032  0.0533 -0.0232
                                            0.0277 -0.0030  0.0042  0.0189 -0.0463
                                            0.0200  0.0613 -0.0012
   127. (0.00233) RY*( 4) H   4           s( 35.29%)p 1.81( 64.03%)d 0.02(  0.68%)
                                            0.0371  0.5306 -0.2580 -0.0588 -0.2663
                                           -0.0101  0.0504  0.6868 -0.2185  0.0569
                                           -0.2094  0.0047  0.0149  0.0651  0.0061
                                            0.0043  0.0003  0.0041  0.0012 -0.0184
                                           -0.0415 -0.0172 -0.0106
   128. (0.00075) RY*( 5) H   4           s( 54.51%)p 0.75( 40.92%)d 0.08(  4.56%)
                                           -0.0034  0.1799  0.7052 -0.1243  0.0316
                                            0.3679 -0.0174  0.2579  0.3788 -0.1784
                                           -0.0768  0.1577  0.0001 -0.0484  0.0240
                                            0.0339 -0.0217  0.0602  0.0028  0.1637
                                            0.0256  0.0925  0.0380
   129. (0.00042) RY*( 6) H   4           s(  0.70%)p99.99( 89.02%)d14.76( 10.28%)
                                           -0.0005 -0.0474  0.0362  0.0584 -0.0060
                                            0.7476  0.0147 -0.0413 -0.3227  0.2485
                                            0.0785 -0.3935 -0.0488 -0.0133  0.1976
                                           -0.0418 -0.0264 -0.1415 -0.0685 -0.1215
                                           -0.0341 -0.1399 -0.0314
   130. (0.00035) RY*( 7) H   4           s(  3.31%)p24.22( 80.15%)d 5.00( 16.54%)
                                           -0.0034  0.0687  0.1357 -0.0997 -0.0103
                                           -0.2922  0.0338  0.0837  0.1071 -0.2282
                                            0.1133 -0.7879 -0.1037  0.0478 -0.1125
                                           -0.0805  0.0251 -0.2351 -0.1530  0.2210
                                            0.0630 -0.0115  0.1082
   131. (0.00033) RY*( 8) H   4           s( 11.73%)p 4.16( 48.77%)d 3.37( 39.50%)
                                           -0.0157 -0.0170  0.3344 -0.0706  0.0075
                                           -0.3017  0.2803  0.0548  0.1710  0.5315
                                           -0.0125 -0.0522  0.0188  0.2704  0.1099
                                           -0.0022 -0.0190 -0.0120 -0.0701 -0.3054
                                           -0.3075 -0.2953 -0.1715
   132. (0.00028) RY*( 9) H   4           s(  3.40%)p 4.90( 16.68%)d23.49( 79.92%)
                                           -0.0012 -0.0512 -0.0081  0.1770 -0.0179
                                            0.0892  0.2638 -0.0709 -0.1373 -0.0983
                                           -0.0522  0.2207 -0.0631  0.5728 -0.0518
                                            0.1206  0.0610 -0.2987  0.0484  0.5485
                                           -0.0318 -0.2380  0.0082
   133. (0.00023) RY*(10) H   4           s(  3.45%)p 4.23( 14.57%)d23.78( 81.98%)
                                            0.0043 -0.0204  0.0604  0.1743  0.0359
                                            0.0193  0.1100  0.0027 -0.1584 -0.0429
                                            0.0741 -0.2296  0.2165  0.3150 -0.0227
                                            0.1974 -0.0424  0.7991 -0.0801  0.0918
                                           -0.0147  0.1297  0.0937
   134. (0.00017) RY*(11) H   4           s( 44.93%)p 0.54( 24.12%)d 0.69( 30.95%)
                                            0.0162  0.0170  0.3377  0.5785 -0.0599
                                           -0.2089  0.2149  0.0368 -0.3699 -0.0561
                                           -0.0048  0.0489  0.0640 -0.3563  0.1041
                                           -0.3639 -0.0767 -0.0396  0.0781  0.0981
                                           -0.1128  0.0575  0.0120
   135. (0.00016) RY*(12) H   4           s(  2.09%)p 1.12(  2.35%)d45.63( 95.56%)
                                            0.0061  0.0201  0.0965  0.1058  0.0739
                                           -0.0384  0.0645 -0.0053 -0.1068  0.0141
                                           -0.0128 -0.0240  0.0044  0.2782  0.1050
                                            0.2694  0.0977 -0.3310  0.0721 -0.2821
                                           -0.0770  0.7607  0.0784
   136. (0.00015) RY*(13) H   4           s(  2.91%)p 0.89(  2.59%)d32.53( 94.51%)
                                            0.0045  0.0069  0.0843  0.1479 -0.0361
                                           -0.1043  0.0580  0.0183 -0.0844 -0.0322
                                           -0.0188 -0.0345 -0.0170 -0.3947  0.1021
                                            0.8303  0.1260 -0.0724 -0.0919  0.0219
                                            0.0437 -0.2370 -0.0371
   137. (0.00012) RY*(14) H   4           s(  0.48%)p99.99( 66.36%)d68.56( 33.15%)
                                            0.0042  0.0000  0.0545  0.0430  0.0015
                                           -0.0353 -0.0040 -0.0025 -0.1319 -0.0583
                                           -0.0027  0.1672 -0.7833  0.0564 -0.0017
                                           -0.0376 -0.0360  0.1458 -0.5285 -0.1119
                                            0.0122  0.0378  0.1050
   138. (0.00011) RY*(15) H   4           s(  4.57%)p12.71( 58.03%)d 8.19( 37.40%)
                                            0.0019  0.0215  0.1912  0.0928  0.0056
                                           -0.0461 -0.6890  0.0076 -0.2156  0.2374
                                           -0.0038 -0.0030  0.0222  0.0531 -0.4618
                                            0.0706  0.0614 -0.0410 -0.0485  0.1594
                                           -0.3223  0.0203 -0.1241
   139. (0.00009) RY*(16) H   4           s( 16.70%)p 0.43(  7.21%)d 4.56( 76.09%)
   140. (0.00006) RY*(17) H   4           s(  0.17%)p 2.69(  0.46%)d99.99( 99.37%)
   141. (0.00006) RY*(18) H   4           s( 28.63%)p 1.18( 33.82%)d 1.31( 37.55%)
   142. (0.00006) RY*(19) H   4           s(  7.94%)p 2.69( 21.35%)d 8.91( 70.71%)
   143. (0.00004) RY*(20) H   4           s(  0.06%)p99.99( 31.32%)d99.99( 68.62%)
   144. (0.00004) RY*(21) H   4           s(  2.75%)p11.48( 31.57%)d23.89( 65.68%)
   145. (0.00002) RY*(22) H   4           s(  9.03%)p 4.05( 36.55%)d 6.03( 54.42%)
   146. (0.01948) BD*( 1) O   1 - H   2  
                ( 15.98%)   0.3998* O   1 s( 15.21%)p 5.55( 84.42%)d 0.02(  0.36%)
                                                  f 0.00(  0.01%)
                                           -0.0001 -0.3899 -0.0007 -0.0014  0.0037
                                           -0.9185  0.0181 -0.0052  0.0018  0.0034
                                            0.0100 -0.0002  0.0029 -0.0032 -0.0020
                                            0.0000 -0.0005  0.0227 -0.0031 -0.0014
                                           -0.0053  0.0012 -0.0000  0.0014  0.0005
                                           -0.0004 -0.0452  0.0080 -0.0050  0.0303
                                           -0.0030  0.0018  0.0001 -0.0001  0.0094
                                           -0.0009 -0.0000  0.0001  0.0002 -0.0000
                                            0.0023 -0.0009 -0.0026 -0.0021 -0.0014
                                            0.0002
                ( 84.02%)  -0.9166* H   2 s( 99.77%)p 0.00(  0.19%)d 0.00(  0.04%)
                                           -0.9988  0.0020 -0.0001  0.0000 -0.0065
                                           -0.0428  0.0022  0.0013  0.0008  0.0011
                                           -0.0011 -0.0007 -0.0000 -0.0010  0.0028
                                           -0.0006 -0.0005  0.0014  0.0003 -0.0157
                                            0.0035  0.0122 -0.0014
   147. (0.03065) BD*( 1) O   1 - H   4  
                ( 13.27%)   0.3643* O   1 s( 17.39%)p 4.73( 82.26%)d 0.02(  0.34%)
                                                  f 0.00(  0.01%)
                                            0.0001  0.4170 -0.0052 -0.0034 -0.0011
                                           -0.1792  0.0111  0.0008  0.0004 -0.8737
                                            0.0164 -0.0072  0.0051  0.1635 -0.0026
                                            0.0017 -0.0016 -0.0108  0.0052 -0.0003
                                            0.0019 -0.0010  0.0001 -0.0189  0.0014
                                            0.0001 -0.0459  0.0061 -0.0017 -0.0267
                                           -0.0005  0.0017 -0.0042  0.0005  0.0018
                                           -0.0006  0.0083 -0.0010 -0.0025 -0.0004
                                            0.0011  0.0002  0.0023  0.0017 -0.0015
                                            0.0035
                ( 86.73%)  -0.9313* H   4 s( 99.80%)p 0.00(  0.19%)d 0.00(  0.01%)
                                            0.9986 -0.0283  0.0038 -0.0003  0.0258
                                            0.0030  0.0010 -0.0109  0.0300  0.0129
                                            0.0054 -0.0052 -0.0025  0.0042 -0.0045
                                           -0.0006  0.0009 -0.0026  0.0004  0.0005
                                            0.0005 -0.0080 -0.0001


 NHO Directionality and "Bond Bending" (deviations from line of nuclear centers)

         [Thresholds for printing:  angular deviation  >  1.0 degree]
                                    hybrid p-character > 25.0%
                                    orbital occupancy  >  0.10e

                                Line of Centers        Hybrid 1              Hybrid 2
                                ---------------  -------------------   ------------------
                NBO               Theta   Phi    Theta   Phi    Dev    Theta   Phi    Dev
 ========================================================================================
     1. BD (   1) O   1 - H   2    90.0    0.0    89.6  359.0   1.1      --     --    --
    13. LP (   1) O   1             --     --     96.4  127.6   --       --     --    --
    14. LP (   2) O   1             --     --    169.9  268.3   --       --     --    --
    16. LP (   2) I   3             --     --    171.4   38.8   --       --     --    --
    17. LP (   3) I   3             --     --     95.3  166.8   --       --     --    --
    18. LP (   4) I   3             --     --     83.1   77.3   --       --     --    --


 Natural Bond Orbitals (Summary):

           NBO                  Occupancy  
 -----------------------------------------------
 Molecular unit  1  (H2O)
     1. BD (   1) O   1 - H   2          1.96423
     2. BD (   1) O   1 - H   4          1.96456
     3. CR (   1) O   1                  1.99992
    13. LP (   1) O   1                  1.97252
    14. LP (   2) O   1                  1.96146
    19. RY*(   1) O   1                  0.01995
    20. RY*(   2) O   1                  0.01598
    21. RY*(   3) O   1                  0.00979
    22. RY*(   4) O   1                  0.00656
    23. RY*(   5) O   1                  0.00629
    24. RY*(   6) O   1                  0.00590
    25. RY*(   7) O   1                  0.00579
    26. RY*(   8) O   1                  0.00316
    27. RY*(   9) O   1                  0.00294
    28. RY*(  10) O   1                  0.00070
    29. RY*(  11) O   1                  0.00057
    30. RY*(  12) O   1                  0.00058
    31. RY*(  13) O   1                  0.00055
    32. RY*(  14) O   1                  0.00050
    33. RY*(  15) O   1                  0.00047
    34. RY*(  16) O   1                  0.00044
    35. RY*(  17) O   1                  0.00044
    36. RY*(  18) O   1                  0.00045
    37. RY*(  19) O   1                  0.00042
    38. RY*(  20) O   1                  0.00042
    39. RY*(  21) O   1                  0.00038
    40. RY*(  22) O   1                  0.00034
    41. RY*(  23) O   1                  0.00029
    42. RY*(  24) O   1                  0.00026
    43. RY*(  25) O   1                  0.00024
    44. RY*(  26) O   1                  0.00015
    45. RY*(  27) O   1                  0.00008
    46. RY*(  28) O   1                  0.00009
    47. RY*(  29) O   1                  0.00008
    48. RY*(  30) O   1                  0.00008
    49. RY*(  31) O   1                  0.00006
    50. RY*(  32) O   1                  0.00007
    51. RY*(  33) O   1                  0.00007
    52. RY*(  34) O   1                  0.00006
    53. RY*(  35) O   1                  0.00007
    54. RY*(  36) O   1                  0.00006
    55. RY*(  37) O   1                  0.00006
    56. RY*(  38) O   1                  0.00005
    57. RY*(  39) O   1                  0.00002
    58. RY*(  40) O   1                  0.00001
    59. RY*(  41) O   1                 -0.00008
    60. RY*(   1) H   2                  0.00164
    61. RY*(   2) H   2                  0.00153
    62. RY*(   3) H   2                  0.00062
    63. RY*(   4) H   2                  0.00032
    64. RY*(   5) H   2                  0.00021
    65. RY*(   6) H   2                  0.00015
    66. RY*(   7) H   2                  0.00013
    67. RY*(   8) H   2                  0.00011
    68. RY*(   9) H   2                  0.00011
    69. RY*(  10) H   2                  0.00008
    70. RY*(  11) H   2                  0.00006
    71. RY*(  12) H   2                  0.00006
    72. RY*(  13) H   2                  0.00004
    73. RY*(  14) H   2                  0.00004
    74. RY*(  15) H   2                  0.00004
    75. RY*(  16) H   2                  0.00003
    76. RY*(  17) H   2                  0.00003
    77. RY*(  18) H   2                  0.00003
    78. RY*(  19) H   2                  0.00002
    79. RY*(  20) H   2                  0.00001
    80. RY*(  21) H   2                  0.00001
    81. RY*(  22) H   2                  0.00001
   124. RY*(   1) H   4                  0.00853
   125. RY*(   2) H   4                  0.00451
   126. RY*(   3) H   4                  0.00387
   127. RY*(   4) H   4                  0.00233
   128. RY*(   5) H   4                  0.00075
   129. RY*(   6) H   4                  0.00042
   130. RY*(   7) H   4                  0.00035
   131. RY*(   8) H   4                  0.00033
   132. RY*(   9) H   4                  0.00028
   133. RY*(  10) H   4                  0.00023
   134. RY*(  11) H   4                  0.00017
   135. RY*(  12) H   4                  0.00016
   136. RY*(  13) H   4                  0.00015
   137. RY*(  14) H   4                  0.00012
   138. RY*(  15) H   4                  0.00011
   139. RY*(  16) H   4                  0.00009
   140. RY*(  17) H   4                  0.00006
   141. RY*(  18) H   4                  0.00006
   142. RY*(  19) H   4                  0.00006
   143. RY*(  20) H   4                  0.00004
   144. RY*(  21) H   4                  0.00004
   145. RY*(  22) H   4                  0.00002
   146. BD*(   1) O   1 - H   2          0.01948
   147. BD*(   1) O   1 - H   4          0.03065
       -------------------------------
              Total Lewis    9.86269  ( 98.3800%)
        Valence non-Lewis    0.05014  (  0.5001%)
        Rydberg non-Lewis    0.11227  (  1.1199%)
       -------------------------------
            Total unit  1   10.02509  (100.0000%)
           Charge unit  1   -0.02509

 Molecular unit  2  (I)
     4. CR (   1) I   3                  2.00003
     5. CR (   2) I   3                  2.00007
     6. CR (   3) I   3                  2.00005
     7. CR (   4) I   3                  2.00007
     8. CR (   5) I   3                  1.99675
     9. CR (   6) I   3                  1.99678
    10. CR (   7) I   3                  1.99676
    11. CR (   8) I   3                  1.99673
    12. CR (   9) I   3                  1.99676
    15. LP (   1) I   3                  1.98038
    16. LP (   2) I   3                  1.95168
    17. LP (   3) I   3                  1.95149
    18. LP (   4) I   3                  1.93721
    82. RY*(   1) I   3                  0.02028
    83. RY*(   2) I   3                  0.02027
    84. RY*(   3) I   3                  0.02018
    85. RY*(   4) I   3                  0.02013
    86. RY*(   5) I   3                  0.02014
    87. RY*(   6) I   3                  0.01105
    88. RY*(   7) I   3                  0.01101
    89. RY*(   8) I   3                  0.01013
    90. RY*(   9) I   3                  0.00389
    91. RY*(  10) I   3                  0.00278
    92. RY*(  11) I   3                  0.00278
    93. RY*(  12) I   3                  0.00276
    94. RY*(  13) I   3                  0.00276
    95. RY*(  14) I   3                  0.00271
    96. RY*(  15) I   3                  0.00271
    97. RY*(  16) I   3                  0.00270
    98. RY*(  17) I   3                  0.00168
    99. RY*(  18) I   3                  0.00168
   100. RY*(  19) I   3                  0.00141
   101. RY*(  20) I   3                  0.00141
   102. RY*(  21) I   3                  0.00118
   103. RY*(  22) I   3                  0.00074
   104. RY*(  23) I   3                  0.00074
   105. RY*(  24) I   3                  0.00069
   106. RY*(  25) I   3                  0.00050
   107. RY*(  26) I   3                  0.00044
   108. RY*(  27) I   3                  0.00043
   109. RY*(  28) I   3                  0.00043
   110. RY*(  29) I   3                  0.00042
   111. RY*(  30) I   3                  0.00040
   112. RY*(  31) I   3                  0.00040
   113. RY*(  32) I   3                  0.00033
   114. RY*(  33) I   3                  0.00016
   115. RY*(  34) I   3                  0.00016
   116. RY*(  35) I   3                  0.00014
   117. RY*(  36) I   3                  0.00014
   118. RY*(  37) I   3                  0.00010
   119. RY*(  38) I   3                  0.00007
   120. RY*(  39) I   3                  0.00007
   121. RY*(  40) I   3                  0.00006
   122. RY*(  41) I   3                  0.00007
   123. RY*(  42) I   3                  0.00000
       -------------------------------
              Total Lewis   53.80475  ( 99.6848%)
        Valence non-Lewis    0.00000  (  0.0000%)
        Rydberg non-Lewis    0.17015  (  0.3152%)
       -------------------------------
            Total unit  2   53.97491  (100.0000%)
           Charge unit  2   -0.97491
 Leave Link  607 at Tue Oct 19 17:06:35 2021, MaxMem= 16106127360 cpu:              64.0 elap:               2.3
 (Enter /sw/contrib/gaussian/g16/B01/g16/l9999.exe)
 1\1\GINC-N2398\SP\RMP2-FC\Gen\H2I1O1(1-)\CGAVINH\19-Oct-2021\0\\#p pop
 =NBO SP NoSymm mp2/gen Pseudo=read density=current\\title\\-1,1\O\X,1,
 10.\H,1,0.9609077,2,90.\I,1,3.50850362,2,90.,3,101.85830594,0\H,1,0.98
 151,2,80.,3,101.85830594,0\\Version=ES64L-G16RevB.01\HF=-370.8162594\M
 P2=-371.3130244\RMSD=2.911e-09\Dipole=0.7094615,0.7180442,0.0537291\Qu
 adrupole=12.664545,-25.0180603,12.3535153,-7.4128782,-0.0305024,-0.028
 7567\PG=C01 [X(H2I1O1)]\\@


 WHEN ALL ELSE FAILS, LOOK AT THE SCHRODINGER EQUATION.
     -- RUSSELL T. PACK, APRIL 1978
 Job cpu time:       0 days  0 hours  4 minutes 54.1 seconds.
 Elapsed time:       0 days  0 hours  0 minutes 17.4 seconds.
 File lengths (MBytes):  RWF=     16 Int=      0 D2E=      0 Chk=      8 Scr=      1
 Normal termination of Gaussian 16 at Tue Oct 19 17:06:35 2021.
