 Entering Gaussian System, Link 0=g16
 Input=ihod_oop_00_sp.gjf
 Output=ihod_oop_00_sp.log
 Initial command:
 /sw/contrib/gaussian/g16/B01/g16/l1.exe "/scr/Gau-9614.inp" -scrdir="/scr/"
 Entering Link 1 = /sw/contrib/gaussian/g16/B01/g16/l1.exe PID=      9616.
  
 Copyright (c) 1988-2017, Gaussian, Inc.  All Rights Reserved.
  
 This is part of the Gaussian(R) 16 program.  It is based on
 the Gaussian(R) 09 system (copyright 2009, Gaussian, Inc.),
 the Gaussian(R) 03 system (copyright 2003, Gaussian, Inc.),
 the Gaussian(R) 98 system (copyright 1998, Gaussian, Inc.),
 the Gaussian(R) 94 system (copyright 1995, Gaussian, Inc.),
 the Gaussian 92(TM) system (copyright 1992, Gaussian, Inc.),
 the Gaussian 90(TM) system (copyright 1990, Gaussian, Inc.),
 the Gaussian 88(TM) system (copyright 1988, Gaussian, Inc.),
 the Gaussian 86(TM) system (copyright 1986, Carnegie Mellon
 University), and the Gaussian 82(TM) system (copyright 1983,
 Carnegie Mellon University). Gaussian is a federally registered
 trademark of Gaussian, Inc.
  
 This software contains proprietary and confidential information,
 including trade secrets, belonging to Gaussian, Inc.
  
 This software is provided under written license and may be
 used, copied, transmitted, or stored only in accord with that
 written license.
  
 The following legend is applicable only to US Government
 contracts under FAR:
  
                    RESTRICTED RIGHTS LEGEND
  
 Use, reproduction and disclosure by the US Government is
 subject to restrictions as set forth in subparagraphs (a)
 and (c) of the Commercial Computer Software - Restricted
 Rights clause in FAR 52.227-19.
  
 Gaussian, Inc.
 340 Quinnipiac St., Bldg. 40, Wallingford CT 06492
  
  
 ---------------------------------------------------------------
 Warning -- This program may not be used in any manner that
 competes with the business of Gaussian, Inc. or will provide
 assistance to any competitor of Gaussian, Inc.  The licensee
 of this program is prohibited from giving any competitor of
 Gaussian, Inc. access to this program.  By using this program,
 the user acknowledges that Gaussian, Inc. is engaged in the
 business of creating and licensing software in the field of
 computational chemistry and represents and warrants to the
 licensee that it is not a competitor of Gaussian, Inc. and that
 it will not use this program in any manner prohibited above.
 ---------------------------------------------------------------
  

 Cite this work as:
 Gaussian 16, Revision B.01,
 M. J. Frisch, G. W. Trucks, H. B. Schlegel, G. E. Scuseria, 
 M. A. Robb, J. R. Cheeseman, G. Scalmani, V. Barone, 
 G. A. Petersson, H. Nakatsuji, X. Li, M. Caricato, A. V. Marenich, 
 J. Bloino, B. G. Janesko, R. Gomperts, B. Mennucci, H. P. Hratchian, 
 J. V. Ortiz, A. F. Izmaylov, J. L. Sonnenberg, D. Williams-Young, 
 F. Ding, F. Lipparini, F. Egidi, J. Goings, B. Peng, A. Petrone, 
 T. Henderson, D. Ranasinghe, V. G. Zakrzewski, J. Gao, N. Rega, 
 G. Zheng, W. Liang, M. Hada, M. Ehara, K. Toyota, R. Fukuda, 
 J. Hasegawa, M. Ishida, T. Nakajima, Y. Honda, O. Kitao, H. Nakai, 
 T. Vreven, K. Throssell, J. A. Montgomery, Jr., J. E. Peralta, 
 F. Ogliaro, M. J. Bearpark, J. J. Heyd, E. N. Brothers, K. N. Kudin, 
 V. N. Staroverov, T. A. Keith, R. Kobayashi, J. Normand, 
 K. Raghavachari, A. P. Rendell, J. C. Burant, S. S. Iyengar, 
 J. Tomasi, M. Cossi, J. M. Millam, M. Klene, C. Adamo, R. Cammi, 
 J. W. Ochterski, R. L. Martin, K. Morokuma, O. Farkas, 
 J. B. Foresman, and D. J. Fox, Gaussian, Inc., Wallingford CT, 2016.
 
 ******************************************
 Gaussian 16:  ES64L-G16RevB.01 20-Dec-2017
                26-Oct-2021 
 ******************************************
 %nproc=28
 Will use up to   28 processors via shared memory.
 %mem=120GB
 %chk=/gscratch/ilahie/mccoygrp/coire_hocl/oop_s_rOH_opt/ihod/ihod_oop_00.chk
 --------------------------------------------------------
 #p pop=NBO SP NoSymm mp2/gen Pseudo=read density=current
 --------------------------------------------------------
 1/30=1,38=1,172=1/1;
 2/12=2,15=1,17=6,18=5,40=1/2;
 3/5=7,11=9,16=1,17=8,25=1,30=1,71=1/1,2,3;
 4//1;
 5/5=2,38=5/2;
 8/6=4,10=1/1;
 9/15=1,16=-3/6;
 10/5=1,13=10,31=1/2;
 6/7=2,8=2,9=2,10=2,22=-1,40=1/1,7;
 99/5=1,9=1/99;
 Leave Link    1 at Tue Oct 26 12:33:03 2021, MaxMem= 16106127360 cpu:               2.3 elap:               0.1
 (Enter /sw/contrib/gaussian/g16/B01/g16/l101.exe)
 -----
 title
 -----
 Symbolic Z-matrix:
 Charge = -1 Multiplicity = 1
 O
 X                    1     10. 
 H(iso=2)             1    r1       2     90. 
 I                    1    r2       2     90.      3    a1       0
 H                    1    r3       2    oop      3    a1       0
       Variables:
  r1                    0.96091                  
  r2                    3.5085                   
  r3                    0.98234                  
  a1                  101.85832                  
  OOP                  90.                       
 
 ITRead=  0  0  0  0
 MicOpt= -1 -1 -1 -1
 NAtoms=      4 NQM=        4 NQMF=       0 NMMI=      0 NMMIF=      0
                NMic=       0 NMicF=      0.
                    Isotopes and Nuclear Properties:
 (Nuclear quadrupole moments (NQMom) in fm**2, nuclear magnetic moments (NMagM)
  in nuclear magnetons)

  Atom         1           2           3           4
 IAtWgt=          16           2         127           1
 AtmWgt=  15.9949146   2.0141018 126.9004000   1.0078250
 NucSpn=           0           2           5           1
 AtZEff=  -0.0000000  -0.0000000  -0.0000000  -0.0000000
 NQMom=    0.0000000   0.2860000 -71.0000000   0.0000000
 NMagM=    0.0000000   0.8574380   2.8132800   2.7928460
 AtZNuc=   8.0000000   1.0000000  53.0000000   1.0000000
 Leave Link  101 at Tue Oct 26 12:33:03 2021, MaxMem= 16106127360 cpu:               3.3 elap:               0.2
 (Enter /sw/contrib/gaussian/g16/B01/g16/l202.exe)
                          Input orientation:                          
 ---------------------------------------------------------------------
 Center     Atomic      Atomic             Coordinates (Angstroms)
 Number     Number       Type             X           Y           Z
 ---------------------------------------------------------------------
      1          8           0        0.000000    0.000000    0.000000
      2          1           0        0.960908    0.000000    0.000000
      3         53           0       -0.720970   -3.433625    0.000000
      4          1           0       -0.201863   -0.961376    0.000000
 ---------------------------------------------------------------------
                    Distance matrix (angstroms):
                    1          2          3          4
     1  O    0.000000
     2  H    0.960908   0.000000
     3  I    3.508501   3.823414   0.000000
     4  H    0.982340   1.508734   2.526161   0.000000
 Symmetry turned off by external request.
 Stoichiometry    H2IO(1-)
 Framework group  CS[SG(H2IO)]
 Deg. of freedom     5
 Full point group                 CS      NOp   2
 Rotational constants (GHZ):         322.6616458           2.5117529           2.4923512
 Leave Link  202 at Tue Oct 26 12:33:03 2021, MaxMem= 16106127360 cpu:               0.2 elap:               0.0
 (Enter /sw/contrib/gaussian/g16/B01/g16/l301.exe)
 General basis read from cards:  (5D, 7F)
 Centers:       1      2      4
 aug-cc-pVTZ
 ****
 Centers:       3
 S 11 1.00
     Exponent=  5.5465000000D+03 Coefficients=  1.5600000000D-04
     Exponent=  8.3821400000D+02 Coefficients=  9.8600000000D-04
     Exponent=  1.8218700000D+02 Coefficients=  2.7920000000D-03
     Exponent=  3.1212300000D+01 Coefficients= -4.3251000000D-02
     Exponent=  1.9531400000D+01 Coefficients=  2.3413400000D-01
     Exponent=  8.2409900000D+00 Coefficients= -7.5094300000D-01
     Exponent=  2.1945500000D+00 Coefficients=  8.8296800000D-01
     Exponent=  1.1091100000D+00 Coefficients=  4.6206100000D-01
     Exponent=  3.7464100000D-01 Coefficients=  2.2286000000D-02
     Exponent=  1.7708000000D-01 Coefficients= -4.3530000000D-03
     Exponent=  8.1061000000D-02 Coefficients=  1.1020000000D-03
 S 11 1.00
     Exponent=  5.5465000000D+03 Coefficients= -7.3000000000D-05
     Exponent=  8.3821400000D+02 Coefficients= -5.0800000000D-04
     Exponent=  1.8218700000D+02 Coefficients= -1.1580000000D-03
     Exponent=  3.1212300000D+01 Coefficients=  1.2193000000D-02
     Exponent=  1.9531400000D+01 Coefficients= -8.7854000000D-02
     Exponent=  8.2409900000D+00 Coefficients=  3.3820000000D-01
     Exponent=  2.1945500000D+00 Coefficients= -5.7655000000D-01
     Exponent=  1.1091100000D+00 Coefficients= -4.0929800000D-01
     Exponent=  3.7464100000D-01 Coefficients=  5.6745900000D-01
     Exponent=  1.7708000000D-01 Coefficients=  6.1248900000D-01
     Exponent=  8.1061000000D-02 Coefficients=  1.4323100000D-01
 S 1 1.00
     Exponent=  3.7464100000D-01 Coefficients=  1.0000000000D+00
 S 1 1.00
     Exponent=  1.7708000000D-01 Coefficients=  1.0000000000D+00
 S 1 1.00
     Exponent=  1.0010000000D-01 Coefficients=  1.0000000000D+00
 S 1 1.00
     Exponent=  4.1200000000D-02 Coefficients=  1.0000000000D+00
 P 9 1.00
     Exponent=  1.8898800000D+02 Coefficients=  5.8500000000D-04
     Exponent=  2.1286800000D+01 Coefficients=  3.6923000000D-02
     Exponent=  1.0039600000D+01 Coefficients= -2.3532400000D-01
     Exponent=  3.4518000000D+00 Coefficients=  3.4148300000D-01
     Exponent=  1.9745600000D+00 Coefficients=  5.3478800000D-01
     Exponent=  1.0242000000D+00 Coefficients=  2.6514100000D-01
     Exponent=  4.4943700000D-01 Coefficients=  2.5787000000D-02
     Exponent=  1.8664800000D-01 Coefficients=  5.2200000000D-04
     Exponent=  7.3481000000D-02 Coefficients=  6.0600000000D-04
 P 9 1.00
     Exponent=  1.8898800000D+02 Coefficients= -2.5600000000D-04
     Exponent=  2.1286800000D+01 Coefficients= -1.1682000000D-02
     Exponent=  1.0039600000D+01 Coefficients=  8.3192000000D-02
     Exponent=  3.4518000000D+00 Coefficients= -1.5697000000D-01
     Exponent=  1.9745600000D+00 Coefficients= -2.2451800000D-01
     Exponent=  1.0242000000D+00 Coefficients= -1.1445100000D-01
     Exponent=  4.4943700000D-01 Coefficients=  3.7535600000D-01
     Exponent=  1.8664800000D-01 Coefficients=  5.7513600000D-01
     Exponent=  7.3481000000D-02 Coefficients=  2.4591700000D-01
 P 1 1.00
     Exponent=  5.9810000000D-01 Coefficients=  1.0000000000D+00
 P 1 1.00
     Exponent=  9.6180000000D-02 Coefficients=  1.0000000000D+00
 P 1 1.00
     Exponent=  3.5900000000D-02 Coefficients=  1.0000000000D+00
 D 9 1.00
     Exponent=  1.3266200000D+02 Coefficients=  5.7200000000D-04
     Exponent=  3.7605400000D+01 Coefficients=  4.4020000000D-03
     Exponent=  1.0389100000D+01 Coefficients= -4.0922000000D-02
     Exponent=  6.4901700000D+00 Coefficients=  9.9661000000D-02
     Exponent=  3.4545100000D+00 Coefficients=  3.2266300000D-01
     Exponent=  1.8441300000D+00 Coefficients=  4.0034300000D-01
     Exponent=  9.6247800000D-01 Coefficients=  2.6830600000D-01
     Exponent=  4.7285300000D-01 Coefficients=  8.4847000000D-02
     Exponent=  1.9320000000D-01 Coefficients=  7.6320000000D-03
 D 1 1.00
     Exponent=  4.7285300000D-01 Coefficients=  1.0000000000D+00
 D 1 1.00
     Exponent=  1.9320000000D-01 Coefficients=  1.0000000000D+00
 D 1 1.00
     Exponent=  7.8200000000D-02 Coefficients=  1.0000000000D+00
 F 1 1.00
     Exponent=  4.0640000000D-01 Coefficients=  1.0000000000D+00
 F 1 1.00
     Exponent=  1.8480000000D-01 Coefficients=  1.0000000000D+00
 ****
 ======================================================================================================
                                       Pseudopotential Parameters
 ======================================================================================================
  Center     Atomic      Valence      Angular      Power
  Number     Number     Electrons     Momentum     of R      Exponent        Coefficient   SO-Coeffient
 ======================================================================================================
    1          8
                                   No pseudopotential on this center.
    2          1
                                   No pseudopotential on this center.
    3         53           25
                                      G and up 
                                                     2        1.0000000        0.00000000    0.00000000
                                      S - G
                                                     2       40.0333760       49.98964900    0.00000000
                                                     2       17.3005760      281.00655600    0.00000000
                                                     2        8.8517200       61.41673900    0.00000000
                                      P - G
                                                     2       15.7201410       67.41623900    0.00000000
                                                     2       15.2082220      134.80769600    0.00000000
                                                     2        8.2941860       14.56654800    0.00000000
                                                     2        7.7539490       28.96842200    0.00000000
                                      D - G
                                                     2       13.8177510       35.53875600    0.00000000
                                                     2       13.5878050       53.33975900    0.00000000
                                                     2        6.9476300        9.71646600    0.00000000
                                                     2        6.9600990       14.97750000    0.00000000
                                      F - G
                                                     2       18.5229500      -20.17661800    0.00000000
                                                     2       18.2510350      -26.08807700    0.00000000
                                                     2        7.5579010       -0.22043400    0.00000000
                                                     2        7.5974040       -0.22164600    0.00000000
    4          1
                                   No pseudopotential on this center.
 ======================================================================================================
 Ernie: Thresh=  0.10000D-02 Tol=  0.10000D-05 Strict=F.
 Ernie:  10 primitive shells out of 113 were deleted.
   147 basis functions,   296 primitive gaussians,   170 cartesian basis functions
    18 alpha electrons       18 beta electrons
       nuclear repulsion energy        47.9284164864 Hartrees.
 IExCor=    0 DFT=F Ex=HF Corr=None ExCW=0 ScaHFX=  1.000000
 ScaDFX=  1.000000  1.000000  1.000000  1.000000 ScalE2=  1.000000  1.000000
 IRadAn=      5 IRanWt=     -1 IRanGd=            0 ICorTp=0 IEmpDi=  4
 NAtoms=    4 NActive=    4 NUniq=    4 SFac= 1.00D+00 NAtFMM=   60 NAOKFM=F Big=F
 Integral buffers will be    131072 words long.
 Raffenetti 1 integral format.
 Two-electron integral symmetry is turned off.
 Leave Link  301 at Tue Oct 26 12:33:03 2021, MaxMem= 16106127360 cpu:               2.8 elap:               0.1
 (Enter /sw/contrib/gaussian/g16/B01/g16/l302.exe)
 NPDir=0 NMtPBC=     1 NCelOv=     1 NCel=       1 NClECP=     1 NCelD=      1
         NCelK=      1 NCelE2=     1 NClLst=     1 CellRange=     0.0.
 One-electron integrals computed using PRISM.
   1 Symmetry operations used in ECPInt.
 ECPInt:  NShTT=    1225 NPrTT=    5557 LenC2=    1226 LenP2D=    4931.
 LDataN:  DoStor=T MaxTD1= 7 Len=  274
 NBasis=   147 RedAO= T EigKep=  2.75D-04  NBF=   147
 NBsUse=   147 1.00D-06 EigRej= -1.00D+00 NBFU=   147
 Leave Link  302 at Tue Oct 26 12:33:03 2021, MaxMem= 16106127360 cpu:               6.5 elap:               0.3
 (Enter /sw/contrib/gaussian/g16/B01/g16/l303.exe)
 DipDrv:  MaxL=1.
 Leave Link  303 at Tue Oct 26 12:33:03 2021, MaxMem= 16106127360 cpu:               5.8 elap:               0.3
 (Enter /sw/contrib/gaussian/g16/B01/g16/l401.exe)
 ExpMin= 2.53D-02 ExpMax= 1.53D+04 ExpMxC= 5.22D+02 IAcc=3 IRadAn=         5 AccDes= 0.00D+00
 Harris functional with IExCor=  205 and IRadAn=       5 diagonalized for initial guess.
 HarFok:  IExCor=  205 AccDes= 0.00D+00 IRadAn=         5 IDoV= 1 UseB2=F ITyADJ=14
 ICtDFT=  3500011 ScaDFX=  1.000000  1.000000  1.000000  1.000000
 Defaulting to unpruned grid for atomic number  53.
 FoFCou: FMM=F IPFlag=           0 FMFlag=      100000 FMFlg1=           0
         NFxFlg=           0 DoJE=T BraDBF=F KetDBF=T FulRan=T
         wScrn=  0.000000 ICntrl=       500 IOpCl=  0 I1Cent=   200000004 NGrid=           0
         NMat0=    1 NMatS0=      1 NMatT0=    0 NMatD0=    1 NMtDS0=    0 NMtDT0=    0
 Symmetry not used in FoFCou.
 Harris En= -372.682198569225    
 JPrj=0 DoOrth=F DoCkMO=F.
 Leave Link  401 at Tue Oct 26 12:33:04 2021, MaxMem= 16106127360 cpu:               6.3 elap:               0.3
 (Enter /sw/contrib/gaussian/g16/B01/g16/l502.exe)
 Keep R1 ints in memory in canonical form, NReq=117069251.
 FoFCou: FMM=F IPFlag=           0 FMFlag=           0 FMFlg1=           0
         NFxFlg=           0 DoJE=F BraDBF=F KetDBF=F FulRan=T
         wScrn=  0.000000 ICntrl=       600 IOpCl=  0 I1Cent=           0 NGrid=           0
         NMat0=    1 NMatS0=  10878 NMatT0=    0 NMatD0=    1 NMtDS0=    0 NMtDT0=    0
 Symmetry not used in FoFCou.
 Two-electron integral symmetry not used.
 Closed shell SCF:
 Using DIIS extrapolation, IDIIS=  1040.
 NGot= 16106127360 LenX= 16046892795 LenY= 16046863454
 Requested convergence on RMS density matrix=1.00D-08 within 128 cycles.
 Requested convergence on MAX density matrix=1.00D-06.
 Requested convergence on             energy=1.00D-06.
 No special actions if energy rises.

 Cycle   1  Pass 1  IDiag  1:
 E= -370.655840807362    
 DIIS: error= 4.04D-02 at cycle   1 NSaved=   1.
 NSaved= 1 IEnMin= 1 EnMin= -370.655840807362     IErMin= 1 ErrMin= 4.04D-02
 ErrMax= 4.04D-02  0.00D+00 EMaxC= 1.00D-01 BMatC= 3.71D-01 BMatP= 3.71D-01
 IDIUse=3 WtCom= 5.96D-01 WtEn= 4.04D-01
 Coeff-Com:  0.100D+01
 Coeff-En:   0.100D+01
 Coeff:      0.100D+01
 Gap=     0.399 Goal=   None    Shift=    0.000
 GapD=    0.399 DampG=1.000 DampE=0.500 DampFc=0.5000 IDamp=-1.
 Damping current iteration by 5.00D-01
 RMSDP=3.69D-03 MaxDP=1.02D-01              OVMax= 1.27D-01

 Cycle   2  Pass 1  IDiag  1:
 E= -370.739754672086     Delta-E=       -0.083913864724 Rises=F Damp=T
 DIIS: error= 1.53D-02 at cycle   2 NSaved=   2.
 NSaved= 2 IEnMin= 2 EnMin= -370.739754672086     IErMin= 2 ErrMin= 1.53D-02
 ErrMax= 1.53D-02  0.00D+00 EMaxC= 1.00D-01 BMatC= 5.71D-02 BMatP= 3.71D-01
 IDIUse=3 WtCom= 8.47D-01 WtEn= 1.53D-01
 Coeff-Com: -0.448D+00 0.145D+01
 Coeff-En:   0.000D+00 0.100D+01
 Coeff:     -0.380D+00 0.138D+01
 Gap=     0.266 Goal=   None    Shift=    0.000
 RMSDP=1.66D-03 MaxDP=8.11D-02 DE=-8.39D-02 OVMax= 6.56D-02

 Cycle   3  Pass 1  IDiag  1:
 E= -370.815237181399     Delta-E=       -0.075482509313 Rises=F Damp=F
 DIIS: error= 4.58D-03 at cycle   3 NSaved=   3.
 NSaved= 3 IEnMin= 3 EnMin= -370.815237181399     IErMin= 3 ErrMin= 4.58D-03
 ErrMax= 4.58D-03  0.00D+00 EMaxC= 1.00D-01 BMatC= 2.15D-03 BMatP= 5.71D-02
 IDIUse=3 WtCom= 9.54D-01 WtEn= 4.58D-02
 Coeff-Com: -0.131D+00 0.265D+00 0.866D+00
 Coeff-En:   0.000D+00 0.000D+00 0.100D+01
 Coeff:     -0.125D+00 0.253D+00 0.873D+00
 Gap=     0.273 Goal=   None    Shift=    0.000
 RMSDP=4.01D-04 MaxDP=1.68D-02 DE=-7.55D-02 OVMax= 1.10D-02

 Cycle   4  Pass 1  IDiag  1:
 E= -370.816706824017     Delta-E=       -0.001469642618 Rises=F Damp=F
 DIIS: error= 6.49D-04 at cycle   4 NSaved=   4.
 NSaved= 4 IEnMin= 4 EnMin= -370.816706824017     IErMin= 4 ErrMin= 6.49D-04
 ErrMax= 6.49D-04  0.00D+00 EMaxC= 1.00D-01 BMatC= 5.54D-05 BMatP= 2.15D-03
 IDIUse=3 WtCom= 9.94D-01 WtEn= 6.49D-03
 Coeff-Com:  0.247D-02-0.194D-01 0.883D-01 0.929D+00
 Coeff-En:   0.000D+00 0.000D+00 0.000D+00 0.100D+01
 Coeff:      0.245D-02-0.193D-01 0.878D-01 0.929D+00
 Gap=     0.275 Goal=   None    Shift=    0.000
 RMSDP=1.02D-04 MaxDP=6.21D-03 DE=-1.47D-03 OVMax= 3.37D-03

 Cycle   5  Pass 1  IDiag  1:
 E= -370.816768906833     Delta-E=       -0.000062082816 Rises=F Damp=F
 DIIS: error= 1.37D-04 at cycle   5 NSaved=   5.
 NSaved= 5 IEnMin= 5 EnMin= -370.816768906833     IErMin= 5 ErrMin= 1.37D-04
 ErrMax= 1.37D-04  0.00D+00 EMaxC= 1.00D-01 BMatC= 4.28D-06 BMatP= 5.54D-05
 IDIUse=3 WtCom= 9.99D-01 WtEn= 1.37D-03
 Coeff-Com:  0.946D-02-0.165D-01-0.636D-01 0.548D-03 0.107D+01
 Coeff-En:   0.000D+00 0.000D+00 0.000D+00 0.000D+00 0.100D+01
 Coeff:      0.944D-02-0.165D-01-0.635D-01 0.548D-03 0.107D+01
 Gap=     0.274 Goal=   None    Shift=    0.000
 RMSDP=4.70D-05 MaxDP=1.58D-03 DE=-6.21D-05 OVMax= 1.43D-03

 Cycle   6  Pass 1  IDiag  1:
 E= -370.816778101462     Delta-E=       -0.000009194629 Rises=F Damp=F
 DIIS: error= 4.97D-05 at cycle   6 NSaved=   6.
 NSaved= 6 IEnMin= 6 EnMin= -370.816778101462     IErMin= 6 ErrMin= 4.97D-05
 ErrMax= 4.97D-05  0.00D+00 EMaxC= 1.00D-01 BMatC= 3.37D-07 BMatP= 4.28D-06
 IDIUse=1 WtCom= 1.00D+00 WtEn= 0.00D+00
 Coeff-Com: -0.357D-02 0.726D-02 0.127D-01-0.870D-01-0.227D+00 0.130D+01
 Coeff:     -0.357D-02 0.726D-02 0.127D-01-0.870D-01-0.227D+00 0.130D+01
 Gap=     0.274 Goal=   None    Shift=    0.000
 RMSDP=1.27D-05 MaxDP=7.88D-04 DE=-9.19D-06 OVMax= 7.21D-04

 Cycle   7  Pass 1  IDiag  1:
 E= -370.816779172696     Delta-E=       -0.000001071234 Rises=F Damp=F
 DIIS: error= 1.21D-05 at cycle   7 NSaved=   7.
 NSaved= 7 IEnMin= 7 EnMin= -370.816779172696     IErMin= 7 ErrMin= 1.21D-05
 ErrMax= 1.21D-05  0.00D+00 EMaxC= 1.00D-01 BMatC= 1.19D-08 BMatP= 3.37D-07
 IDIUse=1 WtCom= 1.00D+00 WtEn= 0.00D+00
 Coeff-Com:  0.462D-03-0.105D-02-0.169D-03 0.237D-01-0.780D-02-0.308D+00
 Coeff-Com:  0.129D+01
 Coeff:      0.462D-03-0.105D-02-0.169D-03 0.237D-01-0.780D-02-0.308D+00
 Coeff:      0.129D+01
 Gap=     0.274 Goal=   None    Shift=    0.000
 RMSDP=2.58D-06 MaxDP=1.19D-04 DE=-1.07D-06 OVMax= 1.39D-04

 Cycle   8  Pass 1  IDiag  1:
 E= -370.816779215423     Delta-E=       -0.000000042727 Rises=F Damp=F
 DIIS: error= 2.17D-06 at cycle   8 NSaved=   8.
 NSaved= 8 IEnMin= 8 EnMin= -370.816779215423     IErMin= 8 ErrMin= 2.17D-06
 ErrMax= 2.17D-06  0.00D+00 EMaxC= 1.00D-01 BMatC= 3.80D-10 BMatP= 1.19D-08
 IDIUse=1 WtCom= 1.00D+00 WtEn= 0.00D+00
 Coeff-Com:  0.925D-04-0.179D-03-0.414D-03 0.149D-02 0.902D-02-0.250D-01
 Coeff-Com: -0.961D-01 0.111D+01
 Coeff:      0.925D-04-0.179D-03-0.414D-03 0.149D-02 0.902D-02-0.250D-01
 Coeff:     -0.961D-01 0.111D+01
 Gap=     0.274 Goal=   None    Shift=    0.000
 RMSDP=4.65D-07 MaxDP=1.90D-05 DE=-4.27D-08 OVMax= 1.48D-05

 Cycle   9  Pass 1  IDiag  1:
 E= -370.816779216477     Delta-E=       -0.000000001054 Rises=F Damp=F
 DIIS: error= 4.66D-07 at cycle   9 NSaved=   9.
 NSaved= 9 IEnMin= 9 EnMin= -370.816779216477     IErMin= 9 ErrMin= 4.66D-07
 ErrMax= 4.66D-07  0.00D+00 EMaxC= 1.00D-01 BMatC= 3.22D-11 BMatP= 3.80D-10
 IDIUse=1 WtCom= 1.00D+00 WtEn= 0.00D+00
 Coeff-Com: -0.418D-04 0.932D-04 0.287D-04-0.191D-02 0.261D-03 0.244D-01
 Coeff-Com: -0.836D-01-0.120D+00 0.118D+01
 Coeff:     -0.418D-04 0.932D-04 0.287D-04-0.191D-02 0.261D-03 0.244D-01
 Coeff:     -0.836D-01-0.120D+00 0.118D+01
 Gap=     0.274 Goal=   None    Shift=    0.000
 RMSDP=1.08D-07 MaxDP=4.32D-06 DE=-1.05D-09 OVMax= 5.32D-06

 Cycle  10  Pass 1  IDiag  1:
 E= -370.816779216572     Delta-E=       -0.000000000095 Rises=F Damp=F
 DIIS: error= 9.50D-08 at cycle  10 NSaved=  10.
 NSaved=10 IEnMin=10 EnMin= -370.816779216572     IErMin=10 ErrMin= 9.50D-08
 ErrMax= 9.50D-08  0.00D+00 EMaxC= 1.00D-01 BMatC= 2.14D-12 BMatP= 3.22D-11
 IDIUse=1 WtCom= 1.00D+00 WtEn= 0.00D+00
 Coeff-Com: -0.821D-05 0.157D-04 0.305D-04-0.174D-03-0.665D-03 0.285D-02
 Coeff-Com:  0.175D-02-0.687D-01 0.442D-01 0.102D+01
 Coeff:     -0.821D-05 0.157D-04 0.305D-04-0.174D-03-0.665D-03 0.285D-02
 Coeff:      0.175D-02-0.687D-01 0.442D-01 0.102D+01
 Gap=     0.274 Goal=   None    Shift=    0.000
 RMSDP=3.21D-08 MaxDP=1.71D-06 DE=-9.52D-11 OVMax= 1.03D-06

 Cycle  11  Pass 1  IDiag  1:
 E= -370.816779216578     Delta-E=       -0.000000000005 Rises=F Damp=F
 DIIS: error= 2.91D-08 at cycle  11 NSaved=  11.
 NSaved=11 IEnMin=11 EnMin= -370.816779216578     IErMin=11 ErrMin= 2.91D-08
 ErrMax= 2.91D-08  0.00D+00 EMaxC= 1.00D-01 BMatC= 1.53D-13 BMatP= 2.14D-12
 IDIUse=1 WtCom= 1.00D+00 WtEn= 0.00D+00
 Coeff-Com:  0.364D-05-0.813D-05-0.148D-05 0.166D-03-0.384D-04-0.203D-02
 Coeff-Com:  0.644D-02 0.139D-01-0.109D+00-0.392D-01 0.113D+01
 Coeff:      0.364D-05-0.813D-05-0.148D-05 0.166D-03-0.384D-04-0.203D-02
 Coeff:      0.644D-02 0.139D-01-0.109D+00-0.392D-01 0.113D+01
 Gap=     0.274 Goal=   None    Shift=    0.000
 RMSDP=1.57D-08 MaxDP=9.89D-07 DE=-5.40D-12 OVMax= 5.46D-07

 Cycle  12  Pass 1  IDiag  1:
 E= -370.816779216577     Delta-E=        0.000000000001 Rises=F Damp=F
 DIIS: error= 7.08D-09 at cycle  12 NSaved=  12.
 NSaved=12 IEnMin=11 EnMin= -370.816779216578     IErMin=12 ErrMin= 7.08D-09
 ErrMax= 7.08D-09  0.00D+00 EMaxC= 1.00D-01 BMatC= 4.97D-15 BMatP= 1.53D-13
 IDIUse=1 WtCom= 1.00D+00 WtEn= 0.00D+00
 Coeff-Com: -0.739D-06 0.178D-05-0.512D-06-0.425D-04 0.433D-04 0.468D-03
 Coeff-Com: -0.191D-02-0.710D-03 0.281D-01-0.340D-01-0.281D+00 0.129D+01
 Coeff:     -0.739D-06 0.178D-05-0.512D-06-0.425D-04 0.433D-04 0.468D-03
 Coeff:     -0.191D-02-0.710D-03 0.281D-01-0.340D-01-0.281D+00 0.129D+01
 Gap=     0.274 Goal=   None    Shift=    0.000
 RMSDP=3.15D-09 MaxDP=1.82D-07 DE= 5.68D-13 OVMax= 9.47D-08

 SCF Done:  E(RHF) =  -370.816779217     A.U. after   12 cycles
            NFock= 12  Conv=0.31D-08     -V/T= 2.9847
 KE= 1.868406722070D+02 PE=-9.095164091407D+02 EE= 3.039305412308D+02
 Leave Link  502 at Tue Oct 26 12:33:06 2021, MaxMem= 16106127360 cpu:              32.0 elap:               2.1
 (Enter /sw/contrib/gaussian/g16/B01/g16/l801.exe)
 ExpMin= 2.53D-02 ExpMax= 1.53D+04 ExpMxC= 5.22D+02 IAcc=3 IRadAn=         5 AccDes= 0.00D+00
 HarFok:  IExCor=  205 AccDes= 0.00D+00 IRadAn=         5 IDoV=-2 UseB2=F ITyADJ=14
 ICtDFT= 12500011 ScaDFX=  1.000000  1.000000  1.000000  1.000000
 Defaulting to unpruned grid for atomic number  53.
 DSYEVD-2 returned Info=        1623 IAlg= 4 N=    55 NDim=    55 NE2=   292837268 trying  DSYEV.
 Largest valence mixing into a core orbital is  1.29D-04
 Largest core mixing into a valence orbital is  2.13D-05
 Range of M.O.s used for correlation:     6   147
 NBasis=   147 NAE=    18 NBE=    18 NFC=     5 NFV=     0
 NROrb=    142 NOA=    13 NOB=    13 NVA=   129 NVB=   129

 **** Warning!!: The largest alpha MO coefficient is  0.15592662D+02

 Leave Link  801 at Tue Oct 26 12:33:06 2021, MaxMem= 16106127360 cpu:               1.9 elap:               0.1
 (Enter /sw/contrib/gaussian/g16/B01/g16/l906.exe)
 Frozen-core derivative calculation, NFC=   5 NFV=   0.
 FulOut=F Deriv=T AODrv=F NAtomX=     4
   MMem=         225  MDisk=          13 MDiskD=          13
  W3Min=      449820 MinDsk=      818995 NBas6D=         170
 NBas2D=       14925    NTT=       14535    LW2=    26219120
    MDV= 16105851589 MDiskM=      473642 NBas2p=       14925
 Fully in-core method, ICMem=   303093605.
 IMap=   1   2   3   4   5   6   7   8   9  10  11  12  13  14  15  16  17  18
 JobTyp=1 Pass  1 fully in-core, NPsUse= 28.
 Compute canonical integrals.
 FoFCou: FMM=F IPFlag=           0 FMFlag=           0 FMFlg1=           0
         NFxFlg=           0 DoJE=F BraDBF=F KetDBF=F FulRan=T
         wScrn=  0.000000 ICntrl=       600 IOpCl=  1 I1Cent=           0 NGrid=           0
         NMat0=    1 NMatS0=  14925 NMatT0=    0 NMatD0=    1 NMtDS0=    0 NMtDT0=    0
 Symmetry not used in FoFCou.
 Spin components of T(2) and E(2):
     alpha-alpha T2 =       0.2163234772D-01 E2=     -0.6742176561D-01
     alpha-beta  T2 =       0.1131614246D+00 E2=     -0.3621571607D+00
     beta-beta   T2 =       0.2163234772D-01 E2=     -0.6742176561D-01
 The integrals were generated   1 times.
 ANorm=    0.1075372549D+01
 E2 =    -0.4970006919D+00 EUMP2 =    -0.37131377990851D+03
 Leave Link  906 at Tue Oct 26 12:33:09 2021, MaxMem= 16106127360 cpu:              82.9 elap:               3.0
 (Enter /sw/contrib/gaussian/g16/B01/g16/l1002.exe)
 Minotr:  Closed shell wavefunction.
          Computing MP2/KS-MP2 derivatives.
          Using Z-Vector for PSCF gradient.
          Skipping F1 and S1 gradient terms here.
          Frozen-core window.
          Direct CPHF calculation.
          Differentiating once with respect to electric field.
                with respect to dipole field.
          Electric field/nuclear overlap derivatives assumed to be zero.
          Requested convergence is 1.0D-10 RMS, and 1.0D-09 maximum.
          NewPWx=F KeepS1=T KeepF1=T KeepIn=T MapXYZ=F SortEE=F KeepMc=T.
 Keep R1 ints in memory in canonical form, NReq=117072027.
 FoFCou: FMM=F IPFlag=           0 FMFlag=           0 FMFlg1=           0
         NFxFlg=           0 DoJE=F BraDBF=F KetDBF=F FulRan=T
         wScrn=  0.000000 ICntrl=       600 IOpCl=  0 I1Cent=           0 NGrid=           0
         NMat0=    1 NMatS0=  10878 NMatT0=    0 NMatD0=    1 NMtDS0=    0 NMtDT0=    0
 Symmetry not used in FoFCou.
 Two-electron integral symmetry not used.
          MDV=   16106127360 using IRadAn=       5.
          Solving linear equations separately, MaxMat=       0.
          There are     1 degrees of freedom in the 1st order CPHF.  IDoFFX=0 NUNeed=     1.
 LinEq1:  Iter=  0 NonCon=     1 RMS=2.66D-03 Max=4.70D-02 NDo=     1
 AX will form     1 AO Fock derivatives at one time.
 LinEq1:  Iter=  1 NonCon=     1 RMS=4.28D-04 Max=5.25D-03 NDo=     1
 LinEq1:  Iter=  2 NonCon=     1 RMS=1.90D-04 Max=2.74D-03 NDo=     1
 LinEq1:  Iter=  3 NonCon=     1 RMS=4.44D-05 Max=6.96D-04 NDo=     1
 LinEq1:  Iter=  4 NonCon=     1 RMS=1.28D-05 Max=1.36D-04 NDo=     1
 LinEq1:  Iter=  5 NonCon=     1 RMS=3.41D-06 Max=4.45D-05 NDo=     1
 LinEq1:  Iter=  6 NonCon=     1 RMS=7.27D-07 Max=1.17D-05 NDo=     1
 LinEq1:  Iter=  7 NonCon=     1 RMS=1.61D-07 Max=2.40D-06 NDo=     1
 LinEq1:  Iter=  8 NonCon=     1 RMS=4.54D-08 Max=6.05D-07 NDo=     1
 LinEq1:  Iter=  9 NonCon=     1 RMS=8.89D-09 Max=1.43D-07 NDo=     1
 LinEq1:  Iter= 10 NonCon=     1 RMS=1.44D-09 Max=1.90D-08 NDo=     1
 LinEq1:  Iter= 11 NonCon=     1 RMS=2.50D-10 Max=4.17D-09 NDo=     1
 LinEq1:  Iter= 12 NonCon=     1 RMS=7.01D-11 Max=1.17D-09 NDo=     1
 LinEq1:  Iter= 13 NonCon=     0 RMS=1.42D-11 Max=1.70D-10 NDo=     1
 Linear equations converged to 1.000D-10 1.000D-09 after    13 iterations.
 End of Minotr F.D. properties file   721 does not exist.
 End of Minotr F.D. properties file   722 does not exist.
 End of Minotr F.D. properties file   788 does not exist.
 Leave Link 1002 at Tue Oct 26 12:33:12 2021, MaxMem= 16106127360 cpu:              37.0 elap:               2.6
 (Enter /sw/contrib/gaussian/g16/B01/g16/l601.exe)
 Copying SCF densities to generalized density rwf, IOpCl= 0 IROHF=0.

 **********************************************************************

            Population analysis using the MP2 Density.

 **********************************************************************

 Alpha  occ. eigenvalues --  -20.40297  -7.46690  -5.29245  -5.29219  -5.29215
 Alpha  occ. eigenvalues --   -2.01991  -2.01974  -2.01969  -2.01942  -2.01942
 Alpha  occ. eigenvalues --   -1.18471  -0.62865  -0.54128  -0.42868  -0.34718
 Alpha  occ. eigenvalues --   -0.14775  -0.14231  -0.14194
 Alpha virt. eigenvalues --    0.13217   0.16979   0.23337   0.24546   0.25246
 Alpha virt. eigenvalues --    0.26982   0.28790   0.29217   0.31262   0.33637
 Alpha virt. eigenvalues --    0.36678   0.37214   0.37587   0.39565   0.40947
 Alpha virt. eigenvalues --    0.42015   0.44513   0.47581   0.54120   0.54269
 Alpha virt. eigenvalues --    0.57039   0.59846   0.66794   0.71491   0.77788
 Alpha virt. eigenvalues --    0.77880   0.78521   0.79780   0.80029   0.80051
 Alpha virt. eigenvalues --    0.82775   0.84226   0.85370   0.85782   0.86673
 Alpha virt. eigenvalues --    0.87687   0.88414   0.88861   0.89954   0.90293
 Alpha virt. eigenvalues --    0.93135   0.97212   1.00719   1.06037   1.06877
 Alpha virt. eigenvalues --    1.09372   1.10476   1.12371   1.14486   1.15671
 Alpha virt. eigenvalues --    1.16543   1.19056   1.32694   1.36374   1.38259
 Alpha virt. eigenvalues --    1.41998   1.48437   1.52536   1.54808   1.67728
 Alpha virt. eigenvalues --    1.73180   1.73330   1.75183   1.75261   1.76931
 Alpha virt. eigenvalues --    1.77927   1.81224   1.85081   1.88521   1.89480
 Alpha virt. eigenvalues --    2.03077   2.04573   2.05615   2.07583   2.10707
 Alpha virt. eigenvalues --    2.10718   2.15446   2.29373   2.44092   2.52697
 Alpha virt. eigenvalues --    2.56197   2.60541   2.61601   2.63177   2.65455
 Alpha virt. eigenvalues --    2.82507   2.87797   2.88953   2.97462   3.02378
 Alpha virt. eigenvalues --    3.07039   3.26287   3.27993   3.78019   3.87219
 Alpha virt. eigenvalues --    4.20519   4.24705   4.32018   4.32575   4.42804
 Alpha virt. eigenvalues --    4.43915   4.54358   4.56820   4.59908   4.74517
 Alpha virt. eigenvalues --    4.94413   5.13575   5.28279   5.35501   5.45512
 Alpha virt. eigenvalues --    5.51502   5.66651   5.81462   6.37197   6.68658
 Alpha virt. eigenvalues --    6.88056   7.09699   7.27869   7.42661   7.43117
 Alpha virt. eigenvalues --    7.46592   7.53342   7.57309   7.82094   8.05609
 Alpha virt. eigenvalues --    8.11136   8.95296  16.22269  59.22166
          Condensed to atoms (all electrons):
               1          2          3          4
     1  O    8.271627   0.215612  -0.056820   0.093201
     2  H    0.215612   0.601410   0.007052   0.007365
     3  I   -0.056820   0.007052  25.926523   0.036636
     4  H    0.093201   0.007365   0.036636   0.594348
 Mulliken charges:
               1
     1  O   -0.523620
     2  H    0.168561
     3  I   -0.913390
     4  H    0.268450
 Sum of Mulliken charges =  -1.00000
 Mulliken charges with hydrogens summed into heavy atoms:
               1
     1  O   -0.086610
     3  I   -0.913390
 Electronic spatial extent (au):  <R**2>=           1235.8564
 Charge=             -1.0000 electrons
 Dipole moment (field-independent basis, Debye):
    X=              4.1581    Y=             13.6644    Z=              0.0000  Tot=             14.2830
 Quadrupole moment (field-independent basis, Debye-Ang):
   XX=            -41.3855   YY=            -91.7891   ZZ=            -41.8887
   XY=             -9.9097   XZ=             -0.0000   YZ=             -0.0000
 Traceless Quadrupole moment (field-independent basis, Debye-Ang):
   XX=             16.9689   YY=            -33.4346   ZZ=             16.4657
   XY=             -9.9097   XZ=             -0.0000   YZ=             -0.0000
 Octapole moment (field-independent basis, Debye-Ang**2):
  XXX=             74.3136  YYY=            523.9088  ZZZ=              0.0000  XYY=             58.9344
  XXY=            123.6791  XXZ=              0.0000  XZZ=             23.6301  YZZ=            116.4360
  YYZ=              0.0000  XYZ=              0.0000
 Hexadecapole moment (field-independent basis, Debye-Ang**3):
 XXXX=           -180.4394 YYYY=          -3055.0056 ZZZZ=            -76.3919 XXXY=           -254.0210
 XXXZ=              0.0000 YYYX=           -368.3753 YYYZ=             -0.0000 ZZZX=             -0.0000
 ZZZY=             -0.0000 XXYY=           -465.5582 XXZZ=            -43.0051 YYZZ=           -423.7915
 XXYZ=             -0.0000 YYXZ=             -0.0000 ZZXY=            -83.0540
 N-N= 4.792841648636D+01 E-N=-9.089498550444D+02  KE= 1.870310348970D+02
 No NMR shielding tensors so no spin-rotation constants.
 Leave Link  601 at Tue Oct 26 12:33:12 2021, MaxMem= 16106127360 cpu:               4.0 elap:               0.2
 (Enter /sw/contrib/gaussian/g16/B01/g16/l607.exe)
 ******************************Gaussian NBO Version 3.1******************************
             N A T U R A L   A T O M I C   O R B I T A L   A N D
          N A T U R A L   B O N D   O R B I T A L   A N A L Y S I S
 ******************************Gaussian NBO Version 3.1******************************
       /RESON  / : Allow strongly delocalized NBO set

 Analyzing the MP2 density

 Job title: title                                                           

 Storage needed:     65577 in NPA,     86948 in NBO (********** available)
 GSVD:  LWork=       -1281 too small for GESVD, short by       46116 words or       46116 for optimal perf.


 NATURAL POPULATIONS:  Natural atomic orbital occupancies 
                                                          
   NAO  Atom  No  lang   Type(AO)    Occupancy
 --------------------------------------------
     1    O    1  S      Cor( 1S)     1.99967
     2    O    1  S      Val( 2S)     1.74108
     3    O    1  S      Ryd( 3S)     0.00639
     4    O    1  S      Ryd( 4S)     0.00056
     5    O    1  S      Ryd( 5S)     0.00023
     6    O    1  px     Val( 2p)     1.52547
     7    O    1  px     Ryd( 3p)     0.00992
     8    O    1  px     Ryd( 4p)     0.00057
     9    O    1  px     Ryd( 5p)     0.00008
    10    O    1  py     Val( 2p)     1.65447
    11    O    1  py     Ryd( 3p)     0.01183
    12    O    1  py     Ryd( 4p)     0.00065
    13    O    1  py     Ryd( 5p)     0.00012
    14    O    1  pz     Val( 2p)     1.95335
    15    O    1  pz     Ryd( 3p)     0.02184
    16    O    1  pz     Ryd( 4p)     0.00061
    17    O    1  pz     Ryd( 5p)     0.00000
    18    O    1  dxy    Ryd( 3d)     0.00858
    19    O    1  dxy    Ryd( 4d)     0.00050
    20    O    1  dxy    Ryd( 5d)     0.00012
    21    O    1  dxz    Ryd( 3d)     0.00946
    22    O    1  dxz    Ryd( 4d)     0.00093
    23    O    1  dxz    Ryd( 5d)     0.00018
    24    O    1  dyz    Ryd( 3d)     0.00768
    25    O    1  dyz    Ryd( 4d)     0.00048
    26    O    1  dyz    Ryd( 5d)     0.00014
    27    O    1  dx2y2  Ryd( 3d)     0.01228
    28    O    1  dx2y2  Ryd( 4d)     0.00029
    29    O    1  dx2y2  Ryd( 5d)     0.00015
    30    O    1  dz2    Ryd( 3d)     0.00900
    31    O    1  dz2    Ryd( 4d)     0.00046
    32    O    1  dz2    Ryd( 5d)     0.00012
    33    O    1  f(0)   Ryd( 4f)     0.00086
    34    O    1  f(0)   Ryd( 5f)     0.00015
    35    O    1  f(C1)  Ryd( 4f)     0.00054
    36    O    1  f(C1)  Ryd( 5f)     0.00008
    37    O    1  f(S1)  Ryd( 4f)     0.00061
    38    O    1  f(S1)  Ryd( 5f)     0.00009
    39    O    1  f(C2)  Ryd( 4f)     0.00054
    40    O    1  f(C2)  Ryd( 5f)     0.00012
    41    O    1  f(S2)  Ryd( 4f)     0.00046
    42    O    1  f(S2)  Ryd( 5f)     0.00007
    43    O    1  f(C3)  Ryd( 4f)     0.00041
    44    O    1  f(C3)  Ryd( 5f)     0.00012
    45    O    1  f(S3)  Ryd( 4f)     0.00047
    46    O    1  f(S3)  Ryd( 5f)     0.00013

    47    H    2  S      Val( 1S)     0.54596
    48    H    2  S      Ryd( 2S)     0.00168
    49    H    2  S      Ryd( 3S)     0.00040
    50    H    2  S      Ryd( 4S)     0.00014
    51    H    2  px     Ryd( 3p)     0.00025
    52    H    2  px     Ryd( 2p)     0.00070
    53    H    2  px     Ryd( 4p)     0.00016
    54    H    2  py     Ryd( 2p)     0.00054
    55    H    2  py     Ryd( 3p)     0.00017
    56    H    2  py     Ryd( 4p)     0.00007
    57    H    2  pz     Ryd( 2p)     0.00141
    58    H    2  pz     Ryd( 3p)     0.00016
    59    H    2  pz     Ryd( 4p)     0.00005
    60    H    2  dxy    Ryd( 3d)     0.00011
    61    H    2  dxy    Ryd( 4d)     0.00006
    62    H    2  dxz    Ryd( 3d)     0.00037
    63    H    2  dxz    Ryd( 4d)     0.00008
    64    H    2  dyz    Ryd( 3d)     0.00011
    65    H    2  dyz    Ryd( 4d)     0.00005
    66    H    2  dx2y2  Ryd( 3d)     0.00012
    67    H    2  dx2y2  Ryd( 4d)     0.00005
    68    H    2  dz2    Ryd( 3d)     0.00013
    69    H    2  dz2    Ryd( 4d)     0.00006

    70    I    3  S      Cor( 4S)     2.00001
    71    I    3  S      Val( 5S)     1.97789
    72    I    3  S      Ryd( 6S)     0.00292
    73    I    3  S      Ryd( 7S)     0.00054
    74    I    3  S      Ryd( 8S)     0.00007
    75    I    3  S      Ryd( 9S)     0.00000
    76    I    3  px     Cor( 4p)     2.00006
    77    I    3  px     Val( 5p)     1.94969
    78    I    3  px     Ryd( 6p)     0.01096
    79    I    3  px     Ryd( 7p)     0.00075
    80    I    3  px     Ryd( 8p)     0.00008
    81    I    3  py     Cor( 4p)     2.00000
    82    I    3  py     Val( 5p)     1.91668
    83    I    3  py     Ryd( 6p)     0.00979
    84    I    3  py     Ryd( 7p)     0.00066
    85    I    3  py     Ryd( 8p)     0.00017
    86    I    3  pz     Cor( 4p)     2.00006
    87    I    3  pz     Val( 5p)     1.95162
    88    I    3  pz     Ryd( 6p)     0.01097
    89    I    3  pz     Ryd( 7p)     0.00074
    90    I    3  pz     Ryd( 8p)     0.00008
    91    I    3  dxy    Cor( 4d)     1.99674
    92    I    3  dxy    Ryd( 5d)     0.02023
    93    I    3  dxy    Ryd( 6d)     0.00143
    94    I    3  dxy    Ryd( 7d)     0.00018
    95    I    3  dxz    Cor( 4d)     1.99678
    96    I    3  dxz    Ryd( 5d)     0.02016
    97    I    3  dxz    Ryd( 6d)     0.00166
    98    I    3  dxz    Ryd( 7d)     0.00016
    99    I    3  dyz    Cor( 4d)     1.99676
   100    I    3  dyz    Ryd( 5d)     0.02023
   101    I    3  dyz    Ryd( 6d)     0.00140
   102    I    3  dyz    Ryd( 7d)     0.00018
   103    I    3  dx2y2  Cor( 4d)     1.99670
   104    I    3  dx2y2  Ryd( 5d)     0.01986
   105    I    3  dx2y2  Ryd( 6d)     0.00160
   106    I    3  dx2y2  Ryd( 7d)     0.00019
   107    I    3  dz2    Cor( 4d)     1.99675
   108    I    3  dz2    Ryd( 5d)     0.02006
   109    I    3  dz2    Ryd( 6d)     0.00166
   110    I    3  dz2    Ryd( 7d)     0.00018
   111    I    3  f(0)   Ryd( 4f)     0.00273
   112    I    3  f(0)   Ryd( 5f)     0.00043
   113    I    3  f(C1)  Ryd( 4f)     0.00276
   114    I    3  f(C1)  Ryd( 5f)     0.00043
   115    I    3  f(S1)  Ryd( 4f)     0.00276
   116    I    3  f(S1)  Ryd( 5f)     0.00045
   117    I    3  f(C2)  Ryd( 4f)     0.00272
   118    I    3  f(C2)  Ryd( 5f)     0.00043
   119    I    3  f(S2)  Ryd( 4f)     0.00277
   120    I    3  f(S2)  Ryd( 5f)     0.00044
   121    I    3  f(C3)  Ryd( 4f)     0.00269
   122    I    3  f(C3)  Ryd( 5f)     0.00044
   123    I    3  f(S3)  Ryd( 4f)     0.00272
   124    I    3  f(S3)  Ryd( 5f)     0.00044

   125    H    4  S      Val( 1S)     0.49440
   126    H    4  S      Ryd( 2S)     0.00646
   127    H    4  S      Ryd( 3S)     0.00042
   128    H    4  S      Ryd( 4S)     0.00012
   129    H    4  px     Ryd( 2p)     0.00377
   130    H    4  px     Ryd( 3p)     0.00038
   131    H    4  px     Ryd( 4p)     0.00011
   132    H    4  py     Ryd( 2p)     0.00393
   133    H    4  py     Ryd( 3p)     0.00052
   134    H    4  py     Ryd( 4p)     0.00022
   135    H    4  pz     Ryd( 2p)     0.00418
   136    H    4  pz     Ryd( 3p)     0.00041
   137    H    4  pz     Ryd( 4p)     0.00010
   138    H    4  dxy    Ryd( 3d)     0.00023
   139    H    4  dxy    Ryd( 4d)     0.00009
   140    H    4  dxz    Ryd( 3d)     0.00017
   141    H    4  dxz    Ryd( 4d)     0.00007
   142    H    4  dyz    Ryd( 3d)     0.00023
   143    H    4  dyz    Ryd( 4d)     0.00009
   144    H    4  dx2y2  Ryd( 3d)     0.00024
   145    H    4  dx2y2  Ryd( 4d)     0.00010
   146    H    4  dz2    Ryd( 3d)     0.00019
   147    H    4  dz2    Ryd( 4d)     0.00008

 [ 28 electrons found in the effective core potential]

 WARNING:  5 low occupancy (<1.9990e) core orbitals found on  I    3


 Summary of Natural Population Analysis:                  
                                                          
                                       Natural Population 
                Natural  -----------------------------------------------
    Atom  No    Charge         Core      Valence    Rydberg      Total
 -----------------------------------------------------------------------
      O    1   -0.98185      1.99967     6.87436    0.10782     8.98185
      H    2    0.44719      0.00000     0.54596    0.00685     0.55281
      I    3   -0.94887     45.98387     7.79589    0.16910    53.94887
      H    4    0.48350      0.00000     0.49440    0.02210     0.51650
 =======================================================================
   * Total *   -1.00003     47.98355    15.71062    0.30587    64.00003

                                 Natural Population      
 --------------------------------------------------------
   Effective Core            28.00000
   Core                      19.98355 ( 99.9177% of  20)
   Valence                   15.71062 ( 98.1914% of  16)
   Natural Minimal Basis     63.69416 ( 99.5221% of  64)
   Natural Rydberg Basis      0.30587 (  0.4779% of  64)
 --------------------------------------------------------

    Atom  No          Natural Electron Configuration
 ----------------------------------------------------------------------------
      O    1      [core]2S( 1.74)2p( 5.13)3S( 0.01)3p( 0.04)3d( 0.05)
      H    2            1S( 0.55)
      I    3      [core]5S( 1.98)5p( 5.82)4f( 0.02)5d( 0.10)6p( 0.03)6d( 0.01)
      H    4            1S( 0.49)2S( 0.01)2p( 0.01)


 NATURAL BOND ORBITAL ANALYSIS:
 Warning:  a bond orbital has occupanc of -0.00009

                       Occupancies       Lewis Structure    Low   High
           Occ.    -------------------  -----------------   occ   occ
  Cycle   Thresh.   Lewis   Non-Lewis     CR  BD  3C  LP    (L)   (NL)   Dev
 =============================================================================
   1(1)    1.90    63.64555   0.35445     10   2   0   6     0      0    0.06
 -----------------------------------------------------------------------------

 Structure accepted: No low occupancy Lewis orbitals

 WARNING:  5 low occupancy (<1.9990e) core orbitals found on  I    3

 --------------------------------------------------------
   Effective Core           28.00000
   Core                     19.98355 ( 99.918% of  20)
   Valence Lewis            15.66201 ( 97.888% of  16)
  ==================       ============================
   Total Lewis              63.64555 ( 99.446% of  64)
  -----------------------------------------------------
   Valence non-Lewis         0.07761 (  0.121% of  64)
   Rydberg non-Lewis         0.27683 (  0.433% of  64)
  ==================       ============================
   Total non-Lewis           0.35445 (  0.554% of  64)
 --------------------------------------------------------


       (Occupancy)   Bond orbital/ Coefficients/ Hybrids
 ---------------------------------------------------------------------------------
     1. (1.96617) BD ( 1) O   1 - H   2  
                ( 72.99%)   0.8544* O   1 s( 21.23%)p 3.69( 78.31%)d 0.02(  0.44%)
                                                  f 0.00(  0.01%)
                                            0.0002  0.4607 -0.0087  0.0006 -0.0043
                                            0.8826 -0.0339  0.0085 -0.0015  0.0524
                                           -0.0153  0.0018 -0.0037  0.0000  0.0000
                                            0.0000  0.0000 -0.0201  0.0018  0.0019
                                            0.0000  0.0000  0.0000  0.0000  0.0000
                                            0.0000  0.0529 -0.0038  0.0038 -0.0345
                                            0.0012  0.0000  0.0000  0.0000 -0.0095
                                           -0.0004 -0.0002 -0.0001  0.0000  0.0000
                                            0.0000  0.0000  0.0030  0.0033  0.0017
                                           -0.0002
                ( 27.01%)   0.5197* H   2 s( 99.89%)p 0.00(  0.10%)d 0.00(  0.01%)
                                            0.9995  0.0035 -0.0003  0.0001 -0.0006
                                            0.0307 -0.0041  0.0018 -0.0015 -0.0012
                                            0.0000  0.0000  0.0000  0.0011 -0.0024
                                            0.0000  0.0000  0.0000  0.0000  0.0070
                                           -0.0023 -0.0056  0.0006
     2. (1.96766) BD ( 1) O   1 - H   4  
                ( 77.07%)   0.8779* O   1 s( 25.96%)p 2.83( 73.60%)d 0.02(  0.43%)
                                                  f 0.00(  0.01%)
                                           -0.0003 -0.5095  0.0025  0.0008  0.0011
                                            0.2139 -0.0191  0.0004  0.0016  0.8304
                                           -0.0160  0.0082 -0.0042  0.0000  0.0000
                                            0.0000  0.0000  0.0043 -0.0057  0.0034
                                            0.0000  0.0000  0.0000  0.0000  0.0000
                                            0.0000  0.0535 -0.0034 -0.0003  0.0362
                                           -0.0009 -0.0031  0.0000  0.0000 -0.0021
                                            0.0001 -0.0099  0.0004  0.0000  0.0000
                                            0.0000  0.0000 -0.0031 -0.0017  0.0005
                                           -0.0040
                ( 22.93%)   0.4789* H   4 s( 99.90%)p 0.00(  0.09%)d 0.00(  0.00%)
                                           -0.9992 -0.0231 -0.0004  0.0004 -0.0172
                                           -0.0007 -0.0001  0.0054 -0.0233 -0.0087
                                            0.0000  0.0000  0.0000 -0.0005  0.0029
                                            0.0000  0.0000  0.0000  0.0000 -0.0056
                                            0.0018  0.0021  0.0012
     3. (1.99967) CR ( 1) O   1           s(100.00%)
                                            1.0000 -0.0004  0.0000  0.0000  0.0000
                                           -0.0001  0.0000 -0.0000  0.0000  0.0001
                                           -0.0000  0.0000 -0.0000  0.0000  0.0000
                                            0.0000  0.0000 -0.0000 -0.0000  0.0000
                                            0.0000  0.0000  0.0000  0.0000  0.0000
                                            0.0000  0.0000 -0.0000 -0.0000  0.0000
                                           -0.0000 -0.0000  0.0000  0.0000  0.0000
                                            0.0000 -0.0000 -0.0000  0.0000  0.0000
                                            0.0000  0.0000 -0.0000 -0.0000 -0.0000
                                           -0.0000
     4. (2.00001) CR ( 1) I   3           s(100.00%)p 0.00(  0.00%)
                                            1.0000  0.0000 -0.0000 -0.0000  0.0000
                                            0.0000 -0.0000  0.0000  0.0000 -0.0000
                                           -0.0000 -0.0000  0.0002 -0.0000 -0.0000
                                            0.0000  0.0000  0.0000  0.0000  0.0000
                                            0.0000 -0.0000  0.0000 -0.0000 -0.0000
                                            0.0000  0.0000  0.0000  0.0000  0.0000
                                            0.0000  0.0000  0.0000  0.0000 -0.0000
                                            0.0000  0.0000  0.0000 -0.0000  0.0000
                                            0.0000  0.0000  0.0000 -0.0000 -0.0000
                                           -0.0000 -0.0000  0.0000  0.0000  0.0000
                                            0.0000 -0.0000 -0.0000 -0.0000 -0.0000
     5. (2.00006) CR ( 2) I   3           s(  0.00%)p 1.00(100.00%)
                                           -0.0000  0.0000  0.0000 -0.0000  0.0000
                                           -0.0000  1.0000 -0.0001 -0.0000 -0.0000
                                            0.0000 -0.0000  0.0001 -0.0000 -0.0000
                                            0.0000  0.0000  0.0000  0.0000  0.0000
                                            0.0000 -0.0000 -0.0000  0.0000  0.0000
                                            0.0000  0.0000  0.0000  0.0000  0.0000
                                            0.0000  0.0000  0.0000  0.0000 -0.0000
                                            0.0000  0.0000  0.0000 -0.0000  0.0000
                                            0.0000  0.0000  0.0000  0.0000  0.0000
                                           -0.0000 -0.0000  0.0000  0.0000  0.0000
                                            0.0000  0.0000  0.0000 -0.0000 -0.0000
     6. (2.00000) CR ( 3) I   3           s(  0.00%)p 1.00(100.00%)
                                           -0.0000  0.0001 -0.0000 -0.0000  0.0000
                                            0.0000 -0.0000  0.0001  0.0000 -0.0000
                                           -0.0000  1.0000  0.0003 -0.0000 -0.0000
                                            0.0000  0.0000  0.0000  0.0000  0.0000
                                            0.0000 -0.0000  0.0000 -0.0000 -0.0000
                                            0.0000  0.0000  0.0000  0.0000  0.0000
                                            0.0000  0.0000  0.0000  0.0000 -0.0000
                                            0.0000  0.0000  0.0000 -0.0000  0.0000
                                            0.0000  0.0000  0.0000 -0.0000 -0.0000
                                           -0.0000 -0.0000  0.0000  0.0000  0.0000
                                            0.0000 -0.0000 -0.0000 -0.0000 -0.0000
     7. (2.00006) CR ( 4) I   3           s(  0.00%)p 1.00(100.00%)
                                            0.0000  0.0000  0.0000  0.0000  0.0000
                                            0.0000  0.0000  0.0000  0.0000  0.0000
                                            0.0000  0.0000  0.0000  0.0000  0.0000
                                            0.0000  1.0000 -0.0001 -0.0000 -0.0000
                                            0.0000  0.0000  0.0000  0.0000  0.0000
                                            0.0000 -0.0000  0.0000 -0.0000  0.0000
                                           -0.0000  0.0000  0.0000  0.0000  0.0000
                                            0.0000  0.0000  0.0000  0.0000  0.0000
                                            0.0000  0.0000  0.0000  0.0000  0.0000
                                            0.0000  0.0000  0.0000  0.0000 -0.0000
                                           -0.0000  0.0000  0.0000  0.0000  0.0000
     8. (1.99674) CR ( 5) I   3           s(  0.00%)p 0.00(  0.00%)d 1.00(100.00%)
                                           -0.0000  0.0000 -0.0000 -0.0000  0.0000
                                            0.0000 -0.0000  0.0000  0.0000 -0.0000
                                           -0.0000 -0.0000  0.0001 -0.0000 -0.0000
                                            0.0000  0.0000  0.0000  0.0000  0.0000
                                            0.0000  1.0000  0.0000 -0.0000 -0.0000
                                            0.0000  0.0000  0.0000  0.0000  0.0000
                                            0.0000  0.0000  0.0000  0.0000 -0.0000
                                            0.0000  0.0000  0.0000 -0.0000  0.0000
                                            0.0000  0.0000  0.0000 -0.0000 -0.0000
                                           -0.0000 -0.0000  0.0000  0.0000  0.0000
                                            0.0000 -0.0000 -0.0000 -0.0000 -0.0000
     9. (1.99678) CR ( 6) I   3           s(  0.00%)p 0.00(  0.00%)d 1.00(100.00%)
                                            0.0000  0.0000  0.0000  0.0000  0.0000
                                            0.0000  0.0000  0.0000  0.0000  0.0000
                                            0.0000  0.0000  0.0000  0.0000  0.0000
                                            0.0000  0.0000  0.0000  0.0000  0.0000
                                           -0.0000  0.0000  0.0000  0.0000  0.0000
                                            1.0000  0.0000 -0.0000  0.0000 -0.0000
                                            0.0000 -0.0000 -0.0000  0.0000  0.0000
                                            0.0000  0.0000  0.0000  0.0000  0.0000
                                            0.0000 -0.0000 -0.0000  0.0000  0.0000
                                            0.0000  0.0000 -0.0000 -0.0000  0.0000
                                            0.0000  0.0000  0.0000  0.0000  0.0000
    10. (1.99676) CR ( 7) I   3           s(  0.00%)p 0.00(  0.00%)d 1.00(100.00%)
                                            0.0000  0.0000  0.0000  0.0000  0.0000
                                            0.0000  0.0000  0.0000  0.0000  0.0000
                                            0.0000  0.0000  0.0000  0.0000  0.0000
                                            0.0000  0.0000  0.0000  0.0000  0.0000
                                           -0.0000  0.0000  0.0000  0.0000  0.0000
                                           -0.0000  0.0000 -0.0000  0.0000  1.0000
                                            0.0000 -0.0000 -0.0000  0.0000  0.0000
                                            0.0000  0.0000  0.0000  0.0000  0.0000
                                            0.0000 -0.0000 -0.0000  0.0000  0.0000
                                            0.0000  0.0000 -0.0000 -0.0000  0.0000
                                            0.0000  0.0000  0.0000  0.0000  0.0000
    11. (1.99670) CR ( 8) I   3           s(  0.00%)p 0.00(  0.00%)d 1.00(100.00%)
                                            0.0000 -0.0001  0.0000  0.0000 -0.0000
                                           -0.0000  0.0000 -0.0000 -0.0000  0.0000
                                            0.0000  0.0000 -0.0002  0.0000  0.0000
                                           -0.0000  0.0000  0.0000  0.0000  0.0000
                                            0.0000  0.0000 -0.0000  0.0000  0.0000
                                            0.0000  0.0000  0.0000  0.0000  0.0000
                                            0.0000  0.0000  0.0000  1.0000  0.0000
                                           -0.0000 -0.0000 -0.0000  0.0000 -0.0000
                                           -0.0000  0.0000  0.0000  0.0000  0.0000
                                            0.0000  0.0000  0.0000  0.0000  0.0000
                                            0.0000  0.0000  0.0000  0.0000  0.0000
    12. (1.99675) CR ( 9) I   3           s(  0.00%)p 0.00(  0.00%)d 1.00(100.00%)
                                            0.0000 -0.0000  0.0000  0.0000 -0.0000
                                           -0.0000  0.0000 -0.0000 -0.0000  0.0000
                                            0.0000  0.0000 -0.0002  0.0000  0.0000
                                           -0.0000  0.0000  0.0000  0.0000  0.0000
                                            0.0000  0.0000 -0.0000  0.0000  0.0000
                                            0.0000  0.0000  0.0000  0.0000  0.0000
                                            0.0000  0.0000  0.0000 -0.0000  0.0000
                                           -0.0000 -0.0000  1.0000  0.0000 -0.0000
                                           -0.0000  0.0000  0.0000  0.0000  0.0000
                                            0.0000  0.0000  0.0000  0.0000  0.0000
                                            0.0000  0.0000  0.0000  0.0000  0.0000
    13. (1.97012) LP ( 1) O   1           s( 52.72%)p 0.89( 47.15%)d 0.00(  0.12%)
                                                  f 0.00(  0.00%)
                                            0.0002  0.7261  0.0048  0.0003  0.0022
                                           -0.4107 -0.0025  0.0032 -0.0011  0.5502
                                            0.0098 -0.0042 -0.0004  0.0000  0.0000
                                            0.0000  0.0000  0.0308 -0.0039 -0.0024
                                            0.0000  0.0000  0.0000  0.0000  0.0000
                                            0.0000  0.0071  0.0001 -0.0033  0.0139
                                           -0.0022  0.0015  0.0000  0.0000  0.0021
                                           -0.0003 -0.0039  0.0014  0.0000  0.0000
                                            0.0000  0.0000  0.0011 -0.0003  0.0032
                                           -0.0022
    14. (1.96129) LP ( 2) O   1           s(  0.00%)p 1.00( 99.70%)d 0.00(  0.27%)
                                                  f 0.00(  0.03%)
                                            0.0000  0.0000  0.0000  0.0000  0.0000
                                            0.0000  0.0000  0.0000  0.0000  0.0000
                                            0.0000  0.0000  0.0000  0.9980  0.0322
                                           -0.0071  0.0031  0.0000  0.0000  0.0000
                                            0.0402 -0.0132  0.0075 -0.0289  0.0004
                                            0.0060  0.0000  0.0000  0.0000  0.0000
                                            0.0000  0.0000 -0.0140  0.0053  0.0000
                                            0.0000  0.0000  0.0000  0.0046 -0.0033
                                            0.0023 -0.0003  0.0000  0.0000  0.0000
                                            0.0000
    15. (1.97953) LP ( 1) I   3           s( 97.56%)p 0.03(  2.44%)d 0.00(  0.00%)
                                                  f 0.00(  0.00%)
                                            0.0000  0.9877  0.0002  0.0002 -0.0002
                                           -0.0000 -0.0000 -0.0301  0.0003 -0.0001
                                            0.0002 -0.0001 -0.1533  0.0005 -0.0006
                                            0.0001  0.0000  0.0000  0.0000  0.0000
                                            0.0000 -0.0000  0.0005 -0.0002 -0.0001
                                            0.0000  0.0000  0.0000  0.0000  0.0000
                                            0.0000  0.0000  0.0000  0.0000 -0.0009
                                            0.0003  0.0001  0.0000 -0.0007  0.0003
                                            0.0001  0.0000  0.0000 -0.0001 -0.0001
                                           -0.0005 -0.0003  0.0000  0.0000  0.0000
                                            0.0000 -0.0003 -0.0002 -0.0004 -0.0002
    16. (1.95171) LP ( 2) I   3           s(  0.00%)p 1.00(100.00%)d 0.00(  0.00%)
                                                  f 0.00(  0.00%)
                                            0.0000  0.0000  0.0000  0.0000  0.0000
                                            0.0000  0.0000  0.0000  0.0000  0.0000
                                            0.0000  0.0000  0.0000  0.0000  0.0000
                                            0.0000  0.0001  1.0000  0.0007  0.0009
                                           -0.0000  0.0000  0.0000  0.0000  0.0000
                                           -0.0000  0.0025 -0.0012  0.0009 -0.0000
                                            0.0046 -0.0007 -0.0016  0.0000  0.0000
                                            0.0000  0.0000  0.0000  0.0000  0.0000
                                            0.0000 -0.0017 -0.0011  0.0000  0.0000
                                            0.0000  0.0000 -0.0015 -0.0008  0.0011
                                            0.0009  0.0000  0.0000  0.0000  0.0000
    17. (1.95150) LP ( 3) I   3           s(  0.00%)p 1.00( 99.99%)d 0.00(  0.00%)
                                                  f 0.00(  0.00%)
                                           -0.0000  0.0034  0.0009 -0.0021  0.0019
                                           -0.0001 -0.0001 -0.9769 -0.0021 -0.0014
                                            0.0007  0.0000  0.2136 -0.0008 -0.0004
                                            0.0007 -0.0000 -0.0000 -0.0000 -0.0000
                                           -0.0000  0.0000 -0.0051  0.0008  0.0012
                                           -0.0000 -0.0000 -0.0000 -0.0000 -0.0000
                                           -0.0000 -0.0000 -0.0000  0.0000 -0.0040
                                            0.0015 -0.0005 -0.0000  0.0009 -0.0007
                                            0.0009 -0.0000 -0.0000  0.0008  0.0006
                                           -0.0001  0.0000 -0.0000 -0.0000 -0.0000
                                           -0.0000  0.0016  0.0006 -0.0018 -0.0013
    18. (1.91404) LP ( 4) I   3           s(  2.44%)p40.02( 97.53%)d 0.01(  0.03%)
                                                  f 0.00(  0.00%)
                                           -0.0002  0.1561 -0.0012 -0.0014  0.0012
                                            0.0002 -0.0001  0.2115  0.0004 -0.0003
                                           -0.0003 -0.0003  0.9647 -0.0027 -0.0024
                                            0.0007  0.0000  0.0000  0.0000  0.0000
                                            0.0000 -0.0001  0.0073 -0.0011 -0.0001
                                            0.0000  0.0000  0.0000  0.0000  0.0000
                                            0.0000  0.0000  0.0000  0.0003 -0.0120
                                            0.0014  0.0016  0.0002 -0.0088  0.0015
                                            0.0002  0.0000  0.0000 -0.0008 -0.0004
                                           -0.0036 -0.0019  0.0000  0.0000  0.0000
                                            0.0000 -0.0025 -0.0007 -0.0033 -0.0013
    19. (0.02024) RY*( 1) O   1           s(  0.00%)p 1.00( 97.50%)d 0.02(  2.42%)
                                                  f 0.00(  0.08%)
                                            0.0000  0.0000  0.0000  0.0000  0.0000
                                            0.0000  0.0000  0.0000  0.0000  0.0000
                                            0.0000  0.0000  0.0000 -0.0398  0.9859
                                            0.0340 -0.0184  0.0000  0.0000  0.0000
                                            0.1358 -0.0363  0.0183 -0.0629  0.0104
                                            0.0027  0.0000  0.0000  0.0000  0.0000
                                            0.0000  0.0000 -0.0188  0.0162  0.0000
                                            0.0000  0.0000  0.0000  0.0103 -0.0079
                                           -0.0024 -0.0007  0.0000  0.0000  0.0000
                                            0.0000
    20. (0.01552) RY*( 2) O   1           s( 21.17%)p 3.57( 75.48%)d 0.15(  3.21%)
                                                  f 0.01(  0.14%)
                                            0.0000 -0.0100  0.4599  0.0067 -0.0039
                                            0.0099 -0.4605 -0.0142  0.0042 -0.0097
                                            0.7362  0.0121 -0.0148  0.0000  0.0000
                                            0.0000  0.0000  0.1748 -0.0197 -0.0021
                                            0.0000  0.0000  0.0000  0.0000  0.0000
                                            0.0000  0.0110  0.0017 -0.0079  0.0290
                                           -0.0116  0.0023  0.0000  0.0000  0.0002
                                           -0.0007 -0.0009  0.0049  0.0000  0.0000
                                            0.0000  0.0000  0.0224 -0.0075  0.0249
                                           -0.0125
    21. (0.00720) RY*( 3) O   1           s(  6.87%)p 9.28( 63.72%)d 4.20( 28.84%)
                                                  f 0.08(  0.58%)
                                           -0.0000  0.0041  0.2573 -0.0461  0.0177
                                           -0.0586 -0.6387 -0.0229 -0.0098 -0.0299
                                           -0.4730 -0.0230 -0.0025 -0.0000 -0.0000
                                           -0.0000 -0.0000 -0.3859  0.0023 -0.0131
                                           -0.0000 -0.0000 -0.0000 -0.0000 -0.0000
                                           -0.0000  0.3631  0.0625 -0.0310  0.0493
                                            0.0113 -0.0002 -0.0000 -0.0000 -0.0308
                                            0.0114 -0.0055 -0.0024 -0.0000 -0.0000
                                           -0.0000 -0.0000  0.0065 -0.0057 -0.0628
                                            0.0251
    22. (0.00632) RY*( 4) O   1           s(  0.00%)p 1.00(  0.38%)d99.99( 98.40%)
                                                  f 3.21(  1.22%)
                                            0.0000  0.0000  0.0000  0.0000  0.0000
                                            0.0000  0.0000  0.0000  0.0000  0.0000
                                            0.0000  0.0000  0.0000 -0.0088 -0.0601
                                           -0.0109 -0.0014  0.0000  0.0000  0.0000
                                            0.7422  0.0562 -0.0157  0.6536  0.0493
                                           -0.0093  0.0000  0.0000  0.0000  0.0000
                                            0.0000  0.0000  0.0007 -0.0015  0.0000
                                            0.0000  0.0000  0.0000  0.1012 -0.0408
                                           -0.0156  0.0069  0.0000  0.0000  0.0000
                                            0.0000
    23. (0.00626) RY*( 5) O   1           s( 12.00%)p 0.82(  9.87%)d 6.43( 77.17%)
                                                  f 0.08(  0.96%)
                                           -0.0000  0.0145  0.3456  0.0192 -0.0029
                                            0.0181  0.2757  0.0192 -0.0092  0.0353
                                            0.1434  0.0044 -0.0086  0.0000  0.0000
                                            0.0000  0.0000 -0.7704 -0.0403  0.0145
                                            0.0000  0.0000  0.0000  0.0000  0.0000
                                            0.0000 -0.3948 -0.0309  0.0103  0.1371
                                            0.0225 -0.0107  0.0000  0.0000 -0.0008
                                            0.0071  0.0304 -0.0139  0.0000  0.0000
                                            0.0000  0.0000 -0.0871  0.0266 -0.0121
                                           -0.0022
    24. (0.00592) RY*( 6) O   1           s(  0.00%)p 1.00(  2.03%)d47.78( 97.16%)
                                                  f 0.39(  0.80%)
                                            0.0000  0.0000  0.0000  0.0000  0.0000
                                            0.0000  0.0000  0.0000  0.0000  0.0000
                                            0.0000  0.0000  0.0000  0.0430  0.1354
                                            0.0099  0.0072  0.0000  0.0000  0.0000
                                           -0.6407 -0.0703  0.0200  0.7422  0.0695
                                           -0.0053  0.0000  0.0000  0.0000  0.0000
                                            0.0000  0.0000  0.0744 -0.0294  0.0000
                                            0.0000  0.0000  0.0000  0.0033 -0.0031
                                            0.0377 -0.0133  0.0000  0.0000  0.0000
                                            0.0000
    25. (0.00568) RY*( 7) O   1           s(  7.06%)p 0.80(  5.62%)d12.27( 86.70%)
                                                  f 0.09(  0.62%)
                                           -0.0000  0.0214  0.2649 -0.0055 -0.0016
                                            0.0347  0.1614  0.0151 -0.0083 -0.0395
                                           -0.1632 -0.0175 -0.0116  0.0000  0.0000
                                            0.0000  0.0000  0.2731  0.0267 -0.0056
                                            0.0000  0.0000  0.0000  0.0000  0.0000
                                            0.0000  0.0551  0.0072  0.0035  0.8821
                                            0.1017 -0.0082  0.0000  0.0000  0.0518
                                           -0.0191 -0.0518  0.0202  0.0000  0.0000
                                            0.0000  0.0000  0.0023 -0.0013  0.0016
                                            0.0015
    26. (0.00320) RY*( 8) O   1           s( 16.36%)p 1.24( 20.25%)d 3.81( 62.42%)
                                                  f 0.06(  0.96%)
                                            0.0000 -0.0058  0.4044  0.0012  0.0062
                                            0.0303 -0.1505  0.0212 -0.0450  0.0275
                                           -0.4125 -0.0379 -0.0640 -0.0000 -0.0000
                                           -0.0000 -0.0000  0.3480  0.0703 -0.0030
                                           -0.0000 -0.0000 -0.0000 -0.0000 -0.0000
                                           -0.0000 -0.6598 -0.0573 -0.0550 -0.2344
                                           -0.0386 -0.0090 -0.0000 -0.0000  0.0203
                                           -0.0111  0.0417 -0.0294 -0.0000 -0.0000
                                           -0.0000 -0.0000  0.0007 -0.0105  0.0731
                                           -0.0316
    27. (0.00230) RY*( 9) O   1           s( 35.18%)p 0.72( 25.47%)d 1.10( 38.76%)
                                                  f 0.02(  0.59%)
                                            0.0000 -0.0056  0.5904  0.0148 -0.0545
                                           -0.0138  0.4893  0.0619 -0.0017 -0.0080
                                           -0.0827 -0.0363 -0.0546  0.0000  0.0000
                                            0.0000  0.0000  0.1071  0.0431 -0.0166
                                            0.0000  0.0000  0.0000  0.0000  0.0000
                                            0.0000  0.4804  0.1075  0.0775 -0.3359
                                           -0.1037 -0.0450  0.0000  0.0000 -0.0157
                                            0.0346  0.0145 -0.0099  0.0000  0.0000
                                            0.0000  0.0000  0.0433 -0.0442 -0.0184
                                           -0.0002
    28. (0.00079) RY*(10) O   1           s( 55.98%)p 0.66( 36.95%)d 0.11(  6.03%)
                                                  f 0.02(  1.05%)
                                            0.0000 -0.0044 -0.0381  0.7471  0.0076
                                           -0.0003 -0.0385 -0.0036 -0.0517  0.0004
                                            0.0036 -0.5990 -0.0807  0.0000  0.0000
                                            0.0000  0.0000 -0.0250  0.0441 -0.0769
                                            0.0000  0.0000  0.0000  0.0000  0.0000
                                            0.0000  0.0200 -0.0694  0.0980  0.0317
                                           -0.1331  0.1351  0.0000  0.0000  0.0169
                                            0.0022  0.0274  0.0373  0.0000  0.0000
                                            0.0000  0.0000  0.0176  0.0405  0.0661
                                            0.0418
    29. (0.00056) RY*(11) O   1           s(  0.00%)p 1.00(  9.97%)d 7.44( 74.16%)
                                                  f 1.59( 15.87%)
                                            0.0000  0.0000  0.0000  0.0000  0.0000
                                            0.0000  0.0000  0.0000  0.0000  0.0000
                                            0.0000  0.0000  0.0000  0.0138  0.0596
                                           -0.3093  0.0179  0.0000  0.0000  0.0000
                                           -0.0311  0.7744  0.0190  0.0367 -0.3731
                                           -0.0010  0.0000  0.0000  0.0000  0.0000
                                            0.0000  0.0000  0.3066 -0.0378  0.0000
                                            0.0000  0.0000  0.0000 -0.2235  0.0333
                                            0.1101  0.0096  0.0000  0.0000  0.0000
                                            0.0000
    30. (0.00053) RY*(12) O   1           s(  0.74%)p53.13( 39.53%)d63.76( 47.43%)
                                                  f16.54( 12.30%)
                                            0.0000 -0.0056 -0.0410 -0.0388  0.0650
                                           -0.0058 -0.0319  0.6101 -0.0815  0.0069
                                            0.0556 -0.1105 -0.0060  0.0000  0.0000
                                            0.0000  0.0000 -0.0018  0.5523  0.0208
                                            0.0000  0.0000  0.0000  0.0000  0.0000
                                            0.0000  0.0086  0.1143  0.0016 -0.0323
                                            0.3924  0.0255  0.0000  0.0000 -0.0145
                                            0.0081  0.2191  0.0007  0.0000  0.0000
                                            0.0000  0.0000 -0.2076  0.0112 -0.1770
                                            0.0131
    31. (0.00054) RY*(13) O   1           s(  0.00%)p 1.00( 61.48%)d 0.46( 28.29%)
                                                  f 0.17( 10.23%)
                                            0.0000  0.0000  0.0000  0.0000  0.0000
                                            0.0000  0.0000  0.0000  0.0000  0.0000
                                            0.0000  0.0000  0.0000  0.0113 -0.0134
                                            0.7773  0.1016  0.0000  0.0000  0.0000
                                            0.0118  0.3665  0.0500 -0.0096  0.3797
                                            0.0418  0.0000  0.0000  0.0000  0.0000
                                            0.0000  0.0000  0.0735  0.0035  0.0000
                                            0.0000  0.0000  0.0000 -0.3067  0.0218
                                            0.0481 -0.0051  0.0000  0.0000  0.0000
                                            0.0000
    32. (0.00046) RY*(14) O   1           s(  1.49%)p 7.61( 11.31%)d 3.33(  4.95%)
                                                  f55.34( 82.25%)
                                           -0.0000  0.0033  0.0056  0.1210 -0.0137
                                            0.0063  0.0106 -0.2896  0.0271  0.0086
                                            0.0047  0.1642  0.0366  0.0000  0.0000
                                            0.0000  0.0000  0.0174  0.1550  0.0280
                                            0.0000  0.0000  0.0000  0.0000  0.0000
                                            0.0000 -0.0274 -0.0627 -0.0128  0.0369
                                           -0.1345  0.0111  0.0000  0.0000  0.1918
                                            0.0090  0.5717  0.0461  0.0000  0.0000
                                            0.0000  0.0000  0.2634  0.0180 -0.6220
                                           -0.0073
    33. (0.00045) RY*(15) O   1           s(  0.00%)p 1.00(  5.91%)d 0.94(  5.57%)
                                                  f14.99( 88.52%)
                                            0.0000  0.0000  0.0000  0.0000  0.0000
                                            0.0000  0.0000  0.0000  0.0000  0.0000
                                            0.0000  0.0000  0.0000 -0.0007 -0.0102
                                            0.2336  0.0662  0.0000  0.0000  0.0000
                                            0.0155 -0.0847 -0.0197 -0.0430 -0.1957
                                           -0.0884  0.0000  0.0000  0.0000  0.0000
                                            0.0000  0.0000  0.2578  0.0361  0.0000
                                            0.0000  0.0000  0.0000  0.4439  0.0348
                                            0.7834  0.0740  0.0000  0.0000  0.0000
                                            0.0000
    34. (0.00044) RY*(16) O   1           s(  3.37%)p 5.94( 20.04%)d 3.36( 11.31%)
                                                  f19.37( 65.28%)
[...]
                                           -0.0214  0.1488  0.1437 -0.0121  0.8054
                                           -0.0041 -0.0038 -0.5450  0.0405 -0.0186
                                            0.0000  0.0000  0.0000 -0.0607  0.0075
                                            0.0000  0.0000  0.0000  0.0000  0.0490
                                            0.0108 -0.0520  0.0046
   127. (0.00258) RY*( 4) H   4           s( 25.09%)p 2.95( 73.96%)d 0.04(  0.95%)
                                           -0.0086  0.4303  0.2516  0.0480 -0.5538
                                            0.0269 -0.0101 -0.6234  0.2069 -0.0261
                                           -0.0000 -0.0000 -0.0000  0.0373 -0.0384
                                           -0.0000 -0.0000 -0.0000 -0.0000  0.0347
                                            0.0547  0.0420  0.0261
   128. (0.00042) RY*( 5) H   4           s(  9.40%)p 9.14( 85.92%)d 0.50(  4.68%)
                                            0.0013 -0.0145  0.2388 -0.1916  0.0059
                                            0.9067 -0.1223  0.0744 -0.1085  0.0698
                                            0.0000  0.0000  0.0000 -0.0258  0.1202
                                            0.0000  0.0000  0.0000  0.0000  0.1716
                                            0.0292  0.0205  0.0312
   129. (0.00034) RY*( 6) H   4           s(  0.00%)p 1.00( 81.47%)d 0.23( 18.53%)
                                            0.0000  0.0000  0.0000  0.0000  0.0000
                                            0.0000  0.0000  0.0000  0.0000  0.0000
                                           -0.1384  0.8890  0.0719  0.0000  0.0000
                                            0.1769 -0.0312  0.3720  0.1210  0.0000
                                            0.0000  0.0000  0.0000
   130. (0.00033) RY*( 7) H   4           s(  3.46%)p14.35( 49.64%)d13.56( 46.90%)
                                            0.0024 -0.0872  0.0666  0.1502  0.0297
                                           -0.0347 -0.1728  0.1122  0.1809 -0.6474
                                            0.0000  0.0000  0.0000 -0.2442 -0.1633
                                            0.0000  0.0000  0.0000  0.0000  0.4106
                                            0.2768  0.2969  0.2222
   131. (0.00026) RY*( 8) H   4           s(  2.02%)p 6.23( 12.57%)d42.34( 85.41%)
                                           -0.0014  0.0086  0.0108  0.1414  0.0024
                                            0.0765 -0.2477  0.0298  0.2148  0.1071
                                           -0.0000 -0.0000 -0.0000 -0.6675  0.1471
                                           -0.0000 -0.0000 -0.0000 -0.0000 -0.5949
                                            0.1044  0.1484 -0.0087
   132. (0.00023) RY*( 9) H   4           s(  0.00%)p 1.00( 24.74%)d 3.04( 75.26%)
                                            0.0000  0.0000  0.0000  0.0000  0.0000
                                            0.0000  0.0000  0.0000  0.0000  0.0000
                                            0.1018 -0.3816  0.3023  0.0000  0.0000
                                            0.1825 -0.0864  0.8355 -0.1174  0.0000
                                            0.0000  0.0000  0.0000
   133. (0.00020) RY*(10) H   4           s( 52.35%)p 0.71( 37.31%)d 0.20( 10.33%)
                                           -0.0094 -0.1153  0.6679 -0.2532  0.0614
                                           -0.2116  0.1740  0.2416  0.4218  0.2408
                                            0.0000  0.0000  0.0000  0.0169  0.0075
                                            0.0000  0.0000  0.0000  0.0000  0.0766
                                           -0.1707  0.2608  0.0030
   134. (0.00017) RY*(11) H   4           s(  2.72%)p19.97( 54.22%)d15.86( 43.06%)
                                            0.0148  0.0374  0.1375 -0.0815 -0.0887
                                           -0.2001  0.0371 -0.1057 -0.6881  0.0908
                                           -0.0000 -0.0000 -0.0000 -0.4109  0.1224
                                           -0.0000 -0.0000 -0.0000 -0.0000  0.2479
                                           -0.2184  0.3555 -0.1063
   135. (0.00016) RY*(12) H   4           s(  0.00%)p 1.00(  0.78%)d99.99( 99.22%)
                                            0.0000  0.0000  0.0000  0.0000  0.0000
                                            0.0000  0.0000  0.0000  0.0000  0.0000
                                           -0.0371 -0.0797  0.0104  0.0000  0.0000
                                            0.9487  0.1730 -0.2362 -0.0797  0.0000
                                            0.0000  0.0000  0.0000
   136. (0.00015) RY*(13) H   4           s(  2.15%)p 2.48(  5.33%)d42.99( 92.51%)
                                           -0.0047 -0.0257  0.1076 -0.0962 -0.0804
                                           -0.1014 -0.1247  0.0582  0.0910  0.0968
                                           -0.0000 -0.0000 -0.0000 -0.4533 -0.1668
                                           -0.0000 -0.0000 -0.0000 -0.0000  0.3538
                                           -0.0214 -0.7331 -0.1693
   137. (0.00011) RY*(14) H   4           s(  0.00%)p 1.00( 61.47%)d 0.63( 38.53%)
                                            0.0000  0.0000  0.0000  0.0000  0.0000
                                            0.0000  0.0000  0.0000  0.0000  0.0000
                                           -0.0243 -0.0512  0.7819  0.0000  0.0000
                                           -0.0176 -0.0109 -0.2191  0.5804  0.0000
                                            0.0000  0.0000  0.0000
   138. (0.00010) RY*(15) H   4           s(  0.43%)p99.99( 52.94%)d99.99( 46.64%)
                                            0.0018  0.0023 -0.0151  0.0635 -0.0259
                                            0.0376  0.6981  0.0128  0.0728 -0.1856
                                            0.0000  0.0000  0.0000 -0.1611  0.5878
                                            0.0000  0.0000  0.0000  0.0000  0.0593
                                            0.2560 -0.1415 -0.0763
   139. (0.00010) RY*(16) H   4           s( 85.15%)p 0.06(  5.47%)d 0.11(  9.38%)
   140. (0.00007) RY*(17) H   4           s(  0.00%)p 1.00(  0.91%)d99.99( 99.09%)
   141. (0.00007) RY*(18) H   4           s( 20.35%)p 1.21( 24.64%)d 2.70( 55.01%)
   142. (0.00006) RY*(19) H   4           s(  5.88%)p 0.50(  2.91%)d15.50( 91.20%)
   143. (0.00004) RY*(20) H   4           s(  0.00%)p 1.00( 31.43%)d 2.18( 68.57%)
   144. (0.00004) RY*(21) H   4           s(  3.13%)p11.88( 37.13%)d19.11( 59.74%)
   145. (0.00003) RY*(22) H   4           s(  6.65%)p 6.07( 40.40%)d 7.96( 52.95%)
   146. (0.02134) BD*( 1) O   1 - H   2  
                ( 27.01%)   0.5197* O   1 s( 21.23%)p 3.69( 78.31%)d 0.02(  0.44%)
                                                  f 0.00(  0.01%)
                                           -0.0002 -0.4607  0.0087 -0.0006  0.0043
                                           -0.8826  0.0339 -0.0085  0.0015 -0.0524
                                            0.0153 -0.0018  0.0037 -0.0000 -0.0000
                                           -0.0000 -0.0000  0.0201 -0.0018 -0.0019
                                           -0.0000 -0.0000 -0.0000 -0.0000 -0.0000
                                           -0.0000 -0.0529  0.0038 -0.0038  0.0345
                                           -0.0012 -0.0000 -0.0000 -0.0000  0.0095
                                            0.0004  0.0002  0.0001 -0.0000 -0.0000
                                           -0.0000 -0.0000 -0.0030 -0.0033 -0.0017
                                            0.0002
                ( 72.99%)  -0.8544* H   2 s( 99.89%)p 0.00(  0.10%)d 0.00(  0.01%)
                                           -0.9995 -0.0035  0.0003 -0.0001  0.0006
                                           -0.0307  0.0041 -0.0018  0.0015  0.0012
                                           -0.0000 -0.0000 -0.0000 -0.0011  0.0024
                                           -0.0000 -0.0000 -0.0000 -0.0000 -0.0070
                                            0.0023  0.0056 -0.0006
   147. (0.05628) BD*( 1) O   1 - H   4  
                ( 22.93%)   0.4789* O   1 s( 25.96%)p 2.83( 73.60%)d 0.02(  0.43%)
                                                  f 0.00(  0.01%)
                                            0.0003  0.5095 -0.0025 -0.0008 -0.0011
                                           -0.2139  0.0191 -0.0004 -0.0016 -0.8304
                                            0.0160 -0.0082  0.0042 -0.0000 -0.0000
                                           -0.0000 -0.0000 -0.0043  0.0057 -0.0034
                                           -0.0000 -0.0000 -0.0000 -0.0000 -0.0000
                                           -0.0000 -0.0535  0.0034  0.0003 -0.0362
                                            0.0009  0.0031 -0.0000 -0.0000  0.0021
                                           -0.0001  0.0099 -0.0004 -0.0000 -0.0000
                                           -0.0000 -0.0000  0.0031  0.0017 -0.0005
                                            0.0040
                ( 77.07%)  -0.8779* H   4 s( 99.90%)p 0.00(  0.09%)d 0.00(  0.00%)
                                            0.9992  0.0231  0.0004 -0.0004  0.0172
                                            0.0007  0.0001 -0.0054  0.0233  0.0087
                                           -0.0000 -0.0000 -0.0000  0.0005 -0.0029
                                           -0.0000 -0.0000 -0.0000 -0.0000  0.0056
                                           -0.0018 -0.0021 -0.0012


 NHO Directionality and "Bond Bending" (deviations from line of nuclear centers)

         [Thresholds for printing:  angular deviation  >  1.0 degree]
                                    hybrid p-character > 25.0%
                                    orbital occupancy  >  0.10e

                                Line of Centers        Hybrid 1              Hybrid 2
                                ---------------  -------------------   ------------------
                NBO               Theta   Phi    Theta   Phi    Dev    Theta   Phi    Dev
 ========================================================================================
     1. BD (   1) O   1 - H   2    90.0    0.0    90.0    2.4   2.4      --     --    --
     2. BD (   1) O   1 - H   4    90.0  258.1    90.0  256.5   1.7      --     --    --
    13. LP (   1) O   1             --     --     90.0  126.5   --       --     --    --
    14. LP (   2) O   1             --     --      0.0    0.0   --       --     --    --
    16. LP (   2) I   3             --     --      0.0    0.0   --       --     --    --
    17. LP (   3) I   3             --     --     90.0  167.7   --       --     --    --
    18. LP (   4) I   3             --     --     90.0   77.6   --       --     --    --


 Natural Bond Orbitals (Summary):

           NBO                  Occupancy  
 -----------------------------------------------
 Molecular unit  1  (H2O)
     1. BD (   1) O   1 - H   2          1.96617
     2. BD (   1) O   1 - H   4          1.96766
     3. CR (   1) O   1                  1.99967
    13. LP (   1) O   1                  1.97012
    14. LP (   2) O   1                  1.96129
    19. RY*(   1) O   1                  0.02024
    20. RY*(   2) O   1                  0.01552
    21. RY*(   3) O   1                  0.00720
    22. RY*(   4) O   1                  0.00632
    23. RY*(   5) O   1                  0.00626
    24. RY*(   6) O   1                  0.00592
    25. RY*(   7) O   1                  0.00568
    26. RY*(   8) O   1                  0.00320
    27. RY*(   9) O   1                  0.00230
    28. RY*(  10) O   1                  0.00079
    29. RY*(  11) O   1                  0.00056
    30. RY*(  12) O   1                  0.00053
    31. RY*(  13) O   1                  0.00054
    32. RY*(  14) O   1                  0.00046
    33. RY*(  15) O   1                  0.00045
    34. RY*(  16) O   1                  0.00044
    35. RY*(  17) O   1                  0.00044
    36. RY*(  18) O   1                  0.00044
    37. RY*(  19) O   1                  0.00042
    38. RY*(  20) O   1                  0.00040
    39. RY*(  21) O   1                  0.00037
    40. RY*(  22) O   1                  0.00035
    41. RY*(  23) O   1                  0.00029
    42. RY*(  24) O   1                  0.00028
    43. RY*(  25) O   1                  0.00024
    44. RY*(  26) O   1                  0.00015
    45. RY*(  27) O   1                  0.00008
    46. RY*(  28) O   1                  0.00009
    47. RY*(  29) O   1                  0.00008
    48. RY*(  30) O   1                  0.00007
    49. RY*(  31) O   1                  0.00007
    50. RY*(  32) O   1                  0.00007
    51. RY*(  33) O   1                  0.00007
    52. RY*(  34) O   1                  0.00006
    53. RY*(  35) O   1                  0.00005
    54. RY*(  36) O   1                  0.00006
    55. RY*(  37) O   1                  0.00004
    56. RY*(  38) O   1                  0.00004
    57. RY*(  39) O   1                  0.00001
    58. RY*(  40) O   1                  0.00001
    59. RY*(  41) O   1                 -0.00009
    60. RY*(   1) H   2                  0.00178
    61. RY*(   2) H   2                  0.00176
    62. RY*(   3) H   2                  0.00084
    63. RY*(   4) H   2                  0.00053
    64. RY*(   5) H   2                  0.00031
    65. RY*(   6) H   2                  0.00020
    66. RY*(   7) H   2                  0.00013
    67. RY*(   8) H   2                  0.00011
    68. RY*(   9) H   2                  0.00009
    69. RY*(  10) H   2                  0.00010
    70. RY*(  11) H   2                  0.00010
    71. RY*(  12) H   2                  0.00006
    72. RY*(  13) H   2                  0.00005
    73. RY*(  14) H   2                  0.00004
    74. RY*(  15) H   2                  0.00003
    75. RY*(  16) H   2                  0.00002
    76. RY*(  17) H   2                  0.00002
    77. RY*(  18) H   2                  0.00002
    78. RY*(  19) H   2                  0.00002
    79. RY*(  20) H   2                  0.00001
    80. RY*(  21) H   2                  0.00001
    81. RY*(  22) H   2                  0.00002
   124. RY*(   1) H   4                  0.00801
   125. RY*(   2) H   4                  0.00431
   126. RY*(   3) H   4                  0.00411
   127. RY*(   4) H   4                  0.00258
   128. RY*(   5) H   4                  0.00042
   129. RY*(   6) H   4                  0.00034
   130. RY*(   7) H   4                  0.00033
   131. RY*(   8) H   4                  0.00026
   132. RY*(   9) H   4                  0.00023
   133. RY*(  10) H   4                  0.00020
   134. RY*(  11) H   4                  0.00017
   135. RY*(  12) H   4                  0.00016
   136. RY*(  13) H   4                  0.00015
   137. RY*(  14) H   4                  0.00011
   138. RY*(  15) H   4                  0.00010
   139. RY*(  16) H   4                  0.00010
   140. RY*(  17) H   4                  0.00007
   141. RY*(  18) H   4                  0.00007
   142. RY*(  19) H   4                  0.00006
   143. RY*(  20) H   4                  0.00004
   144. RY*(  21) H   4                  0.00004
   145. RY*(  22) H   4                  0.00003
   146. BD*(   1) O   1 - H   2          0.02134
   147. BD*(   1) O   1 - H   4          0.05628
       -------------------------------
              Total Lewis    9.86491  ( 98.1472%)
        Valence non-Lewis    0.07761  (  0.7722%)
        Rydberg non-Lewis    0.10861  (  1.0806%)
       -------------------------------
            Total unit  1   10.05113  (100.0000%)
           Charge unit  1   -0.05113

 Molecular unit  2  (I)
     4. CR (   1) I   3                  2.00001
     5. CR (   2) I   3                  2.00006
     6. CR (   3) I   3                  2.00000
     7. CR (   4) I   3                  2.00006
     8. CR (   5) I   3                  1.99674
     9. CR (   6) I   3                  1.99678
    10. CR (   7) I   3                  1.99676
    11. CR (   8) I   3                  1.99670
    12. CR (   9) I   3                  1.99675
    15. LP (   1) I   3                  1.97953
    16. LP (   2) I   3                  1.95171
    17. LP (   3) I   3                  1.95150
    18. LP (   4) I   3                  1.91404
    82. RY*(   1) I   3                  0.02022
    83. RY*(   2) I   3                  0.02021
    84. RY*(   3) I   3                  0.02013
    85. RY*(   4) I   3                  0.02013
    86. RY*(   5) I   3                  0.01943
    87. RY*(   6) I   3                  0.01100
    88. RY*(   7) I   3                  0.01096
    89. RY*(   8) I   3                  0.00961
    90. RY*(   9) I   3                  0.00347
    91. RY*(  10) I   3                  0.00278
    92. RY*(  11) I   3                  0.00278
    93. RY*(  12) I   3                  0.00276
    94. RY*(  13) I   3                  0.00276
    95. RY*(  14) I   3                  0.00271
    96. RY*(  15) I   3                  0.00271
    97. RY*(  16) I   3                  0.00268
    98. RY*(  17) I   3                  0.00167
    99. RY*(  18) I   3                  0.00167
   100. RY*(  19) I   3                  0.00140
   101. RY*(  20) I   3                  0.00140
   102. RY*(  21) I   3                  0.00122
   103. RY*(  22) I   3                  0.00074
   104. RY*(  23) I   3                  0.00074
   105. RY*(  24) I   3                  0.00068
   106. RY*(  25) I   3                  0.00046
   107. RY*(  26) I   3                  0.00043
   108. RY*(  27) I   3                  0.00043
   109. RY*(  28) I   3                  0.00043
   110. RY*(  29) I   3                  0.00043
   111. RY*(  30) I   3                  0.00040
   112. RY*(  31) I   3                  0.00039
   113. RY*(  32) I   3                  0.00034
   114. RY*(  33) I   3                  0.00016
   115. RY*(  34) I   3                  0.00016
   116. RY*(  35) I   3                  0.00014
   117. RY*(  36) I   3                  0.00014
   118. RY*(  37) I   3                  0.00014
   119. RY*(  38) I   3                  0.00007
   120. RY*(  39) I   3                  0.00008
   121. RY*(  40) I   3                  0.00007
   122. RY*(  41) I   3                  0.00005
   123. RY*(  42) I   3                  0.00000
       -------------------------------
              Total Lewis   53.78064  ( 99.6882%)
        Valence non-Lewis    0.00000  (  0.0000%)
        Rydberg non-Lewis    0.16822  (  0.3118%)
       -------------------------------
            Total unit  2   53.94887  (100.0000%)
           Charge unit  2   -0.94887
 Leave Link  607 at Tue Oct 26 12:33:15 2021, MaxMem= 16106127360 cpu:              70.3 elap:               2.6
 (Enter /sw/contrib/gaussian/g16/B01/g16/l9999.exe)
 1\1\GINC-N2097\SP\RMP2-FC\Gen\H2I1O1(1-)\CGAVINH\26-Oct-2021\0\\#p pop
 =NBO SP NoSymm mp2/gen Pseudo=read density=current\\title\\-1,1\O\X,1,
 10.\H,1,0.96090774,2,90.\I,1,3.50850135,2,90.,3,101.85832064,0\H,1,0.9
 8234,2,90.,3,101.85832064,0\\Version=ES64L-G16RevB.01\HF=-370.8167792\
 MP2=-371.3137799\RMSD=3.145e-09\Dipole=0.7037243,0.6893552,0.\Quadrupo
 le=12.6159773,-24.8578428,12.2418655,-7.3676461,0.,0.\PG=CS [SG(H2I1O1
 )]\\@


 GETTING A SIMPLE ANSWER FROM A PROFESSOR IS LIKE
 GETTING A THIMBLE OF WATER FROM A FIRE HYDRANT.
     -- PROF. LEN SHAPIRO, NDSU
 Job cpu time:       0 days  0 hours  4 minutes 17.8 seconds.
 Elapsed time:       0 days  0 hours  0 minutes 11.9 seconds.
 File lengths (MBytes):  RWF=     11 Int=      0 D2E=      0 Chk=      8 Scr=      1
 Normal termination of Gaussian 16 at Tue Oct 26 12:33:15 2021.
