 Entering Gaussian System, Link 0=g16
 Input=ihod_oop_35_sp.gjf
 Output=ihod_oop_35_sp.log
 Initial command:
 /sw/contrib/gaussian/g16/B01/g16/l1.exe "/scr/Gau-238024.inp" -scrdir="/scr/"
 Entering Link 1 = /sw/contrib/gaussian/g16/B01/g16/l1.exe PID=    238025.
  
 Copyright (c) 1988-2017, Gaussian, Inc.  All Rights Reserved.
  
 This is part of the Gaussian(R) 16 program.  It is based on
 the Gaussian(R) 09 system (copyright 2009, Gaussian, Inc.),
 the Gaussian(R) 03 system (copyright 2003, Gaussian, Inc.),
 the Gaussian(R) 98 system (copyright 1998, Gaussian, Inc.),
 the Gaussian(R) 94 system (copyright 1995, Gaussian, Inc.),
 the Gaussian 92(TM) system (copyright 1992, Gaussian, Inc.),
 the Gaussian 90(TM) system (copyright 1990, Gaussian, Inc.),
 the Gaussian 88(TM) system (copyright 1988, Gaussian, Inc.),
 the Gaussian 86(TM) system (copyright 1986, Carnegie Mellon
 University), and the Gaussian 82(TM) system (copyright 1983,
 Carnegie Mellon University). Gaussian is a federally registered
 trademark of Gaussian, Inc.
  
 This software contains proprietary and confidential information,
 including trade secrets, belonging to Gaussian, Inc.
  
 This software is provided under written license and may be
 used, copied, transmitted, or stored only in accord with that
 written license.
  
 The following legend is applicable only to US Government
 contracts under FAR:
  
                    RESTRICTED RIGHTS LEGEND
  
 Use, reproduction and disclosure by the US Government is
 subject to restrictions as set forth in subparagraphs (a)
 and (c) of the Commercial Computer Software - Restricted
 Rights clause in FAR 52.227-19.
  
 Gaussian, Inc.
 340 Quinnipiac St., Bldg. 40, Wallingford CT 06492
  
  
 ---------------------------------------------------------------
 Warning -- This program may not be used in any manner that
 competes with the business of Gaussian, Inc. or will provide
 assistance to any competitor of Gaussian, Inc.  The licensee
 of this program is prohibited from giving any competitor of
 Gaussian, Inc. access to this program.  By using this program,
 the user acknowledges that Gaussian, Inc. is engaged in the
 business of creating and licensing software in the field of
 computational chemistry and represents and warrants to the
 licensee that it is not a competitor of Gaussian, Inc. and that
 it will not use this program in any manner prohibited above.
 ---------------------------------------------------------------
  

 Cite this work as:
 Gaussian 16, Revision B.01,
 M. J. Frisch, G. W. Trucks, H. B. Schlegel, G. E. Scuseria, 
 M. A. Robb, J. R. Cheeseman, G. Scalmani, V. Barone, 
 G. A. Petersson, H. Nakatsuji, X. Li, M. Caricato, A. V. Marenich, 
 J. Bloino, B. G. Janesko, R. Gomperts, B. Mennucci, H. P. Hratchian, 
 J. V. Ortiz, A. F. Izmaylov, J. L. Sonnenberg, D. Williams-Young, 
 F. Ding, F. Lipparini, F. Egidi, J. Goings, B. Peng, A. Petrone, 
 T. Henderson, D. Ranasinghe, V. G. Zakrzewski, J. Gao, N. Rega, 
 G. Zheng, W. Liang, M. Hada, M. Ehara, K. Toyota, R. Fukuda, 
 J. Hasegawa, M. Ishida, T. Nakajima, Y. Honda, O. Kitao, H. Nakai, 
 T. Vreven, K. Throssell, J. A. Montgomery, Jr., J. E. Peralta, 
 F. Ogliaro, M. J. Bearpark, J. J. Heyd, E. N. Brothers, K. N. Kudin, 
 V. N. Staroverov, T. A. Keith, R. Kobayashi, J. Normand, 
 K. Raghavachari, A. P. Rendell, J. C. Burant, S. S. Iyengar, 
 J. Tomasi, M. Cossi, J. M. Millam, M. Klene, C. Adamo, R. Cammi, 
 J. W. Ochterski, R. L. Martin, K. Morokuma, O. Farkas, 
 J. B. Foresman, and D. J. Fox, Gaussian, Inc., Wallingford CT, 2016.
 
 ******************************************
 Gaussian 16:  ES64L-G16RevB.01 20-Dec-2017
                19-Oct-2021 
 ******************************************
 %nproc=28
 Will use up to   28 processors via shared memory.
 %mem=120GB
 %chk=/gscratch/ilahie/mccoygrp/coire_hocl/oop_s_rOH_opt/ihod/ihod_oop_35.chk
 --------------------------------------------------------
 #p pop=NBO SP NoSymm mp2/gen Pseudo=read density=current
 --------------------------------------------------------
 1/30=1,38=1,172=1/1;
 2/12=2,15=1,17=6,18=5,40=1/2;
 3/5=7,11=9,16=1,17=8,25=1,30=1,71=1/1,2,3;
 4//1;
 5/5=2,38=5/2;
 8/6=4,10=1/1;
 9/15=1,16=-3/6;
 10/5=1,13=10,31=1/2;
 6/7=2,8=2,9=2,10=2,22=-1,40=1/1,7;
 99/5=1,9=1/99;
 Leave Link    1 at Tue Oct 19 17:07:50 2021, MaxMem= 16106127360 cpu:               1.6 elap:               0.1
 (Enter /sw/contrib/gaussian/g16/B01/g16/l101.exe)
 -----
 title
 -----
 Symbolic Z-matrix:
 Charge = -1 Multiplicity = 1
 O
 X                    1     10. 
 H(iso=2)             1    r1       2     90. 
 I                    1    r2       2     90.      3    a1       0
 H                    1    r3       2    oop      3    a1       0
       Variables:
  r1                    0.96091                  
  r2                    3.5085                   
  r3                    0.97346                  
  a1                  101.85831                  
  OOP                  55.                       
 
 ITRead=  0  0  0  0
 MicOpt= -1 -1 -1 -1
 NAtoms=      4 NQM=        4 NQMF=       0 NMMI=      0 NMMIF=      0
                NMic=       0 NMicF=      0.
                    Isotopes and Nuclear Properties:
 (Nuclear quadrupole moments (NQMom) in fm**2, nuclear magnetic moments (NMagM)
  in nuclear magnetons)

  Atom         1           2           3           4
 IAtWgt=          16           2         127           1
 AtmWgt=  15.9949146   2.0141018 126.9004000   1.0078250
 NucSpn=           0           2           5           1
 AtZEff=  -0.0000000  -0.0000000  -0.0000000  -0.0000000
 NQMom=    0.0000000   0.2860000 -71.0000000   0.0000000
 NMagM=    0.0000000   0.8574380   2.8132800   2.7928460
 AtZNuc=   8.0000000   1.0000000  53.0000000   1.0000000
 Leave Link  101 at Tue Oct 19 17:07:50 2021, MaxMem= 16106127360 cpu:               2.5 elap:               0.1
 (Enter /sw/contrib/gaussian/g16/B01/g16/l202.exe)
                          Input orientation:                          
 ---------------------------------------------------------------------
 Center     Atomic      Atomic             Coordinates (Angstroms)
 Number     Number       Type             X           Y           Z
 ---------------------------------------------------------------------
      1          8           0        0.000000    0.000000    0.000000
      2          1           0        0.960908    0.000000    0.000000
      3         53           0       -0.720970   -3.433628    0.000000
      4          1           0       -0.163862   -0.780394    0.558354
 ---------------------------------------------------------------------
                    Distance matrix (angstroms):
                    1          2          3          4
     1  O    0.000000
     2  H    0.960908   0.000000
     3  I    3.508504   3.823416   0.000000
     4  H    0.973460   1.478472   2.767992   0.000000
 Symmetry turned off by external request.
 Stoichiometry    H2IO(1-)
 Framework group  C1[X(H2IO)]
 Deg. of freedom     6
 Full point group                 C1      NOp   1
 Rotational constants (GHZ):         270.0769478           2.4978907           2.4823511
 Leave Link  202 at Tue Oct 19 17:07:50 2021, MaxMem= 16106127360 cpu:               0.2 elap:               0.0
 (Enter /sw/contrib/gaussian/g16/B01/g16/l301.exe)
 General basis read from cards:  (5D, 7F)
 Centers:       2      4      1      2      4
 aug-cc-pVTZ
 ****
 Centers:       3
 S 11 1.00
     Exponent=  5.5465000000D+03 Coefficients=  1.5600000000D-04
     Exponent=  8.3821400000D+02 Coefficients=  9.8600000000D-04
     Exponent=  1.8218700000D+02 Coefficients=  2.7920000000D-03
     Exponent=  3.1212300000D+01 Coefficients= -4.3251000000D-02
     Exponent=  1.9531400000D+01 Coefficients=  2.3413400000D-01
     Exponent=  8.2409900000D+00 Coefficients= -7.5094300000D-01
     Exponent=  2.1945500000D+00 Coefficients=  8.8296800000D-01
     Exponent=  1.1091100000D+00 Coefficients=  4.6206100000D-01
     Exponent=  3.7464100000D-01 Coefficients=  2.2286000000D-02
     Exponent=  1.7708000000D-01 Coefficients= -4.3530000000D-03
     Exponent=  8.1061000000D-02 Coefficients=  1.1020000000D-03
 S 11 1.00
     Exponent=  5.5465000000D+03 Coefficients= -7.3000000000D-05
     Exponent=  8.3821400000D+02 Coefficients= -5.0800000000D-04
     Exponent=  1.8218700000D+02 Coefficients= -1.1580000000D-03
     Exponent=  3.1212300000D+01 Coefficients=  1.2193000000D-02
     Exponent=  1.9531400000D+01 Coefficients= -8.7854000000D-02
     Exponent=  8.2409900000D+00 Coefficients=  3.3820000000D-01
     Exponent=  2.1945500000D+00 Coefficients= -5.7655000000D-01
     Exponent=  1.1091100000D+00 Coefficients= -4.0929800000D-01
     Exponent=  3.7464100000D-01 Coefficients=  5.6745900000D-01
     Exponent=  1.7708000000D-01 Coefficients=  6.1248900000D-01
     Exponent=  8.1061000000D-02 Coefficients=  1.4323100000D-01
 S 1 1.00
     Exponent=  3.7464100000D-01 Coefficients=  1.0000000000D+00
 S 1 1.00
     Exponent=  1.7708000000D-01 Coefficients=  1.0000000000D+00
 S 1 1.00
     Exponent=  1.0010000000D-01 Coefficients=  1.0000000000D+00
 S 1 1.00
     Exponent=  4.1200000000D-02 Coefficients=  1.0000000000D+00
 P 9 1.00
     Exponent=  1.8898800000D+02 Coefficients=  5.8500000000D-04
     Exponent=  2.1286800000D+01 Coefficients=  3.6923000000D-02
     Exponent=  1.0039600000D+01 Coefficients= -2.3532400000D-01
     Exponent=  3.4518000000D+00 Coefficients=  3.4148300000D-01
     Exponent=  1.9745600000D+00 Coefficients=  5.3478800000D-01
     Exponent=  1.0242000000D+00 Coefficients=  2.6514100000D-01
     Exponent=  4.4943700000D-01 Coefficients=  2.5787000000D-02
     Exponent=  1.8664800000D-01 Coefficients=  5.2200000000D-04
     Exponent=  7.3481000000D-02 Coefficients=  6.0600000000D-04
 P 9 1.00
     Exponent=  1.8898800000D+02 Coefficients= -2.5600000000D-04
     Exponent=  2.1286800000D+01 Coefficients= -1.1682000000D-02
     Exponent=  1.0039600000D+01 Coefficients=  8.3192000000D-02
     Exponent=  3.4518000000D+00 Coefficients= -1.5697000000D-01
     Exponent=  1.9745600000D+00 Coefficients= -2.2451800000D-01
     Exponent=  1.0242000000D+00 Coefficients= -1.1445100000D-01
     Exponent=  4.4943700000D-01 Coefficients=  3.7535600000D-01
     Exponent=  1.8664800000D-01 Coefficients=  5.7513600000D-01
     Exponent=  7.3481000000D-02 Coefficients=  2.4591700000D-01
 P 1 1.00
     Exponent=  5.9810000000D-01 Coefficients=  1.0000000000D+00
 P 1 1.00
     Exponent=  9.6180000000D-02 Coefficients=  1.0000000000D+00
 P 1 1.00
     Exponent=  3.5900000000D-02 Coefficients=  1.0000000000D+00
 D 9 1.00
     Exponent=  1.3266200000D+02 Coefficients=  5.7200000000D-04
     Exponent=  3.7605400000D+01 Coefficients=  4.4020000000D-03
     Exponent=  1.0389100000D+01 Coefficients= -4.0922000000D-02
     Exponent=  6.4901700000D+00 Coefficients=  9.9661000000D-02
     Exponent=  3.4545100000D+00 Coefficients=  3.2266300000D-01
     Exponent=  1.8441300000D+00 Coefficients=  4.0034300000D-01
     Exponent=  9.6247800000D-01 Coefficients=  2.6830600000D-01
     Exponent=  4.7285300000D-01 Coefficients=  8.4847000000D-02
     Exponent=  1.9320000000D-01 Coefficients=  7.6320000000D-03
 D 1 1.00
     Exponent=  4.7285300000D-01 Coefficients=  1.0000000000D+00
 D 1 1.00
     Exponent=  1.9320000000D-01 Coefficients=  1.0000000000D+00
 D 1 1.00
     Exponent=  7.8200000000D-02 Coefficients=  1.0000000000D+00
 F 1 1.00
     Exponent=  4.0640000000D-01 Coefficients=  1.0000000000D+00
 F 1 1.00
     Exponent=  1.8480000000D-01 Coefficients=  1.0000000000D+00
 ****
 ======================================================================================================
                                       Pseudopotential Parameters
 ======================================================================================================
  Center     Atomic      Valence      Angular      Power
  Number     Number     Electrons     Momentum     of R      Exponent        Coefficient   SO-Coeffient
 ======================================================================================================
    1          8
                                   No pseudopotential on this center.
    2          1
                                   No pseudopotential on this center.
    3         53           25
                                      G and up 
                                                     2        1.0000000        0.00000000    0.00000000
                                      S - G
                                                     2       40.0333760       49.98964900    0.00000000
                                                     2       17.3005760      281.00655600    0.00000000
                                                     2        8.8517200       61.41673900    0.00000000
                                      P - G
                                                     2       15.7201410       67.41623900    0.00000000
                                                     2       15.2082220      134.80769600    0.00000000
                                                     2        8.2941860       14.56654800    0.00000000
                                                     2        7.7539490       28.96842200    0.00000000
                                      D - G
                                                     2       13.8177510       35.53875600    0.00000000
                                                     2       13.5878050       53.33975900    0.00000000
                                                     2        6.9476300        9.71646600    0.00000000
                                                     2        6.9600990       14.97750000    0.00000000
                                      F - G
                                                     2       18.5229500      -20.17661800    0.00000000
                                                     2       18.2510350      -26.08807700    0.00000000
                                                     2        7.5579010       -0.22043400    0.00000000
                                                     2        7.5974040       -0.22164600    0.00000000
    4          1
                                   No pseudopotential on this center.
 ======================================================================================================
 Ernie: Thresh=  0.10000D-02 Tol=  0.10000D-05 Strict=F.
 Ernie:  16 primitive shells out of 135 were deleted.
   191 basis functions,   344 primitive gaussians,   218 cartesian basis functions
    18 alpha electrons       18 beta electrons
       nuclear repulsion energy        47.5173496539 Hartrees.
 IExCor=    0 DFT=F Ex=HF Corr=None ExCW=0 ScaHFX=  1.000000
 ScaDFX=  1.000000  1.000000  1.000000  1.000000 ScalE2=  1.000000  1.000000
 IRadAn=      5 IRanWt=     -1 IRanGd=            0 ICorTp=0 IEmpDi=  4
 NAtoms=    4 NActive=    4 NUniq=    4 SFac= 1.00D+00 NAtFMM=   60 NAOKFM=F Big=F
 Integral buffers will be    131072 words long.
 Raffenetti 1 integral format.
 Two-electron integral symmetry is turned off.
 Leave Link  301 at Tue Oct 19 17:07:50 2021, MaxMem= 16106127360 cpu:               2.4 elap:               0.1
 (Enter /sw/contrib/gaussian/g16/B01/g16/l302.exe)
 NPDir=0 NMtPBC=     1 NCelOv=     1 NCel=       1 NClECP=     1 NCelD=      1
         NCelK=      1 NCelE2=     1 NClLst=     1 CellRange=     0.0.
 One-electron integrals computed using PRISM.
   1 Symmetry operations used in ECPInt.
 ECPInt:  NShTT=    2145 NPrTT=    7341 LenC2=    2146 LenP2D=    6686.
 LDataN:  DoStor=T MaxTD1= 7 Len=  274
 NBasis=   191 RedAO= T EigKep=  4.21D-04  NBF=   191
 NBsUse=   147 1.00D-06 EigRej=  8.93D-16 NBFU=   147
 Leave Link  302 at Tue Oct 19 17:07:50 2021, MaxMem= 16106127360 cpu:               5.9 elap:               0.2
 (Enter /sw/contrib/gaussian/g16/B01/g16/l303.exe)
 DipDrv:  MaxL=1.
 Leave Link  303 at Tue Oct 19 17:07:50 2021, MaxMem= 16106127360 cpu:               0.7 elap:               0.0
 (Enter /sw/contrib/gaussian/g16/B01/g16/l401.exe)
 ExpMin= 2.53D-02 ExpMax= 1.53D+04 ExpMxC= 5.22D+02 IAcc=3 IRadAn=         5 AccDes= 0.00D+00
 Harris functional with IExCor=  205 and IRadAn=       5 diagonalized for initial guess.
 HarFok:  IExCor=  205 AccDes= 0.00D+00 IRadAn=         5 IDoV= 1 UseB2=F ITyADJ=14
 ICtDFT=  3500011 ScaDFX=  1.000000  1.000000  1.000000  1.000000
 Defaulting to unpruned grid for atomic number  53.
 FoFCou: FMM=F IPFlag=           0 FMFlag=      100000 FMFlg1=           0
         NFxFlg=           0 DoJE=T BraDBF=F KetDBF=T FulRan=T
         wScrn=  0.000000 ICntrl=       500 IOpCl=  0 I1Cent=   200000004 NGrid=           0
         NMat0=    1 NMatS0=      1 NMatT0=    0 NMatD0=    1 NMtDS0=    0 NMtDT0=    0
 Symmetry not used in FoFCou.
 Harris En= -372.677571038697    
 JPrj=0 DoOrth=F DoCkMO=F.
 Leave Link  401 at Tue Oct 19 17:07:50 2021, MaxMem= 16106127360 cpu:               7.0 elap:               0.3
 (Enter /sw/contrib/gaussian/g16/B01/g16/l502.exe)
 Keep R1 ints in memory in canonical form, NReq=226100914.
 FoFCou: FMM=F IPFlag=           0 FMFlag=           0 FMFlg1=           0
         NFxFlg=           0 DoJE=F BraDBF=F KetDBF=F FulRan=T
         wScrn=  0.000000 ICntrl=       600 IOpCl=  0 I1Cent=           0 NGrid=           0
         NMat0=    1 NMatS0=  18336 NMatT0=    0 NMatD0=    1 NMtDS0=    0 NMtDT0=    0
 Symmetry not used in FoFCou.
 Two-electron integral symmetry not used.
 Closed shell SCF:
 Using DIIS extrapolation, IDIIS=  1040.
 NGot= 16106127360 LenX= 15937911228 LenY= 15937863263
 Requested convergence on RMS density matrix=1.00D-08 within 128 cycles.
 Requested convergence on MAX density matrix=1.00D-06.
 Requested convergence on             energy=1.00D-06.
 No special actions if energy rises.

 Cycle   1  Pass 1  IDiag  1:
 E= -370.650969821136    
 DIIS: error= 3.80D-02 at cycle   1 NSaved=   1.
 NSaved= 1 IEnMin= 1 EnMin= -370.650969821136     IErMin= 1 ErrMin= 3.80D-02
 ErrMax= 3.80D-02  0.00D+00 EMaxC= 1.00D-01 BMatC= 3.66D-01 BMatP= 3.66D-01
 IDIUse=3 WtCom= 6.20D-01 WtEn= 3.80D-01
 Coeff-Com:  0.100D+01
 Coeff-En:   0.100D+01
 Coeff:      0.100D+01
 Gap=     0.380 Goal=   None    Shift=    0.000
 GapD=    0.380 DampG=1.000 DampE=0.500 DampFc=0.5000 IDamp=-1.
 Damping current iteration by 5.00D-01
 RMSDP=3.26D-03 MaxDP=9.58D-02              OVMax= 1.21D-01

 Cycle   2  Pass 1  IDiag  1:
 E= -370.734324692168     Delta-E=       -0.083354871032 Rises=F Damp=T
 DIIS: error= 1.23D-02 at cycle   2 NSaved=   2.
 NSaved= 2 IEnMin= 2 EnMin= -370.734324692168     IErMin= 2 ErrMin= 1.23D-02
 ErrMax= 1.23D-02  0.00D+00 EMaxC= 1.00D-01 BMatC= 5.72D-02 BMatP= 3.66D-01
 IDIUse=3 WtCom= 8.77D-01 WtEn= 1.23D-01
 Coeff-Com: -0.457D+00 0.146D+01
 Coeff-En:   0.000D+00 0.100D+01
 Coeff:     -0.401D+00 0.140D+01
 Gap=     0.255 Goal=   None    Shift=    0.000
 RMSDP=1.56D-03 MaxDP=7.80D-02 DE=-8.34D-02 OVMax= 6.48D-02

 Cycle   3  Pass 1  IDiag  1:
 E= -370.809265263572     Delta-E=       -0.074940571404 Rises=F Damp=F
 DIIS: error= 4.48D-03 at cycle   3 NSaved=   3.
 NSaved= 3 IEnMin= 3 EnMin= -370.809265263572     IErMin= 3 ErrMin= 4.48D-03
 ErrMax= 4.48D-03  0.00D+00 EMaxC= 1.00D-01 BMatC= 2.38D-03 BMatP= 5.72D-02
 IDIUse=3 WtCom= 9.55D-01 WtEn= 4.48D-02
 Coeff-Com: -0.142D+00 0.286D+00 0.856D+00
 Coeff-En:   0.000D+00 0.000D+00 0.100D+01
 Coeff:     -0.135D+00 0.273D+00 0.862D+00
 Gap=     0.265 Goal=   None    Shift=    0.000
 RMSDP=3.68D-04 MaxDP=1.56D-02 DE=-7.49D-02 OVMax= 1.17D-02

 Cycle   4  Pass 1  IDiag  1:
 E= -370.810850495293     Delta-E=       -0.001585231721 Rises=F Damp=F
 DIIS: error= 7.79D-04 at cycle   4 NSaved=   4.
 NSaved= 4 IEnMin= 4 EnMin= -370.810850495293     IErMin= 4 ErrMin= 7.79D-04
 ErrMax= 7.79D-04  0.00D+00 EMaxC= 1.00D-01 BMatC= 5.12D-05 BMatP= 2.38D-03
 IDIUse=3 WtCom= 9.92D-01 WtEn= 7.79D-03
 Coeff-Com:  0.346D-02-0.208D-01 0.757D-01 0.942D+00
 Coeff-En:   0.000D+00 0.000D+00 0.000D+00 0.100D+01
 Coeff:      0.344D-02-0.206D-01 0.751D-01 0.942D+00
 Gap=     0.267 Goal=   None    Shift=    0.000
 RMSDP=9.95D-05 MaxDP=6.06D-03 DE=-1.59D-03 OVMax= 2.58D-03

 Cycle   5  Pass 1  IDiag  1:
 E= -370.810907541736     Delta-E=       -0.000057046443 Rises=F Damp=F
 DIIS: error= 1.27D-04 at cycle   5 NSaved=   5.
 NSaved= 5 IEnMin= 5 EnMin= -370.810907541736     IErMin= 5 ErrMin= 1.27D-04
 ErrMax= 1.27D-04  0.00D+00 EMaxC= 1.00D-01 BMatC= 4.12D-06 BMatP= 5.12D-05
 IDIUse=3 WtCom= 9.99D-01 WtEn= 1.27D-03
 Coeff-Com:  0.101D-01-0.181D-01-0.607D-01 0.134D-01 0.106D+01
 Coeff-En:   0.000D+00 0.000D+00 0.000D+00 0.000D+00 0.100D+01
 Coeff:      0.101D-01-0.180D-01-0.606D-01 0.134D-01 0.106D+01
 Gap=     0.267 Goal=   None    Shift=    0.000
 RMSDP=3.90D-05 MaxDP=1.52D-03 DE=-5.70D-05 OVMax= 1.08D-03

 Cycle   6  Pass 1  IDiag  1:
 E= -370.810915804322     Delta-E=       -0.000008262586 Rises=F Damp=F
 DIIS: error= 6.19D-05 at cycle   6 NSaved=   6.
 NSaved= 6 IEnMin= 6 EnMin= -370.810915804322     IErMin= 6 ErrMin= 6.19D-05
 ErrMax= 6.19D-05  0.00D+00 EMaxC= 1.00D-01 BMatC= 3.24D-07 BMatP= 4.12D-06
 IDIUse=1 WtCom= 1.00D+00 WtEn= 0.00D+00
 Coeff-Com: -0.361D-02 0.739D-02 0.117D-01-0.953D-01-0.203D+00 0.128D+01
 Coeff:     -0.361D-02 0.739D-02 0.117D-01-0.953D-01-0.203D+00 0.128D+01
 Gap=     0.267 Goal=   None    Shift=    0.000
 RMSDP=1.07D-05 MaxDP=6.69D-04 DE=-8.26D-06 OVMax= 5.56D-04

 Cycle   7  Pass 1  IDiag  1:
 E= -370.810916785658     Delta-E=       -0.000000981336 Rises=F Damp=F
 DIIS: error= 1.13D-05 at cycle   7 NSaved=   7.
 NSaved= 7 IEnMin= 7 EnMin= -370.810916785658     IErMin= 7 ErrMin= 1.13D-05
 ErrMax= 1.13D-05  0.00D+00 EMaxC= 1.00D-01 BMatC= 1.07D-08 BMatP= 3.24D-07
 IDIUse=1 WtCom= 1.00D+00 WtEn= 0.00D+00
 Coeff-Com:  0.400D-03-0.928D-03-0.463D-04 0.234D-01-0.143D-01-0.284D+00
 Coeff-Com:  0.128D+01
 Coeff:      0.400D-03-0.928D-03-0.463D-04 0.234D-01-0.143D-01-0.284D+00
 Coeff:      0.128D+01
 Gap=     0.267 Goal=   None    Shift=    0.000
 RMSDP=2.40D-06 MaxDP=1.12D-04 DE=-9.81D-07 OVMax= 1.15D-04

 Cycle   8  Pass 1  IDiag  1:
 E= -370.810916823942     Delta-E=       -0.000000038284 Rises=F Damp=F
 DIIS: error= 1.66D-06 at cycle   8 NSaved=   8.
 NSaved= 8 IEnMin= 8 EnMin= -370.810916823942     IErMin= 8 ErrMin= 1.66D-06
 ErrMax= 1.66D-06  0.00D+00 EMaxC= 1.00D-01 BMatC= 3.90D-10 BMatP= 1.07D-08
 IDIUse=1 WtCom= 1.00D+00 WtEn= 0.00D+00
 Coeff-Com:  0.128D-03-0.257D-03-0.441D-03 0.309D-02 0.877D-02-0.399D-01
 Coeff-Com: -0.440D-01 0.107D+01
 Coeff:      0.128D-03-0.257D-03-0.441D-03 0.309D-02 0.877D-02-0.399D-01
 Coeff:     -0.440D-01 0.107D+01
 Gap=     0.267 Goal=   None    Shift=    0.000
 RMSDP=4.67D-07 MaxDP=2.59D-05 DE=-3.83D-08 OVMax= 1.64D-05

 Cycle   9  Pass 1  IDiag  1:
 E= -370.810916825066     Delta-E=       -0.000000001124 Rises=F Damp=F
 DIIS: error= 4.85D-07 at cycle   9 NSaved=   9.
 NSaved= 9 IEnMin= 9 EnMin= -370.810916825066     IErMin= 9 ErrMin= 4.85D-07
 ErrMax= 4.85D-07  0.00D+00 EMaxC= 1.00D-01 BMatC= 3.85D-11 BMatP= 3.90D-10
 IDIUse=1 WtCom= 1.00D+00 WtEn= 0.00D+00
 Coeff-Com: -0.368D-04 0.848D-04 0.410D-05-0.202D-02 0.120D-02 0.233D-01
 Coeff-Com: -0.962D-01-0.877D-01 0.116D+01
 Coeff:     -0.368D-04 0.848D-04 0.410D-05-0.202D-02 0.120D-02 0.233D-01
 Coeff:     -0.962D-01-0.877D-01 0.116D+01
 Gap=     0.267 Goal=   None    Shift=    0.000
 RMSDP=1.24D-07 MaxDP=5.65D-06 DE=-1.12D-09 OVMax= 6.49D-06

 Cycle  10  Pass 1  IDiag  1:
 E= -370.810916825186     Delta-E=       -0.000000000120 Rises=F Damp=F
 DIIS: error= 8.84D-08 at cycle  10 NSaved=  10.
 NSaved=10 IEnMin=10 EnMin= -370.810916825186     IErMin=10 ErrMin= 8.84D-08
 ErrMax= 8.84D-08  0.00D+00 EMaxC= 1.00D-01 BMatC= 2.53D-12 BMatP= 3.85D-11
 IDIUse=1 WtCom= 1.00D+00 WtEn= 0.00D+00
 Coeff-Com: -0.926D-05 0.181D-04 0.304D-04-0.214D-03-0.670D-03 0.285D-02
 Coeff-Com:  0.369D-02-0.772D-01 0.239D-01 0.105D+01
 Coeff:     -0.926D-05 0.181D-04 0.304D-04-0.214D-03-0.670D-03 0.285D-02
 Coeff:      0.369D-02-0.772D-01 0.239D-01 0.105D+01
 Gap=     0.267 Goal=   None    Shift=    0.000
 RMSDP=2.83D-08 MaxDP=1.03D-06 DE=-1.20D-10 OVMax= 1.23D-06

 Cycle  11  Pass 1  IDiag  1:
 E= -370.810916825193     Delta-E=       -0.000000000007 Rises=F Damp=F
 DIIS: error= 2.84D-08 at cycle  11 NSaved=  11.
 NSaved=11 IEnMin=11 EnMin= -370.810916825193     IErMin=11 ErrMin= 2.84D-08
 ErrMax= 2.84D-08  0.00D+00 EMaxC= 1.00D-01 BMatC= 1.69D-13 BMatP= 2.53D-12
 IDIUse=1 WtCom= 1.00D+00 WtEn= 0.00D+00
 Coeff-Com:  0.373D-05-0.830D-05-0.254D-05 0.175D-03-0.350D-04-0.193D-02
 Coeff-Com:  0.599D-02 0.159D-01-0.881D-01-0.153D+00 0.122D+01
 Coeff:      0.373D-05-0.830D-05-0.254D-05 0.175D-03-0.350D-04-0.193D-02
 Coeff:      0.599D-02 0.159D-01-0.881D-01-0.153D+00 0.122D+01
 Gap=     0.267 Goal=   None    Shift=    0.000
 RMSDP=1.38D-08 MaxDP=8.79D-07 DE=-6.59D-12 OVMax= 5.24D-07

 Cycle  12  Pass 1  IDiag  1:
 E= -370.810916825193     Delta-E=        0.000000000000 Rises=F Damp=F
 DIIS: error= 6.56D-09 at cycle  12 NSaved=  12.
 NSaved=12 IEnMin=11 EnMin= -370.810916825193     IErMin=12 ErrMin= 6.56D-09
 ErrMax= 6.56D-09  0.00D+00 EMaxC= 1.00D-01 BMatC= 7.34D-15 BMatP= 1.69D-13
 IDIUse=1 WtCom= 1.00D+00 WtEn= 0.00D+00
 Coeff-Com: -0.638D-06 0.157D-05-0.474D-06-0.410D-04 0.462D-04 0.403D-03
 Coeff-Com: -0.178D-02-0.849D-03 0.241D-01-0.872D-02-0.319D+00 0.131D+01
 Coeff:     -0.638D-06 0.157D-05-0.474D-06-0.410D-04 0.462D-04 0.403D-03
 Coeff:     -0.178D-02-0.849D-03 0.241D-01-0.872D-02-0.319D+00 0.131D+01
 Gap=     0.267 Goal=   None    Shift=    0.000
 RMSDP=2.83D-09 MaxDP=1.73D-07 DE= 1.14D-13 OVMax= 8.04D-08

 SCF Done:  E(RHF) =  -370.810916825     A.U. after   12 cycles
            NFock= 12  Conv=0.28D-08     -V/T= 2.9846
 KE= 1.868476903928D+02 PE=-9.087709490320D+02 EE= 3.035949921601D+02
 Leave Link  502 at Tue Oct 19 17:07:55 2021, MaxMem= 16106127360 cpu:              31.0 elap:               4.2
 (Enter /sw/contrib/gaussian/g16/B01/g16/l801.exe)
 ExpMin= 2.53D-02 ExpMax= 1.53D+04 ExpMxC= 5.22D+02 IAcc=3 IRadAn=         5 AccDes= 0.00D+00
 HarFok:  IExCor=  205 AccDes= 0.00D+00 IRadAn=         5 IDoV=-2 UseB2=F ITyADJ=14
 ICtDFT= 12500011 ScaDFX=  1.000000  1.000000  1.000000  1.000000
 Defaulting to unpruned grid for atomic number  53.
 Largest valence mixing into a core orbital is  1.30D-04
 Largest core mixing into a valence orbital is  2.12D-05
 Range of M.O.s used for correlation:     6   147
 NBasis=   191 NAE=    18 NBE=    18 NFC=     5 NFV=     0
 NROrb=    142 NOA=    13 NOB=    13 NVA=   129 NVB=   129

 **** Warning!!: The largest alpha MO coefficient is  0.11016869D+02

 Leave Link  801 at Tue Oct 19 17:07:55 2021, MaxMem= 16106127360 cpu:               1.4 elap:               0.1
 (Enter /sw/contrib/gaussian/g16/B01/g16/l906.exe)
 Frozen-core derivative calculation, NFC=   5 NFV=   0.
 FulOut=F Deriv=T AODrv=F NAtomX=     4
   MMem=         107  MDisk=          13 MDiskD=          13
  W3Min=      576828 MinDsk=     1313419 NBas6D=         218
 NBas2D=       24339    NTT=       23871    LW2=    26219120
    MDV= 16105788347 MDiskM=      369352 NBas2p=       24339
 Fully in-core method, ICMem=   673638917.
 IMap=   1   2   3   4   5   6   7   8   9  10  11  12  13  14  15  16  17  18
 JobTyp=1 Pass  1 fully in-core, NPsUse= 28.
 Compute canonical integrals.
 FoFCou: FMM=F IPFlag=           0 FMFlag=           0 FMFlg1=           0
         NFxFlg=           0 DoJE=F BraDBF=F KetDBF=F FulRan=T
         wScrn=  0.000000 ICntrl=       600 IOpCl=  1 I1Cent=           0 NGrid=           0
         NMat0=    1 NMatS0=  24339 NMatT0=    0 NMatD0=    1 NMtDS0=    0 NMtDT0=    0
 Symmetry not used in FoFCou.
 Spin components of T(2) and E(2):
     alpha-alpha T2 =       0.2154408988D-01 E2=     -0.6703809569D-01
     alpha-beta  T2 =       0.1130418522D+00 E2=     -0.3609203096D+00
     beta-beta   T2 =       0.2154408988D-01 E2=     -0.6703809569D-01
 The integrals were generated   1 times.
 ANorm=    0.1075234873D+01
 E2 =    -0.4949965010D+00 EUMP2 =    -0.37130591332620D+03
 Leave Link  906 at Tue Oct 19 17:08:00 2021, MaxMem= 16106127360 cpu:             132.9 elap:               4.8
 (Enter /sw/contrib/gaussian/g16/B01/g16/l1002.exe)
 Minotr:  Closed shell wavefunction.
          Computing MP2/KS-MP2 derivatives.
          Using Z-Vector for PSCF gradient.
          Skipping F1 and S1 gradient terms here.
          Frozen-core window.
          Direct CPHF calculation.
          Differentiating once with respect to electric field.
                with respect to dipole field.
          Electric field/nuclear overlap derivatives assumed to be zero.
          Requested convergence is 1.0D-10 RMS, and 1.0D-09 maximum.
          NewPWx=F KeepS1=T KeepF1=T KeepIn=T MapXYZ=F SortEE=F KeepMc=T.
 Keep R1 ints in memory in canonical form, NReq=226104350.
 FoFCou: FMM=F IPFlag=           0 FMFlag=           0 FMFlg1=           0
         NFxFlg=           0 DoJE=F BraDBF=F KetDBF=F FulRan=T
         wScrn=  0.000000 ICntrl=       600 IOpCl=  0 I1Cent=           0 NGrid=           0
         NMat0=    1 NMatS0=  18336 NMatT0=    0 NMatD0=    1 NMtDS0=    0 NMtDT0=    0
 Symmetry not used in FoFCou.
 Two-electron integral symmetry not used.
          MDV=   16106127360 using IRadAn=       5.
          Solving linear equations separately, MaxMat=       0.
          There are     1 degrees of freedom in the 1st order CPHF.  IDoFFX=0 NUNeed=     1.
 LinEq1:  Iter=  0 NonCon=     1 RMS=2.63D-03 Max=3.05D-02 NDo=     1
 AX will form     1 AO Fock derivatives at one time.
 LinEq1:  Iter=  1 NonCon=     1 RMS=4.24D-04 Max=4.58D-03 NDo=     1
 LinEq1:  Iter=  2 NonCon=     1 RMS=1.94D-04 Max=2.34D-03 NDo=     1
 LinEq1:  Iter=  3 NonCon=     1 RMS=4.44D-05 Max=5.22D-04 NDo=     1
 LinEq1:  Iter=  4 NonCon=     1 RMS=1.28D-05 Max=1.41D-04 NDo=     1
 LinEq1:  Iter=  5 NonCon=     1 RMS=3.68D-06 Max=3.39D-05 NDo=     1
 LinEq1:  Iter=  6 NonCon=     1 RMS=8.20D-07 Max=7.94D-06 NDo=     1
 LinEq1:  Iter=  7 NonCon=     1 RMS=1.80D-07 Max=1.47D-06 NDo=     1
 LinEq1:  Iter=  8 NonCon=     1 RMS=5.05D-08 Max=4.18D-07 NDo=     1
 LinEq1:  Iter=  9 NonCon=     1 RMS=1.12D-08 Max=1.31D-07 NDo=     1
 LinEq1:  Iter= 10 NonCon=     1 RMS=2.27D-09 Max=2.21D-08 NDo=     1
 LinEq1:  Iter= 11 NonCon=     1 RMS=4.14D-10 Max=4.35D-09 NDo=     1
 LinEq1:  Iter= 12 NonCon=     0 RMS=8.53D-11 Max=9.50D-10 NDo=     1
 Linear equations converged to 1.000D-10 1.000D-09 after    12 iterations.
 End of Minotr F.D. properties file   721 does not exist.
 End of Minotr F.D. properties file   722 does not exist.
 End of Minotr F.D. properties file   788 does not exist.
 Leave Link 1002 at Tue Oct 19 17:08:04 2021, MaxMem= 16106127360 cpu:              37.0 elap:               4.8
 (Enter /sw/contrib/gaussian/g16/B01/g16/l601.exe)
 Copying SCF densities to generalized density rwf, IOpCl= 0 IROHF=0.

 **********************************************************************

            Population analysis using the MP2 Density.

 **********************************************************************

 Alpha  occ. eigenvalues --  -20.41277  -7.46042  -5.28600  -5.28578  -5.28553
 Alpha  occ. eigenvalues --   -2.01343  -2.01337  -2.01314  -2.01286  -2.01281
 Alpha  occ. eigenvalues --   -1.19652  -0.62005  -0.54736  -0.44045  -0.35661
 Alpha  occ. eigenvalues --   -0.13911  -0.13592  -0.13452
 Alpha virt. eigenvalues --    0.13220   0.16343   0.23536   0.24453   0.25751
 Alpha virt. eigenvalues --    0.26781   0.26913   0.29164   0.32289   0.33332
 Alpha virt. eigenvalues --    0.36135   0.36665   0.37686   0.39088   0.40687
 Alpha virt. eigenvalues --    0.41354   0.46542   0.47846   0.51466   0.54259
 Alpha virt. eigenvalues --    0.55662   0.58690   0.64487   0.66530   0.74652
 Alpha virt. eigenvalues --    0.78177   0.78777   0.79051   0.80147   0.80693
 Alpha virt. eigenvalues --    0.80752   0.81870   0.82580   0.84575   0.87087
 Alpha virt. eigenvalues --    0.87907   0.88830   0.88840   0.90044   0.91651
 Alpha virt. eigenvalues --    0.92693   0.94998   0.97096   1.02288   1.04409
 Alpha virt. eigenvalues --    1.07682   1.09741   1.11028   1.13853   1.16737
 Alpha virt. eigenvalues --    1.19221   1.21974   1.27823   1.29940   1.32505
 Alpha virt. eigenvalues --    1.38308   1.45354   1.47455   1.59903   1.66429
 Alpha virt. eigenvalues --    1.68780   1.73460   1.75843   1.75972   1.77663
 Alpha virt. eigenvalues --    1.78983   1.80963   1.82824   1.84325   1.90939
 Alpha virt. eigenvalues --    2.00206   2.03753   2.06029   2.07189   2.10200
 Alpha virt. eigenvalues --    2.11229   2.15550   2.28502   2.33118   2.45097
 Alpha virt. eigenvalues --    2.49699   2.56714   2.60164   2.60813   2.67354
 Alpha virt. eigenvalues --    2.70305   2.84900   2.90662   2.93772   2.96715
 Alpha virt. eigenvalues --    3.08628   3.21133   3.23357   3.66148   3.86294
 Alpha virt. eigenvalues --    3.89476   4.23659   4.27542   4.38304   4.41442
 Alpha virt. eigenvalues --    4.45692   4.52676   4.55716   4.58824   4.71334
 Alpha virt. eigenvalues --    4.92065   5.03395   5.28812   5.35892   5.38039
 Alpha virt. eigenvalues --    5.46215   5.68220   5.78005   6.38011   6.66909
 Alpha virt. eigenvalues --    6.89523   7.12487   7.27856   7.38207   7.44248
 Alpha virt. eigenvalues --    7.47960   7.53857   7.57034   7.69333   7.99076
 Alpha virt. eigenvalues --    8.10932   8.96692  15.78701  59.20372
          Condensed to atoms (all electrons):
               1          2          3          4
     1  O    8.156493   0.206935  -0.054626   0.154281
     2  H    0.206935   0.584208   0.005503   0.018590
     3  I   -0.054626   0.005503  25.952645   0.044446
     4  H    0.154281   0.018590   0.044446   0.556394
 Mulliken charges:
               1
     1  O   -0.463084
     2  H    0.184764
     3  I   -0.947969
     4  H    0.226288
 Sum of Mulliken charges =  -1.00000
 Mulliken charges with hydrogens summed into heavy atoms:
               1
     1  O   -0.052031
     3  I   -0.947969
 Electronic spatial extent (au):  <R**2>=           1238.1386
 Charge=             -1.0000 electrons
 Dipole moment (field-independent basis, Debye):
    X=              4.3056    Y=             14.4064    Z=              0.4511  Tot=             15.0429
 Quadrupole moment (field-independent basis, Debye-Ang):
   XX=            -41.7868   YY=            -95.0574   ZZ=            -41.3702
   XY=            -10.5345   XZ=             -0.1400   YZ=             -0.1306
 Traceless Quadrupole moment (field-independent basis, Debye-Ang):
   XX=             17.6180   YY=            -35.6526   ZZ=             18.0346
   XY=            -10.5345   XZ=             -0.1400   YZ=             -0.1306
 Octapole moment (field-independent basis, Debye-Ang**2):
  XXX=             75.0491  YYY=            537.5179  ZZZ=             -1.9969  XYY=             61.2279
  XXY=            125.1901  XXZ=             -0.9009  XZZ=             23.7631  YZZ=            117.1087
  YYZ=             -3.3712  XYZ=             -0.5466
 Hexadecapole moment (field-independent basis, Debye-Ang**3):
 XXXX=           -183.5854 YYYY=          -3125.7616 ZZZZ=            -78.8430 XXXY=           -257.0510
 XXXZ=              0.6527 YYYX=           -379.7322 YYYZ=             14.0009 ZZZX=              0.5440
 ZZZY=              3.3202 XXYY=           -472.5785 XXZZ=            -43.9270 YYZZ=           -428.5083
 XXYZ=              1.6020 YYXZ=              2.3268 ZZXY=            -83.8302
 N-N= 4.751734965390D+01 E-N=-9.081990427989D+02  KE= 1.870375823075D+02
 No NMR shielding tensors so no spin-rotation constants.
 Leave Link  601 at Tue Oct 19 17:08:05 2021, MaxMem= 16106127360 cpu:               3.8 elap:               0.2
 (Enter /sw/contrib/gaussian/g16/B01/g16/l607.exe)
 ******************************Gaussian NBO Version 3.1******************************
             N A T U R A L   A T O M I C   O R B I T A L   A N D
          N A T U R A L   B O N D   O R B I T A L   A N A L Y S I S
 ******************************Gaussian NBO Version 3.1******************************
       /RESON  / : Allow strongly delocalized NBO set

 Analyzing the MP2 density

 Job title: title                                                           

 Storage needed:    110417 in NPA,    146568 in NBO (********** available)
 GSVD:  LWork=       13161 too small for GESVD, short by       32525 words or       32525 for optimal perf.


 NATURAL POPULATIONS:  Natural atomic orbital occupancies 
                                                          
   NAO  Atom  No  lang   Type(AO)    Occupancy
 --------------------------------------------
     1    O    1  S      Cor( 1S)     1.99992
     2    O    1  S      Val( 2S)     1.88931
     3    O    1  S      Ryd( 3S)     0.00652
     4    O    1  S      Ryd( 4S)     0.00031
     5    O    1  S      Ryd( 5S)     0.00016
     6    O    1  px     Val( 2p)     1.67457
     7    O    1  px     Ryd( 3p)     0.01216
     8    O    1  px     Ryd( 4p)     0.00061
     9    O    1  px     Ryd( 5p)     0.00008
    10    O    1  py     Val( 2p)     1.81350
    11    O    1  py     Ryd( 3p)     0.01540
    12    O    1  py     Ryd( 4p)     0.00059
    13    O    1  py     Ryd( 5p)     0.00025
    14    O    1  pz     Val( 2p)     1.87738
    15    O    1  pz     Ryd( 3p)     0.01790
    16    O    1  pz     Ryd( 4p)     0.00057
    17    O    1  pz     Ryd( 5p)     0.00010
    18    O    1  dxy    Ryd( 3d)     0.00917
    19    O    1  dxy    Ryd( 4d)     0.00066
    20    O    1  dxy    Ryd( 5d)     0.00013
    21    O    1  dxz    Ryd( 3d)     0.00976
    22    O    1  dxz    Ryd( 4d)     0.00081
    23    O    1  dxz    Ryd( 5d)     0.00012
    24    O    1  dyz    Ryd( 3d)     0.00878
    25    O    1  dyz    Ryd( 4d)     0.00053
    26    O    1  dyz    Ryd( 5d)     0.00014
    27    O    1  dx2y2  Ryd( 3d)     0.00910
    28    O    1  dx2y2  Ryd( 4d)     0.00073
    29    O    1  dx2y2  Ryd( 5d)     0.00024
    30    O    1  dz2    Ryd( 3d)     0.00834
    31    O    1  dz2    Ryd( 4d)     0.00061
    32    O    1  dz2    Ryd( 5d)     0.00018
    33    O    1  f(0)   Ryd( 4f)     0.00061
    34    O    1  f(0)   Ryd( 5f)     0.00011
    35    O    1  f(C1)  Ryd( 4f)     0.00046
    36    O    1  f(C1)  Ryd( 5f)     0.00009
    37    O    1  f(S1)  Ryd( 4f)     0.00067
    38    O    1  f(S1)  Ryd( 5f)     0.00012
    39    O    1  f(C2)  Ryd( 4f)     0.00065
    40    O    1  f(C2)  Ryd( 5f)     0.00014
    41    O    1  f(S2)  Ryd( 4f)     0.00055
    42    O    1  f(S2)  Ryd( 5f)     0.00010
    43    O    1  f(C3)  Ryd( 4f)     0.00042
    44    O    1  f(C3)  Ryd( 5f)     0.00011
    45    O    1  f(S3)  Ryd( 4f)     0.00057
    46    O    1  f(S3)  Ryd( 5f)     0.00013

    47    H    2  S      Val( 1S)     0.32979
    48    H    2  S      Ryd( 2S)     0.00055
    49    H    2  S      Ryd( 3S)     0.00026
    50    H    2  S      Ryd( 4S)     0.00005
    51    H    2  px     Ryd( 2p)     0.00076
    52    H    2  px     Ryd( 3p)     0.00067
    53    H    2  px     Ryd( 4p)     0.00005
    54    H    2  py     Ryd( 2p)     0.00075
    55    H    2  py     Ryd( 3p)     0.00018
    56    H    2  py     Ryd( 4p)     0.00007
    57    H    2  pz     Ryd( 2p)     0.00097
    58    H    2  pz     Ryd( 3p)     0.00016
    59    H    2  pz     Ryd( 4p)     0.00006
    60    H    2  dxy    Ryd( 3d)     0.00015
    61    H    2  dxy    Ryd( 4d)     0.00007
    62    H    2  dxz    Ryd( 3d)     0.00021
    63    H    2  dxz    Ryd( 4d)     0.00007
    64    H    2  dyz    Ryd( 3d)     0.00011
    65    H    2  dyz    Ryd( 4d)     0.00006
    66    H    2  dx2y2  Ryd( 3d)     0.00025
    67    H    2  dx2y2  Ryd( 4d)     0.00007
    68    H    2  dz2    Ryd( 3d)     0.00015
    69    H    2  dz2    Ryd( 4d)     0.00007

    70    I    3  S      Cor( 4S)     2.00003
    71    I    3  S      Val( 5S)     1.98055
    72    I    3  S      Ryd( 6S)     0.00422
    73    I    3  S      Ryd( 7S)     0.00065
    74    I    3  S      Ryd( 8S)     0.00011
    75    I    3  S      Ryd( 9S)     0.00000
    76    I    3  px     Cor( 4p)     2.00007
    77    I    3  px     Val( 5p)     1.95099
    78    I    3  px     Ryd( 6p)     0.01135
    79    I    3  px     Ryd( 7p)     0.00076
    80    I    3  px     Ryd( 8p)     0.00008
    81    I    3  py     Cor( 4p)     2.00006
    82    I    3  py     Val( 5p)     1.94545
    83    I    3  py     Ryd( 6p)     0.01065
    84    I    3  py     Ryd( 7p)     0.00069
    85    I    3  py     Ryd( 8p)     0.00012
    86    I    3  pz     Cor( 4p)     2.00007
    87    I    3  pz     Val( 5p)     1.95029
    88    I    3  pz     Ryd( 6p)     0.01132
    89    I    3  pz     Ryd( 7p)     0.00076
    90    I    3  pz     Ryd( 8p)     0.00008
    91    I    3  dxy    Cor( 4d)     1.99676
    92    I    3  dxy    Ryd( 5d)     0.02042
    93    I    3  dxy    Ryd( 6d)     0.00152
    94    I    3  dxy    Ryd( 7d)     0.00018
    95    I    3  dxz    Cor( 4d)     1.99678
    96    I    3  dxz    Ryd( 5d)     0.02029
    97    I    3  dxz    Ryd( 6d)     0.00168
    98    I    3  dxz    Ryd( 7d)     0.00017
    99    I    3  dyz    Cor( 4d)     1.99676
   100    I    3  dyz    Ryd( 5d)     0.02065
   101    I    3  dyz    Ryd( 6d)     0.00153
   102    I    3  dyz    Ryd( 7d)     0.00019
   103    I    3  dx2y2  Cor( 4d)     1.99675
   104    I    3  dx2y2  Ryd( 5d)     0.02034
   105    I    3  dx2y2  Ryd( 6d)     0.00157
   106    I    3  dx2y2  Ryd( 7d)     0.00022
   107    I    3  dz2    Cor( 4d)     1.99677
   108    I    3  dz2    Ryd( 5d)     0.02027
   109    I    3  dz2    Ryd( 6d)     0.00163
   110    I    3  dz2    Ryd( 7d)     0.00018
   111    I    3  f(0)   Ryd( 4f)     0.00276
   112    I    3  f(0)   Ryd( 5f)     0.00045
   113    I    3  f(C1)  Ryd( 4f)     0.00277
   114    I    3  f(C1)  Ryd( 5f)     0.00043
   115    I    3  f(S1)  Ryd( 4f)     0.00274
   116    I    3  f(S1)  Ryd( 5f)     0.00046
   117    I    3  f(C2)  Ryd( 4f)     0.00275
   118    I    3  f(C2)  Ryd( 5f)     0.00046
   119    I    3  f(S2)  Ryd( 4f)     0.00278
   120    I    3  f(S2)  Ryd( 5f)     0.00044
   121    I    3  f(C3)  Ryd( 4f)     0.00272
   122    I    3  f(C3)  Ryd( 5f)     0.00046
   123    I    3  f(S3)  Ryd( 4f)     0.00273
   124    I    3  f(S3)  Ryd( 5f)     0.00047

   125    H    4  S      Val( 1S)     0.29471
   126    H    4  S      Ryd( 2S)     0.00553
   127    H    4  S      Ryd( 3S)     0.00069
   128    H    4  S      Ryd( 4S)     0.00012
   129    H    4  px     Ryd( 2p)     0.00342
   130    H    4  px     Ryd( 3p)     0.00041
   131    H    4  px     Ryd( 4p)     0.00011
   132    H    4  py     Ryd( 2p)     0.00468
   133    H    4  py     Ryd( 3p)     0.00059
   134    H    4  py     Ryd( 4p)     0.00017
   135    H    4  pz     Ryd( 2p)     0.00330
   136    H    4  pz     Ryd( 3p)     0.00047
   137    H    4  pz     Ryd( 4p)     0.00011
   138    H    4  dxy    Ryd( 3d)     0.00020
   139    H    4  dxy    Ryd( 4d)     0.00008
   140    H    4  dxz    Ryd( 3d)     0.00013
   141    H    4  dxz    Ryd( 4d)     0.00007
   142    H    4  dyz    Ryd( 3d)     0.00022
   143    H    4  dyz    Ryd( 4d)     0.00008
   144    H    4  dx2y2  Ryd( 3d)     0.00025
   145    H    4  dx2y2  Ryd( 4d)     0.00009
   146    H    4  dz2    Ryd( 3d)     0.00017
   147    H    4  dz2    Ryd( 4d)     0.00008

 [ 28 electrons found in the effective core potential]

 WARNING:  5 low occupancy (<1.9990e) core orbitals found on  I    3


 Summary of Natural Population Analysis:                  
                                                          
                                       Natural Population 
                Natural  -----------------------------------------------
    Atom  No    Charge         Core      Valence    Rydberg      Total
 -----------------------------------------------------------------------
      O    1   -1.36338      1.99992     7.25476    0.10870     9.36338
      H    2    0.66446      0.00000     0.32979    0.00576     0.33554
      I    3   -0.98540     45.98405     7.82729    0.17406    53.98540
      H    4    0.68433      0.00000     0.29471    0.02096     0.31567
 =======================================================================
   * Total *   -1.00000     47.98397    15.70655    0.30948    64.00000

                                 Natural Population      
 --------------------------------------------------------
   Effective Core            28.00000
   Core                      19.98397 ( 99.9199% of  20)
   Valence                   15.70655 ( 98.1659% of  16)
   Natural Minimal Basis     63.69052 ( 99.5164% of  64)
   Natural Rydberg Basis      0.30948 (  0.4836% of  64)
 --------------------------------------------------------

    Atom  No          Natural Electron Configuration
 ----------------------------------------------------------------------------
      O    1      [core]2S( 1.89)2p( 5.37)3S( 0.01)3p( 0.05)3d( 0.05)
      H    2            1S( 0.33)
      I    3      [core]5S( 1.98)5p( 5.85)4f( 0.02)5d( 0.10)6p( 0.03)6d( 0.01)
      H    4            1S( 0.29)2S( 0.01)2p( 0.01)


 NATURAL BOND ORBITAL ANALYSIS:
 Warning:  a bond orbital has occupanc of -0.00002

                       Occupancies       Lewis Structure    Low   High
           Occ.    -------------------  -----------------   occ   occ
  Cycle   Thresh.   Lewis   Non-Lewis     CR  BD  3C  LP    (L)   (NL)   Dev
 =============================================================================
   1(1)    1.90    63.67496   0.32504     10   2   0   6     0      0    0.01
 -----------------------------------------------------------------------------

 Structure accepted: No low occupancy Lewis orbitals

 WARNING:  5 low occupancy (<1.9990e) core orbitals found on  I    3

 --------------------------------------------------------
   Effective Core           28.00000
   Core                     19.98397 ( 99.920% of  20)
   Valence Lewis            15.69099 ( 98.069% of  16)
  ==================       ============================
   Total Lewis              63.67496 ( 99.492% of  64)
  -----------------------------------------------------
   Valence non-Lewis         0.04239 (  0.066% of  64)
   Rydberg non-Lewis         0.28265 (  0.442% of  64)
  ==================       ============================
   Total non-Lewis           0.32504 (  0.508% of  64)
 --------------------------------------------------------


       (Occupancy)   Bond orbital/ Coefficients/ Hybrids
 ---------------------------------------------------------------------------------
     1. (1.96427) BD ( 1) O   1 - H   2  
                ( 84.00%)   0.9165* O   1 s( 14.78%)p 5.74( 84.82%)d 0.03(  0.38%)
                                                  f 0.00(  0.01%)
                                            0.0001  0.3845  0.0019  0.0027 -0.0034
                                            0.9207 -0.0170  0.0049 -0.0013  0.0091
                                           -0.0077 -0.0002 -0.0022  0.0030  0.0063
                                            0.0002  0.0015 -0.0178  0.0019  0.0014
                                            0.0176 -0.0037  0.0001 -0.0044 -0.0016
                                            0.0011  0.0473 -0.0076  0.0047 -0.0287
                                            0.0038 -0.0023 -0.0002  0.0003 -0.0061
                                           -0.0003 -0.0003 -0.0000 -0.0004 -0.0001
                                           -0.0065  0.0024  0.0050  0.0012  0.0009
                                           -0.0000
                ( 16.00%)   0.4000* H   2 s( 99.78%)p 0.00(  0.18%)d 0.00(  0.04%)
                                            0.9989 -0.0019  0.0004 -0.0002  0.0014
                                            0.0418 -0.0015  0.0005  0.0008 -0.0002
                                            0.0028  0.0017 -0.0004  0.0023 -0.0021
                                            0.0016  0.0016 -0.0041 -0.0010  0.0166
                                           -0.0032 -0.0099  0.0018
     2. (1.96467) BD ( 1) O   1 - H   4  
                ( 85.98%)   0.9272* O   1 s( 16.17%)p 5.16( 83.46%)d 0.02(  0.35%)
                                                  f 0.00(  0.01%)
                                           -0.0001 -0.4021  0.0026  0.0016  0.0025
                                            0.1611 -0.0107 -0.0012  0.0001  0.7230
                                           -0.0142  0.0056 -0.0026 -0.5342  0.0090
                                           -0.0053  0.0042  0.0124 -0.0047  0.0003
                                           -0.0086  0.0035 -0.0004  0.0487 -0.0023
                                           -0.0005  0.0290 -0.0040  0.0017 -0.0032
                                            0.0027 -0.0016  0.0082 -0.0013 -0.0003
                                            0.0009  0.0024  0.0006  0.0040  0.0018
                                           -0.0022 -0.0007 -0.0007 -0.0015  0.0034
                                           -0.0031
                ( 14.02%)   0.3745* H   4 s( 99.76%)p 0.00(  0.23%)d 0.00(  0.01%)
                                           -0.9987  0.0170 -0.0036  0.0002 -0.0269
                                           -0.0019  0.0009  0.0009 -0.0273 -0.0067
                                           -0.0181  0.0194  0.0067 -0.0031  0.0030
                                            0.0018 -0.0022  0.0070  0.0006 -0.0036
                                           -0.0007  0.0036  0.0010
     3. (1.99992) CR ( 1) O   1           s(100.00%)
                                            1.0000 -0.0003 -0.0000 -0.0000  0.0000
                                           -0.0000  0.0000 -0.0000  0.0000  0.0000
                                           -0.0000  0.0000 -0.0000 -0.0000  0.0000
                                           -0.0000  0.0000  0.0000 -0.0000  0.0000
                                           -0.0000  0.0000 -0.0000  0.0000  0.0000
                                           -0.0000 -0.0000 -0.0000  0.0000  0.0000
                                            0.0000 -0.0000  0.0000  0.0000  0.0000
                                            0.0000  0.0000  0.0000  0.0000  0.0000
                                            0.0000 -0.0000 -0.0000 -0.0000 -0.0000
                                           -0.0000
     4. (2.00003) CR ( 1) I   3           s(100.00%)
                                            1.0000 -0.0000  0.0000 -0.0000  0.0000
                                           -0.0000  0.0000 -0.0000 -0.0000 -0.0000
                                            0.0000  0.0000 -0.0000 -0.0000  0.0000
                                            0.0000 -0.0000 -0.0000 -0.0000 -0.0000
                                           -0.0000  0.0000 -0.0000  0.0000  0.0000
                                            0.0000 -0.0000  0.0000 -0.0000  0.0000
                                           -0.0000  0.0000  0.0000 -0.0000  0.0000
                                            0.0000 -0.0000 -0.0000  0.0000  0.0000
                                           -0.0000  0.0000  0.0000 -0.0000 -0.0000
                                           -0.0000 -0.0000  0.0000  0.0000 -0.0000
                                           -0.0000  0.0000  0.0000  0.0000  0.0000
     5. (2.00007) CR ( 2) I   3           s(  0.00%)p 1.00(100.00%)
                                            0.0000  0.0000  0.0000 -0.0000  0.0000
                                            0.0000  1.0000 -0.0000 -0.0000 -0.0000
                                            0.0000 -0.0000  0.0000 -0.0000 -0.0000
                                            0.0000 -0.0000  0.0000  0.0000 -0.0000
                                            0.0000  0.0000 -0.0000  0.0000  0.0000
                                            0.0000 -0.0000  0.0000 -0.0000 -0.0000
                                            0.0000 -0.0000  0.0000  0.0000 -0.0000
                                            0.0000 -0.0000  0.0000  0.0000 -0.0000
                                            0.0000 -0.0000 -0.0000  0.0000  0.0000
                                            0.0000  0.0000 -0.0000 -0.0000 -0.0000
                                           -0.0000  0.0000 -0.0000 -0.0000 -0.0000
     6. (2.00006) CR ( 3) I   3           s(  0.00%)p 1.00(100.00%)
                                            0.0000  0.0000 -0.0000 -0.0000 -0.0000
                                            0.0000 -0.0000  0.0000  0.0000  0.0000
                                           -0.0000  1.0000  0.0000  0.0000 -0.0000
                                           -0.0000 -0.0000  0.0000  0.0000 -0.0000
                                            0.0000 -0.0000  0.0000 -0.0000 -0.0000
                                           -0.0000  0.0000 -0.0000  0.0000 -0.0000
                                            0.0000 -0.0000  0.0000  0.0000 -0.0000
                                           -0.0000  0.0000  0.0000 -0.0000 -0.0000
                                            0.0000 -0.0000 -0.0000 -0.0000 -0.0000
                                           -0.0000 -0.0000 -0.0000 -0.0000  0.0000
                                            0.0000 -0.0000 -0.0000 -0.0000 -0.0000
     7. (2.00007) CR ( 4) I   3           s(  0.00%)p 1.00(100.00%)
                                           -0.0000  0.0000  0.0000 -0.0000  0.0000
                                            0.0000 -0.0000  0.0000  0.0000  0.0000
                                           -0.0000 -0.0000  0.0000 -0.0000 -0.0000
                                            0.0000  1.0000 -0.0000  0.0000 -0.0000
                                            0.0000 -0.0000  0.0000 -0.0000  0.0000
                                           -0.0000  0.0000  0.0000 -0.0000 -0.0000
                                            0.0000 -0.0000  0.0000  0.0000 -0.0000
                                           -0.0000  0.0000  0.0000 -0.0000  0.0000
                                           -0.0000 -0.0000 -0.0000 -0.0000 -0.0000
                                           -0.0000 -0.0000 -0.0000 -0.0000  0.0000
                                            0.0000 -0.0000 -0.0000 -0.0000 -0.0000
     8. (1.99676) CR ( 5) I   3           s(  0.00%)p 0.00(  0.00%)d 1.00(100.00%)
                                            0.0000  0.0000 -0.0000 -0.0000 -0.0000
                                            0.0000  0.0000  0.0000  0.0000  0.0000
                                           -0.0000 -0.0000  0.0000  0.0000 -0.0000
                                           -0.0000 -0.0000  0.0000  0.0000 -0.0000
                                            0.0000  1.0000  0.0000 -0.0000 -0.0000
                                           -0.0000  0.0000 -0.0000  0.0000 -0.0000
                                            0.0000 -0.0000  0.0000  0.0000 -0.0000
                                           -0.0000  0.0000  0.0000 -0.0000  0.0000
                                            0.0000 -0.0000 -0.0000 -0.0000 -0.0000
                                           -0.0000 -0.0000 -0.0000 -0.0000  0.0000
                                            0.0000 -0.0000 -0.0000 -0.0000 -0.0000
     9. (1.99678) CR ( 6) I   3           s(  0.00%)p 0.00(  0.00%)d 1.00(100.00%)
                                            0.0000  0.0000 -0.0000  0.0000 -0.0000
                                            0.0000  0.0000  0.0000  0.0000  0.0000
                                           -0.0000 -0.0000  0.0000  0.0000 -0.0000
                                           -0.0000 -0.0000  0.0000  0.0000  0.0000
                                            0.0000 -0.0000  0.0000 -0.0000 -0.0000
                                            1.0000  0.0000 -0.0000  0.0000 -0.0000
                                            0.0000 -0.0000 -0.0000  0.0000 -0.0000
                                           -0.0000  0.0000  0.0000 -0.0000 -0.0000
                                            0.0000 -0.0000 -0.0000 -0.0000 -0.0000
                                            0.0000  0.0000 -0.0000 -0.0000  0.0000
                                            0.0000 -0.0000 -0.0000  0.0000  0.0000
    10. (1.99676) CR ( 7) I   3           s(  0.00%)p 0.00(  0.00%)d 1.00(100.00%)
                                            0.0000  0.0000 -0.0000 -0.0000 -0.0000
                                            0.0000 -0.0000  0.0000  0.0000 -0.0000
                                           -0.0000 -0.0000  0.0000  0.0000 -0.0000
                                           -0.0000 -0.0000  0.0000  0.0000 -0.0000
                                            0.0000 -0.0000  0.0000 -0.0000  0.0000
                                           -0.0000  0.0000 -0.0000  0.0000  1.0000
                                            0.0000 -0.0000  0.0000  0.0000 -0.0000
                                            0.0000  0.0000  0.0000 -0.0000 -0.0000
                                            0.0000 -0.0000 -0.0000 -0.0000 -0.0000
                                           -0.0000  0.0000 -0.0000 -0.0000  0.0000
                                            0.0000 -0.0000 -0.0000 -0.0000 -0.0000
    11. (1.99675) CR ( 8) I   3           s(  0.00%)p 0.00(  0.00%)d 1.00(100.00%)
                                           -0.0000 -0.0000 -0.0000  0.0000 -0.0000
                                           -0.0000  0.0000  0.0000 -0.0000  0.0000
                                            0.0000  0.0000 -0.0000  0.0000  0.0000
                                           -0.0000  0.0000 -0.0000 -0.0000  0.0000
                                           -0.0000  0.0000 -0.0000  0.0000 -0.0000
                                            0.0000 -0.0000  0.0000  0.0000  0.0000
                                           -0.0000  0.0000 -0.0000  1.0000  0.0000
                                           -0.0000 -0.0000 -0.0000  0.0000 -0.0000
                                           -0.0000  0.0000  0.0000  0.0000  0.0000
                                            0.0000  0.0000  0.0000  0.0000 -0.0000
                                           -0.0000  0.0000  0.0000  0.0000  0.0000
    12. (1.99677) CR ( 9) I   3           s(  0.00%)p 0.00(  0.00%)d 1.00(100.00%)
                                           -0.0000 -0.0000 -0.0000  0.0000 -0.0000
                                           -0.0000  0.0000 -0.0000 -0.0000 -0.0000
                                            0.0000  0.0000 -0.0000  0.0000  0.0000
                                           -0.0000  0.0000  0.0000 -0.0000  0.0000
                                           -0.0000  0.0000 -0.0000  0.0000 -0.0000
                                            0.0000 -0.0000 -0.0000  0.0000  0.0000
                                           -0.0000  0.0000 -0.0000 -0.0000  0.0000
                                            0.0000 -0.0000  1.0000  0.0000 -0.0000
                                            0.0000  0.0000  0.0000  0.0000  0.0000
                                            0.0000  0.0000  0.0000  0.0000 -0.0000
                                           -0.0000  0.0000  0.0000  0.0000  0.0000
    13. (1.97262) LP ( 1) O   1           s( 68.63%)p 0.46( 31.25%)d 0.00(  0.11%)
                                                  f 0.00(  0.00%)
                                            0.0002  0.8284  0.0011 -0.0001  0.0024
                                           -0.3479 -0.0102  0.0064 -0.0007  0.3871
                                            0.0099 -0.0045  0.0007 -0.2032 -0.0050
                                            0.0028  0.0005  0.0239 -0.0023 -0.0020
                                           -0.0166  0.0021  0.0011  0.0097 -0.0035
                                            0.0014 -0.0022  0.0072 -0.0056  0.0052
                                           -0.0044  0.0030  0.0026 -0.0014  0.0005
                                           -0.0016 -0.0003 -0.0003  0.0000 -0.0004
                                            0.0029 -0.0006  0.0005  0.0020  0.0035
                                           -0.0014
    14. (1.96126) LP ( 2) O   1           s(  0.35%)p99.99( 99.33%)d 0.87(  0.30%)
                                                  f 0.08(  0.03%)
                                            0.0000  0.0583 -0.0070 -0.0034  0.0001
                                           -0.0159 -0.0018  0.0009 -0.0014 -0.5684
                                           -0.0110  0.0022 -0.0020 -0.8182 -0.0194
                                            0.0046 -0.0035 -0.0238  0.0080 -0.0025
                                           -0.0353  0.0107 -0.0028  0.0046  0.0026
                                           -0.0026 -0.0136 -0.0003  0.0022 -0.0280
                                            0.0002  0.0036  0.0035 -0.0021  0.0014
                                           -0.0003  0.0097 -0.0029 -0.0099  0.0041
                                           -0.0005  0.0002  0.0008  0.0004 -0.0048
                                            0.0028
    15. (1.98061) LP ( 1) I   3           s( 99.91%)p 0.00(  0.09%)d 0.00(  0.00%)
                                                  f 0.00(  0.00%)
                                            0.0000  0.9995 -0.0000  0.0001 -0.0000
                                           -0.0000 -0.0000 -0.0038  0.0004 -0.0001
                                            0.0001 -0.0000 -0.0301  0.0005 -0.0005
                                            0.0002 -0.0000 -0.0033  0.0007 -0.0002
                                            0.0002 -0.0000  0.0010 -0.0003 -0.0000
                                           -0.0000  0.0004 -0.0001 -0.0000 -0.0000
                                            0.0020 -0.0006 -0.0001  0.0000 -0.0014
                                            0.0003  0.0002  0.0000 -0.0009  0.0003
                                            0.0000 -0.0005 -0.0004 -0.0001 -0.0001
                                           -0.0003 -0.0003 -0.0006 -0.0006  0.0002
                                            0.0002 -0.0004 -0.0003 -0.0004 -0.0003
    16. (1.95152) LP ( 2) I   3           s(  0.00%)p 1.00( 99.99%)d 0.00(  0.00%)
                                                  f 0.00(  0.00%)
                                           -0.0000  0.0055  0.0006 -0.0014  0.0015
                                           -0.0001  0.0000  0.5983  0.0004  0.0006
                                           -0.0003  0.0000  0.1925 -0.0013 -0.0003
                                            0.0002 -0.0000 -0.7778  0.0011 -0.0003
                                            0.0001 -0.0000  0.0028 -0.0008 -0.0001
                                           -0.0000  0.0004 -0.0002  0.0000  0.0000
                                           -0.0006 -0.0005  0.0013  0.0000  0.0021
                                           -0.0011  0.0017  0.0000 -0.0033  0.0019
                                           -0.0014 -0.0000 -0.0003 -0.0006 -0.0005
                                           -0.0017 -0.0017  0.0002 -0.0002  0.0004
                                            0.0004 -0.0007 -0.0004  0.0005  0.0005
    17. (1.95141) LP ( 3) I   3           s(  0.01%)p 1.00( 99.99%)d 0.00(  0.00%)
                                                  f 0.00(  0.00%)
                                           -0.0000  0.0075  0.0020 -0.0036  0.0034
                                           -0.0001 -0.0000 -0.7716 -0.0005 -0.0008
                                            0.0002  0.0000  0.4002 -0.0023 -0.0008
                                            0.0011 -0.0000 -0.4944  0.0009 -0.0003
                                            0.0001  0.0000 -0.0025  0.0003  0.0005
                                            0.0000 -0.0032  0.0018 -0.0016  0.0000
                                            0.0010 -0.0009  0.0012  0.0000 -0.0025
                                            0.0012 -0.0000  0.0000 -0.0009  0.0005
                                            0.0001 -0.0001 -0.0004 -0.0000 -0.0001
                                           -0.0011 -0.0011 -0.0007 -0.0010 -0.0013
                                           -0.0013  0.0003 -0.0001 -0.0012 -0.0011
    18. (1.94462) LP ( 4) I   3           s(  0.08%)p99.99( 99.89%)d 0.32(  0.03%)
                                                  f 0.03(  0.00%)
                                            0.0000  0.0290 -0.0004 -0.0008  0.0000
                                            0.0002 -0.0000  0.2161  0.0013  0.0001
                                           -0.0004 -0.0000  0.8953  0.0006 -0.0011
                                           -0.0000 -0.0000  0.3880  0.0030 -0.0001
                                            0.0002 -0.0000  0.0056 -0.0009  0.0000
                                           -0.0000  0.0031 -0.0009  0.0004 -0.0000
                                            0.0120 -0.0031  0.0012  0.0000 -0.0074
                                            0.0000  0.0020  0.0000 -0.0034 -0.0002
                                            0.0010 -0.0021 -0.0016 -0.0002 -0.0002
                                           -0.0005 -0.0004 -0.0025 -0.0020  0.0012
                                            0.0007 -0.0013 -0.0007 -0.0012 -0.0008
    19. (0.01986) RY*( 1) O   1           s(  0.03%)p99.99( 97.11%)d99.99(  2.77%)
                                                  f 3.42(  0.09%)
                                            0.0000 -0.0003  0.0147  0.0076  0.0004
                                           -0.0003  0.0096 -0.0020  0.0032 -0.0183
                                            0.5732  0.0200 -0.0029 -0.0255  0.8003
                                            0.0246 -0.0024  0.0872 -0.0216  0.0047
                                            0.1176 -0.0284  0.0058 -0.0034 -0.0052
                                            0.0052  0.0270 -0.0014 -0.0043  0.0635
                                           -0.0048 -0.0067 -0.0074  0.0053  0.0032
                                           -0.0005 -0.0112  0.0087  0.0173 -0.0120
                                           -0.0004 -0.0005  0.0027 -0.0015  0.0110
                                           -0.0082
    20. (0.01578) RY*( 2) O   1           s( 13.05%)p 6.36( 83.03%)d 0.29(  3.80%)
                                                  f 0.01(  0.13%)
                                           -0.0000 -0.0163  0.3608  0.0032  0.0035
                                            0.0100 -0.5596  0.0031 -0.0016 -0.0065
                                            0.5853  0.0169 -0.0144  0.0046 -0.4169
                                           -0.0117  0.0065  0.1397 -0.0092 -0.0086
                                           -0.1200  0.0127  0.0035  0.0321 -0.0149
                                            0.0026 -0.0119  0.0337 -0.0183  0.0085
                                           -0.0251  0.0131  0.0067 -0.0077 -0.0060
                                           -0.0044 -0.0054  0.0004 -0.0143  0.0025
                                            0.0159 -0.0064  0.0133  0.0047  0.0182
                                           -0.0079
    21. (0.00979) RY*( 3) O   1           s(  0.18%)p99.99( 93.09%)d36.30(  6.49%)
                                                  f 1.34(  0.24%)
                                           -0.0000  0.0014  0.0235  0.0347  0.0051
                                            0.0303  0.7771 -0.0130 -0.0049  0.0171
                                            0.4563  0.0169 -0.0245 -0.0123 -0.3399
                                           -0.0145  0.0246  0.1184 -0.0094  0.0059
                                           -0.0366  0.0033 -0.0033 -0.0693 -0.0244
                                            0.0029 -0.1714 -0.0966  0.0448  0.0095
                                            0.0502 -0.0262 -0.0048 -0.0013  0.0142
                                            0.0074 -0.0063  0.0007 -0.0239  0.0080
                                            0.0053  0.0010 -0.0132 -0.0107  0.0302
                                           -0.0148
    22. (0.00662) RY*( 4) O   1           s( 38.57%)p 0.05(  1.86%)d 1.53( 58.83%)
                                                  f 0.02(  0.74%)
                                            0.0000  0.0126  0.6207 -0.0167  0.0043
                                           -0.0063  0.1183 -0.0091 -0.0058  0.0066
                                           -0.0546  0.0033 -0.0155 -0.0120  0.0312
                                           -0.0065 -0.0061 -0.6124 -0.0342  0.0106
                                            0.2575  0.0085 -0.0031  0.1319  0.0304
                                            0.0011 -0.0815 -0.0199  0.0092  0.3448
                                            0.0354 -0.0035  0.0029 -0.0005  0.0185
                                            0.0017 -0.0119  0.0103  0.0086  0.0023
                                           -0.0407  0.0172 -0.0492  0.0100 -0.0449
                                            0.0148
    23. (0.00631) RY*( 5) O   1           s(  2.76%)p 0.23(  0.64%)d34.50( 95.27%)
                                                  f 0.48(  1.32%)
                                           -0.0000  0.0042  0.1659 -0.0084 -0.0031
                                           -0.0058 -0.0196 -0.0089  0.0061 -0.0057
                                           -0.0744 -0.0072  0.0092 -0.0027 -0.0094
                                            0.0001 -0.0095  0.2431  0.0298 -0.0046
                                            0.6148  0.0619 -0.0156  0.3072  0.0366
                                           -0.0065 -0.3669 -0.0301  0.0008 -0.5265
                                           -0.0455  0.0048 -0.0548  0.0246  0.0123
                                           -0.0047  0.0589 -0.0266  0.0432 -0.0145
                                           -0.0118  0.0045 -0.0043 -0.0023  0.0498
                                           -0.0233
    24. (0.00590) RY*( 6) O   1           s(  0.07%)p38.03(  2.58%)d99.99( 96.41%)
                                                  f13.90(  0.94%)
                                            0.0000  0.0006  0.0260 -0.0008  0.0010
                                           -0.0001  0.0036 -0.0001 -0.0058 -0.0294
                                           -0.0966 -0.0130 -0.0132 -0.0376 -0.1158
                                           -0.0198 -0.0016  0.4861  0.0694 -0.0153
                                            0.5272  0.0792 -0.0165 -0.1621 -0.0176
                                            0.0033  0.3151  0.0326  0.0009  0.5542
                                            0.0644 -0.0039 -0.0054 -0.0000  0.0338
                                           -0.0124 -0.0627  0.0278  0.0427 -0.0176
                                           -0.0044  0.0017  0.0283 -0.0102  0.0182
                                           -0.0047
    25. (0.00577) RY*( 7) O   1           s(  6.45%)p 1.02(  6.55%)d13.33( 86.05%)
                                                  f 0.15(  0.94%)
                                           -0.0000  0.0096  0.2533 -0.0144 -0.0098
                                            0.0267  0.1060  0.0107 -0.0090 -0.0374
                                           -0.1840 -0.0297  0.0070  0.0258  0.1279
                                            0.0127 -0.0015  0.4177  0.0393 -0.0081
                                           -0.4139 -0.0456  0.0100  0.6532  0.0961
                                           -0.0099 -0.0902 -0.0305  0.0110  0.2520
                                            0.0465 -0.0116  0.0553 -0.0206  0.0104
                                           -0.0002  0.0141 -0.0055  0.0128 -0.0051
                                            0.0627 -0.0268  0.0108 -0.0107  0.0214
                                           -0.0072
    26. (0.00322) RY*( 8) O   1           s( 37.63%)p 0.23(  8.57%)d 1.41( 53.21%)
                                                  f 0.02(  0.59%)
                                            0.0000 -0.0079  0.6132  0.0041 -0.0138
                                           -0.0196  0.1626 -0.0242 -0.0135  0.0005
                                           -0.1929  0.0015 -0.0258 -0.0015  0.1416
                                           -0.0090  0.0086  0.2396  0.0421 -0.0018
                                           -0.1872 -0.0364  0.0021 -0.4068 -0.1032
                                            0.0006  0.3301  0.0686  0.0087 -0.3710
                                           -0.0947 -0.0022 -0.0185  0.0171 -0.0265
                                            0.0302 -0.0125  0.0121 -0.0086  0.0151
                                            0.0082 -0.0097  0.0331 -0.0415 -0.0083
                                           -0.0002
    27. (0.00289) RY*( 9) O   1           s(  0.99%)p 7.00(  6.93%)d91.55( 90.54%)
                                                  f 1.56(  1.54%)
                                           -0.0000 -0.0021  0.0968  0.0225  0.0015
                                            0.0431 -0.1324  0.0689 -0.0234  0.0253
                                           -0.1603  0.0437 -0.0346 -0.0181  0.1169
                                           -0.0312  0.0134  0.1757  0.0513 -0.0012
                                           -0.1192 -0.0329  0.0017 -0.4631 -0.0910
                                           -0.0036 -0.7446 -0.1445 -0.0094  0.2379
                                            0.0422  0.0007 -0.0070  0.0117  0.0287
                                           -0.0192 -0.0338  0.0210 -0.0656  0.0405
                                           -0.0080 -0.0041 -0.0442  0.0235  0.0560
                                           -0.0285
    28. (0.00062) RY*(10) O   1           s( 14.92%)p 2.68( 39.95%)d 2.40( 35.85%)
                                                  f 0.62(  9.27%)
                                            0.0000 -0.0059 -0.0254  0.3743  0.0921
                                           -0.0030  0.0033  0.2906 -0.1299 -0.0022
                                           -0.0013 -0.2087 -0.3905 -0.0032 -0.0231
                                            0.3179  0.0223 -0.0184  0.1468 -0.0088
                                            0.0402 -0.1879  0.0227  0.0641 -0.0393
                                            0.1437  0.0271 -0.1554 -0.0125  0.0261
                                           -0.4967 -0.0198 -0.0413 -0.0394 -0.0319
                                           -0.0033 -0.2611  0.0327 -0.0945 -0.0578
                                           -0.0028  0.0324 -0.0292  0.0555 -0.0245
                                            0.0367
    29. (0.00060) RY*(11) O   1           s( 13.09%)p 4.97( 65.08%)d 1.46( 19.05%)
                                                  f 0.21(  2.78%)
                                           -0.0000  0.0002 -0.0031  0.3604  0.0312
                                            0.0002 -0.0234 -0.2973  0.0081 -0.0048
                                           -0.0033 -0.6502 -0.1425  0.0006  0.0365
                                           -0.3369  0.0628 -0.0228 -0.0933 -0.0343
                                           -0.0149  0.2030  0.0303  0.0350 -0.2860
                                            0.0252 -0.0288  0.0719  0.0412 -0.0206
                                            0.2124  0.0285  0.0779 -0.0293 -0.0459
                                            0.0085 -0.0612 -0.0072 -0.0522 -0.0157
                                            0.0440  0.0048  0.0172 -0.0089  0.0979
                                            0.0057
    30. (0.00057) RY*(12) O   1           s(  0.25%)p99.99( 25.87%)d99.99( 62.28%)
                                                  f46.86( 11.60%)
                                           -0.0000  0.0054  0.0005  0.0468 -0.0160
                                           -0.0019 -0.0333 -0.4803  0.0089 -0.0107
                                           -0.0490  0.1271 -0.0399 -0.0097 -0.0233
                                            0.0761 -0.0119  0.0384 -0.6114 -0.1110
                                            0.0248 -0.3447 -0.0813 -0.0082  0.0037
                                            0.0137  0.0170 -0.2853 -0.0034  0.0275
                                           -0.1530 -0.0556 -0.0620  0.0096  0.0895
                                            0.0239 -0.1462  0.0140  0.1815 -0.0281
                                            0.0422 -0.0098  0.0701 -0.0261  0.2007
                                           -0.0195
    31. (0.00055) RY*(13) O   1           s(  0.66%)p51.52( 34.19%)d70.81( 46.98%)
                                                  f27.38( 18.17%)
                                           -0.0000  0.0046  0.0014  0.0806 -0.0108
                                            0.0001 -0.0215 -0.4433 -0.0115  0.0040
                                           -0.0138  0.2483 -0.0150  0.0112  0.0267
                                            0.2789  0.0636  0.0032  0.1042  0.0484
                                           -0.0193  0.5800  0.1468  0.0058 -0.0035
                                            0.0231  0.0130 -0.2745 -0.0087 -0.0021
                                           -0.1335 -0.0653  0.2538 -0.0200 -0.0261
                                            0.0195 -0.0461  0.0086 -0.2591  0.0057
                                            0.1113 -0.0038 -0.0462 -0.0270 -0.1754
                                            0.0195
    32. (0.00050) RY*(14) O   1           s(  0.85%)p15.85( 13.51%)d76.75( 65.42%)
                                                  f23.73( 20.22%)
                                            0.0000  0.0010  0.0239  0.0889  0.0066
                                           -0.0071 -0.0505 -0.1789 -0.0239  0.0090
                                            0.0189 -0.2752 -0.0194 -0.0043 -0.0037
                                            0.1511  0.0217  0.0250  0.1925  0.0772
                                           -0.0205 -0.1429 -0.0647 -0.1118  0.5615
                                            0.1323  0.0437 -0.3093 -0.0088 -0.0684
                                            0.3676  0.0521 -0.1968  0.0056  0.1201
                                            0.0467  0.0141  0.0048  0.1215  0.0108
                                           -0.0588 -0.0178 -0.1900 -0.0667 -0.2956
                                           -0.0045
    33. (0.00046) RY*(15) O   1           s(  0.11%)p99.99( 19.82%)d99.99( 12.16%)
                                                  f99.99( 67.91%)
                                            0.0000 -0.0039  0.0279 -0.0111  0.0129
                                           -0.0013  0.0071  0.1405  0.0379 -0.0018
                                           -0.0029 -0.1891  0.0757  0.0021 -0.0025
                                            0.3605  0.0744  0.0020 -0.1345 -0.0364
                                           -0.0029  0.0925  0.0157 -0.0815  0.2647
                                            0.0335  0.0031  0.0797  0.0080 -0.0289
                                            0.0899  0.0152  0.5632  0.0713 -0.0575
                                           -0.0039  0.0261  0.0193  0.0984  0.0537
                                           -0.3142 -0.0414 -0.0852 -0.0151  0.4816
                                            0.0106
    34. (0.00044) RY*(16) O   1           s(  0.01%)p99.99(  2.26%)d99.99(  3.11%)
                                                  f99.99( 94.62%)
                                            0.0000 -0.0006  0.0018 -0.0005  0.0107
                                            0.0014  0.0021  0.0477  0.0182  0.0039
[...]
                                           -0.0202  0.0227  0.6409 -0.0106  0.0014
                                            0.5800  0.1448 -0.0244  0.0165  0.0076
                                            0.0011 -0.0127 -0.0662  0.0133  0.0515
                                           -0.0486 -0.0465 -0.0411
   126. (0.00304) RY*( 3) H   4           s(  1.05%)p92.93( 97.24%)d 1.64(  1.72%)
                                            0.0152  0.0920  0.0323 -0.0267 -0.8606
                                            0.0138 -0.0155  0.0632  0.1006 -0.0044
                                            0.4622  0.0590  0.0013  0.0549 -0.0231
                                            0.0626  0.0009  0.0380  0.0286 -0.0830
                                            0.0016  0.0154 -0.0183
   127. (0.00173) RY*( 4) H   4           s( 29.50%)p 2.38( 70.07%)d 0.01(  0.43%)
                                            0.0323  0.5108 -0.1574  0.0907 -0.2555
                                            0.0304  0.0287  0.4823 -0.1242  0.0182
                                           -0.6180  0.0503  0.0292  0.0463 -0.0064
                                            0.0193 -0.0015  0.0233 -0.0050  0.0025
                                           -0.0192  0.0282  0.0025
   128. (0.00092) RY*( 5) H   4           s( 58.55%)p 0.63( 36.87%)d 0.08(  4.58%)
                                           -0.0087  0.0636  0.7604  0.0558  0.0670
                                            0.2339 -0.0152  0.1392  0.4730 -0.1331
                                           -0.1127  0.1862 -0.0340  0.0167  0.0155
                                            0.0550 -0.0479  0.1628 -0.0559  0.0043
                                           -0.0091  0.1006  0.0111
   129. (0.00042) RY*( 6) H   4           s(  0.23%)p99.99( 92.03%)d33.24(  7.73%)
                                            0.0001  0.0070  0.0461  0.0124 -0.0152
                                            0.8671 -0.0217 -0.0118 -0.3265  0.0579
                                            0.0743 -0.2260 -0.0325  0.0371  0.1425
                                            0.0460 -0.0886 -0.1646  0.0059  0.0960
                                            0.0418 -0.0802  0.0339
   130. (0.00033) RY*( 7) H   4           s( 11.77%)p 4.52( 53.24%)d 2.97( 34.99%)
                                           -0.0128  0.0358  0.2874  0.1834  0.0069
                                           -0.1949  0.1884  0.0971 -0.0224  0.4089
                                            0.0258 -0.5293  0.0306  0.1369  0.0717
                                           -0.0831 -0.0685 -0.0746 -0.1724 -0.4083
                                           -0.1669 -0.2883  0.0386
   131. (0.00026) RY*( 8) H   4           s(  4.77%)p 5.73( 27.35%)d14.22( 67.87%)
                                           -0.0075  0.0617  0.2095  0.0027 -0.0673
                                           -0.2445  0.1022  0.0129 -0.0601 -0.2694
                                            0.0104 -0.3256 -0.1278  0.2787 -0.1154
                                            0.1162  0.1129 -0.3553 -0.0964  0.6318
                                            0.0751 -0.0670  0.1291
   132. (0.00022) RY*( 9) H   4           s(  2.69%)p14.80( 39.77%)d21.40( 57.54%)
                                            0.0039  0.0867  0.1390 -0.0055 -0.0201
                                           -0.0847 -0.1794  0.1076 -0.2137 -0.3585
                                            0.0726 -0.4025 -0.0701 -0.5476 -0.1168
                                           -0.2720 -0.0752  0.2222  0.0428 -0.1008
                                            0.2044  0.1482  0.2389
   133. (0.00019) RY*(10) H   4           s(  4.20%)p 3.62( 15.19%)d19.20( 80.61%)
                                           -0.0076  0.0393 -0.0579  0.1924 -0.0879
                                            0.0330 -0.0219 -0.0371  0.3067  0.1038
                                           -0.0502  0.1254 -0.1347 -0.5107  0.0206
                                           -0.3427 -0.0977 -0.5552 -0.0914  0.1347
                                           -0.0310 -0.2212 -0.1824
   134. (0.00015) RY*(11) H   4           s( 38.05%)p 0.93( 35.39%)d 0.70( 26.56%)
                                           -0.0137 -0.0177 -0.3130  0.5311  0.0576
                                            0.1022 -0.2882 -0.0109  0.3272 -0.1788
                                            0.0183 -0.1125 -0.3238  0.1951 -0.0818
                                            0.2032  0.0964  0.0326 -0.1490 -0.2100
                                            0.2453 -0.0888  0.1867
   135. (0.00012) RY*(12) H   4           s( 12.62%)p 2.21( 27.89%)d 4.71( 59.49%)
                                           -0.0074  0.0430 -0.0450  0.3497  0.0148
                                            0.0110 -0.2426 -0.0247  0.0888  0.3004
                                            0.0786 -0.2511  0.2274 -0.0412  0.0055
                                           -0.0177  0.1016  0.0465 -0.0436  0.2657
                                           -0.2501  0.6414 -0.1842
   136. (0.00010) RY*(13) H   4           s(  1.45%)p33.83( 49.01%)d34.19( 49.54%)
                                            0.0084 -0.0141  0.1175 -0.0204 -0.0335
                                           -0.0150 -0.3445 -0.0391 -0.3202  0.2006
                                            0.0135  0.2601 -0.3974  0.1228 -0.2720
                                           -0.2815 -0.0160  0.2127 -0.4490  0.1305
                                           -0.2303 -0.0938  0.0347
   137. (0.00010) RY*(14) H   4           s(  2.45%)p16.58( 40.62%)d23.23( 56.93%)
                                            0.0097  0.0016 -0.0040  0.1562 -0.0201
                                           -0.0923  0.4565 -0.0565 -0.1827 -0.0260
                                            0.0418  0.1330 -0.3636 -0.2307  0.4360
                                            0.2843 -0.1105  0.0463 -0.3748 -0.0050
                                            0.0101  0.2970  0.0437
   138. (0.00008) RY*(15) H   4           s(  2.10%)p 9.15( 19.17%)d37.56( 78.73%)
   139. (0.00007) RY*(16) H   4           s(  1.85%)p 1.94(  3.59%)d51.14( 94.56%)
   140. (0.00007) RY*(17) H   4           s(  4.94%)p 3.75( 18.53%)d15.49( 76.53%)
   141. (0.00006) RY*(18) H   4           s(  0.90%)p 9.71(  8.78%)d99.85( 90.31%)
   142. (0.00005) RY*(19) H   4           s( 38.20%)p 1.28( 49.00%)d 0.34( 12.80%)
   143. (0.00003) RY*(20) H   4           s(  0.49%)p52.89( 25.81%)d99.99( 73.70%)
   144. (0.00003) RY*(21) H   4           s(  1.91%)p14.00( 26.69%)d37.45( 71.41%)
   145. (0.00001) RY*(22) H   4           s( 11.50%)p 3.19( 36.69%)d 4.50( 51.81%)
   146. (0.01933) BD*( 1) O   1 - H   2  
                ( 16.00%)   0.4000* O   1 s( 14.78%)p 5.74( 84.82%)d 0.03(  0.38%)
                                                  f 0.00(  0.01%)
                                           -0.0001 -0.3845 -0.0019 -0.0027  0.0034
                                           -0.9207  0.0170 -0.0049  0.0013 -0.0091
                                            0.0077  0.0002  0.0022 -0.0030 -0.0063
                                           -0.0002 -0.0015  0.0178 -0.0019 -0.0014
                                           -0.0176  0.0037 -0.0001  0.0044  0.0016
                                           -0.0011 -0.0473  0.0076 -0.0047  0.0287
                                           -0.0038  0.0023  0.0002 -0.0003  0.0061
                                            0.0003  0.0003  0.0000  0.0004  0.0001
                                            0.0065 -0.0024 -0.0050 -0.0012 -0.0009
                                            0.0000
                ( 84.00%)  -0.9165* H   2 s( 99.78%)p 0.00(  0.18%)d 0.00(  0.04%)
                                           -0.9989  0.0019 -0.0004  0.0002 -0.0014
                                           -0.0418  0.0015 -0.0005 -0.0008  0.0002
                                           -0.0028 -0.0017  0.0004 -0.0023  0.0021
                                           -0.0016 -0.0016  0.0041  0.0010 -0.0166
                                            0.0032  0.0099 -0.0018
   147. (0.02306) BD*( 1) O   1 - H   4  
                ( 14.02%)   0.3745* O   1 s( 16.17%)p 5.16( 83.46%)d 0.02(  0.35%)
                                                  f 0.00(  0.01%)
                                            0.0001  0.4021 -0.0026 -0.0016 -0.0025
                                           -0.1611  0.0107  0.0012 -0.0001 -0.7230
                                            0.0142 -0.0056  0.0026  0.5342 -0.0090
                                            0.0053 -0.0042 -0.0124  0.0047 -0.0003
                                            0.0086 -0.0035  0.0004 -0.0487  0.0023
                                            0.0005 -0.0290  0.0040 -0.0017  0.0032
                                           -0.0027  0.0016 -0.0082  0.0013  0.0003
                                           -0.0009 -0.0024 -0.0006 -0.0040 -0.0018
                                            0.0022  0.0007  0.0007  0.0015 -0.0034
                                            0.0031
                ( 85.98%)  -0.9272* H   4 s( 99.76%)p 0.00(  0.23%)d 0.00(  0.01%)
                                            0.9987 -0.0170  0.0036 -0.0002  0.0269
                                            0.0019 -0.0009 -0.0009  0.0273  0.0067
                                            0.0181 -0.0194 -0.0067  0.0031 -0.0030
                                           -0.0018  0.0022 -0.0070 -0.0006  0.0036
                                            0.0007 -0.0036 -0.0010


 NHO Directionality and "Bond Bending" (deviations from line of nuclear centers)

         [Thresholds for printing:  angular deviation  >  1.0 degree]
                                    hybrid p-character > 25.0%
                                    orbital occupancy  >  0.10e

                                Line of Centers        Hybrid 1              Hybrid 2
                                ---------------  -------------------   ------------------
                NBO               Theta   Phi    Theta   Phi    Dev    Theta   Phi    Dev
 ========================================================================================
    13. LP (   1) O   1             --     --    111.2  131.9   --       --     --    --
    14. LP (   2) O   1             --     --    145.3  268.2   --       --     --    --
    16. LP (   2) I   3             --     --    141.0   17.7   --       --     --    --
    17. LP (   3) I   3             --     --    119.6  152.7   --       --     --    --
    18. LP (   4) I   3             --     --     67.0   76.4   --       --     --    --


 Natural Bond Orbitals (Summary):

           NBO                  Occupancy  
 -----------------------------------------------
 Molecular unit  1  (H2O)
     1. BD (   1) O   1 - H   2          1.96427
     2. BD (   1) O   1 - H   4          1.96467
     3. CR (   1) O   1                  1.99992
    13. LP (   1) O   1                  1.97262
    14. LP (   2) O   1                  1.96126
    19. RY*(   1) O   1                  0.01986
    20. RY*(   2) O   1                  0.01578
    21. RY*(   3) O   1                  0.00979
    22. RY*(   4) O   1                  0.00662
    23. RY*(   5) O   1                  0.00631
    24. RY*(   6) O   1                  0.00590
    25. RY*(   7) O   1                  0.00577
    26. RY*(   8) O   1                  0.00322
    27. RY*(   9) O   1                  0.00289
    28. RY*(  10) O   1                  0.00062
    29. RY*(  11) O   1                  0.00060
    30. RY*(  12) O   1                  0.00057
    31. RY*(  13) O   1                  0.00055
    32. RY*(  14) O   1                  0.00050
    33. RY*(  15) O   1                  0.00046
    34. RY*(  16) O   1                  0.00044
    35. RY*(  17) O   1                  0.00044
    36. RY*(  18) O   1                  0.00044
    37. RY*(  19) O   1                  0.00041
    38. RY*(  20) O   1                  0.00042
    39. RY*(  21) O   1                  0.00039
    40. RY*(  22) O   1                  0.00034
    41. RY*(  23) O   1                  0.00028
    42. RY*(  24) O   1                  0.00025
    43. RY*(  25) O   1                  0.00021
    44. RY*(  26) O   1                  0.00015
    45. RY*(  27) O   1                  0.00010
    46. RY*(  28) O   1                  0.00008
    47. RY*(  29) O   1                  0.00008
    48. RY*(  30) O   1                  0.00008
    49. RY*(  31) O   1                  0.00008
    50. RY*(  32) O   1                  0.00007
    51. RY*(  33) O   1                  0.00006
    52. RY*(  34) O   1                  0.00006
    53. RY*(  35) O   1                  0.00007
    54. RY*(  36) O   1                  0.00006
    55. RY*(  37) O   1                  0.00004
    56. RY*(  38) O   1                  0.00005
    57. RY*(  39) O   1                  0.00003
    58. RY*(  40) O   1                  0.00001
    59. RY*(  41) O   1                 -0.00002
    60. RY*(   1) H   2                  0.00157
    61. RY*(   2) H   2                  0.00143
    62. RY*(   3) H   2                  0.00062
    63. RY*(   4) H   2                  0.00031
    64. RY*(   5) H   2                  0.00019
    65. RY*(   6) H   2                  0.00014
    66. RY*(   7) H   2                  0.00013
    67. RY*(   8) H   2                  0.00011
    68. RY*(   9) H   2                  0.00011
    69. RY*(  10) H   2                  0.00007
    70. RY*(  11) H   2                  0.00006
    71. RY*(  12) H   2                  0.00006
    72. RY*(  13) H   2                  0.00004
    73. RY*(  14) H   2                  0.00005
    74. RY*(  15) H   2                  0.00003
    75. RY*(  16) H   2                  0.00003
    76. RY*(  17) H   2                  0.00002
    77. RY*(  18) H   2                  0.00003
    78. RY*(  19) H   2                  0.00001
    79. RY*(  20) H   2                  0.00001
    80. RY*(  21) H   2                  0.00002
    81. RY*(  22) H   2                  0.00001
   124. RY*(   1) H   4                  0.00756
   125. RY*(   2) H   4                  0.00480
   126. RY*(   3) H   4                  0.00304
   127. RY*(   4) H   4                  0.00173
   128. RY*(   5) H   4                  0.00092
   129. RY*(   6) H   4                  0.00042
   130. RY*(   7) H   4                  0.00033
   131. RY*(   8) H   4                  0.00026
   132. RY*(   9) H   4                  0.00022
   133. RY*(  10) H   4                  0.00019
   134. RY*(  11) H   4                  0.00015
   135. RY*(  12) H   4                  0.00012
   136. RY*(  13) H   4                  0.00010
   137. RY*(  14) H   4                  0.00010
   138. RY*(  15) H   4                  0.00008
   139. RY*(  16) H   4                  0.00007
   140. RY*(  17) H   4                  0.00007
   141. RY*(  18) H   4                  0.00006
   142. RY*(  19) H   4                  0.00005
   143. RY*(  20) H   4                  0.00003
   144. RY*(  21) H   4                  0.00003
   145. RY*(  22) H   4                  0.00001
   146. BD*(   1) O   1 - H   2          0.01933
   147. BD*(   1) O   1 - H   4          0.02306
       -------------------------------
              Total Lewis    9.86274  ( 98.4836%)
        Valence non-Lewis    0.04239  (  0.4232%)
        Rydberg non-Lewis    0.10947  (  1.0931%)
       -------------------------------
            Total unit  1   10.01460  (100.0000%)
           Charge unit  1   -0.01460

 Molecular unit  2  (I)
     4. CR (   1) I   3                  2.00003
     5. CR (   2) I   3                  2.00007
     6. CR (   3) I   3                  2.00006
     7. CR (   4) I   3                  2.00007
     8. CR (   5) I   3                  1.99676
     9. CR (   6) I   3                  1.99678
    10. CR (   7) I   3                  1.99676
    11. CR (   8) I   3                  1.99675
    12. CR (   9) I   3                  1.99677
    15. LP (   1) I   3                  1.98061
    16. LP (   2) I   3                  1.95152
    17. LP (   3) I   3                  1.95141
    18. LP (   4) I   3                  1.94462
    82. RY*(   1) I   3                  0.02045
    83. RY*(   2) I   3                  0.02038
    84. RY*(   3) I   3                  0.02026
    85. RY*(   4) I   3                  0.02020
    86. RY*(   5) I   3                  0.02018
    87. RY*(   6) I   3                  0.01137
    88. RY*(   7) I   3                  0.01130
    89. RY*(   8) I   3                  0.01060
    90. RY*(   9) I   3                  0.00473
    91. RY*(  10) I   3                  0.00279
    92. RY*(  11) I   3                  0.00279
    93. RY*(  12) I   3                  0.00277
    94. RY*(  13) I   3                  0.00277
    95. RY*(  14) I   3                  0.00273
    96. RY*(  15) I   3                  0.00274
    97. RY*(  16) I   3                  0.00271
    98. RY*(  17) I   3                  0.00169
    99. RY*(  18) I   3                  0.00169
   100. RY*(  19) I   3                  0.00151
   101. RY*(  20) I   3                  0.00148
   102. RY*(  21) I   3                  0.00127
   103. RY*(  22) I   3                  0.00075
   104. RY*(  23) I   3                  0.00076
   105. RY*(  24) I   3                  0.00073
   106. RY*(  25) I   3                  0.00054
   107. RY*(  26) I   3                  0.00043
   108. RY*(  27) I   3                  0.00043
   109. RY*(  28) I   3                  0.00043
   110. RY*(  29) I   3                  0.00043
   111. RY*(  30) I   3                  0.00043
   112. RY*(  31) I   3                  0.00043
   113. RY*(  32) I   3                  0.00037
   114. RY*(  33) I   3                  0.00016
   115. RY*(  34) I   3                  0.00016
   116. RY*(  35) I   3                  0.00016
   117. RY*(  36) I   3                  0.00014
   118. RY*(  37) I   3                  0.00012
   119. RY*(  38) I   3                  0.00008
   120. RY*(  39) I   3                  0.00008
   121. RY*(  40) I   3                  0.00007
   122. RY*(  41) I   3                  0.00007
   123. RY*(  42) I   3                  0.00000
       -------------------------------
              Total Lewis   53.81222  ( 99.6792%)
        Valence non-Lewis    0.00000  (  0.0000%)
        Rydberg non-Lewis    0.17318  (  0.3208%)
       -------------------------------
            Total unit  2   53.98540  (100.0000%)
           Charge unit  2   -0.98540
 Leave Link  607 at Tue Oct 19 17:08:07 2021, MaxMem= 16106127360 cpu:              60.9 elap:               2.2
 (Enter /sw/contrib/gaussian/g16/B01/g16/l9999.exe)
 1\1\GINC-N2398\SP\RMP2-FC\Gen\H2I1O1(1-)\CGAVINH\19-Oct-2021\0\\#p pop
 =NBO SP NoSymm mp2/gen Pseudo=read density=current\\title\\-1,1\O\X,1,
 10.\H,1,0.9609077,2,90.\I,1,3.50850362,2,90.,3,101.85830594,0\H,1,0.97
 346,2,55.,3,101.85830594,0\\Version=ES64L-G16RevB.01\HF=-370.8109168\M
 P2=-371.3059133\RMSD=2.825e-09\Dipole=0.7638356,0.9910711,0.2076218\Qu
 adrupole=13.0985391,-26.5068101,13.408271,-7.832153,-0.104059,-0.09712
 23\PG=C01 [X(H2I1O1)]\\@


 IT WAS AN ACT OF DESPARATION. FOR SIX YEARS I HAD STRUGGLED WITH THE
 BLACKBODY THEORY. I KNEW THE PROBLEM WAS FUNDAMENTAL, AND I KNEW
 THE ANSWER. I HAD TO FIND A THEORETICAL EXPLANATION AT ANY COST,
 EXCEPT FOR THE INVIOLABLITY OF THE TWO LAWS OF THERMODYNAMICS.
   -- MAX PLANCK, 1931
 Job cpu time:       0 days  0 hours  4 minutes 49.8 seconds.
 Elapsed time:       0 days  0 hours  0 minutes 17.3 seconds.
 File lengths (MBytes):  RWF=     16 Int=      0 D2E=      0 Chk=      8 Scr=      1
 Normal termination of Gaussian 16 at Tue Oct 19 17:08:07 2021.
