 Entering Gaussian System, Link 0=g09
 Input=ihod_0_opt.gjf
 Output=ihod_0_opt.log
 Initial command:
 /usr/local/gaussian/g09/l1.exe "/scratch/Gau-28206.inp" -scrdir="/scratch/"
 Entering Link 1 = /usr/local/gaussian/g09/l1.exe PID=     28207.
  
 Copyright (c) 1988,1990,1992,1993,1995,1998,2003,2009,2015,
            Gaussian, Inc.  All Rights Reserved.
  
 This is part of the Gaussian(R) 09 program.  It is based on
 the Gaussian(R) 03 system (copyright 2003, Gaussian, Inc.),
 the Gaussian(R) 98 system (copyright 1998, Gaussian, Inc.),
 the Gaussian(R) 94 system (copyright 1995, Gaussian, Inc.),
 the Gaussian 92(TM) system (copyright 1992, Gaussian, Inc.),
 the Gaussian 90(TM) system (copyright 1990, Gaussian, Inc.),
 the Gaussian 88(TM) system (copyright 1988, Gaussian, Inc.),
 the Gaussian 86(TM) system (copyright 1986, Carnegie Mellon
 University), and the Gaussian 82(TM) system (copyright 1983,
 Carnegie Mellon University). Gaussian is a federally registered
 trademark of Gaussian, Inc.
  
 This software contains proprietary and confidential information,
 including trade secrets, belonging to Gaussian, Inc.
  
 This software is provided under written license and may be
 used, copied, transmitted, or stored only in accord with that
 written license.
  
 The following legend is applicable only to US Government
 contracts under FAR:
  
                    RESTRICTED RIGHTS LEGEND
  
 Use, reproduction and disclosure by the US Government is
 subject to restrictions as set forth in subparagraphs (a)
 and (c) of the Commercial Computer Software - Restricted
 Rights clause in FAR 52.227-19.
  
 Gaussian, Inc.
 340 Quinnipiac St., Bldg. 40, Wallingford CT 06492
  
  
 ---------------------------------------------------------------
 Warning -- This program may not be used in any manner that
 competes with the business of Gaussian, Inc. or will provide
 assistance to any competitor of Gaussian, Inc.  The licensee
 of this program is prohibited from giving any competitor of
 Gaussian, Inc. access to this program.  By using this program,
 the user acknowledges that Gaussian, Inc. is engaged in the
 business of creating and licensing software in the field of
 computational chemistry and represents and warrants to the
 licensee that it is not a competitor of Gaussian, Inc. and that
 it will not use this program in any manner prohibited above.
 ---------------------------------------------------------------
  

 Cite this work as:
 Gaussian 09, Revision E.01,
 M. J. Frisch, G. W. Trucks, H. B. Schlegel, G. E. Scuseria, 
 M. A. Robb, J. R. Cheeseman, G. Scalmani, V. Barone, B. Mennucci, 
 G. A. Petersson, H. Nakatsuji, M. Caricato, X. Li, H. P. Hratchian, 
 A. F. Izmaylov, J. Bloino, G. Zheng, J. L. Sonnenberg, M. Hada, 
 M. Ehara, K. Toyota, R. Fukuda, J. Hasegawa, M. Ishida, T. Nakajima, 
 Y. Honda, O. Kitao, H. Nakai, T. Vreven, J. A. Montgomery, Jr., 
 J. E. Peralta, F. Ogliaro, M. Bearpark, J. J. Heyd, E. Brothers, 
 K. N. Kudin, V. N. Staroverov, T. Keith, R. Kobayashi, J. Normand, 
 K. Raghavachari, A. Rendell, J. C. Burant, S. S. Iyengar, J. Tomasi, 
 M. Cossi, N. Rega, J. M. Millam, M. Klene, J. E. Knox, J. B. Cross, 
 V. Bakken, C. Adamo, J. Jaramillo, R. Gomperts, R. E. Stratmann, 
 O. Yazyev, A. J. Austin, R. Cammi, C. Pomelli, J. W. Ochterski, 
 R. L. Martin, K. Morokuma, V. G. Zakrzewski, G. A. Voth, 
 P. Salvador, J. J. Dannenberg, S. Dapprich, A. D. Daniels, 
 O. Farkas, J. B. Foresman, J. V. Ortiz, J. Cioslowski, 
 and D. J. Fox, Gaussian, Inc., Wallingford CT, 2013.
 
 ******************************************
 Gaussian 09:  ES64L-G09RevE.01 30-Nov-2015
                12-Oct-2021 
 ******************************************
 %nproc=12
 Will use up to   12 processors via shared memory.
 %mem=8000MB
 %chk=/home/netid.washington.edu/cgavinh/mccoy_hocl/rOH_s_oop_0/ihocl/ihocl_0_opt
 .chk
 ----------------------------------------------------
 # opt=(z-matrix) mp2/gen Pseudo=read density=current
 ----------------------------------------------------
 1/10=7,18=40,38=1/1,3;
 2/12=2,17=6,18=5,29=3,40=1/2;
 3/5=7,11=9,16=1,17=8,25=1,30=1,71=1/1,2,3;
 4//1;
 5/5=2,38=5/2;
 8/6=4,10=1/1;
 9/15=2,16=-3/6;
 10/5=1/2;
 6/7=2,8=2,9=2,10=2,22=-1/1;
 7/12=2,29=1/1,2,3,16;
 1/10=7,18=40/3(2);
 2/29=3/2;
 99//99;
 2/29=3/2;
 3/5=7,6=1,11=9,16=1,17=8,25=1,30=1,71=1,82=7/1,2,3;
 4/5=5,16=3,69=1/1;
 5/5=2,38=5/2;
 8/6=4,10=1/1;
 9/15=2,16=-3/6;
 10/5=1/2;
 7/12=2/1,2,3,16;
 1/18=40/3(-8);
 2/29=3/2;
 6/7=2,8=2,9=2,10=2,22=-1/1;
 99//99;
 -----
 title
 -----
 Symbolic Z-matrix:
 Charge = -1 Multiplicity = 1
 O
 X                    1     10. 
 H(iso=2)             1    r1       2     90. 
 I                    1    r2       2     90.      3    a1       0
 H                    1    r3       2    oop      3    a1       0
       Variables:
  r1                    1.685                    
  r2                    3.07067                  
  r3                    1.01773                  
  a1                  103.50791                  
  OOP                  90.                       
 

 GradGradGradGradGradGradGradGradGradGradGradGradGradGradGradGradGradGrad
 Berny optimization.
 Initialization pass.
                       ----------------------------
                       !    Initial Parameters    !
                       ! (Angstroms and Degrees)  !
 ----------------------                            ----------------------
 !      Name          Value   Derivative information (Atomic Units)     !
 ------------------------------------------------------------------------
 !       r1          1.685    estimate D2E/DX2                          !
 !       r2          3.0707   estimate D2E/DX2                          !
 !       r3          1.0177   estimate D2E/DX2                          !
 !       a1        103.5079   estimate D2E/DX2                          !
 !       OOP        90.0      estimate D2E/DX2                          !
 ------------------------------------------------------------------------
 Trust Radius=3.00D-01 FncErr=1.00D-07 GrdErr=1.00D-07
 Number of steps in this run=     20 maximum allowed number of steps=    100.
 GradGradGradGradGradGradGradGradGradGradGradGradGradGradGradGradGradGrad

 ---------------------------------------------------------------------------------------------------
                            Z-MATRIX (ANGSTROMS AND DEGREES)
   CD    Cent   Atom    N1       Length/X        N2       Alpha/Y        N3        Beta/Z          J
 ---------------------------------------------------------------------------------------------------
      1      1  O 
      2         X        1  10.000000(     1)
      3      2  H        1   1.685000(     2)      2   90.000(     5)
      4      3  I        1   3.070672(     3)      2   90.000(     6)      3  103.508(     8)      0
      5      4  H        1   1.017728(     4)      2   90.000(     7)      3  103.508(     9)      0
 ---------------------------------------------------------------------------------------------------
                         Z-Matrix orientation:                         
 ---------------------------------------------------------------------
 Center     Atomic      Atomic             Coordinates (Angstroms)
 Number     Number       Type             X           Y           Z
 ---------------------------------------------------------------------
      1          8           0        0.000000    0.000000    0.000000
      2         -1           0        0.000000    0.000000   10.000000
      3          1           0        1.685000    0.000000    0.000000
      4         53           0       -0.717246   -2.985731    0.000000
      5          1           0       -0.237720   -0.989575    0.000000
 ---------------------------------------------------------------------
                    Distance matrix (angstroms):
                    1          2          3          4          5
     1  O    0.000000
     2  X   10.000000   0.000000
     3  H    1.685000  10.140968   0.000000
     4  I    3.070672  10.460833   3.832150   0.000000
     5  H    1.017728  10.051655   2.162432   2.052945   0.000000
 Stoichiometry    H2IO(1-)
 Framework group  CS[SG(H2IO)]
 Deg. of freedom     5
 Full point group                 CS      NOp   2
 Largest Abelian subgroup         CS      NOp   2
 Largest concise Abelian subgroup C1      NOp   1
                         Standard orientation:                         
 ---------------------------------------------------------------------
 Center     Atomic      Atomic             Coordinates (Angstroms)
 Number     Number       Type             X           Y           Z
 ---------------------------------------------------------------------
      1          8           0        0.026006    2.593171   -0.000000
      2          1           0       -1.612383    2.986753   -0.000000
      3         53           0        0.026006   -0.477501    0.000000
      4          1           0        0.026006    1.575444   -0.000000
 ---------------------------------------------------------------------
 Rotational constants (GHZ):    108.5461133      3.2245476      3.1315204
 General basis read from cards:  (5D, 7F)
 ======================================================================================================
                                       Pseudopotential Parameters
 ======================================================================================================
  Center     Atomic      Valence      Angular      Power
  Number     Number     Electrons     Momentum     of R      Exponent        Coefficient   SO-Coeffient
 ======================================================================================================
    1          8
                                   No pseudopotential on this center.
    2          1
                                   No pseudopotential on this center.
    3         53           25
                                      G and up 
                                                     2        1.0000000        0.00000000    0.00000000
                                      S - G
                                                     2       40.0333760       49.98964900    0.00000000
                                                     2       17.3005760      281.00655600    0.00000000
                                                     2        8.8517200       61.41673900    0.00000000
                                      P - G
                                                     2       15.7201410       67.41623900    0.00000000
                                                     2       15.2082220      134.80769600    0.00000000
                                                     2        8.2941860       14.56654800    0.00000000
                                                     2        7.7539490       28.96842200    0.00000000
                                      D - G
                                                     2       13.8177510       35.53875600    0.00000000
                                                     2       13.5878050       53.33975900    0.00000000
                                                     2        6.9476300        9.71646600    0.00000000
                                                     2        6.9600990       14.97750000    0.00000000
                                      F - G
                                                     2       18.5229500      -20.17661800    0.00000000
                                                     2       18.2510350      -26.08807700    0.00000000
                                                     2        7.5579010       -0.22043400    0.00000000
                                                     2        7.5974040       -0.22164600    0.00000000
    4          1
                                   No pseudopotential on this center.
 ======================================================================================================
 There are   151 symmetry adapted cartesian basis functions of A'  symmetry.
 There are    67 symmetry adapted cartesian basis functions of A"  symmetry.
 There are   128 symmetry adapted basis functions of A'  symmetry.
 There are    63 symmetry adapted basis functions of A"  symmetry.
   191 basis functions,   344 primitive gaussians,   218 cartesian basis functions
    18 alpha electrons       18 beta electrons
       nuclear repulsion energy        51.2796860882 Hartrees.
 NAtoms=    4 NActive=    4 NUniq=    4 SFac= 1.00D+00 NAtFMM=   60 NAOKFM=F Big=F
 Integral buffers will be    131072 words long.
 Raffenetti 1 integral format.
 Two-electron integral symmetry is turned on.
 One-electron integrals computed using PRISM.
   1 Symmetry operations used in ECPInt.
 ECPInt:  NShTT=    2145 NPrTT=    7341 LenC2=    2146 LenP2D=    6731.
 LDataN:  DoStor=T MaxTD1= 7 Len=  274
 NBasis=   191 RedAO= T EigKep=  3.09D-04  NBF=   128    63
 NBsUse=   147 1.00D-06 EigRej=  1.18D-15 NBFU=    98    49
 ExpMin= 2.53D-02 ExpMax= 1.53D+04 ExpMxC= 5.22D+02 IAcc=3 IRadAn=         5 AccDes= 0.00D+00
 Harris functional with IExCor=  205 and IRadAn=       5 diagonalized for initial guess.
 HarFok:  IExCor=  205 AccDes= 0.00D+00 IRadAn=         5 IDoV= 1 UseB2=F ITyADJ=14
 ICtDFT=  3500011 ScaDFX=  1.000000  1.000000  1.000000  1.000000
 Defaulting to unpruned grid for atomic number  53.
 Defaulting to unpruned grid for atomic number  53.
 Defaulting to unpruned grid for atomic number  53.
 Defaulting to unpruned grid for atomic number  53.
 Defaulting to unpruned grid for atomic number  53.
 Defaulting to unpruned grid for atomic number  53.
 Defaulting to unpruned grid for atomic number  53.
 Defaulting to unpruned grid for atomic number  53.
 Defaulting to unpruned grid for atomic number  53.
 Defaulting to unpruned grid for atomic number  53.
 Defaulting to unpruned grid for atomic number  53.
 Defaulting to unpruned grid for atomic number  53.
 FoFCou: FMM=F IPFlag=           0 FMFlag=      100000 FMFlg1=           0
         NFxFlg=           0 DoJE=T BraDBF=F KetDBF=T FulRan=T
         wScrn=  0.000000 ICntrl=     500 IOpCl=  0 I1Cent=   200000004 NGrid=           0
         NMat0=    1 NMatS0=      1 NMatT0=    0 NMatD0=    1 NMtDS0=    0 NMtDT0=    0
 Petite list used in FoFCou.
 Initial guess orbital symmetries:
       Occupied  (A') (A') (A') (A') (A") (A') (A') (A") (A') (A")
                 (A') (A') (A') (A') (A") (A') (A') (A")
       Virtual   (A') (A') (A') (A') (A') (A") (A') (A") (A') (A")
                 (A') (A') (A") (A') (A') (A") (A') (A') (A') (A')
                 (A") (A') (A') (A') (A") (A') (A') (A") (A') (A")
                 (A') (A") (A') (A") (A') (A') (A') (A") (A") (A')
                 (A') (A') (A") (A') (A') (A") (A") (A') (A') (A')
                 (A") (A') (A') (A") (A') (A') (A") (A') (A") (A')
                 (A') (A") (A') (A") (A") (A') (A') (A') (A') (A')
                 (A") (A') (A") (A') (A") (A') (A') (A") (A') (A')
                 (A') (A") (A") (A') (A") (A') (A') (A') (A') (A")
                 (A') (A') (A") (A') (A') (A") (A') (A') (A") (A")
                 (A') (A") (A') (A") (A") (A') (A') (A') (A') (A')
                 (A') (A') (A") (A') (A') (A") (A') (A") (A') (A")
                 (A") (A') (A') (A") (A') (A') (A') (A') (A')
 The electronic state of the initial guess is 1-A'.
 Keep R1 ints in memory in symmetry-blocked form, NReq=253598549.
 Requested convergence on RMS density matrix=1.00D-08 within 128 cycles.
 Requested convergence on MAX density matrix=1.00D-06.
 Requested convergence on             energy=1.00D-06.
 No special actions if energy rises.
 SCF Done:  E(RHF) =  -370.631321118     A.U. after   14 cycles
            NFock= 14  Conv=0.47D-08     -V/T= 2.9883
 ExpMin= 2.53D-02 ExpMax= 1.53D+04 ExpMxC= 5.22D+02 IAcc=3 IRadAn=         5 AccDes= 0.00D+00
 HarFok:  IExCor=  205 AccDes= 0.00D+00 IRadAn=         5 IDoV=-2 UseB2=F ITyADJ=14
 ICtDFT= 12500011 ScaDFX=  1.000000  1.000000  1.000000  1.000000
 Defaulting to unpruned grid for atomic number  53.
 Defaulting to unpruned grid for atomic number  53.
 Defaulting to unpruned grid for atomic number  53.
 Defaulting to unpruned grid for atomic number  53.
 Defaulting to unpruned grid for atomic number  53.
 Defaulting to unpruned grid for atomic number  53.
 Defaulting to unpruned grid for atomic number  53.
 Defaulting to unpruned grid for atomic number  53.
 Defaulting to unpruned grid for atomic number  53.
 Defaulting to unpruned grid for atomic number  53.
 Defaulting to unpruned grid for atomic number  53.
 Defaulting to unpruned grid for atomic number  53.
 Range of M.O.s used for correlation:     6   147
 NBasis=   191 NAE=    18 NBE=    18 NFC=     5 NFV=     0
 NROrb=    142 NOA=    13 NOB=    13 NVA=   129 NVB=   129

 **** Warning!!: The largest alpha MO coefficient is  0.17727717D+02

 Fully direct method using O(ONN) memory.
 JobTyp=1 Pass  1:  I=   6 to   8 NPSUse=  3 ParTrn=F ParDer=T DoDerP=T.
 JobTyp=1 Pass  2:  I=   9 to  11 NPSUse=  3 ParTrn=F ParDer=T DoDerP=T.
 JobTyp=1 Pass  3:  I=  12 to  14 NPSUse=  3 ParTrn=F ParDer=T DoDerP=T.
 JobTyp=1 Pass  4:  I=  15 to  17 NPSUse=  3 ParTrn=F ParDer=T DoDerP=T.
 JobTyp=1 Pass  5:  I=  18 to  18 NPSUse=  3 ParTrn=F ParDer=T DoDerP=T.
 Spin components of T(2) and E(2):
     alpha-alpha T2 =       0.2513886778D-01 E2=     -0.7083318815D-01
     alpha-beta  T2 =       0.1500830053D+00 E2=     -0.3932195274D+00
     beta-beta   T2 =       0.2513886778D-01 E2=     -0.7083318815D-01
 ANorm=    0.1095609758D+01
 E2 =    -0.5348859037D+00 EUMP2 =    -0.37116620702138D+03
          IDoAtm=1111
          Differentiating once with respect to electric field.
                with respect to dipole field.
          Differentiating once with respect to nuclear coordinates.
 Keep R1 ints in memory in symmetry-blocked form, NReq=253434788.
          There are     1 degrees of freedom in the 1st order CPHF.  IDoFFX=0 NUNeed=     1.
 LinEq1:  Iter=  0 NonCon=     1 RMS=4.85D-03 Max=9.33D-02 NDo=     1
 AX will form     1 AO Fock derivatives at one time.
 LinEq1:  Iter=  1 NonCon=     1 RMS=1.18D-03 Max=1.64D-02 NDo=     1
 LinEq1:  Iter=  2 NonCon=     1 RMS=1.11D-03 Max=3.38D-02 NDo=     1
 LinEq1:  Iter=  3 NonCon=     1 RMS=2.21D-04 Max=1.95D-03 NDo=     1
 LinEq1:  Iter=  4 NonCon=     1 RMS=8.56D-05 Max=1.04D-03 NDo=     1
 LinEq1:  Iter=  5 NonCon=     1 RMS=2.35D-05 Max=4.68D-04 NDo=     1
 LinEq1:  Iter=  6 NonCon=     1 RMS=5.67D-06 Max=1.00D-04 NDo=     1
 LinEq1:  Iter=  7 NonCon=     1 RMS=1.61D-06 Max=2.91D-05 NDo=     1
 LinEq1:  Iter=  8 NonCon=     1 RMS=4.58D-07 Max=5.82D-06 NDo=     1
 LinEq1:  Iter=  9 NonCon=     1 RMS=1.10D-07 Max=1.15D-06 NDo=     1
 LinEq1:  Iter= 10 NonCon=     1 RMS=1.82D-08 Max=1.61D-07 NDo=     1
 LinEq1:  Iter= 11 NonCon=     1 RMS=4.07D-09 Max=4.96D-08 NDo=     1
 LinEq1:  Iter= 12 NonCon=     1 RMS=1.22D-09 Max=1.41D-08 NDo=     1
 LinEq1:  Iter= 13 NonCon=     1 RMS=3.02D-10 Max=2.83D-09 NDo=     1
 LinEq1:  Iter= 14 NonCon=     0 RMS=4.77D-11 Max=4.62D-10 NDo=     1
 Linear equations converged to 1.000D-10 1.000D-09 after    14 iterations.
 End of Minotr F.D. properties file   721 does not exist.
 End of Minotr F.D. properties file   722 does not exist.
 End of Minotr F.D. properties file   788 does not exist.

 **********************************************************************

            Population analysis using the MP2 density.

 **********************************************************************

 Orbital symmetries:
       Occupied  (A') (A') (A') (A') (A") (A') (A') (A") (A') (A")
                 (A') (A') (A') (A") (A') (A') (A') (A")
       Virtual   (A') (A') (A') (A') (A") (A') (A') (A") (A') (A')
                 (A") (A') (A') (A') (A") (A") (A') (A') (A') (A")
                 (A') (A') (A') (A') (A') (A") (A') (A") (A') (A')
                 (A") (A") (A') (A') (A') (A") (A') (A") (A') (A")
                 (A') (A") (A') (A') (A') (A") (A') (A") (A') (A")
                 (A') (A') (A') (A") (A') (A') (A") (A') (A") (A')
                 (A') (A") (A') (A") (A') (A") (A') (A') (A') (A')
                 (A") (A') (A") (A') (A") (A') (A') (A") (A') (A')
                 (A') (A") (A") (A') (A") (A') (A') (A') (A') (A')
                 (A") (A') (A") (A') (A') (A") (A') (A') (A") (A")
                 (A') (A") (A') (A") (A') (A") (A') (A') (A') (A')
                 (A') (A') (A") (A') (A') (A") (A") (A') (A') (A")
                 (A") (A') (A') (A") (A') (A') (A') (A') (A')
 The electronic state is 1-A'.
 Alpha  occ. eigenvalues --  -20.43388  -7.47316  -5.29914  -5.29832  -5.29828
 Alpha  occ. eigenvalues --   -2.02699  -2.02631  -2.02626  -2.02550  -2.02550
 Alpha  occ. eigenvalues --   -1.09963  -0.64386  -0.45908  -0.33374  -0.29403
 Alpha  occ. eigenvalues --   -0.15447  -0.14897  -0.14879
 Alpha virt. eigenvalues --    0.12957   0.16852   0.20475   0.22721   0.24515
 Alpha virt. eigenvalues --    0.25297   0.28553   0.29857   0.32417   0.33127
 Alpha virt. eigenvalues --    0.36672   0.36712   0.37825   0.40182   0.40510
 Alpha virt. eigenvalues --    0.41611   0.44414   0.45548   0.47914   0.56533
 Alpha virt. eigenvalues --    0.57814   0.59648   0.66725   0.70487   0.75717
 Alpha virt. eigenvalues --    0.76450   0.76855   0.79257   0.79316   0.80059
 Alpha virt. eigenvalues --    0.81555   0.84279   0.84380   0.86708   0.87630
 Alpha virt. eigenvalues --    0.87651   0.88968   0.90388   0.93611   0.93935
 Alpha virt. eigenvalues --    0.96705   0.99617   1.00128   1.00924   1.04694
 Alpha virt. eigenvalues --    1.06291   1.12243   1.12399   1.17133   1.18832
 Alpha virt. eigenvalues --    1.20316   1.25733   1.32254   1.32396   1.36338
 Alpha virt. eigenvalues --    1.38650   1.41729   1.52463   1.61497   1.61703
 Alpha virt. eigenvalues --    1.68471   1.73568   1.74605   1.74665   1.75189
 Alpha virt. eigenvalues --    1.75634   1.77925   1.81094   1.83233   1.86566
 Alpha virt. eigenvalues --    1.92909   1.94870   2.05344   2.05777   2.10130
 Alpha virt. eigenvalues --    2.13974   2.21051   2.36700   2.38994   2.46724
 Alpha virt. eigenvalues --    2.52347   2.56657   2.59712   2.65976   2.67472
 Alpha virt. eigenvalues --    2.73011   2.74781   2.80770   2.97664   3.02785
 Alpha virt. eigenvalues --    3.03567   3.31310   3.42551   3.44071   3.81059
 Alpha virt. eigenvalues --    4.02302   4.03875   4.14614   4.15730   4.26562
 Alpha virt. eigenvalues --    4.29787   4.30258   4.40474   4.49017   4.53047
 Alpha virt. eigenvalues --    4.59083   4.66949   4.75494   4.84183   5.09901
 Alpha virt. eigenvalues --    5.19259   5.30226   5.39225   5.50466   6.52769
 Alpha virt. eigenvalues --    6.83350   6.88012   6.88715   6.96086   7.27959
 Alpha virt. eigenvalues --    7.31992   7.34187   7.42017   7.58616   7.70632
 Alpha virt. eigenvalues --    7.76504   8.12978  13.98208  59.21332
          Condensed to atoms (all electrons):
               1          2          3          4
     1  O    8.479115   0.168733  -0.164902   0.118736
     2  H    0.168733   0.625674   0.009614   0.010558
     3  I   -0.164902   0.009614  26.032037  -0.058208
     4  H    0.118736   0.010558  -0.058208   0.694112
 Mulliken charges:
               1
     1  O   -0.601682
     2  H    0.185421
     3  I   -0.818542
     4  H    0.234803
 Sum of Mulliken charges =  -1.00000
 Mulliken charges with hydrogens summed into heavy atoms:
               1
     1  O   -0.181458
     3  I   -0.818542
 Electronic spatial extent (au):  <R**2>=            360.7474
 Charge=             -1.0000 electrons
 Dipole moment (field-independent basis, Debye):
    X=             -1.5457    Y=             -0.8302    Z=              0.0000  Tot=              1.7545
 Quadrupole moment (field-independent basis, Debye-Ang):
   XX=            -38.1238   YY=            -51.7405   ZZ=            -42.2123
   XY=             -4.9416   XZ=              0.0000   YZ=              0.0000
 Traceless Quadrupole moment (field-independent basis, Debye-Ang):
   XX=              5.9017   YY=             -7.7150   ZZ=              1.8132
   XY=             -4.9416   XZ=              0.0000   YZ=              0.0000
 Octapole moment (field-independent basis, Debye-Ang**2):
  XXX=             -2.7425  YYY=            -42.3618  ZZZ=              0.0000  XYY=            -15.1526
  XXY=              4.9687  XXZ=             -0.0000  XZZ=              0.9431  YZZ=             -7.1741
  YYZ=              0.0000  XYZ=              0.0000
 Hexadecapole moment (field-independent basis, Debye-Ang**3):
 XXXX=            -80.3532 YYYY=           -521.8930 ZZZZ=            -75.5919 XXXY=             -0.7273
 XXXZ=              0.0000 YYYX=            -34.4461 YYYZ=              0.0000 ZZZX=             -0.0000
 ZZZY=              0.0000 XXYY=            -60.5654 XXZZ=            -27.6635 YYZZ=            -94.1928
 XXYZ=              0.0000 YYXZ=              0.0000 ZZXY=              5.4039
 N-N= 5.127968608822D+01 E-N=-9.155116526368D+02  KE= 1.866606597746D+02
 Symmetry A'   KE= 1.436495348953D+02
 Symmetry A"   KE= 4.301112487936D+01
   2 Symmetry operations used in ECPInt.
 ECPInt:  NShTT=    2145 NPrTT=    7341 LenC2=    2146 LenP2D=    6731.
 LDataN:  DoStor=T MaxTD1= 8 Len=  415
 Calling FoFJK, ICntrl=  10002127 FMM=F ISym2X=1 I1Cent= 0 IOpClX= 0 NMat=1 NMatS=1 NMatT=0.
 ***** Axes restored to original set *****
 -------------------------------------------------------------------
 Center     Atomic                   Forces (Hartrees/Bohr)
 Number     Number              X              Y              Z
 -------------------------------------------------------------------
      1        8           0.085945389    0.017434759   -0.000000000
      2        1          -0.097375398   -0.007167241    0.000000000
      3       53          -0.006412282   -0.023200120    0.000000000
      4        1           0.017842291    0.012932602   -0.000000000
 -------------------------------------------------------------------
 Cartesian Forces:  Max     0.097375398 RMS     0.039039383
 -----------------------------------------------------------------------------------------------
                       Internal Coordinate Forces (Hartree/Bohr or radian)
  Cent   Atom   N1       Length/X         N2         Alpha/Y        N3         Beta/Z          J
 -----------------------------------------------------------------------------------------------
      1  O 
         X        1   0.000000(     1)
      2  H        1  -0.097375(     2)      2  -0.000000(     5)
      3  I        1   0.024056(     3)      2  -0.000000(     6)      3   0.004734(     8)     0
      4  H        1  -0.016742(     4)      2   0.000000(     7)      3  -0.027556(     9)     0
 -----------------------------------------------------------------------------------------------
 Internal  Forces:  Max     0.097375398 RMS     0.035154757

 GradGradGradGradGradGradGradGradGradGradGradGradGradGradGradGradGradGrad
 Berny optimization.
 Search for a local minimum.
 Step number   1 out of a maximum of   20
 All quantities printed in internal units (Hartrees-Bohrs-Radians)
 Second derivative matrix not updated -- first step.
 The second derivative matrix:
                          r1        r2        r3        a1        OOP
           r1           0.07633
           r2          -0.00000   0.08565
           r3           0.00000  -0.06136   0.50838
           a1          -0.00000  -0.00000  -0.00000   0.32000
           OOP          0.00000  -0.00000  -0.00000  -0.00000   0.75863
 ITU=  0
     Eigenvalues ---    0.07633   0.07693   0.32000   0.51711   0.75863
 RFO step:  Lambda=-6.99645277D-02 EMin= 7.63277966D-02
 Linear search not attempted -- first point.
 Maximum step size (   0.300) exceeded in Quadratic search.
    -- Step size scaled by   0.438
 Variable       Old X    -DE/DX   Delta X   Delta X   Delta X     New X
                                 (Linear)    (Quad)   (Total)
    r1        3.18419  -0.09738   0.00000  -0.29159  -0.29159   2.89260
    r2        5.80273   0.02406   0.00000   0.06546   0.06546   5.86819
    r3        1.92323  -0.01674   0.00000  -0.00574  -0.00574   1.91749
    a1        1.80655  -0.02282   0.00000  -0.02564  -0.02564   1.78092
   OOP        1.57080   0.00000   0.00000   0.00000   0.00000   1.57080
         Item               Value     Threshold  Converged?
 Maximum Force            0.097375     0.000450     NO 
 RMS     Force            0.046609     0.000300     NO 
 Maximum Displacement     0.291591     0.001800     NO 
 RMS     Displacement     0.134164     0.001200     NO 
 Predicted change in Energy=-2.708459D-02
 GradGradGradGradGradGradGradGradGradGradGradGradGradGradGradGradGradGrad

 ---------------------------------------------------------------------------------------------------
                            Z-MATRIX (ANGSTROMS AND DEGREES)
   CD    Cent   Atom    N1       Length/X        N2       Alpha/Y        N3        Beta/Z          J
 ---------------------------------------------------------------------------------------------------
      1      1  O 
      2         X        1  10.000000(     1)
      3      2  H        1   1.530697(     2)      2   90.000(     5)
      4      3  I        1   3.105310(     3)      2   90.000(     6)      3  102.039(     8)      0
      5      4  H        1   1.014691(     4)      2   90.000(     7)      3  102.039(     9)      0
 ---------------------------------------------------------------------------------------------------
                         Z-Matrix orientation:                         
 ---------------------------------------------------------------------
 Center     Atomic      Atomic             Coordinates (Angstroms)
 Number     Number       Type             X           Y           Z
 ---------------------------------------------------------------------
      1          8           0        0.000000    0.000000    0.000000
      2         -1           0        0.000000    0.000000   10.000000
      3          1           0        1.530697    0.000000    0.000000
      4         53           0       -0.647698   -3.037012    0.000000
      5          1           0       -0.211642   -0.992374    0.000000
 ---------------------------------------------------------------------
                    Distance matrix (angstroms):
                    1          2          3          4          5
     1  O    0.000000
     2  X   10.000000   0.000000
     3  H    1.530697  10.116473   0.000000
     4  I    3.105310  10.471053   3.737492   0.000000
     5  H    1.014691  10.051348   2.005131   2.090619   0.000000
 Stoichiometry    H2IO(1-)
 Framework group  CS[SG(H2IO)]
 Deg. of freedom     5
 Full point group                 CS      NOp   2
 Largest Abelian subgroup         CS      NOp   2
 Largest concise Abelian subgroup C1      NOp   1
                         Standard orientation:                         
 ---------------------------------------------------------------------
 Center     Atomic      Atomic             Coordinates (Angstroms)
 Number     Number       Type             X           Y           Z
 ---------------------------------------------------------------------
      1          8           0        0.023762    2.623443    0.000000
      2          1           0       -1.473268    2.942711    0.000000
      3         53           0        0.023762   -0.481868   -0.000000
      4          1           0        0.023762    1.608751    0.000000
 ---------------------------------------------------------------------
 Rotational constants (GHZ):    129.0932936      3.1743344      3.0981525
 Basis read from rwf:  (5D, 7F)
 Pseudo-potential data read from rwf file.
 There are   151 symmetry adapted cartesian basis functions of A'  symmetry.
 There are    67 symmetry adapted cartesian basis functions of A"  symmetry.
 There are   128 symmetry adapted basis functions of A'  symmetry.
 There are    63 symmetry adapted basis functions of A"  symmetry.
   191 basis functions,   344 primitive gaussians,   218 cartesian basis functions
    18 alpha electrons       18 beta electrons
       nuclear repulsion energy        51.1514472207 Hartrees.
 NAtoms=    4 NActive=    4 NUniq=    4 SFac= 1.00D+00 NAtFMM=   60 NAOKFM=F Big=F
 Integral buffers will be    131072 words long.
 Raffenetti 1 integral format.
 Two-electron integral symmetry is turned on.
 One-electron integrals computed using PRISM.
   1 Symmetry operations used in ECPInt.
 ECPInt:  NShTT=    2145 NPrTT=    7341 LenC2=    2146 LenP2D=    6746.
 LDataN:  DoStor=T MaxTD1= 7 Len=  274
 NBasis=   191 RedAO= T EigKep=  3.35D-04  NBF=   128    63
 NBsUse=   147 1.00D-06 EigRej=  1.22D-15 NBFU=    98    49
 Initial guess from the checkpoint file:  "/home/netid.washington.edu/cgavinh/mccoy_hocl/rOH_s_oop_0/ihocl/ihocl_0_opt.chk"
 B after Tr=     0.000000    0.000000    0.000000
         Rot=    0.999998    0.000000    0.000000    0.002178 Ang=   0.25 deg.
 Initial guess orbital symmetries:
       Occupied  (A') (A') (A') (A') (A") (A') (A') (A") (A') (A")
                 (A') (A') (A') (A") (A') (A') (A') (A")
       Virtual   (A') (A') (A') (A') (A') (A') (A') (A') (A') (A')
                 (A') (A') (A') (A') (A') (A') (A') (A') (A') (A')
                 (A') (A') (A') (A') (A') (A') (A') (A') (A') (A')
                 (A') (A') (A') (A') (A') (A') (A') (A') (A') (A')
                 (A') (A') (A') (A') (A') (A') (A') (A') (A') (A')
                 (A') (A') (A') (A') (A') (A') (A') (A') (A') (A')
                 (A') (A') (A') (A') (A') (A') (A') (A') (A') (A')
                 (A') (A') (A') (A') (A') (A') (A') (A') (A') (A')
                 (A') (A') (A') (A') (A') (A") (A") (A") (A") (A")
                 (A") (A") (A") (A") (A") (A") (A") (A") (A") (A")
                 (A") (A") (A") (A") (A") (A") (A") (A") (A") (A")
                 (A") (A") (A") (A") (A") (A") (A") (A") (A") (A")
                 (A") (A") (A") (A") (A") (A") (A") (A") (A")
 ExpMin= 2.53D-02 ExpMax= 1.53D+04 ExpMxC= 5.22D+02 IAcc=3 IRadAn=         5 AccDes= 0.00D+00
 Harris functional with IExCor=  205 and IRadAn=       5 diagonalized for initial guess.
 HarFok:  IExCor=  205 AccDes= 0.00D+00 IRadAn=         5 IDoV= 1 UseB2=F ITyADJ=14
 ICtDFT=  3500011 ScaDFX=  1.000000  1.000000  1.000000  1.000000
 Defaulting to unpruned grid for atomic number  53.
 Defaulting to unpruned grid for atomic number  53.
 Defaulting to unpruned grid for atomic number  53.
 Defaulting to unpruned grid for atomic number  53.
 Defaulting to unpruned grid for atomic number  53.
 Defaulting to unpruned grid for atomic number  53.
 Defaulting to unpruned grid for atomic number  53.
 Defaulting to unpruned grid for atomic number  53.
 Defaulting to unpruned grid for atomic number  53.
 Defaulting to unpruned grid for atomic number  53.
 Defaulting to unpruned grid for atomic number  53.
 Defaulting to unpruned grid for atomic number  53.
 FoFCou: FMM=F IPFlag=           0 FMFlag=      100000 FMFlg1=           0
         NFxFlg=           0 DoJE=T BraDBF=F KetDBF=T FulRan=T
         wScrn=  0.000000 ICntrl=     500 IOpCl=  0 I1Cent=   200000004 NGrid=           0
         NMat0=    1 NMatS0=      1 NMatT0=    0 NMatD0=    1 NMtDS0=    0 NMtDT0=    0
 Petite list used in FoFCou.
 Keep R1 ints in memory in symmetry-blocked form, NReq=253598549.
 Requested convergence on RMS density matrix=1.00D-08 within 128 cycles.
 Requested convergence on MAX density matrix=1.00D-06.
 Requested convergence on             energy=1.00D-06.
 No special actions if energy rises.
 SCF Done:  E(RHF) =  -370.670567066     A.U. after   12 cycles
            NFock= 12  Conv=0.38D-08     -V/T= 2.9883
 ExpMin= 2.53D-02 ExpMax= 1.53D+04 ExpMxC= 5.22D+02 IAcc=3 IRadAn=         5 AccDes= 0.00D+00
 HarFok:  IExCor=  205 AccDes= 0.00D+00 IRadAn=         5 IDoV=-2 UseB2=F ITyADJ=14
 ICtDFT= 12500011 ScaDFX=  1.000000  1.000000  1.000000  1.000000
 Defaulting to unpruned grid for atomic number  53.
 Defaulting to unpruned grid for atomic number  53.
 Defaulting to unpruned grid for atomic number  53.
 Defaulting to unpruned grid for atomic number  53.
 Defaulting to unpruned grid for atomic number  53.
 Defaulting to unpruned grid for atomic number  53.
 Defaulting to unpruned grid for atomic number  53.
 Defaulting to unpruned grid for atomic number  53.
 Defaulting to unpruned grid for atomic number  53.
 Defaulting to unpruned grid for atomic number  53.
 Defaulting to unpruned grid for atomic number  53.
 Defaulting to unpruned grid for atomic number  53.
 Range of M.O.s used for correlation:     6   147
 NBasis=   191 NAE=    18 NBE=    18 NFC=     5 NFV=     0
 NROrb=    142 NOA=    13 NOB=    13 NVA=   129 NVB=   129

 **** Warning!!: The largest alpha MO coefficient is  0.17900238D+02

 Fully direct method using O(ONN) memory.
 JobTyp=1 Pass  1:  I=   6 to   8 NPSUse=  3 ParTrn=F ParDer=T DoDerP=T.
 JobTyp=1 Pass  2:  I=   9 to  11 NPSUse=  3 ParTrn=F ParDer=T DoDerP=T.
 JobTyp=1 Pass  3:  I=  12 to  14 NPSUse=  3 ParTrn=F ParDer=T DoDerP=T.
 JobTyp=1 Pass  4:  I=  15 to  17 NPSUse=  3 ParTrn=F ParDer=T DoDerP=T.
 JobTyp=1 Pass  5:  I=  18 to  18 NPSUse=  3 ParTrn=F ParDer=T DoDerP=T.
 Spin components of T(2) and E(2):
     alpha-alpha T2 =       0.2463495712D-01 E2=     -0.7066924197D-01
     alpha-beta  T2 =       0.1396180975D+00 E2=     -0.3869745578D+00
     beta-beta   T2 =       0.2463495712D-01 E2=     -0.7066924197D-01
 ANorm=    0.1090361413D+01
 E2 =    -0.5283130418D+00 EUMP2 =    -0.37119888010752D+03
          IDoAtm=1111
          Differentiating once with respect to electric field.
                with respect to dipole field.
          Differentiating once with respect to nuclear coordinates.
 Keep R1 ints in memory in symmetry-blocked form, NReq=253434788.
          There are     1 degrees of freedom in the 1st order CPHF.  IDoFFX=0 NUNeed=     1.
 LinEq1:  Iter=  0 NonCon=     1 RMS=4.20D-03 Max=8.66D-02 NDo=     1
 AX will form     1 AO Fock derivatives at one time.
 LinEq1:  Iter=  1 NonCon=     1 RMS=9.05D-04 Max=1.11D-02 NDo=     1
 LinEq1:  Iter=  2 NonCon=     1 RMS=6.82D-04 Max=1.69D-02 NDo=     1
 LinEq1:  Iter=  3 NonCon=     1 RMS=1.72D-04 Max=1.60D-03 NDo=     1
 LinEq1:  Iter=  4 NonCon=     1 RMS=6.89D-05 Max=7.52D-04 NDo=     1
 LinEq1:  Iter=  5 NonCon=     1 RMS=1.66D-05 Max=2.64D-04 NDo=     1
 LinEq1:  Iter=  6 NonCon=     1 RMS=3.70D-06 Max=5.17D-05 NDo=     1
 LinEq1:  Iter=  7 NonCon=     1 RMS=1.11D-06 Max=1.91D-05 NDo=     1
 LinEq1:  Iter=  8 NonCon=     1 RMS=3.25D-07 Max=4.24D-06 NDo=     1
 LinEq1:  Iter=  9 NonCon=     1 RMS=8.45D-08 Max=9.50D-07 NDo=     1
 LinEq1:  Iter= 10 NonCon=     1 RMS=1.42D-08 Max=1.51D-07 NDo=     1
 LinEq1:  Iter= 11 NonCon=     1 RMS=3.16D-09 Max=3.70D-08 NDo=     1
 LinEq1:  Iter= 12 NonCon=     1 RMS=9.31D-10 Max=1.14D-08 NDo=     1
 LinEq1:  Iter= 13 NonCon=     1 RMS=2.24D-10 Max=2.11D-09 NDo=     1
 LinEq1:  Iter= 14 NonCon=     0 RMS=3.63D-11 Max=3.97D-10 NDo=     1
 Linear equations converged to 1.000D-10 1.000D-09 after    14 iterations.
 End of Minotr F.D. properties file   721 does not exist.
 End of Minotr F.D. properties file   722 does not exist.
 End of Minotr F.D. properties file   788 does not exist.
   2 Symmetry operations used in ECPInt.
 ECPInt:  NShTT=    2145 NPrTT=    7341 LenC2=    2146 LenP2D=    6746.
 LDataN:  DoStor=T MaxTD1= 8 Len=  415
 Calling FoFJK, ICntrl=  10002127 FMM=F ISym2X=1 I1Cent= 0 IOpClX= 0 NMat=1 NMatS=1 NMatT=0.
 ***** Axes restored to original set *****
 -------------------------------------------------------------------
 Center     Atomic                   Forces (Hartrees/Bohr)
 Number     Number              X              Y              Z
 -------------------------------------------------------------------
      1        8           0.101524232    0.015014270   -0.000000000
      2        1          -0.111809174   -0.007236528    0.000000000
      3       53          -0.004680739   -0.020168819    0.000000000
      4        1           0.014965681    0.012391076   -0.000000000
 -------------------------------------------------------------------
 Cartesian Forces:  Max     0.111809174 RMS     0.044621051
 -----------------------------------------------------------------------------------------------
                       Internal Coordinate Forces (Hartree/Bohr or radian)
  Cent   Atom   N1       Length/X         N2         Alpha/Y        N3         Beta/Z          J
 -----------------------------------------------------------------------------------------------
      1  O 
         X        1   0.000000(     1)
      2  H        1  -0.111809(     2)      2  -0.000000(     5)
      3  I        1   0.020702(     3)      2  -0.000000(     6)      3   0.002177(     8)     0
      4  H        1  -0.015240(     4)      2   0.000000(     7)      3  -0.023110(     9)     0
 -----------------------------------------------------------------------------------------------
 Internal  Forces:  Max     0.111809174 RMS     0.039016946

 GradGradGradGradGradGradGradGradGradGradGradGradGradGradGradGradGradGrad
 Berny optimization.
 Search for a local minimum.
 Step number   2 out of a maximum of   20
 All quantities printed in internal units (Hartrees-Bohrs-Radians)
 Update second derivatives using D2CorN and points    1    2
 DE= -3.27D-02 DEPred=-2.71D-02 R= 1.21D+00
 TightC=F SS=  1.41D+00  RLast= 3.00D-01 DXNew= 5.0454D-01 9.0000D-01
 Trust test= 1.21D+00 RLast= 3.00D-01 DXMaxT set to 5.05D-01
 The second derivative matrix:
                          r1        r2        r3        a1        OOP
           r1          -0.04254
           r2           0.01756   0.08376
           r3          -0.00997  -0.05930   0.50804
           a1          -0.01545   0.00267  -0.00097   0.31820
           OOP         -0.00000  -0.00000  -0.00000  -0.00000   0.75863
 ITU=  1  0
     Eigenvalues ---   -0.04562   0.07776   0.31887   0.51644   0.75863
 RFO step:  Lambda=-1.39881845D-01 EMin=-4.56230660D-02
 Skip linear search -- no minimum in search direction.
 Maximum step size (   0.505) exceeded in Quadratic search.
    -- Step size scaled by   0.504
 Variable       Old X    -DE/DX   Delta X   Delta X   Delta X     New X
                                 (Linear)    (Quad)   (Total)
    r1        2.89260  -0.11181   0.00000  -0.49695  -0.49695   2.39564
    r2        5.86819   0.02070   0.00000   0.07676   0.07676   5.94495
    r3        1.91749  -0.01524   0.00000  -0.01248  -0.01248   1.90501
    a1        1.78092  -0.02093   0.00000  -0.03932  -0.03932   1.74160
   OOP        1.57080   0.00000   0.00000   0.00000   0.00000   1.57080
         Item               Value     Threshold  Converged?
 Maximum Force            0.111809     0.000450     NO 
 RMS     Force            0.052154     0.000300     NO 
 Maximum Displacement     0.496955     0.001800     NO 
 RMS     Displacement     0.225636     0.001200     NO 
 Predicted change in Energy=-6.387308D-02
 GradGradGradGradGradGradGradGradGradGradGradGradGradGradGradGradGradGrad

 ---------------------------------------------------------------------------------------------------
                            Z-MATRIX (ANGSTROMS AND DEGREES)
   CD    Cent   Atom    N1       Length/X        N2       Alpha/Y        N3        Beta/Z          J
 ---------------------------------------------------------------------------------------------------
      1      1  O 
      2         X        1  10.000000(     1)
      3      2  H        1   1.267719(     2)      2   90.000(     5)
      4      3  I        1   3.145933(     3)      2   90.000(     6)      3   99.786(     8)      0
      5      4  H        1   1.008089(     4)      2   90.000(     7)      3   99.786(     9)      0
 ---------------------------------------------------------------------------------------------------
                         Z-Matrix orientation:                         
 ---------------------------------------------------------------------
 Center     Atomic      Atomic             Coordinates (Angstroms)
 Number     Number       Type             X           Y           Z
 ---------------------------------------------------------------------
      1          8           0        0.000000    0.000000    0.000000
      2         -1           0        0.000000    0.000000   10.000000
      3          1           0        1.267719    0.000000    0.000000
      4         53           0       -0.534728   -3.100155    0.000000
      5          1           0       -0.171349   -0.993419    0.000000
 ---------------------------------------------------------------------
                    Distance matrix (angstroms):
                    1          2          3          4          5
     1  O    0.000000
     2  X   10.000000   0.000000
     3  H    1.267719  10.080035   0.000000
     4  I    3.145933  10.483172   3.586053   0.000000
     5  H    1.008089  10.050684   1.748657   2.137844   0.000000
 Stoichiometry    H2IO(1-)
 Framework group  CS[SG(H2IO)]
 Deg. of freedom     5
 Full point group                 CS      NOp   2
 Largest Abelian subgroup         CS      NOp   2
 Largest concise Abelian subgroup C1      NOp   1
                         Standard orientation:                         
 ---------------------------------------------------------------------
 Center     Atomic      Atomic             Coordinates (Angstroms)
 Number     Number       Type             X           Y           Z
 ---------------------------------------------------------------------
      1          8           0        0.019830    2.659159    0.000000
      2          1           0       -1.229442    2.874639    0.000000
      3         53           0        0.019830   -0.486773   -0.000000
      4          1           0        0.019830    1.651071    0.000000
 ---------------------------------------------------------------------
 Rotational constants (GHZ):    183.6483158      3.1204281      3.0682937
 Basis read from rwf:  (5D, 7F)
 Pseudo-potential data read from rwf file.
 There are   151 symmetry adapted cartesian basis functions of A'  symmetry.
 There are    67 symmetry adapted cartesian basis functions of A"  symmetry.
 There are   128 symmetry adapted basis functions of A'  symmetry.
 There are    63 symmetry adapted basis functions of A"  symmetry.
   191 basis functions,   344 primitive gaussians,   218 cartesian basis functions
    18 alpha electrons       18 beta electrons
       nuclear repulsion energy        51.3608018787 Hartrees.
 NAtoms=    4 NActive=    4 NUniq=    4 SFac= 1.00D+00 NAtFMM=   60 NAOKFM=F Big=F
 Integral buffers will be    131072 words long.
 Raffenetti 1 integral format.
 Two-electron integral symmetry is turned on.
 One-electron integrals computed using PRISM.
   1 Symmetry operations used in ECPInt.
 ECPInt:  NShTT=    2145 NPrTT=    7341 LenC2=    2146 LenP2D=    6762.
 LDataN:  DoStor=T MaxTD1= 7 Len=  274
 NBasis=   191 RedAO= T EigKep=  3.66D-04  NBF=   128    63
 NBsUse=   147 1.00D-06 EigRej=  1.27D-15 NBFU=    98    49
 Initial guess from the checkpoint file:  "/home/netid.washington.edu/cgavinh/mccoy_hocl/rOH_s_oop_0/ihocl/ihocl_0_opt.chk"
 B after Tr=     0.000000    0.000000   -0.000000
         Rot=    0.999993   -0.000000    0.000000    0.003862 Ang=   0.44 deg.
 Initial guess orbital symmetries:
       Occupied  (A') (A') (A') (A') (A") (A') (A') (A") (A") (A')
                 (A') (A') (A') (A") (A') (A') (A') (A")
       Virtual   (A') (A') (A') (A') (A') (A') (A') (A') (A') (A')
                 (A') (A') (A') (A') (A') (A') (A') (A') (A') (A')
                 (A') (A') (A') (A') (A') (A') (A') (A') (A') (A')
                 (A') (A') (A') (A') (A') (A') (A') (A') (A') (A')
                 (A') (A') (A') (A') (A') (A') (A') (A') (A') (A')
                 (A') (A') (A') (A') (A') (A') (A') (A') (A') (A')
                 (A') (A') (A') (A') (A') (A') (A') (A') (A') (A')
                 (A') (A') (A') (A') (A') (A') (A') (A') (A') (A')
                 (A') (A') (A') (A') (A') (A") (A") (A") (A") (A")
                 (A") (A") (A") (A") (A") (A") (A") (A") (A") (A")
                 (A") (A") (A") (A") (A") (A") (A") (A") (A") (A")
                 (A") (A") (A") (A") (A") (A") (A") (A") (A") (A")
                 (A") (A") (A") (A") (A") (A") (A") (A") (A")
 ExpMin= 2.53D-02 ExpMax= 1.53D+04 ExpMxC= 5.22D+02 IAcc=3 IRadAn=         5 AccDes= 0.00D+00
 Harris functional with IExCor=  205 and IRadAn=       5 diagonalized for initial guess.
 HarFok:  IExCor=  205 AccDes= 0.00D+00 IRadAn=         5 IDoV= 1 UseB2=F ITyADJ=14
 ICtDFT=  3500011 ScaDFX=  1.000000  1.000000  1.000000  1.000000
 Defaulting to unpruned grid for atomic number  53.
 Defaulting to unpruned grid for atomic number  53.
 Defaulting to unpruned grid for atomic number  53.
 Defaulting to unpruned grid for atomic number  53.
 Defaulting to unpruned grid for atomic number  53.
 Defaulting to unpruned grid for atomic number  53.
 Defaulting to unpruned grid for atomic number  53.
 Defaulting to unpruned grid for atomic number  53.
 Defaulting to unpruned grid for atomic number  53.
 Defaulting to unpruned grid for atomic number  53.
 Defaulting to unpruned grid for atomic number  53.
 Defaulting to unpruned grid for atomic number  53.
 FoFCou: FMM=F IPFlag=           0 FMFlag=      100000 FMFlg1=           0
         NFxFlg=           0 DoJE=T BraDBF=F KetDBF=T FulRan=T
         wScrn=  0.000000 ICntrl=     500 IOpCl=  0 I1Cent=   200000004 NGrid=           0
         NMat0=    1 NMatS0=      1 NMatT0=    0 NMatD0=    1 NMtDS0=    0 NMtDT0=    0
 Petite list used in FoFCou.
 Keep R1 ints in memory in symmetry-blocked form, NReq=253598549.
 Requested convergence on RMS density matrix=1.00D-08 within 128 cycles.
 Requested convergence on MAX density matrix=1.00D-06.
 Requested convergence on             energy=1.00D-06.
 No special actions if energy rises.
 SCF Done:  E(RHF) =  -370.743376963     A.U. after   12 cycles
            NFock= 12  Conv=0.26D-08     -V/T= 2.9876
 ExpMin= 2.53D-02 ExpMax= 1.53D+04 ExpMxC= 5.22D+02 IAcc=3 IRadAn=         5 AccDes= 0.00D+00
 HarFok:  IExCor=  205 AccDes= 0.00D+00 IRadAn=         5 IDoV=-2 UseB2=F ITyADJ=14
 ICtDFT= 12500011 ScaDFX=  1.000000  1.000000  1.000000  1.000000
 Defaulting to unpruned grid for atomic number  53.
 Defaulting to unpruned grid for atomic number  53.
 Defaulting to unpruned grid for atomic number  53.
 Defaulting to unpruned grid for atomic number  53.
 Defaulting to unpruned grid for atomic number  53.
 Defaulting to unpruned grid for atomic number  53.
 Defaulting to unpruned grid for atomic number  53.
 Defaulting to unpruned grid for atomic number  53.
 Defaulting to unpruned grid for atomic number  53.
 Defaulting to unpruned grid for atomic number  53.
 Defaulting to unpruned grid for atomic number  53.
 Defaulting to unpruned grid for atomic number  53.
 Range of M.O.s used for correlation:     6   147
 NBasis=   191 NAE=    18 NBE=    18 NFC=     5 NFV=     0
 NROrb=    142 NOA=    13 NOB=    13 NVA=   129 NVB=   129

 **** Warning!!: The largest alpha MO coefficient is  0.17737536D+02

 Fully direct method using O(ONN) memory.
 JobTyp=1 Pass  1:  I=   6 to   8 NPSUse=  3 ParTrn=F ParDer=T DoDerP=T.
 JobTyp=1 Pass  2:  I=   9 to  11 NPSUse=  3 ParTrn=F ParDer=T DoDerP=T.
 JobTyp=1 Pass  3:  I=  12 to  14 NPSUse=  3 ParTrn=F ParDer=T DoDerP=T.
 JobTyp=1 Pass  4:  I=  15 to  17 NPSUse=  3 ParTrn=F ParDer=T DoDerP=T.
 JobTyp=1 Pass  5:  I=  18 to  18 NPSUse=  3 ParTrn=F ParDer=T DoDerP=T.
 Spin components of T(2) and E(2):
     alpha-alpha T2 =       0.2356843823D-01 E2=     -0.7006306795D-01
     alpha-beta  T2 =       0.1256524570D+00 E2=     -0.3768900865D+00
     beta-beta   T2 =       0.2356843823D-01 E2=     -0.7006306795D-01
 ANorm=    0.1082953985D+01
 E2 =    -0.5170162224D+00 EUMP2 =    -0.37126039318535D+03
          IDoAtm=1111
          Differentiating once with respect to electric field.
                with respect to dipole field.
          Differentiating once with respect to nuclear coordinates.
 Keep R1 ints in memory in symmetry-blocked form, NReq=253434788.
          There are     1 degrees of freedom in the 1st order CPHF.  IDoFFX=0 NUNeed=     1.
 LinEq1:  Iter=  0 NonCon=     1 RMS=3.44D-03 Max=7.20D-02 NDo=     1
 AX will form     1 AO Fock derivatives at one time.
 LinEq1:  Iter=  1 NonCon=     1 RMS=6.51D-04 Max=9.12D-03 NDo=     1
 LinEq1:  Iter=  2 NonCon=     1 RMS=2.94D-04 Max=5.58D-03 NDo=     1
 LinEq1:  Iter=  3 NonCon=     1 RMS=8.85D-05 Max=1.10D-03 NDo=     1
 LinEq1:  Iter=  4 NonCon=     1 RMS=3.75D-05 Max=5.35D-04 NDo=     1
 LinEq1:  Iter=  5 NonCon=     1 RMS=8.37D-06 Max=1.19D-04 NDo=     1
 LinEq1:  Iter=  6 NonCon=     1 RMS=1.82D-06 Max=1.90D-05 NDo=     1
 LinEq1:  Iter=  7 NonCon=     1 RMS=4.67D-07 Max=6.29D-06 NDo=     1
 LinEq1:  Iter=  8 NonCon=     1 RMS=1.41D-07 Max=2.07D-06 NDo=     1
 LinEq1:  Iter=  9 NonCon=     1 RMS=4.05D-08 Max=4.80D-07 NDo=     1
 LinEq1:  Iter= 10 NonCon=     1 RMS=6.82D-09 Max=6.72D-08 NDo=     1
 LinEq1:  Iter= 11 NonCon=     1 RMS=1.29D-09 Max=1.25D-08 NDo=     1
 LinEq1:  Iter= 12 NonCon=     1 RMS=3.82D-10 Max=4.50D-09 NDo=     1
 LinEq1:  Iter= 13 NonCon=     1 RMS=9.76D-11 Max=1.30D-09 NDo=     1
 LinEq1:  Iter= 14 NonCon=     0 RMS=1.74D-11 Max=2.44D-10 NDo=     1
 Linear equations converged to 1.000D-10 1.000D-09 after    14 iterations.
 End of Minotr F.D. properties file   721 does not exist.
 End of Minotr F.D. properties file   722 does not exist.
 End of Minotr F.D. properties file   788 does not exist.
   2 Symmetry operations used in ECPInt.
 ECPInt:  NShTT=    2145 NPrTT=    7341 LenC2=    2146 LenP2D=    6762.
 LDataN:  DoStor=T MaxTD1= 8 Len=  415
 Calling FoFJK, ICntrl=  10002127 FMM=F ISym2X=1 I1Cent= 0 IOpClX= 0 NMat=1 NMatS=1 NMatT=0.
 ***** Axes restored to original set *****
 -------------------------------------------------------------------
 Center     Atomic                   Forces (Hartrees/Bohr)
 Number     Number              X              Y              Z
 -------------------------------------------------------------------
      1        8           0.116021757    0.009247865   -0.000000000
      2        1          -0.120530404   -0.004691941    0.000000000
      3       53          -0.002668872   -0.017367646    0.000000000
      4        1           0.007177519    0.012811722   -0.000000000
 -------------------------------------------------------------------
 Cartesian Forces:  Max     0.120530404 RMS     0.048836956
 -----------------------------------------------------------------------------------------------
                       Internal Coordinate Forces (Hartree/Bohr or radian)
  Cent   Atom   N1       Length/X         N2         Alpha/Y        N3         Beta/Z          J
 -----------------------------------------------------------------------------------------------
      1  O 
         X        1   0.000000(     1)
      2  H        1  -0.120530(     2)      2  -0.000000(     5)
      3  I        1   0.017569(     3)      2  -0.000000(     6)      3  -0.001914(     8)     0
      4  H        1  -0.013845(     4)      2   0.000000(     7)      3  -0.009326(     9)     0
 -----------------------------------------------------------------------------------------------
 Internal  Forces:  Max     0.120530404 RMS     0.040985852

 GradGradGradGradGradGradGradGradGradGradGradGradGradGradGradGradGradGrad
 Berny optimization.
 Search for a local minimum.
 Step number   3 out of a maximum of   20
 All quantities printed in internal units (Hartrees-Bohrs-Radians)
 Update second derivatives using D2CorN and points    2    3
 DE= -6.15D-02 DEPred=-6.39D-02 R= 9.63D-01
 TightC=F SS=  1.41D+00  RLast= 5.05D-01 DXNew= 8.4853D-01 1.5136D+00
 Trust test= 9.63D-01 RLast= 5.05D-01 DXMaxT set to 8.49D-01
 The second derivative matrix:
                          r1        r2        r3        a1        OOP
           r1          -0.01423
           r2           0.01069   0.08521
           r3          -0.01401  -0.05874   0.50782
           a1          -0.00938   0.00153  -0.00120   0.31899
           OOP          0.00000  -0.00000  -0.00000  -0.00000   0.75863
 ITU=  1  1  0
     Eigenvalues ---   -0.01576   0.07801   0.31925   0.51628   0.75863
 RFO step:  Lambda=-1.30490619D-01 EMin=-1.57630025D-02
 Skip linear search -- no minimum in search direction.
 Maximum step size (   0.849) exceeded in Quadratic search.
    -- Step size scaled by   0.848
 Variable       Old X    -DE/DX   Delta X   Delta X   Delta X     New X
                                 (Linear)    (Quad)   (Total)
    r1        2.39564  -0.12053   0.00000  -0.84118  -0.84118   1.55446
    r2        5.94495   0.01757   0.00000   0.10075   0.10075   6.04570
    r3        1.90501  -0.01385   0.00000  -0.02750  -0.02750   1.87751
    a1        1.74160  -0.01124   0.00000  -0.03878  -0.03878   1.70282
   OOP        1.57080   0.00000   0.00000   0.00000   0.00000   1.57080
         Item               Value     Threshold  Converged?
 Maximum Force            0.120530     0.000450     NO 
 RMS     Force            0.055053     0.000300     NO 
 Maximum Displacement     0.841183     0.001800     NO 
 RMS     Displacement     0.379473     0.001200     NO 
 Predicted change in Energy=-1.095273D-01
 GradGradGradGradGradGradGradGradGradGradGradGradGradGradGradGradGradGrad

 ---------------------------------------------------------------------------------------------------
                            Z-MATRIX (ANGSTROMS AND DEGREES)
   CD    Cent   Atom    N1       Length/X        N2       Alpha/Y        N3        Beta/Z          J
 ---------------------------------------------------------------------------------------------------
      1      1  O 
      2         X        1  10.000000(     1)
      3      2  H        1   0.822584(     2)      2   90.000(     5)
      4      3  I        1   3.199248(     3)      2   90.000(     6)      3   97.565(     8)      0
      5      4  H        1   0.993535(     4)      2   90.000(     7)      3   97.565(     9)      0
 ---------------------------------------------------------------------------------------------------
                         Z-Matrix orientation:                         
 ---------------------------------------------------------------------
 Center     Atomic      Atomic             Coordinates (Angstroms)
 Number     Number       Type             X           Y           Z
 ---------------------------------------------------------------------
      1          8           0        0.000000    0.000000    0.000000
      2         -1           0        0.000000    0.000000   10.000000
      3          1           0        0.822584    0.000000    0.000000
      4         53           0       -0.421159   -3.171406    0.000000
      5          1           0       -0.130792   -0.984889    0.000000
 ---------------------------------------------------------------------
                    Distance matrix (angstroms):
                    1          2          3          4          5
     1  O    0.000000
     2  X   10.000000   0.000000
     3  H    0.822584  10.033775   0.000000
     4  I    3.199248  10.499295   3.406569   0.000000
     5  H    0.993535  10.049234   1.370742   2.205713   0.000000
 Stoichiometry    H2IO(1-)
 Framework group  CS[SG(H2IO)]
 Deg. of freedom     5
 Full point group                 CS      NOp   2
 Largest Abelian subgroup         CS      NOp   2
 Largest concise Abelian subgroup C1      NOp   1
                         Standard orientation:                         
 ---------------------------------------------------------------------
 Center     Atomic      Atomic             Coordinates (Angstroms)
 Number     Number       Type             X           Y           Z
 ---------------------------------------------------------------------
      1          8           0        0.012943    2.705483    0.000000
      2          1           0       -0.802482    2.813770    0.000000
      3         53           0        0.012943   -0.493766   -0.000000
      4          1           0        0.012943    1.711947    0.000000
 ---------------------------------------------------------------------
 Rotational constants (GHZ):    427.0494317      3.0432148      3.0216818
 Basis read from rwf:  (5D, 7F)
 Pseudo-potential data read from rwf file.
 There are   151 symmetry adapted cartesian basis functions of A'  symmetry.
 There are    67 symmetry adapted cartesian basis functions of A"  symmetry.
 There are   128 symmetry adapted basis functions of A'  symmetry.
 There are    63 symmetry adapted basis functions of A"  symmetry.
   191 basis functions,   344 primitive gaussians,   218 cartesian basis functions
    18 alpha electrons       18 beta electrons
       nuclear repulsion energy        52.7561530527 Hartrees.
 NAtoms=    4 NActive=    4 NUniq=    4 SFac= 1.00D+00 NAtFMM=   60 NAOKFM=F Big=F
 Integral buffers will be    131072 words long.
 Raffenetti 1 integral format.
 Two-electron integral symmetry is turned on.
 One-electron integrals computed using PRISM.
   1 Symmetry operations used in ECPInt.
 ECPInt:  NShTT=    2145 NPrTT=    7341 LenC2=    2146 LenP2D=    6773.
 LDataN:  DoStor=T MaxTD1= 7 Len=  274
 NBasis=   191 RedAO= T EigKep=  3.81D-04  NBF=   128    63
 NBsUse=   147 1.00D-06 EigRej=  1.28D-15 NBFU=    98    49
 Initial guess from the checkpoint file:  "/home/netid.washington.edu/cgavinh/mccoy_hocl/rOH_s_oop_0/ihocl/ihocl_0_opt.chk"
 B after Tr=     0.000000    0.000000   -0.000000
         Rot=    0.999975   -0.000000    0.000000    0.007122 Ang=   0.82 deg.
 Initial guess orbital symmetries:
       Occupied  (A') (A') (A') (A') (A") (A') (A') (A") (A") (A')
                 (A') (A') (A') (A') (A") (A') (A') (A")
       Virtual   (A') (A') (A') (A') (A') (A') (A') (A') (A') (A')
                 (A') (A') (A') (A') (A') (A') (A') (A') (A') (A')
                 (A') (A') (A') (A') (A') (A') (A') (A') (A') (A')
                 (A') (A') (A') (A') (A') (A') (A') (A') (A') (A')
                 (A') (A') (A') (A') (A') (A') (A') (A') (A') (A')
                 (A') (A') (A') (A') (A') (A') (A') (A') (A') (A')
                 (A') (A') (A') (A') (A') (A') (A') (A') (A') (A')
                 (A') (A') (A') (A') (A') (A') (A') (A') (A') (A')
                 (A') (A') (A') (A') (A') (A") (A") (A") (A") (A")
                 (A") (A") (A") (A") (A") (A") (A") (A") (A") (A")
                 (A") (A") (A") (A") (A") (A") (A") (A") (A") (A")
                 (A") (A") (A") (A") (A") (A") (A") (A") (A") (A")
                 (A") (A") (A") (A") (A") (A") (A") (A") (A")
 ExpMin= 2.53D-02 ExpMax= 1.53D+04 ExpMxC= 5.22D+02 IAcc=3 IRadAn=         5 AccDes= 0.00D+00
 Harris functional with IExCor=  205 and IRadAn=       5 diagonalized for initial guess.
 HarFok:  IExCor=  205 AccDes= 0.00D+00 IRadAn=         5 IDoV= 1 UseB2=F ITyADJ=14
 ICtDFT=  3500011 ScaDFX=  1.000000  1.000000  1.000000  1.000000
 Defaulting to unpruned grid for atomic number  53.
 Defaulting to unpruned grid for atomic number  53.
 Defaulting to unpruned grid for atomic number  53.
 Defaulting to unpruned grid for atomic number  53.
 Defaulting to unpruned grid for atomic number  53.
 Defaulting to unpruned grid for atomic number  53.
 Defaulting to unpruned grid for atomic number  53.
 Defaulting to unpruned grid for atomic number  53.
 Defaulting to unpruned grid for atomic number  53.
 Defaulting to unpruned grid for atomic number  53.
 Defaulting to unpruned grid for atomic number  53.
 Defaulting to unpruned grid for atomic number  53.
 FoFCou: FMM=F IPFlag=           0 FMFlag=      100000 FMFlg1=           0
         NFxFlg=           0 DoJE=T BraDBF=F KetDBF=T FulRan=T
         wScrn=  0.000000 ICntrl=     500 IOpCl=  0 I1Cent=   200000004 NGrid=           0
         NMat0=    1 NMatS0=      1 NMatT0=    0 NMatD0=    1 NMtDS0=    0 NMtDT0=    0
 Petite list used in FoFCou.
 Keep R1 ints in memory in symmetry-blocked form, NReq=253598549.
 Requested convergence on RMS density matrix=1.00D-08 within 128 cycles.
 Requested convergence on MAX density matrix=1.00D-06.
 Requested convergence on             energy=1.00D-06.
 No special actions if energy rises.
 SCF Done:  E(RHF) =  -370.786543778     A.U. after   12 cycles
            NFock= 12  Conv=0.86D-08     -V/T= 2.9802
 ExpMin= 2.53D-02 ExpMax= 1.53D+04 ExpMxC= 5.22D+02 IAcc=3 IRadAn=         5 AccDes= 0.00D+00
 HarFok:  IExCor=  205 AccDes= 0.00D+00 IRadAn=         5 IDoV=-2 UseB2=F ITyADJ=14
 ICtDFT= 12500011 ScaDFX=  1.000000  1.000000  1.000000  1.000000
 Defaulting to unpruned grid for atomic number  53.
 Defaulting to unpruned grid for atomic number  53.
 Defaulting to unpruned grid for atomic number  53.
 Defaulting to unpruned grid for atomic number  53.
 Defaulting to unpruned grid for atomic number  53.
 Defaulting to unpruned grid for atomic number  53.
 Defaulting to unpruned grid for atomic number  53.
 Defaulting to unpruned grid for atomic number  53.
 Defaulting to unpruned grid for atomic number  53.
 Defaulting to unpruned grid for atomic number  53.
 Defaulting to unpruned grid for atomic number  53.
 Defaulting to unpruned grid for atomic number  53.
 Range of M.O.s used for correlation:     6   147
 NBasis=   191 NAE=    18 NBE=    18 NFC=     5 NFV=     0
 NROrb=    142 NOA=    13 NOB=    13 NVA=   129 NVB=   129

 **** Warning!!: The largest alpha MO coefficient is  0.17645964D+02

 Fully direct method using O(ONN) memory.
 JobTyp=1 Pass  1:  I=   6 to   8 NPSUse=  3 ParTrn=F ParDer=T DoDerP=T.
 JobTyp=1 Pass  2:  I=   9 to  11 NPSUse=  3 ParTrn=F ParDer=T DoDerP=T.
 JobTyp=1 Pass  3:  I=  12 to  14 NPSUse=  3 ParTrn=F ParDer=T DoDerP=T.
 JobTyp=1 Pass  4:  I=  15 to  17 NPSUse=  3 ParTrn=F ParDer=T DoDerP=T.
 JobTyp=1 Pass  5:  I=  18 to  18 NPSUse=  3 ParTrn=F ParDer=T DoDerP=T.
 Spin components of T(2) and E(2):
     alpha-alpha T2 =       0.2135132772D-01 E2=     -0.6783086099D-01
     alpha-beta  T2 =       0.1102374751D+00 E2=     -0.3611865182D+00
     beta-beta   T2 =       0.2135132772D-01 E2=     -0.6783086099D-01
 ANorm=    0.1073750497D+01
 E2 =    -0.4968482402D+00 EUMP2 =    -0.37128339201820D+03
          IDoAtm=1111
          Differentiating once with respect to electric field.
                with respect to dipole field.
          Differentiating once with respect to nuclear coordinates.
 Keep R1 ints in memory in symmetry-blocked form, NReq=253434788.
          There are     1 degrees of freedom in the 1st order CPHF.  IDoFFX=0 NUNeed=     1.
 LinEq1:  Iter=  0 NonCon=     1 RMS=2.60D-03 Max=4.52D-02 NDo=     1
 AX will form     1 AO Fock derivatives at one time.
 LinEq1:  Iter=  1 NonCon=     1 RMS=4.22D-04 Max=4.00D-03 NDo=     1
 LinEq1:  Iter=  2 NonCon=     1 RMS=1.74D-04 Max=2.50D-03 NDo=     1
 LinEq1:  Iter=  3 NonCon=     1 RMS=4.10D-05 Max=7.48D-04 NDo=     1
 LinEq1:  Iter=  4 NonCon=     1 RMS=7.24D-06 Max=7.05D-05 NDo=     1
 LinEq1:  Iter=  5 NonCon=     1 RMS=2.83D-06 Max=3.29D-05 NDo=     1
 LinEq1:  Iter=  6 NonCon=     1 RMS=7.49D-07 Max=1.13D-05 NDo=     1
 LinEq1:  Iter=  7 NonCon=     1 RMS=1.64D-07 Max=2.25D-06 NDo=     1
 LinEq1:  Iter=  8 NonCon=     1 RMS=4.48D-08 Max=5.91D-07 NDo=     1
 LinEq1:  Iter=  9 NonCon=     1 RMS=9.05D-09 Max=1.00D-07 NDo=     1
 LinEq1:  Iter= 10 NonCon=     1 RMS=1.51D-09 Max=1.49D-08 NDo=     1
 LinEq1:  Iter= 11 NonCon=     1 RMS=2.33D-10 Max=2.26D-09 NDo=     1
 LinEq1:  Iter= 12 NonCon=     0 RMS=3.60D-11 Max=4.25D-10 NDo=     1
 Linear equations converged to 1.000D-10 1.000D-09 after    12 iterations.
 End of Minotr F.D. properties file   721 does not exist.
 End of Minotr F.D. properties file   722 does not exist.
 End of Minotr F.D. properties file   788 does not exist.
   2 Symmetry operations used in ECPInt.
 ECPInt:  NShTT=    2145 NPrTT=    7341 LenC2=    2146 LenP2D=    6773.
 LDataN:  DoStor=T MaxTD1= 8 Len=  415
 Calling FoFJK, ICntrl=  10002127 FMM=F ISym2X=1 I1Cent= 0 IOpClX= 0 NMat=1 NMatS=1 NMatT=0.
 ***** Axes restored to original set *****
 -------------------------------------------------------------------
 Center     Atomic                   Forces (Hartrees/Bohr)
 Number     Number              X              Y              Z
 -------------------------------------------------------------------
      1        8          -0.222535136   -0.007386115    0.000000000
      2        1           0.236275564    0.012403930   -0.000000000
      3       53          -0.000614969   -0.013837203    0.000000000
      4        1          -0.013125460    0.008819389   -0.000000000
 -------------------------------------------------------------------
 Cartesian Forces:  Max     0.236275564 RMS     0.093985082
 -----------------------------------------------------------------------------------------------
                       Internal Coordinate Forces (Hartree/Bohr or radian)
  Cent   Atom   N1       Length/X         N2         Alpha/Y        N3         Beta/Z          J
 -----------------------------------------------------------------------------------------------
      1  O 
         X        1   0.000000(     1)
      2  H        1   0.236276(     2)      2   0.000000(     5)
      3  I        1   0.013798(     3)      2  -0.000000(     6)      3  -0.007327(     8)     0
      4  H        1  -0.007015(     4)      2   0.000000(     7)      3   0.026609(     9)     0
 -----------------------------------------------------------------------------------------------
 Internal  Forces:  Max     0.236275564 RMS     0.079461680

 GradGradGradGradGradGradGradGradGradGradGradGradGradGradGradGradGradGrad
 Berny optimization.
 Search for a local minimum.
 Step number   4 out of a maximum of   20
 All quantities printed in internal units (Hartrees-Bohrs-Radians)
 Update second derivatives using D2CorN and points    4
 DE= -2.30D-02 DEPred=-1.10D-01 R= 2.10D-01
 Trust test= 2.10D-01 RLast= 8.49D-01 DXMaxT set to 8.49D-01
 The second derivative matrix:
                          r1        r2        r3        a1        OOP
           r1          -0.01423
           r2           0.01069   0.08521
           r3          -0.01401  -0.05874   0.50782
           a1          -0.00938   0.00153  -0.00120   0.31899
           OOP          0.00000  -0.00000  -0.00000  -0.00000   0.75863
 ITU=  0  1  1  0
     Eigenvalues ---   -0.01576   0.07801   0.31925   0.51628   0.75863
 RFO step:  Lambda=-1.58514230D-02 EMin=-1.57630025D-02
 I=     1 Eig=   -1.58D-02 Dot1=  4.83D-04
 I=     1 Stepn=  6.00D-01 RXN=   6.00D-01 EDone=F
 Mixed    1 eigenvectors in step.  Raw Step.Grad=  4.83D-04.
 RFO eigenvector is Hessian eigenvector with negative curvature.
 Taking step of  6.00D-01 in eigenvector direction(s).  Step.Grad=  1.35D-03.
 Quartic linear search produced a step of -0.32098.
 Variable       Old X    -DE/DX   Delta X   Delta X   Delta X     New X
                                 (Linear)    (Quad)   (Total)
    r1        1.55446   0.23628   0.27001   0.59688   0.86688   2.42134
    r2        6.04570   0.01380  -0.03234  -0.05794  -0.09028   5.95542
    r3        1.87751  -0.00701   0.00883   0.00951   0.01834   1.89585
    a1        1.70282   0.01928   0.01245   0.01702   0.02947   1.73229
   OOP        1.57080   0.00000   0.00000   0.00000   0.00000   1.57080
         Item               Value     Threshold  Converged?
 Maximum Force            0.236276     0.000450     NO 
 RMS     Force            0.106243     0.000300     NO 
 Maximum Displacement     0.866883     0.001800     NO 
 RMS     Displacement     0.390087     0.001200     NO 
 Predicted change in Energy=-2.100011D-01
 GradGradGradGradGradGradGradGradGradGradGradGradGradGradGradGradGradGrad

 ---------------------------------------------------------------------------------------------------
                            Z-MATRIX (ANGSTROMS AND DEGREES)
   CD    Cent   Atom    N1       Length/X        N2       Alpha/Y        N3        Beta/Z          J
 ---------------------------------------------------------------------------------------------------
      1      1  O 
      2         X        1  10.000000(     1)
      3      2  H        1   1.281319(     2)      2   90.000(     5)
      4      3  I        1   3.151473(     3)      2   90.000(     6)      3   99.253(     8)      0
      5      4  H        1   1.003238(     4)      2   90.000(     7)      3   99.253(     9)      0
 ---------------------------------------------------------------------------------------------------
                         Z-Matrix orientation:                         
 ---------------------------------------------------------------------
 Center     Atomic      Atomic             Coordinates (Angstroms)
 Number     Number       Type             X           Y           Z
 ---------------------------------------------------------------------
      1          8           0        0.000000    0.000000    0.000000
      2         -1           0        0.000000    0.000000   10.000000
      3          1           0        1.281319    0.000000    0.000000
      4         53           0       -0.506731   -3.110467    0.000000
      5          1           0       -0.161312   -0.990185    0.000000
 ---------------------------------------------------------------------
                    Distance matrix (angstroms):
                    1          2          3          4          5
     1  O    0.000000
     2  X   10.000000   0.000000
     3  H    1.281319  10.081755   0.000000
     4  I    3.151473  10.484836   3.587775   0.000000
     5  H    1.003238  10.050198   1.749758   2.148235   0.000000
 Stoichiometry    H2IO(1-)
 Framework group  CS[SG(H2IO)]
 Deg. of freedom     5
 Full point group                 CS      NOp   2
 Largest Abelian subgroup         CS      NOp   2
 Largest concise Abelian subgroup C1      NOp   1
                         Standard orientation:                         
 ---------------------------------------------------------------------
 Center     Atomic      Atomic             Coordinates (Angstroms)
 Number     Number       Type             X           Y           Z
 ---------------------------------------------------------------------
      1          8           0        0.020074    2.663893    0.000000
      2          1           0       -1.244573    2.869919    0.000000
      3         53           0        0.020074   -0.487580   -0.000000
      4          1           0        0.020074    1.660655    0.000000
 ---------------------------------------------------------------------
 Rotational constants (GHZ):    179.0829990      3.1111599      3.0580335
 Basis read from rwf:  (5D, 7F)
 Pseudo-potential data read from rwf file.
 There are   151 symmetry adapted cartesian basis functions of A'  symmetry.
 There are    67 symmetry adapted cartesian basis functions of A"  symmetry.
 There are   128 symmetry adapted basis functions of A'  symmetry.
 There are    63 symmetry adapted basis functions of A"  symmetry.
   191 basis functions,   344 primitive gaussians,   218 cartesian basis functions
    18 alpha electrons       18 beta electrons
       nuclear repulsion energy        51.2546254749 Hartrees.
 NAtoms=    4 NActive=    4 NUniq=    4 SFac= 1.00D+00 NAtFMM=   60 NAOKFM=F Big=F
 Integral buffers will be    131072 words long.
 Raffenetti 1 integral format.
 Two-electron integral symmetry is turned on.
 One-electron integrals computed using PRISM.
   1 Symmetry operations used in ECPInt.
 ECPInt:  NShTT=    2145 NPrTT=    7341 LenC2=    2146 LenP2D=    6760.
 LDataN:  DoStor=T MaxTD1= 7 Len=  274
 NBasis=   191 RedAO= T EigKep=  3.73D-04  NBF=   128    63
 NBsUse=   147 1.00D-06 EigRej=  1.26D-15 NBFU=    98    49
 Initial guess from the checkpoint file:  "/home/netid.washington.edu/cgavinh/mccoy_hocl/rOH_s_oop_0/ihocl/ihocl_0_opt.chk"
 B after Tr=    -0.000000   -0.000000    0.000000
         Rot=    0.999973    0.000000   -0.000000   -0.007396 Ang=  -0.85 deg.
 Initial guess orbital symmetries:
       Occupied  (A') (A') (A') (A') (A") (A') (A') (A") (A') (A")
                 (A') (A') (A') (A') (A") (A') (A') (A")
       Virtual   (A') (A') (A') (A') (A') (A') (A') (A') (A') (A')
                 (A') (A') (A') (A') (A') (A') (A') (A') (A') (A')
                 (A') (A') (A') (A') (A') (A') (A') (A') (A') (A')
                 (A') (A') (A') (A') (A') (A') (A') (A') (A') (A')
                 (A') (A') (A') (A') (A') (A') (A') (A') (A') (A')
                 (A') (A') (A') (A') (A') (A') (A') (A') (A') (A')
                 (A') (A') (A') (A') (A') (A') (A') (A') (A') (A')
                 (A') (A') (A') (A') (A') (A') (A') (A') (A') (A')
                 (A') (A') (A') (A') (A') (A") (A") (A") (A") (A")
                 (A") (A") (A") (A") (A") (A") (A") (A") (A") (A")
                 (A") (A") (A") (A") (A") (A") (A") (A") (A") (A")
                 (A") (A") (A") (A") (A") (A") (A") (A") (A") (A")
                 (A") (A") (A") (A") (A") (A") (A") (A") (A")
 ExpMin= 2.53D-02 ExpMax= 1.53D+04 ExpMxC= 5.22D+02 IAcc=3 IRadAn=         5 AccDes= 0.00D+00
 Harris functional with IExCor=  205 and IRadAn=       5 diagonalized for initial guess.
 HarFok:  IExCor=  205 AccDes= 0.00D+00 IRadAn=         5 IDoV= 1 UseB2=F ITyADJ=14
 ICtDFT=  3500011 ScaDFX=  1.000000  1.000000  1.000000  1.000000
 Defaulting to unpruned grid for atomic number  53.
 Defaulting to unpruned grid for atomic number  53.
 Defaulting to unpruned grid for atomic number  53.
 Defaulting to unpruned grid for atomic number  53.
 Defaulting to unpruned grid for atomic number  53.
 Defaulting to unpruned grid for atomic number  53.
 Defaulting to unpruned grid for atomic number  53.
 Defaulting to unpruned grid for atomic number  53.
 Defaulting to unpruned grid for atomic number  53.
 Defaulting to unpruned grid for atomic number  53.
 Defaulting to unpruned grid for atomic number  53.
 Defaulting to unpruned grid for atomic number  53.
 FoFCou: FMM=F IPFlag=           0 FMFlag=      100000 FMFlg1=           0
         NFxFlg=           0 DoJE=T BraDBF=F KetDBF=T FulRan=T
         wScrn=  0.000000 ICntrl=     500 IOpCl=  0 I1Cent=   200000004 NGrid=           0
         NMat0=    1 NMatS0=      1 NMatT0=    0 NMatD0=    1 NMtDS0=    0 NMtDT0=    0
 Petite list used in FoFCou.
 Keep R1 ints in memory in symmetry-blocked form, NReq=253598549.
 Requested convergence on RMS density matrix=1.00D-08 within 128 cycles.
 Requested convergence on MAX density matrix=1.00D-06.
 Requested convergence on             energy=1.00D-06.
 No special actions if energy rises.
 SCF Done:  E(RHF) =  -370.740507571     A.U. after   13 cycles
            NFock= 13  Conv=0.61D-08     -V/T= 2.9877
 ExpMin= 2.53D-02 ExpMax= 1.53D+04 ExpMxC= 5.22D+02 IAcc=3 IRadAn=         5 AccDes= 0.00D+00
 HarFok:  IExCor=  205 AccDes= 0.00D+00 IRadAn=         5 IDoV=-2 UseB2=F ITyADJ=14
 ICtDFT= 12500011 ScaDFX=  1.000000  1.000000  1.000000  1.000000
 Defaulting to unpruned grid for atomic number  53.
 Defaulting to unpruned grid for atomic number  53.
 Defaulting to unpruned grid for atomic number  53.
 Defaulting to unpruned grid for atomic number  53.
 Defaulting to unpruned grid for atomic number  53.
 Defaulting to unpruned grid for atomic number  53.
 Defaulting to unpruned grid for atomic number  53.
 Defaulting to unpruned grid for atomic number  53.
 Defaulting to unpruned grid for atomic number  53.
 Defaulting to unpruned grid for atomic number  53.
 Defaulting to unpruned grid for atomic number  53.
 Defaulting to unpruned grid for atomic number  53.
 Range of M.O.s used for correlation:     6   147
 NBasis=   191 NAE=    18 NBE=    18 NFC=     5 NFV=     0
 NROrb=    142 NOA=    13 NOB=    13 NVA=   129 NVB=   129

 **** Warning!!: The largest alpha MO coefficient is  0.17421215D+02

 Fully direct method using O(ONN) memory.
[...]
 NAtoms=    4 NActive=    4 NUniq=    4 SFac= 1.00D+00 NAtFMM=   60 NAOKFM=F Big=F
 Integral buffers will be    131072 words long.
 Raffenetti 1 integral format.
 Two-electron integral symmetry is turned on.
 One-electron integrals computed using PRISM.
   1 Symmetry operations used in ECPInt.
 ECPInt:  NShTT=    2145 NPrTT=    7341 LenC2=    2146 LenP2D=    6689.
 LDataN:  DoStor=T MaxTD1= 7 Len=  274
 NBasis=   191 RedAO= T EigKep=  5.37D-04  NBF=   128    63
 NBsUse=   147 1.00D-06 EigRej=  1.26D-15 NBFU=    98    49
 Initial guess from the checkpoint file:  "/home/netid.washington.edu/cgavinh/mccoy_hocl/rOH_s_oop_0/ihocl/ihocl_0_opt.chk"
 B after Tr=     0.000000   -0.000000    0.000000
         Rot=    1.000000   -0.000000   -0.000000   -0.000016 Ang=  -0.00 deg.
 Initial guess orbital symmetries:
       Occupied  (A') (A') (A') (A') (A") (A') (A') (A") (A") (A')
                 (A') (A') (A') (A') (A") (A') (A') (A")
       Virtual   (A') (A') (A') (A') (A') (A') (A') (A') (A') (A')
                 (A') (A') (A') (A') (A') (A') (A') (A') (A') (A')
                 (A') (A') (A') (A') (A') (A') (A') (A') (A') (A')
                 (A') (A') (A') (A') (A') (A') (A') (A') (A') (A')
                 (A') (A') (A') (A') (A') (A') (A') (A') (A') (A')
                 (A') (A') (A') (A') (A') (A') (A') (A') (A') (A')
                 (A') (A') (A') (A') (A') (A') (A') (A') (A') (A')
                 (A') (A') (A') (A') (A') (A') (A') (A') (A') (A')
                 (A') (A') (A') (A') (A') (A") (A") (A") (A") (A")
                 (A") (A") (A") (A") (A") (A") (A") (A") (A") (A")
                 (A") (A") (A") (A") (A") (A") (A") (A") (A") (A")
                 (A") (A") (A") (A") (A") (A") (A") (A") (A") (A")
                 (A") (A") (A") (A") (A") (A") (A") (A") (A")
 Keep R1 ints in memory in symmetry-blocked form, NReq=253598549.
 Requested convergence on RMS density matrix=1.00D-08 within 128 cycles.
 Requested convergence on MAX density matrix=1.00D-06.
 Requested convergence on             energy=1.00D-06.
 No special actions if energy rises.
 SCF Done:  E(RHF) =  -370.816779264     A.U. after    7 cycles
            NFock=  7  Conv=0.66D-08     -V/T= 2.9847
 ExpMin= 2.53D-02 ExpMax= 1.53D+04 ExpMxC= 5.22D+02 IAcc=3 IRadAn=         5 AccDes= 0.00D+00
 HarFok:  IExCor=  205 AccDes= 0.00D+00 IRadAn=         5 IDoV=-2 UseB2=F ITyADJ=14
 ICtDFT= 12500011 ScaDFX=  1.000000  1.000000  1.000000  1.000000
 Defaulting to unpruned grid for atomic number  53.
 Defaulting to unpruned grid for atomic number  53.
 Defaulting to unpruned grid for atomic number  53.
 Defaulting to unpruned grid for atomic number  53.
 Defaulting to unpruned grid for atomic number  53.
 Defaulting to unpruned grid for atomic number  53.
 Defaulting to unpruned grid for atomic number  53.
 Defaulting to unpruned grid for atomic number  53.
 Defaulting to unpruned grid for atomic number  53.
 Defaulting to unpruned grid for atomic number  53.
 Defaulting to unpruned grid for atomic number  53.
 Defaulting to unpruned grid for atomic number  53.
 Range of M.O.s used for correlation:     6   147
 NBasis=   191 NAE=    18 NBE=    18 NFC=     5 NFV=     0
 NROrb=    142 NOA=    13 NOB=    13 NVA=   129 NVB=   129

 **** Warning!!: The largest alpha MO coefficient is  0.11126304D+02

 Fully direct method using O(ONN) memory.
 JobTyp=1 Pass  1:  I=   6 to   8 NPSUse=  3 ParTrn=F ParDer=T DoDerP=T.
 JobTyp=1 Pass  2:  I=   9 to  11 NPSUse=  3 ParTrn=F ParDer=T DoDerP=T.
 JobTyp=1 Pass  3:  I=  12 to  14 NPSUse=  3 ParTrn=F ParDer=T DoDerP=T.
 JobTyp=1 Pass  4:  I=  15 to  17 NPSUse=  3 ParTrn=F ParDer=T DoDerP=T.
 JobTyp=1 Pass  5:  I=  18 to  18 NPSUse=  3 ParTrn=F ParDer=T DoDerP=T.
 Spin components of T(2) and E(2):
     alpha-alpha T2 =       0.2163234432D-01 E2=     -0.6742175783D-01
     alpha-beta  T2 =       0.1131614121D+00 E2=     -0.3621571330D+00
     beta-beta   T2 =       0.2163234432D-01 E2=     -0.6742175783D-01
 ANorm=    0.1075372540D+01
 E2 =    -0.4970006486D+00 EUMP2 =    -0.37131377991248D+03
          IDoAtm=1111
          Differentiating once with respect to electric field.
                with respect to dipole field.
          Differentiating once with respect to nuclear coordinates.
 Keep R1 ints in memory in symmetry-blocked form, NReq=253434788.
          There are     1 degrees of freedom in the 1st order CPHF.  IDoFFX=0 NUNeed=     1.
 LinEq1:  Iter=  0 NonCon=     1 RMS=2.66D-03 Max=4.70D-02 NDo=     1
 AX will form     1 AO Fock derivatives at one time.
 LinEq1:  Iter=  1 NonCon=     1 RMS=4.28D-04 Max=5.25D-03 NDo=     1
 LinEq1:  Iter=  2 NonCon=     1 RMS=1.90D-04 Max=2.74D-03 NDo=     1
 LinEq1:  Iter=  3 NonCon=     1 RMS=4.44D-05 Max=6.96D-04 NDo=     1
 LinEq1:  Iter=  4 NonCon=     1 RMS=1.28D-05 Max=1.36D-04 NDo=     1
 LinEq1:  Iter=  5 NonCon=     1 RMS=3.41D-06 Max=4.45D-05 NDo=     1
 LinEq1:  Iter=  6 NonCon=     1 RMS=7.27D-07 Max=1.17D-05 NDo=     1
 LinEq1:  Iter=  7 NonCon=     1 RMS=1.61D-07 Max=2.40D-06 NDo=     1
 LinEq1:  Iter=  8 NonCon=     1 RMS=4.54D-08 Max=6.05D-07 NDo=     1
 LinEq1:  Iter=  9 NonCon=     1 RMS=8.89D-09 Max=1.43D-07 NDo=     1
 LinEq1:  Iter= 10 NonCon=     1 RMS=1.44D-09 Max=1.90D-08 NDo=     1
 LinEq1:  Iter= 11 NonCon=     1 RMS=2.50D-10 Max=4.17D-09 NDo=     1
 LinEq1:  Iter= 12 NonCon=     1 RMS=7.01D-11 Max=1.17D-09 NDo=     1
 LinEq1:  Iter= 13 NonCon=     0 RMS=1.42D-11 Max=1.70D-10 NDo=     1
 Linear equations converged to 1.000D-10 1.000D-09 after    13 iterations.
 End of Minotr F.D. properties file   721 does not exist.
 End of Minotr F.D. properties file   722 does not exist.
 End of Minotr F.D. properties file   788 does not exist.
   2 Symmetry operations used in ECPInt.
 ECPInt:  NShTT=    2145 NPrTT=    7341 LenC2=    2146 LenP2D=    6689.
 LDataN:  DoStor=T MaxTD1= 8 Len=  415
 Calling FoFJK, ICntrl=  10002127 FMM=F ISym2X=1 I1Cent= 0 IOpClX= 0 NMat=1 NMatS=1 NMatT=0.
 ***** Axes restored to original set *****
 -------------------------------------------------------------------
 Center     Atomic                   Forces (Hartrees/Bohr)
 Number     Number              X              Y              Z
 -------------------------------------------------------------------
      1        8           0.001977202   -0.000293487   -0.000000000
      2        1           0.000119021   -0.000073481    0.000000000
      3       53           0.000837496   -0.000172312   -0.000000000
      4        1          -0.002933719    0.000539280    0.000000000
 -------------------------------------------------------------------
 Cartesian Forces:  Max     0.002933719 RMS     0.001066288
 -----------------------------------------------------------------------------------------------
                       Internal Coordinate Forces (Hartree/Bohr or radian)
  Cent   Atom   N1       Length/X         N2         Alpha/Y        N3         Beta/Z          J
 -----------------------------------------------------------------------------------------------
      1  O 
         X        1   0.000000(     1)
      2  H        1   0.000119(     2)      2   0.000000(     5)
      3  I        1  -0.000003(     3)      2   0.000000(     6)      3  -0.005669(     8)     0
      4  H        1   0.000075(     4)      2  -0.000000(     7)      3   0.005536(     9)     0
 -----------------------------------------------------------------------------------------------
 Internal  Forces:  Max     0.005668954 RMS     0.002641521

 GradGradGradGradGradGradGradGradGradGradGradGradGradGradGradGradGradGrad
 Berny optimization.
 Search for a local minimum.
 Step number  12 out of a maximum of   20
 All quantities printed in internal units (Hartrees-Bohrs-Radians)
 Update second derivatives using D2CorN and points    8    9   10   11   12

 DE= -1.52D-06 DEPred=-1.18D-06 R= 1.29D+00
 TightC=F SS=  1.41D+00  RLast= 5.48D-03 DXNew= 1.7909D+00 1.6434D-02
 Trust test= 1.29D+00 RLast= 5.48D-03 DXMaxT set to 1.06D+00
 The second derivative matrix:
                          r1        r2        r3        a1        OOP
           r1           0.89378
           r2           0.01567   0.03193
           r3           0.01105   0.00218   0.50576
           a1           0.01677   0.03912   0.01116   0.21089
           OOP         -0.00000  -0.00000   0.00000  -0.00000   0.75863
 ITU=  1  1  1  1  1  0
     Eigenvalues ---    0.02358   0.21807   0.50586   0.75863   0.89485
 RFO step:  Lambda=-5.55823570D-08 EMin= 2.35839856D-02
 Quartic linear search produced a step of  0.20304.
 Variable       Old X    -DE/DX   Delta X   Delta X   Delta X     New X
                                 (Linear)    (Quad)   (Total)
    r1        1.81585   0.00012  -0.00005   0.00020   0.00015   1.81600
    r2        6.63011  -0.00000   0.00084  -0.00051   0.00033   6.63045
    r3        1.85635   0.00008   0.00003   0.00015   0.00018   1.85653
    a1        1.77776  -0.00013  -0.00073  -0.00006  -0.00079   1.77698
   OOP        1.57080  -0.00000  -0.00000   0.00000   0.00000   1.57080
         Item               Value     Threshold  Converged?
 Maximum Force            0.000133     0.000450     YES
 RMS     Force            0.000087     0.000300     YES
 Maximum Displacement     0.000786     0.001800     YES
 RMS     Displacement     0.000396     0.001200     YES
 Predicted change in Energy=-6.258450D-08
 Optimization completed.
    -- Stationary point found.
                       ----------------------------
                       !   Optimized Parameters   !
                       ! (Angstroms and Degrees)  !
 ----------------------                            ----------------------
 !      Name          Value   Derivative information (Atomic Units)     !
 ------------------------------------------------------------------------
 !       r1          0.9609   -DE/DX =    0.0001                        !
 !       r2          3.5085   -DE/DX =    0.0                           !
 !       r3          0.9823   -DE/DX =    0.0001                        !
 !       a1        101.8583   -DE/DX =   -0.0001                        !
 !       OOP        90.0      -DE/DX =    0.0                           !
 ------------------------------------------------------------------------
 GradGradGradGradGradGradGradGradGradGradGradGradGradGradGradGradGradGrad

 ---------------------------------------------------------------------------------------------------
                            Z-MATRIX (ANGSTROMS AND DEGREES)
   CD    Cent   Atom    N1       Length/X        N2       Alpha/Y        N3        Beta/Z          J
 ---------------------------------------------------------------------------------------------------
      1      1  O 
      2         X        1  10.000000(     1)
      3      2  H        1   0.960908(     2)      2   90.000(     5)
      4      3  I        1   3.508504(     3)      2   90.000(     6)      3  101.858(     8)      0
      5      4  H        1   0.982340(     4)      2   90.000(     7)      3  101.858(     9)      0
 ---------------------------------------------------------------------------------------------------
                         Z-Matrix orientation:                         
 ---------------------------------------------------------------------
 Center     Atomic      Atomic             Coordinates (Angstroms)
 Number     Number       Type             X           Y           Z
 ---------------------------------------------------------------------
      1          8           0        0.000000    0.000000    0.000000
      2         -1           0        0.000000    0.000000   10.000000
      3          1           0        0.960908    0.000000    0.000000
      4         53           0       -0.720970   -3.433628    0.000000
      5          1           0       -0.201863   -0.961375   -0.000000
 ---------------------------------------------------------------------
                    Distance matrix (angstroms):
                    1          2          3          4          5
     1  O    0.000000
     2  X   10.000000   0.000000
     3  H    0.960908  10.046061   0.000000
     4  I    3.508504  10.597622   3.823416   0.000000
     5  H    0.982340  10.048134   1.508734   2.526164   0.000000
 Stoichiometry    H2IO(1-)
 Framework group  CS[SG(H2IO)]
 Deg. of freedom     5
 Full point group                 CS      NOp   2
 Largest Abelian subgroup         CS      NOp   2
 Largest concise Abelian subgroup C1      NOp   1
                         Standard orientation:                         
 ---------------------------------------------------------------------
 Center     Atomic      Atomic             Coordinates (Angstroms)
 Number     Number       Type             X           Y           Z
 ---------------------------------------------------------------------
      1          8           0        0.014927    2.964057   -0.000000
      2          1           0       -0.925474    3.161516   -0.000000
      3         53           0        0.014927   -0.544447    0.000000
      4          1           0        0.014927    1.981717   -0.000000
 ---------------------------------------------------------------------
 Rotational constants (GHZ):    322.6616245      2.5117496      2.4923480

 **********************************************************************

            Population analysis using the MP2 density.

 **********************************************************************

 Orbital symmetries:
       Occupied  (A') (A') (A') (A') (A") (A') (A') (A") (A") (A')
                 (A') (A') (A') (A') (A") (A') (A') (A")
       Virtual   (A') (A') (A') (A") (A') (A') (A") (A') (A') (A')
                 (A') (A") (A') (A") (A') (A") (A') (A') (A') (A")
                 (A') (A') (A') (A') (A') (A") (A') (A") (A') (A")
                 (A') (A') (A') (A") (A') (A") (A') (A") (A') (A")
                 (A') (A") (A') (A') (A") (A') (A") (A') (A') (A")
                 (A') (A') (A') (A') (A") (A') (A") (A') (A') (A")
                 (A") (A') (A') (A") (A") (A') (A') (A') (A") (A')
                 (A') (A') (A") (A') (A") (A') (A') (A') (A") (A')
                 (A") (A") (A') (A') (A') (A') (A') (A") (A') (A')
                 (A") (A") (A') (A') (A') (A") (A') (A') (A") (A")
                 (A') (A") (A') (A") (A') (A') (A') (A") (A') (A')
                 (A') (A") (A') (A') (A') (A") (A') (A") (A') (A")
                 (A") (A') (A") (A') (A') (A') (A') (A') (A')
 The electronic state is 1-A'.
 Alpha  occ. eigenvalues --  -20.40297  -7.46690  -5.29245  -5.29219  -5.29215
 Alpha  occ. eigenvalues --   -2.01991  -2.01974  -2.01969  -2.01942  -2.01942
 Alpha  occ. eigenvalues --   -1.18471  -0.62865  -0.54128  -0.42868  -0.34718
 Alpha  occ. eigenvalues --   -0.14775  -0.14231  -0.14194
 Alpha virt. eigenvalues --    0.13217   0.16979   0.23337   0.24546   0.25246
 Alpha virt. eigenvalues --    0.26982   0.28790   0.29217   0.31262   0.33637
 Alpha virt. eigenvalues --    0.36678   0.37214   0.37587   0.39565   0.40947
 Alpha virt. eigenvalues --    0.42015   0.44513   0.47581   0.54120   0.54269
 Alpha virt. eigenvalues --    0.57039   0.59846   0.66794   0.71491   0.77788
 Alpha virt. eigenvalues --    0.77880   0.78521   0.79780   0.80029   0.80051
 Alpha virt. eigenvalues --    0.82775   0.84226   0.85370   0.85782   0.86673
 Alpha virt. eigenvalues --    0.87687   0.88414   0.88861   0.89954   0.90293
 Alpha virt. eigenvalues --    0.93135   0.97212   1.00719   1.06037   1.06877
 Alpha virt. eigenvalues --    1.09372   1.10476   1.12371   1.14486   1.15671
 Alpha virt. eigenvalues --    1.16543   1.19056   1.32694   1.36374   1.38259
 Alpha virt. eigenvalues --    1.41998   1.48436   1.52536   1.54808   1.67728
 Alpha virt. eigenvalues --    1.73180   1.73330   1.75183   1.75261   1.76931
 Alpha virt. eigenvalues --    1.77927   1.81224   1.85081   1.88521   1.89480
 Alpha virt. eigenvalues --    2.03077   2.04573   2.05615   2.07583   2.10707
 Alpha virt. eigenvalues --    2.10718   2.15446   2.29373   2.44092   2.52696
 Alpha virt. eigenvalues --    2.56197   2.60541   2.61601   2.63177   2.65455
 Alpha virt. eigenvalues --    2.82507   2.87797   2.88953   2.97462   3.02378
 Alpha virt. eigenvalues --    3.07039   3.26287   3.27993   3.78019   3.87219
 Alpha virt. eigenvalues --    4.20519   4.24705   4.32018   4.32575   4.42804
 Alpha virt. eigenvalues --    4.43915   4.54358   4.56820   4.59908   4.74517
 Alpha virt. eigenvalues --    4.94413   5.13575   5.28280   5.35501   5.45512
 Alpha virt. eigenvalues --    5.51502   5.66652   5.81462   6.37197   6.68658
 Alpha virt. eigenvalues --    6.88056   7.09699   7.27869   7.42661   7.43117
 Alpha virt. eigenvalues --    7.46592   7.53342   7.57309   7.82094   8.05609
 Alpha virt. eigenvalues --    8.11136   8.95296  16.22269  59.22166
          Condensed to atoms (all electrons):
               1          2          3          4
     1  O    8.271626   0.215612  -0.056820   0.093201
     2  H    0.215612   0.601410   0.007052   0.007365
     3  I   -0.056820   0.007052  25.926523   0.036636
     4  H    0.093201   0.007365   0.036636   0.594348
 Mulliken charges:
               1
     1  O   -0.523619
     2  H    0.168561
     3  I   -0.913391
     4  H    0.268449
 Sum of Mulliken charges =  -1.00000
 Mulliken charges with hydrogens summed into heavy atoms:
               1
     1  O   -0.086609
     3  I   -0.913391
 Electronic spatial extent (au):  <R**2>=            429.1124
 Charge=             -1.0000 electrons
 Dipole moment (field-independent basis, Debye):
    X=             -1.3331    Y=             -0.0097    Z=              0.0000  Tot=              1.3331
 Quadrupole moment (field-independent basis, Debye-Ang):
   XX=            -39.5668   YY=            -51.5051   ZZ=            -41.8887
   XY=             -4.8027   XZ=              0.0000   YZ=              0.0000
 Traceless Quadrupole moment (field-independent basis, Debye-Ang):
   XX=              4.7534   YY=             -7.1849   ZZ=              2.4315
   XY=             -4.8027   XZ=              0.0000   YZ=              0.0000
 Octapole moment (field-independent basis, Debye-Ang**2):
  XXX=             -1.1622  YYY=            -40.9628  ZZZ=              0.0000  XYY=            -16.0954
  XXY=              1.9896  XXZ=             -0.0000  XZZ=              0.1757  YZZ=             -5.3534
  YYZ=              0.0000  XYZ=              0.0000
 Hexadecapole moment (field-independent basis, Debye-Ang**3):
 XXXX=            -75.7345 YYYY=           -609.0960 ZZZZ=            -76.3919 XXXY=             -0.2122
 XXXZ=              0.0000 YYYX=            -49.3200 YYYZ=              0.0000 ZZZX=              0.0000
 ZZZY=              0.0000 XXYY=            -81.8739 XXZZ=            -25.6646 YYZZ=           -104.8351
 XXYZ=              0.0000 YYXZ=              0.0000 ZZXY=              1.7550
 N-N= 4.792839150462D+01 E-N=-9.089498042693D+02  KE= 1.870310351668D+02
 Symmetry A'   KE= 1.440185885900D+02
 Symmetry A"   KE= 4.301244657675D+01
 1\1\GINC-KRYPTON\FOpt\RMP2-FC\Gen\H2I1O1(1-)\CGAVINH\12-Oct-2021\1\\# 
 opt=(z-matrix) mp2/gen Pseudo=read density=current\\title\\-1,1\O\X,1,
 10.\H,1,r1,2,90.\I,1,r2,2,90.,3,a1,0\H,1,r3,2,OOP,3,a1,0\\r1=0.9609077
 \r2=3.50850362\r3=0.98233961\a1=101.85830594\OOP=90.\\Version=ES64L-G0
 9RevE.01\State=1-A'\HF=-370.8167793\MP2=-371.3137799\RMSD=6.600e-09\RM
 SF=1.066e-03\Dipole=-0.5244825,-0.0038292,0.\Quadrupole=3.5340369,-5.3
 417966,1.8077597,-3.570693,0.,0.\PG=CS [SG(H2I1O1)]\\@


 I WANT TO KNOW HOW GOD CREATED THE WORLD.  I AM NOT INTERESTED IN
 THIS OR THAT PHENOMENON, IN THE SPECTRUM OF THIS OR THAT ELEMENT.
 I WANT TO KNOW HIS THOUGHTS, THE REST ARE DETAILS.
     -- ALBERT EINSTEIN
 Job cpu time:       0 days  1 hours 24 minutes  5.3 seconds.
 File lengths (MBytes):  RWF=     18 Int=      0 D2E=      0 Chk=      4 Scr=      1
 Normal termination of Gaussian 09 at Tue Oct 12 16:12:51 2021.
