 Entering Gaussian System, Link 0=g09
 Input=brhocl_rOH_110_sp.gjf
 Output=brhocl_rOH_110_sp.log
 Initial command:
 /usr/local/gaussian/g09/l1.exe "/scratch/Gau-17769.inp" -scrdir="/scratch/"
 Entering Link 1 = /usr/local/gaussian/g09/l1.exe PID=     17770.
  
 Copyright (c) 1988,1990,1992,1993,1995,1998,2003,2009,2015,
            Gaussian, Inc.  All Rights Reserved.
  
 This is part of the Gaussian(R) 09 program.  It is based on
 the Gaussian(R) 03 system (copyright 2003, Gaussian, Inc.),
 the Gaussian(R) 98 system (copyright 1998, Gaussian, Inc.),
 the Gaussian(R) 94 system (copyright 1995, Gaussian, Inc.),
 the Gaussian 92(TM) system (copyright 1992, Gaussian, Inc.),
 the Gaussian 90(TM) system (copyright 1990, Gaussian, Inc.),
 the Gaussian 88(TM) system (copyright 1988, Gaussian, Inc.),
 the Gaussian 86(TM) system (copyright 1986, Carnegie Mellon
 University), and the Gaussian 82(TM) system (copyright 1983,
 Carnegie Mellon University). Gaussian is a federally registered
 trademark of Gaussian, Inc.
  
 This software contains proprietary and confidential information,
 including trade secrets, belonging to Gaussian, Inc.
  
 This software is provided under written license and may be
 used, copied, transmitted, or stored only in accord with that
 written license.
  
 The following legend is applicable only to US Government
 contracts under FAR:
  
                    RESTRICTED RIGHTS LEGEND
  
 Use, reproduction and disclosure by the US Government is
 subject to restrictions as set forth in subparagraphs (a)
 and (c) of the Commercial Computer Software - Restricted
 Rights clause in FAR 52.227-19.
  
 Gaussian, Inc.
 340 Quinnipiac St., Bldg. 40, Wallingford CT 06492
  
  
 ---------------------------------------------------------------
 Warning -- This program may not be used in any manner that
 competes with the business of Gaussian, Inc. or will provide
 assistance to any competitor of Gaussian, Inc.  The licensee
 of this program is prohibited from giving any competitor of
 Gaussian, Inc. access to this program.  By using this program,
 the user acknowledges that Gaussian, Inc. is engaged in the
 business of creating and licensing software in the field of
 computational chemistry and represents and warrants to the
 licensee that it is not a competitor of Gaussian, Inc. and that
 it will not use this program in any manner prohibited above.
 ---------------------------------------------------------------
  

 Cite this work as:
 Gaussian 09, Revision E.01,
 M. J. Frisch, G. W. Trucks, H. B. Schlegel, G. E. Scuseria, 
 M. A. Robb, J. R. Cheeseman, G. Scalmani, V. Barone, B. Mennucci, 
 G. A. Petersson, H. Nakatsuji, M. Caricato, X. Li, H. P. Hratchian, 
 A. F. Izmaylov, J. Bloino, G. Zheng, J. L. Sonnenberg, M. Hada, 
 M. Ehara, K. Toyota, R. Fukuda, J. Hasegawa, M. Ishida, T. Nakajima, 
 Y. Honda, O. Kitao, H. Nakai, T. Vreven, J. A. Montgomery, Jr., 
 J. E. Peralta, F. Ogliaro, M. Bearpark, J. J. Heyd, E. Brothers, 
 K. N. Kudin, V. N. Staroverov, T. Keith, R. Kobayashi, J. Normand, 
 K. Raghavachari, A. Rendell, J. C. Burant, S. S. Iyengar, J. Tomasi, 
 M. Cossi, N. Rega, J. M. Millam, M. Klene, J. E. Knox, J. B. Cross, 
 V. Bakken, C. Adamo, J. Jaramillo, R. Gomperts, R. E. Stratmann, 
 O. Yazyev, A. J. Austin, R. Cammi, C. Pomelli, J. W. Ochterski, 
 R. L. Martin, K. Morokuma, V. G. Zakrzewski, G. A. Voth, 
 P. Salvador, J. J. Dannenberg, S. Dapprich, A. D. Daniels, 
 O. Farkas, J. B. Foresman, J. V. Ortiz, J. Cioslowski, 
 and D. J. Fox, Gaussian, Inc., Wallingford CT, 2013.
 
 ******************************************
 Gaussian 09:  ES64L-G09RevE.01 30-Nov-2015
                12-Oct-2021 
 ******************************************
 %nproc=12
 Will use up to   12 processors via shared memory.
 %mem=8000MB
 %chk=/home/netid.washington.edu/cgavinh/mccoy_hocl/rOH_s_oop_0/brhocl/brhocl_rOH
 _110_sp.chk
 ----------------------------------------------------
 #p pop=NBO SP NoSymm mp2/aug-cc-pvtz density=current
 ----------------------------------------------------
 1/30=1,38=1/1;
 2/12=2,15=1,17=6,18=5,40=1/2;
 3/5=16,6=1,7=10,11=9,16=1,25=1,30=1,71=1/1,2,3;
 4//1;
 5/5=2,38=5/2;
 8/6=4,10=1/1;
 9/15=1,16=-3/6;
 10/5=1,13=10,31=1/2;
 6/7=2,8=2,9=2,10=2,22=-1,40=1/1,7;
 99/5=1,9=1/99;
 Leave Link    1 at Tue Oct 12 14:24:34 2021, MaxMem=  1048576000 cpu:         0.2
 (Enter /usr/local/gaussian/g09/l101.exe)
 -----
 title
 -----
 Symbolic Z-matrix:
 Charge = -1 Multiplicity = 1
 O
 X                    1     10. 
 Cl                   1    r1       2     90. 
 Br                   1    r2       2     90.      3    a1       0
 H                    1    r3       2    oop      3    a1       0
       Variables:
  r1                    1.68433                  
  r2                    3.07382                  
  r3                    1.1                      
  a1                  103.42035                  
  OOP                  90.                       
 
 NAtoms=      4 NQM=        4 NQMF=       0 NMMI=      0 NMMIF=      0
                NMic=       0 NMicF=      0.
                    Isotopes and Nuclear Properties:
 (Nuclear quadrupole moments (NQMom) in fm**2, nuclear magnetic moments (NMagM)
  in nuclear magnetons)

  Atom         1           2           3           4
 IAtWgt=          16          35          79           1
 AtmWgt=  15.9949146  34.9688527  78.9183361   1.0078250
 NucSpn=           0           3           3           1
 AtZEff=   0.0000000   0.0000000   0.0000000   0.0000000
 NQMom=    0.0000000  -8.1650000  31.3000000   0.0000000
 NMagM=    0.0000000   0.8218740   2.1063990   2.7928460
 AtZNuc=   8.0000000  17.0000000  35.0000000   1.0000000
 Leave Link  101 at Tue Oct 12 14:24:34 2021, MaxMem=  1048576000 cpu:         0.4
 (Enter /usr/local/gaussian/g09/l202.exe)
                          Input orientation:                          
 ---------------------------------------------------------------------
 Center     Atomic      Atomic             Coordinates (Angstroms)
 Number     Number       Type             X           Y           Z
 ---------------------------------------------------------------------
      1          8           0        0.000000    0.000000    0.000000
      2         17           0        1.684326    0.000000    0.000000
      3         35           0       -0.713413   -2.989882    0.000000
      4          1           0       -0.255303   -1.069963    0.000000
 ---------------------------------------------------------------------
                    Distance matrix (angstroms):
                    1          2          3          4
     1  O    0.000000
     2  Cl   1.684326   0.000000
     3  Br   3.073818   3.832564   0.000000
     4  H    1.100000   2.215170   1.973818   0.000000
 Symmetry turned off by external request.
 Stoichiometry    BrClHO(1-)
 Framework group  CS[SG(BrClHO)]
 Deg. of freedom     5
 Full point group                 CS      NOp   2
 Rotational constants (GHZ):     22.6846398      1.2810795      1.2125998
 Leave Link  202 at Tue Oct 12 14:24:34 2021, MaxMem=  1048576000 cpu:         0.0
 (Enter /usr/local/gaussian/g09/l301.exe)
 Standard basis: Aug-CC-pVTZ (5D, 7F)
 Ernie: Thresh=  0.10000D-02 Tol=  0.10000D-05 Strict=F.
 Ernie:  48 primitive shells out of 228 were deleted.
   178 basis functions,   430 primitive gaussians,   208 cartesian basis functions
    31 alpha electrons       31 beta electrons
       nuclear repulsion energy       190.3790142138 Hartrees.
 IExCor=    0 DFT=F Ex=HF Corr=None ExCW=0 ScaHFX=  1.000000
 ScaDFX=  1.000000  1.000000  1.000000  1.000000 ScalE2=  1.000000  1.000000
 IRadAn=      0 IRanWt=     -1 IRanGd=            0 ICorTp=0 IEmpDi=  4
 NAtoms=    4 NActive=    4 NUniq=    4 SFac= 1.00D+00 NAtFMM=   60 NAOKFM=F Big=F
 Integral buffers will be    131072 words long.
 Raffenetti 1 integral format.
 Two-electron integral symmetry is turned off.
 Leave Link  301 at Tue Oct 12 14:24:34 2021, MaxMem=  1048576000 cpu:         0.3
 (Enter /usr/local/gaussian/g09/l302.exe)
 NPDir=0 NMtPBC=     1 NCelOv=     1 NCel=       1 NClECP=     1 NCelD=      1
         NCelK=      1 NCelE2=     1 NClLst=     1 CellRange=     0.0.
 One-electron integrals computed using PRISM.
 NBasis=   178 RedAO= T EigKep=  2.73D-04  NBF=   178
 NBsUse=   178 1.00D-06 EigRej= -1.00D+00 NBFU=   178
 Leave Link  302 at Tue Oct 12 14:24:34 2021, MaxMem=  1048576000 cpu:         1.7
 (Enter /usr/local/gaussian/g09/l303.exe)
 DipDrv:  MaxL=1.
 Leave Link  303 at Tue Oct 12 14:24:34 2021, MaxMem=  1048576000 cpu:         0.2
 (Enter /usr/local/gaussian/g09/l401.exe)
 ExpMin= 2.53D-02 ExpMax= 1.06D+07 ExpMxC= 1.21D+04 IAcc=3 IRadAn=         5 AccDes= 0.00D+00
 Harris functional with IExCor=  205 and IRadAn=       5 diagonalized for initial guess.
 HarFok:  IExCor=  205 AccDes= 0.00D+00 IRadAn=         5 IDoV= 1 UseB2=F ITyADJ=14
 ICtDFT=  3500011 ScaDFX=  1.000000  1.000000  1.000000  1.000000
 FoFCou: FMM=F IPFlag=           0 FMFlag=      100000 FMFlg1=           0
         NFxFlg=           0 DoJE=T BraDBF=F KetDBF=T FulRan=T
         wScrn=  0.000000 ICntrl=     500 IOpCl=  0 I1Cent=   200000004 NGrid=           0
         NMat0=    1 NMatS0=      1 NMatT0=    0 NMatD0=    1 NMtDS0=    0 NMtDT0=    0
 Symmetry not used in FoFCou.
 Harris En= -3106.38105056575    
 JPrj=0 DoOrth=F DoCkMO=F.
 Leave Link  401 at Tue Oct 12 14:24:34 2021, MaxMem=  1048576000 cpu:         3.0
 (Enter /usr/local/gaussian/g09/l502.exe)
 Closed shell SCF:
 Using DIIS extrapolation, IDIIS=  1040.
 Two-electron integral symmetry not used.
 Keep R1 ints in memory in canonical form, NReq=131623000.
 IVT=      152094 IEndB=      152094 NGot=  1048576000 MDV=   921517561
 LenX=   921517561 LenY=   921473856
 Requested convergence on RMS density matrix=1.00D-08 within 128 cycles.
 Requested convergence on MAX density matrix=1.00D-06.
 Requested convergence on             energy=1.00D-06.
 No special actions if energy rises.
 FoFCou: FMM=F IPFlag=           0 FMFlag=           0 FMFlg1=           0
         NFxFlg=           0 DoJE=F BraDBF=F KetDBF=F FulRan=T
         wScrn=  0.000000 ICntrl=     600 IOpCl=  0 I1Cent=           0 NGrid=           0
         NMat0=    1 NMatS0=  15931 NMatT0=    0 NMatD0=    1 NMtDS0=    0 NMtDT0=    0
 Symmetry not used in FoFCou.

 Cycle   1  Pass 1  IDiag  1:
 E= -3107.31444492405    
 DIIS: error= 6.36D-02 at cycle   1 NSaved=   1.
 NSaved= 1 IEnMin= 1 EnMin= -3107.31444492405     IErMin= 1 ErrMin= 6.36D-02
 ErrMax= 6.36D-02  0.00D+00 EMaxC= 1.00D-01 BMatC= 6.35D-01 BMatP= 6.35D-01
 IDIUse=3 WtCom= 3.64D-01 WtEn= 6.36D-01
 Coeff-Com:  0.100D+01
 Coeff-En:   0.100D+01
 Coeff:      0.100D+01
 Gap=     0.552 Goal=   None    Shift=    0.000
 GapD=    0.552 DampG=2.000 DampE=0.500 DampFc=1.0000 IDamp=-1.
 RMSDP=3.06D-03 MaxDP=1.03D-01              OVMax= 1.17D-01

 Cycle   2  Pass 1  IDiag  1:
 E= -3107.44476888483     Delta-E=       -0.130323960780 Rises=F Damp=F
 DIIS: error= 1.63D-02 at cycle   2 NSaved=   2.
 NSaved= 2 IEnMin= 2 EnMin= -3107.44476888483     IErMin= 2 ErrMin= 1.63D-02
 ErrMax= 1.63D-02  0.00D+00 EMaxC= 1.00D-01 BMatC= 4.01D-02 BMatP= 6.35D-01
 IDIUse=3 WtCom= 8.37D-01 WtEn= 1.63D-01
 Coeff-Com:  0.129D+00 0.871D+00
 Coeff-En:   0.000D+00 0.100D+01
 Coeff:      0.108D+00 0.892D+00
 Gap=     0.349 Goal=   None    Shift=    0.000
 RMSDP=1.12D-03 MaxDP=3.64D-02 DE=-1.30D-01 OVMax= 7.00D-02

 Cycle   3  Pass 1  IDiag  1:
 E= -3107.46094004834     Delta-E=       -0.016171163513 Rises=F Damp=F
 DIIS: error= 8.72D-03 at cycle   3 NSaved=   3.
 NSaved= 3 IEnMin= 3 EnMin= -3107.46094004834     IErMin= 3 ErrMin= 8.72D-03
 ErrMax= 8.72D-03  0.00D+00 EMaxC= 1.00D-01 BMatC= 1.39D-02 BMatP= 4.01D-02
 IDIUse=3 WtCom= 9.13D-01 WtEn= 8.72D-02
 Coeff-Com:  0.738D-02 0.368D+00 0.624D+00
 Coeff-En:   0.000D+00 0.208D+00 0.792D+00
 Coeff:      0.673D-02 0.354D+00 0.639D+00
 Gap=     0.342 Goal=   None    Shift=    0.000
 RMSDP=3.50D-04 MaxDP=1.39D-02 DE=-1.62D-02 OVMax= 3.54D-02

 Cycle   4  Pass 1  IDiag  1:
 E= -3107.47053769144     Delta-E=       -0.009597643096 Rises=F Damp=F
 DIIS: error= 1.36D-03 at cycle   4 NSaved=   4.
 NSaved= 4 IEnMin= 4 EnMin= -3107.47053769144     IErMin= 4 ErrMin= 1.36D-03
 ErrMax= 1.36D-03  0.00D+00 EMaxC= 1.00D-01 BMatC= 1.78D-04 BMatP= 1.39D-02
 IDIUse=3 WtCom= 9.86D-01 WtEn= 1.36D-02
 Coeff-Com: -0.530D-02-0.264D-01 0.529D-01 0.979D+00
 Coeff-En:   0.000D+00 0.000D+00 0.000D+00 0.100D+01
 Coeff:     -0.523D-02-0.261D-01 0.522D-01 0.979D+00
 Gap=     0.340 Goal=   None    Shift=    0.000
 RMSDP=6.17D-05 MaxDP=1.48D-03 DE=-9.60D-03 OVMax= 3.81D-03

 Cycle   5  Pass 1  IDiag  1:
 E= -3107.47074948388     Delta-E=       -0.000211792440 Rises=F Damp=F
 DIIS: error= 2.43D-04 at cycle   5 NSaved=   5.
 NSaved= 5 IEnMin= 5 EnMin= -3107.47074948388     IErMin= 5 ErrMin= 2.43D-04
 ErrMax= 2.43D-04  0.00D+00 EMaxC= 1.00D-01 BMatC= 1.32D-05 BMatP= 1.78D-04
 IDIUse=3 WtCom= 9.98D-01 WtEn= 2.43D-03
 Coeff-Com:  0.883D-03-0.195D-01-0.431D-01-0.169D+00 0.123D+01
 Coeff-En:   0.000D+00 0.000D+00 0.000D+00 0.000D+00 0.100D+01
 Coeff:      0.880D-03-0.194D-01-0.430D-01-0.169D+00 0.123D+01
 Gap=     0.341 Goal=   None    Shift=    0.000
 RMSDP=3.21D-05 MaxDP=1.16D-03 DE=-2.12D-04 OVMax= 3.10D-03

 Cycle   6  Pass 1  IDiag  1:
 E= -3107.47078721115     Delta-E=       -0.000037727273 Rises=F Damp=F
 DIIS: error= 1.26D-04 at cycle   6 NSaved=   6.
 NSaved= 6 IEnMin= 6 EnMin= -3107.47078721115     IErMin= 6 ErrMin= 1.26D-04
 ErrMax= 1.26D-04  0.00D+00 EMaxC= 1.00D-01 BMatC= 1.86D-06 BMatP= 1.32D-05
 IDIUse=3 WtCom= 9.99D-01 WtEn= 1.26D-03
 Coeff-Com:  0.478D-03 0.461D-02-0.141D-02-0.127D+00-0.582D-01 0.118D+01
 Coeff-En:   0.000D+00 0.000D+00 0.000D+00 0.000D+00 0.000D+00 0.100D+01
 Coeff:      0.477D-03 0.460D-02-0.140D-02-0.127D+00-0.581D-01 0.118D+01
 Gap=     0.341 Goal=   None    Shift=    0.000
 RMSDP=1.38D-05 MaxDP=5.78D-04 DE=-3.77D-05 OVMax= 1.55D-03

 Cycle   7  Pass 1  IDiag  1:
 E= -3107.47079360582     Delta-E=       -0.000006394671 Rises=F Damp=F
 DIIS: error= 4.56D-05 at cycle   7 NSaved=   7.
 NSaved= 7 IEnMin= 7 EnMin= -3107.47079360582     IErMin= 7 ErrMin= 4.56D-05
 ErrMax= 4.56D-05  0.00D+00 EMaxC= 1.00D-01 BMatC= 1.89D-07 BMatP= 1.86D-06
 IDIUse=1 WtCom= 1.00D+00 WtEn= 0.00D+00
 Coeff-Com: -0.229D-03 0.806D-03 0.678D-02 0.560D-01-0.150D+00-0.281D+00
 Coeff-Com:  0.137D+01
 Coeff:     -0.229D-03 0.806D-03 0.678D-02 0.560D-01-0.150D+00-0.281D+00
 Coeff:      0.137D+01
 Gap=     0.341 Goal=   None    Shift=    0.000
 RMSDP=5.42D-06 MaxDP=2.01D-04 DE=-6.39D-06 OVMax= 5.95D-04

 Cycle   8  Pass 1  IDiag  1:
 E= -3107.47079433053     Delta-E=       -0.000000724713 Rises=F Damp=F
 DIIS: error= 7.77D-06 at cycle   8 NSaved=   8.
 NSaved= 8 IEnMin= 8 EnMin= -3107.47079433053     IErMin= 8 ErrMin= 7.77D-06
 ErrMax= 7.77D-06  0.00D+00 EMaxC= 1.00D-01 BMatC= 8.06D-09 BMatP= 1.89D-07
 IDIUse=1 WtCom= 1.00D+00 WtEn= 0.00D+00
 Coeff-Com:  0.400D-05-0.327D-03-0.727D-03-0.321D-02 0.206D-01 0.436D-02
 Coeff-Com: -0.245D+00 0.122D+01
 Coeff:      0.400D-05-0.327D-03-0.727D-03-0.321D-02 0.206D-01 0.436D-02
 Coeff:     -0.245D+00 0.122D+01
 Gap=     0.341 Goal=   None    Shift=    0.000
 RMSDP=1.05D-06 MaxDP=2.17D-05 DE=-7.25D-07 OVMax= 1.00D-04

 Cycle   9  Pass 1  IDiag  1:
 E= -3107.47079435987     Delta-E=       -0.000000029332 Rises=F Damp=F
 DIIS: error= 2.91D-06 at cycle   9 NSaved=   9.
 NSaved= 9 IEnMin= 9 EnMin= -3107.47079435987     IErMin= 9 ErrMin= 2.91D-06
 ErrMax= 2.91D-06  0.00D+00 EMaxC= 1.00D-01 BMatC= 1.18D-09 BMatP= 8.06D-09
 IDIUse=1 WtCom= 1.00D+00 WtEn= 0.00D+00
 Coeff-Com:  0.154D-04-0.179D-03-0.552D-03-0.302D-02 0.120D-01 0.148D-01
 Coeff-Com: -0.106D+00 0.686D-01 0.101D+01
 Coeff:      0.154D-04-0.179D-03-0.552D-03-0.302D-02 0.120D-01 0.148D-01
 Coeff:     -0.106D+00 0.686D-01 0.101D+01
 Gap=     0.341 Goal=   None    Shift=    0.000
 RMSDP=3.49D-07 MaxDP=7.59D-06 DE=-2.93D-08 OVMax= 3.84D-05

 Cycle  10  Pass 1  IDiag  1:
 E= -3107.47079436376     Delta-E=       -0.000000003896 Rises=F Damp=F
 DIIS: error= 1.90D-06 at cycle  10 NSaved=  10.
 NSaved=10 IEnMin=10 EnMin= -3107.47079436376     IErMin=10 ErrMin= 1.90D-06
 ErrMax= 1.90D-06  0.00D+00 EMaxC= 1.00D-01 BMatC= 2.80D-10 BMatP= 1.18D-09
 IDIUse=1 WtCom= 1.00D+00 WtEn= 0.00D+00
 Coeff-Com: -0.280D-05 0.138D-03 0.238D-03 0.274D-03-0.558D-02 0.251D-02
 Coeff-Com:  0.529D-01-0.254D+00-0.174D+00 0.138D+01
 Coeff:     -0.280D-05 0.138D-03 0.238D-03 0.274D-03-0.558D-02 0.251D-02
 Coeff:      0.529D-01-0.254D+00-0.174D+00 0.138D+01
 Gap=     0.341 Goal=   None    Shift=    0.000
 RMSDP=2.76D-07 MaxDP=6.54D-06 DE=-3.90D-09 OVMax= 3.06D-05

 Cycle  11  Pass 1  IDiag  1:
 E= -3107.47079436516     Delta-E=       -0.000000001401 Rises=F Damp=F
 DIIS: error= 7.38D-07 at cycle  11 NSaved=  11.
 NSaved=11 IEnMin=11 EnMin= -3107.47079436516     IErMin=11 ErrMin= 7.38D-07
 ErrMax= 7.38D-07  0.00D+00 EMaxC= 1.00D-01 BMatC= 3.44D-11 BMatP= 2.80D-10
 IDIUse=1 WtCom= 1.00D+00 WtEn= 0.00D+00
 Coeff-Com: -0.200D-05-0.122D-04 0.348D-04 0.689D-03-0.111D-02-0.362D-02
 Coeff-Com:  0.842D-02 0.427D-01-0.116D+00-0.342D+00 0.141D+01
 Coeff:     -0.200D-05-0.122D-04 0.348D-04 0.689D-03-0.111D-02-0.362D-02
 Coeff:      0.842D-02 0.427D-01-0.116D+00-0.342D+00 0.141D+01
 Gap=     0.341 Goal=   None    Shift=    0.000
 RMSDP=1.13D-07 MaxDP=2.95D-06 DE=-1.40D-09 OVMax= 1.26D-05

 Cycle  12  Pass 1  IDiag  1:
 E= -3107.47079436536     Delta-E=       -0.000000000199 Rises=F Damp=F
 DIIS: error= 1.81D-07 at cycle  12 NSaved=  12.
 NSaved=12 IEnMin=12 EnMin= -3107.47079436536     IErMin=12 ErrMin= 1.81D-07
 ErrMax= 1.81D-07  0.00D+00 EMaxC= 1.00D-01 BMatC= 2.18D-12 BMatP= 3.44D-11
 IDIUse=1 WtCom= 1.00D+00 WtEn= 0.00D+00
 Coeff-Com:  0.114D-06-0.138D-04-0.252D-04-0.224D-04 0.588D-03-0.193D-03
 Coeff-Com: -0.622D-02 0.290D-01 0.247D-01-0.173D+00 0.542D-01 0.107D+01
 Coeff:      0.114D-06-0.138D-04-0.252D-04-0.224D-04 0.588D-03-0.193D-03
 Coeff:     -0.622D-02 0.290D-01 0.247D-01-0.173D+00 0.542D-01 0.107D+01
 Gap=     0.341 Goal=   None    Shift=    0.000
 RMSDP=2.33D-08 MaxDP=6.14D-07 DE=-1.99D-10 OVMax= 2.40D-06

 Cycle  13  Pass 1  IDiag  1:
 E= -3107.47079436537     Delta-E=       -0.000000000012 Rises=F Damp=F
 DIIS: error= 3.26D-08 at cycle  13 NSaved=  13.
 NSaved=13 IEnMin=13 EnMin= -3107.47079436537     IErMin=13 ErrMin= 3.26D-08
 ErrMax= 3.26D-08  0.00D+00 EMaxC= 1.00D-01 BMatC= 1.10D-13 BMatP= 2.18D-12
 IDIUse=1 WtCom= 1.00D+00 WtEn= 0.00D+00
 Coeff-Com:  0.904D-07 0.283D-05 0.251D-05-0.292D-04-0.457D-04 0.168D-03
 Coeff-Com:  0.833D-03-0.776D-02 0.120D-02 0.534D-01-0.963D-01-0.192D+00
 Coeff-Com:  0.124D+01
 Coeff:      0.904D-07 0.283D-05 0.251D-05-0.292D-04-0.457D-04 0.168D-03
 Coeff:      0.833D-03-0.776D-02 0.120D-02 0.534D-01-0.963D-01-0.192D+00
 Coeff:      0.124D+01
 Gap=     0.341 Goal=   None    Shift=    0.000
 RMSDP=5.79D-09 MaxDP=1.34D-07 DE=-1.18D-11 OVMax= 4.75D-07

 SCF Done:  E(RHF) =  -3107.47079437     A.U. after   13 cycles
            NFock= 13  Conv=0.58D-08     -V/T= 2.0001
 KE= 3.107245625621D+03 PE=-7.823197664121D+03 EE= 1.418102229921D+03
 Leave Link  502 at Tue Oct 12 14:24:38 2021, MaxMem=  1048576000 cpu:        19.4
 (Enter /usr/local/gaussian/g09/l801.exe)
 ExpMin= 2.53D-02 ExpMax= 1.06D+07 ExpMxC= 1.21D+04 IAcc=3 IRadAn=         5 AccDes= 0.00D+00
 HarFok:  IExCor=  205 AccDes= 0.00D+00 IRadAn=         5 IDoV=-2 UseB2=F ITyADJ=14
 ICtDFT= 12500011 ScaDFX=  1.000000  1.000000  1.000000  1.000000
 Largest valence mixing into a core orbital is  4.47D-04
 Largest core mixing into a valence orbital is  1.57D-04
 Range of M.O.s used for correlation:    16   178
 NBasis=   178 NAE=    31 NBE=    31 NFC=    15 NFV=     0
 NROrb=    163 NOA=    16 NOB=    16 NVA=   147 NVB=   147

 **** Warning!!: The largest alpha MO coefficient is  0.21407753D+02

 Leave Link  801 at Tue Oct 12 14:24:38 2021, MaxMem=  1048576000 cpu:         0.7
 (Enter /usr/local/gaussian/g09/l906.exe)
 Frozen-core derivative calculation, NFC=  15 NFV=   0.
 FulOut=F Deriv=T AODrv=F NAtomX=     4
   MMem=         227  MDisk=          16 MDiskD=          16
  W3Min=     1147744 MinDsk=     1765480 NBas6D=         208
 NBas2D=       22240    NTT=       21736    LW2=     9911920
    MDV=  1048101665 MDiskM=       25146 NBas2p=       22041
 Fully in-core method, ICMem=   526646768.
 IMap=   1   2   3   4   5   6   7   8   9  10  11  12  13  14  15  16  17  18  19  20
 IMap=  21  22  23  24  25  26  27  28  29  30  31
 JobTyp=1 Pass  1 fully in-core, NPsUse= 12.
 Compute canonical integrals.
 FoFCou: FMM=F IPFlag=           0 FMFlag=           0 FMFlg1=           0
         NFxFlg=           0 DoJE=F BraDBF=F KetDBF=F FulRan=T
         wScrn=  0.000000 ICntrl=     600 IOpCl=  1 I1Cent=           0 NGrid=           0
         NMat0=    1 NMatS0=  22240 NMatT0=    0 NMatD0=    1 NMtDS0=    0 NMtDT0=    0
 Symmetry not used in FoFCou.
 Spin components of T(2) and E(2):
     alpha-alpha T2 =       0.3093312847D-01 E2=     -0.9516430664D-01
     alpha-beta  T2 =       0.1638812384D+00 E2=     -0.5188510988D+00
     beta-beta   T2 =       0.3093312847D-01 E2=     -0.9516430664D-01
 The integrals were generated   1 times.
 ANorm=    0.1107134814D+01
 E2 =    -0.7091797121D+00 EUMP2 =    -0.31081799740775D+04
 Leave Link  906 at Tue Oct 12 14:24:46 2021, MaxMem=  1048576000 cpu:        97.3
 (Enter /usr/local/gaussian/g09/l1002.exe)
 Minotr:  Closed shell wavefunction.
          Computing MP2/KS-MP2 derivatives.
          Using Z-Vector for PSCF gradient.
          Skipping F1 and S1 gradient terms here.
          Frozen-core window.
          Direct CPHF calculation.
          Differentiating once with respect to electric field.
                with respect to dipole field.
          Electric field/nuclear overlap derivatives assumed to be zero.
          Requested convergence is 1.0D-10 RMS, and 1.0D-09 maximum.
          NewPWx=F KeepS1=T KeepF1=T KeepIn=T MapXYZ=F SortEE=F KeepMc=T.
          MDV=    1048575801 using IRadAn=       0.
 Keep R1 ints in memory in canonical form, NReq=131472178.
 FoFCou: FMM=F IPFlag=           0 FMFlag=           0 FMFlg1=           0
         NFxFlg=           0 DoJE=F BraDBF=F KetDBF=F FulRan=T
         wScrn=  0.000000 ICntrl=     600 IOpCl=  0 I1Cent=           0 NGrid=           0
         NMat0=    1 NMatS0=  15931 NMatT0=    0 NMatD0=    1 NMtDS0=    0 NMtDT0=    0
 Symmetry not used in FoFCou.
          Solving linear equations separately, MaxMat=       0.
          There are     1 degrees of freedom in the 1st order CPHF.  IDoFFX=0 NUNeed=     1.
 LinEq1:  Iter=  0 NonCon=     1 RMS=2.77D-03 Max=4.92D-02 NDo=     1
 AX will form     1 AO Fock derivatives at one time.
 LinEq1:  Iter=  1 NonCon=     1 RMS=4.37D-04 Max=5.52D-03 NDo=     1
 LinEq1:  Iter=  2 NonCon=     1 RMS=2.05D-04 Max=4.00D-03 NDo=     1
 LinEq1:  Iter=  3 NonCon=     1 RMS=6.98D-05 Max=1.21D-03 NDo=     1
 LinEq1:  Iter=  4 NonCon=     1 RMS=3.06D-05 Max=9.18D-04 NDo=     1
 LinEq1:  Iter=  5 NonCon=     1 RMS=1.08D-05 Max=1.80D-04 NDo=     1
 LinEq1:  Iter=  6 NonCon=     1 RMS=2.21D-06 Max=2.67D-05 NDo=     1
 LinEq1:  Iter=  7 NonCon=     1 RMS=5.52D-07 Max=1.02D-05 NDo=     1
 LinEq1:  Iter=  8 NonCon=     1 RMS=1.60D-07 Max=2.62D-06 NDo=     1
 LinEq1:  Iter=  9 NonCon=     1 RMS=4.33D-08 Max=9.86D-07 NDo=     1
 LinEq1:  Iter= 10 NonCon=     1 RMS=1.24D-08 Max=2.31D-07 NDo=     1
 LinEq1:  Iter= 11 NonCon=     1 RMS=3.02D-09 Max=4.70D-08 NDo=     1
 LinEq1:  Iter= 12 NonCon=     1 RMS=5.38D-10 Max=7.12D-09 NDo=     1
 LinEq1:  Iter= 13 NonCon=     1 RMS=1.39D-10 Max=1.81D-09 NDo=     1
 LinEq1:  Iter= 14 NonCon=     0 RMS=3.22D-11 Max=4.03D-10 NDo=     1
 Linear equations converged to 1.000D-10 1.000D-09 after    14 iterations.
 End of Minotr F.D. properties file   721 does not exist.
 End of Minotr F.D. properties file   722 does not exist.
 End of Minotr F.D. properties file   788 does not exist.
 Leave Link 1002 at Tue Oct 12 14:24:50 2021, MaxMem=  1048576000 cpu:        18.6
 (Enter /usr/local/gaussian/g09/l601.exe)
 Copying SCF densities to generalized density rwf, IOpCl= 0 IROHF=0.

 **********************************************************************

            Population analysis using the MP2 density.

 **********************************************************************

 Alpha  occ. eigenvalues -- -489.76472-104.72199 -64.90509 -58.25963 -58.25953
 Alpha  occ. eigenvalues --  -58.25952 -20.45209 -10.44155  -9.57765  -7.90871
 Alpha  occ. eigenvalues --   -7.90616  -7.90607  -7.18567  -7.18480  -7.18478
 Alpha  occ. eigenvalues --   -2.92745  -2.92702  -2.92700  -2.92601  -2.92600
 Alpha  occ. eigenvalues --   -1.20485  -0.88081  -0.74154  -0.51256  -0.42989
 Alpha  occ. eigenvalues --   -0.42156  -0.29847  -0.27027  -0.19421  -0.18416
 Alpha  occ. eigenvalues --   -0.18405
 Alpha virt. eigenvalues --    0.15729   0.18368   0.21504   0.22853   0.24051
 Alpha virt. eigenvalues --    0.24605   0.24985   0.29258   0.30565   0.32284
 Alpha virt. eigenvalues --    0.32287   0.32721   0.36025   0.43747   0.43843
 Alpha virt. eigenvalues --    0.46645   0.47727   0.48271   0.49646   0.54346
 Alpha virt. eigenvalues --    0.54392   0.57565   0.59376   0.59773   0.60658
 Alpha virt. eigenvalues --    0.61111   0.66078   0.68863   0.73464   0.73947
 Alpha virt. eigenvalues --    0.75038   0.78131   0.78721   0.84322   0.89948
 Alpha virt. eigenvalues --    0.90260   0.92132   0.94708   0.99100   0.99525
 Alpha virt. eigenvalues --    1.00351   1.00588   1.01654   1.03274   1.06778
 Alpha virt. eigenvalues --    1.09163   1.09895   1.10244   1.11062   1.14489
 Alpha virt. eigenvalues --    1.15969   1.17259   1.17784   1.21762   1.22843
 Alpha virt. eigenvalues --    1.24704   1.29380   1.29742   1.33622   1.33639
 Alpha virt. eigenvalues --    1.37577   1.39408   1.48247   1.50519   1.51627
 Alpha virt. eigenvalues --    1.57135   1.59868   1.63256   1.67329   1.69817
 Alpha virt. eigenvalues --    1.71538   1.77537   1.77865   1.79992   1.88797
 Alpha virt. eigenvalues --    1.98571   2.14771   2.37715   2.38704   2.41473
 Alpha virt. eigenvalues --    2.42108   2.45452   2.50309   2.50633   2.52508
 Alpha virt. eigenvalues --    2.53138   2.54423   2.54493   2.54620   2.55365
 Alpha virt. eigenvalues --    2.58310   2.59914   2.62482   2.63844   2.65045
 Alpha virt. eigenvalues --    2.67728   2.68406   2.69236   2.72501   2.72604
 Alpha virt. eigenvalues --    2.74534   2.75186   2.79295   2.81357   2.82122
 Alpha virt. eigenvalues --    2.97111   3.06189   3.07399   3.10711   3.19335
 Alpha virt. eigenvalues --    3.20968   3.22601   3.26158   3.29995   3.31483
 Alpha virt. eigenvalues --    3.35201   3.53471   3.55404   3.58073   3.92206
 Alpha virt. eigenvalues --    4.14025   4.25547   4.42527   4.46172   4.56738
 Alpha virt. eigenvalues --    4.74905   4.91635   4.95027   5.15190   5.15798
 Alpha virt. eigenvalues --    5.33460   5.53399   6.48429   6.59869   6.84685
 Alpha virt. eigenvalues --    6.90113   6.92625   6.99847   7.15715   7.22586
 Alpha virt. eigenvalues --    7.35431   7.43821   7.56855   7.75773   7.82396
 Alpha virt. eigenvalues --    8.21624  13.44766
          Condensed to atoms (all electrons):
               1          2          3          4
     1  O    8.672892  -0.118903  -0.104495   0.072898
     2  Cl  -0.118903  17.089879   0.007513  -0.012939
     3  Br  -0.104495   0.007513  35.858664   0.036934
     4  H    0.072898  -0.012939   0.036934   0.616549
 Mulliken charges:
               1
     1  O   -0.522393
     2  Cl   0.034449
     3  Br  -0.798615
     4  H    0.286558
 Sum of Mulliken charges =  -1.00000
 Mulliken charges with hydrogens summed into heavy atoms:
               1
     1  O   -0.235835
     2  Cl   0.034449
     3  Br  -0.798615
 Electronic spatial extent (au):  <R**2>=           1479.1482
 Charge=             -1.0000 electrons
 Dipole moment (field-independent basis, Debye):
    X=              1.4794    Y=              9.7345    Z=              0.0000  Tot=              9.8463
 Quadrupole moment (field-independent basis, Debye-Ang):
   XX=            -45.6305   YY=            -74.9130   ZZ=            -43.1166
   XY=             -7.9801   XZ=             -0.0000   YZ=             -0.0000
 Traceless Quadrupole moment (field-independent basis, Debye-Ang):
   XX=              8.9229   YY=            -20.3597   ZZ=             11.4368
   XY=             -7.9801   XZ=             -0.0000   YZ=             -0.0000
 Octapole moment (field-independent basis, Debye-Ang**2):
  XXX=            -15.8534  YYY=            301.0374  ZZZ=             -0.0000  XYY=             16.6427
  XXY=             73.8011  XXZ=             -0.0000  XZZ=             -6.7534  YZZ=             68.4732
  YYZ=              0.0000  XYZ=              0.0000
 Hexadecapole moment (field-independent basis, Debye-Ang**3):
 XXXX=           -343.0008 YYYY=          -1553.7275 ZZZZ=            -61.1702 XXXY=           -150.8362
 XXXZ=             -0.0000 YYYX=           -212.6883 YYYZ=             -0.0000 ZZZX=             -0.0000
 ZZZY=             -0.0000 XXYY=           -290.8964 XXZZ=            -71.9224 YYZZ=           -224.0828
 XXYZ=             -0.0000 YYXZ=             -0.0000 ZZXY=            -48.9633
 N-N= 1.903790142138D+02 E-N=-7.821767811229D+03  KE= 3.107279130069D+03
 No NMR shielding tensors so no spin-rotation constants.
 Leave Link  601 at Tue Oct 12 14:24:50 2021, MaxMem=  1048576000 cpu:         2.3
 (Enter /usr/local/gaussian/g09/l607.exe)
 ******************************Gaussian NBO Version 3.1******************************
             N A T U R A L   A T O M I C   O R B I T A L   A N D
          N A T U R A L   B O N D   O R B I T A L   A N A L Y S I S
 ******************************Gaussian NBO Version 3.1******************************
       /RESON  / : Allow strongly delocalized NBO set

 Analyzing the MP2 density

 Job title: title                                                           

 Storage needed:     95974 in NPA,    127345 in NBO (1048575896 available)


 NATURAL POPULATIONS:  Natural atomic orbital occupancies 
                                                          
   NAO  Atom  No  lang   Type(AO)    Occupancy
 --------------------------------------------
     1    O    1  S      Cor( 1S)     1.99974
     2    O    1  S      Val( 2S)     1.80992
     3    O    1  S      Ryd( 3S)     0.01043
     4    O    1  S      Ryd( 4S)     0.00114
     5    O    1  S      Ryd( 5S)     0.00018
     6    O    1  px     Val( 2p)     1.19815
     7    O    1  px     Ryd( 3p)     0.00719
     8    O    1  px     Ryd( 4p)     0.00065
     9    O    1  px     Ryd( 5p)     0.00046
    10    O    1  py     Val( 2p)     1.72369
    11    O    1  py     Ryd( 3p)     0.01289
    12    O    1  py     Ryd( 4p)     0.00073
    13    O    1  py     Ryd( 5p)     0.00051
    14    O    1  pz     Val( 2p)     1.94692
    15    O    1  pz     Ryd( 3p)     0.02094
    16    O    1  pz     Ryd( 4p)     0.00064
    17    O    1  pz     Ryd( 5p)     0.00014
    18    O    1  dxy    Ryd( 3d)     0.00860
    19    O    1  dxy    Ryd( 4d)     0.00049
    20    O    1  dxy    Ryd( 5d)     0.00014
    21    O    1  dxz    Ryd( 3d)     0.00881
    22    O    1  dxz    Ryd( 4d)     0.00059
    23    O    1  dxz    Ryd( 5d)     0.00010
    24    O    1  dyz    Ryd( 3d)     0.00733
    25    O    1  dyz    Ryd( 4d)     0.00064
    26    O    1  dyz    Ryd( 5d)     0.00033
    27    O    1  dx2y2  Ryd( 3d)     0.01311
    28    O    1  dx2y2  Ryd( 4d)     0.00039
    29    O    1  dx2y2  Ryd( 5d)     0.00017
    30    O    1  dz2    Ryd( 3d)     0.00933
    31    O    1  dz2    Ryd( 4d)     0.00061
    32    O    1  dz2    Ryd( 5d)     0.00017
    33    O    1  f(0)   Ryd( 4f)     0.00070
    34    O    1  f(0)   Ryd( 5f)     0.00011
    35    O    1  f(C1)  Ryd( 4f)     0.00067
    36    O    1  f(C1)  Ryd( 5f)     0.00012
    37    O    1  f(S1)  Ryd( 4f)     0.00061
    38    O    1  f(S1)  Ryd( 5f)     0.00011
    39    O    1  f(C2)  Ryd( 4f)     0.00061
    40    O    1  f(C2)  Ryd( 5f)     0.00013
    41    O    1  f(S2)  Ryd( 4f)     0.00054
    42    O    1  f(S2)  Ryd( 5f)     0.00012
    43    O    1  f(C3)  Ryd( 4f)     0.00061
    44    O    1  f(C3)  Ryd( 5f)     0.00014
    45    O    1  f(S3)  Ryd( 4f)     0.00056
    46    O    1  f(S3)  Ryd( 5f)     0.00012

    47   Cl    2  S      Cor( 1S)     2.00000
    48   Cl    2  S      Cor( 2S)     1.99977
    49   Cl    2  S      Val( 3S)     1.87952
    50   Cl    2  S      Ryd( 4S)     0.00797
    51   Cl    2  S      Ryd( 5S)     0.00053
    52   Cl    2  S      Ryd( 6S)     0.00017
    53   Cl    2  px     Cor( 2p)     1.99995
    54   Cl    2  px     Val( 3p)     0.91860
    55   Cl    2  px     Ryd( 4p)     0.00665
    56   Cl    2  px     Ryd( 5p)     0.00053
    57   Cl    2  px     Ryd( 6p)     0.00022
    58   Cl    2  py     Cor( 2p)     2.00003
    59   Cl    2  py     Val( 3p)     1.95284
    60   Cl    2  py     Ryd( 4p)     0.01010
    61   Cl    2  py     Ryd( 5p)     0.00052
    62   Cl    2  py     Ryd( 6p)     0.00009
    63   Cl    2  pz     Cor( 2p)     2.00003
    64   Cl    2  pz     Val( 3p)     1.95418
    65   Cl    2  pz     Ryd( 4p)     0.01090
    66   Cl    2  pz     Ryd( 5p)     0.00069
    67   Cl    2  pz     Ryd( 6p)     0.00003
    68   Cl    2  dxy    Ryd( 3d)     0.01737
    69   Cl    2  dxy    Ryd( 4d)     0.00096
    70   Cl    2  dxy    Ryd( 5d)     0.00035
    71   Cl    2  dxz    Ryd( 3d)     0.02180
    72   Cl    2  dxz    Ryd( 4d)     0.00118
    73   Cl    2  dxz    Ryd( 5d)     0.00037
    74   Cl    2  dyz    Ryd( 3d)     0.01685
    75   Cl    2  dyz    Ryd( 4d)     0.00072
    76   Cl    2  dyz    Ryd( 5d)     0.00021
    77   Cl    2  dx2y2  Ryd( 3d)     0.01861
    78   Cl    2  dx2y2  Ryd( 4d)     0.00047
    79   Cl    2  dx2y2  Ryd( 5d)     0.00018
    80   Cl    2  dz2    Ryd( 3d)     0.01760
    81   Cl    2  dz2    Ryd( 4d)     0.00059
    82   Cl    2  dz2    Ryd( 5d)     0.00018
    83   Cl    2  f(0)   Ryd( 4f)     0.00131
    84   Cl    2  f(0)   Ryd( 5f)     0.00014
    85   Cl    2  f(C1)  Ryd( 4f)     0.00148
    86   Cl    2  f(C1)  Ryd( 5f)     0.00015
    87   Cl    2  f(S1)  Ryd( 4f)     0.00127
    88   Cl    2  f(S1)  Ryd( 5f)     0.00013
    89   Cl    2  f(C2)  Ryd( 4f)     0.00135
    90   Cl    2  f(C2)  Ryd( 5f)     0.00013
    91   Cl    2  f(S2)  Ryd( 4f)     0.00120
    92   Cl    2  f(S2)  Ryd( 5f)     0.00013
    93   Cl    2  f(C3)  Ryd( 4f)     0.00161
    94   Cl    2  f(C3)  Ryd( 5f)     0.00013
    95   Cl    2  f(S3)  Ryd( 4f)     0.00128
    96   Cl    2  f(S3)  Ryd( 5f)     0.00014

    97   Br    3  S      Cor( 1S)     2.00000
    98   Br    3  S      Cor( 2S)     2.00000
    99   Br    3  S      Cor( 3S)     1.99971
   100   Br    3  S      Val( 4S)     1.95644
   101   Br    3  S      Ryd( 5S)     0.00164
   102   Br    3  S      Ryd( 6S)     0.00047
   103   Br    3  S      Ryd( 7S)     0.00017
   104   Br    3  px     Cor( 2p)     2.00000
   105   Br    3  px     Cor( 3p)     1.99998
   106   Br    3  px     Val( 4p)     1.94544
   107   Br    3  px     Ryd( 5p)     0.01076
   108   Br    3  px     Ryd( 6p)     0.00080
   109   Br    3  px     Ryd( 7p)     0.00010
   110   Br    3  py     Cor( 2p)     2.00000
   111   Br    3  py     Cor( 3p)     1.99988
   112   Br    3  py     Val( 4p)     1.81167
   113   Br    3  py     Ryd( 5p)     0.00910
   114   Br    3  py     Ryd( 6p)     0.00075
   115   Br    3  py     Ryd( 7p)     0.00012
   116   Br    3  pz     Cor( 2p)     2.00000
   117   Br    3  pz     Cor( 3p)     1.99999
   118   Br    3  pz     Val( 4p)     1.95386
   119   Br    3  pz     Ryd( 5p)     0.01091
   120   Br    3  pz     Ryd( 6p)     0.00081
   121   Br    3  pz     Ryd( 7p)     0.00010
   122   Br    3  dxy    Cor( 3d)     1.99764
   123   Br    3  dxy    Ryd( 4d)     0.01868
   124   Br    3  dxy    Ryd( 5d)     0.00137
   125   Br    3  dxy    Ryd( 6d)     0.00021
   126   Br    3  dxz    Cor( 3d)     1.99768
   127   Br    3  dxz    Ryd( 4d)     0.01852
   128   Br    3  dxz    Ryd( 5d)     0.00172
   129   Br    3  dxz    Ryd( 6d)     0.00025
   130   Br    3  dyz    Cor( 3d)     1.99766
   131   Br    3  dyz    Ryd( 4d)     0.01876
   132   Br    3  dyz    Ryd( 5d)     0.00140
   133   Br    3  dyz    Ryd( 6d)     0.00021
   134   Br    3  dx2y2  Cor( 3d)     1.99761
   135   Br    3  dx2y2  Ryd( 4d)     0.01866
   136   Br    3  dx2y2  Ryd( 5d)     0.00154
   137   Br    3  dx2y2  Ryd( 6d)     0.00024
   138   Br    3  dz2    Cor( 3d)     1.99765
   139   Br    3  dz2    Ryd( 4d)     0.01857
   140   Br    3  dz2    Ryd( 5d)     0.00168
   141   Br    3  dz2    Ryd( 6d)     0.00021
   142   Br    3  f(0)   Ryd( 4f)     0.00172
   143   Br    3  f(0)   Ryd( 5f)     0.00025
   144   Br    3  f(C1)  Ryd( 4f)     0.00174
   145   Br    3  f(C1)  Ryd( 5f)     0.00024
   146   Br    3  f(S1)  Ryd( 4f)     0.00178
   147   Br    3  f(S1)  Ryd( 5f)     0.00028
   148   Br    3  f(C2)  Ryd( 4f)     0.00171
   149   Br    3  f(C2)  Ryd( 5f)     0.00026
   150   Br    3  f(S2)  Ryd( 4f)     0.00174
   151   Br    3  f(S2)  Ryd( 5f)     0.00025
   152   Br    3  f(C3)  Ryd( 4f)     0.00171
   153   Br    3  f(C3)  Ryd( 5f)     0.00027
   154   Br    3  f(S3)  Ryd( 4f)     0.00174
   155   Br    3  f(S3)  Ryd( 5f)     0.00028

   156    H    4  S      Val( 1S)     0.52348
   157    H    4  S      Ryd( 2S)     0.00754
   158    H    4  S      Ryd( 3S)     0.00048
   159    H    4  S      Ryd( 4S)     0.00021
   160    H    4  px     Ryd( 2p)     0.00441
   161    H    4  px     Ryd( 3p)     0.00054
   162    H    4  px     Ryd( 4p)     0.00013
   163    H    4  py     Ryd( 2p)     0.00493
   164    H    4  py     Ryd( 3p)     0.00130
   165    H    4  py     Ryd( 4p)     0.00028
   166    H    4  pz     Ryd( 2p)     0.00568
   167    H    4  pz     Ryd( 3p)     0.00034
   168    H    4  pz     Ryd( 4p)     0.00028
   169    H    4  dxy    Ryd( 3d)     0.00030
   170    H    4  dxy    Ryd( 4d)     0.00011
   171    H    4  dxz    Ryd( 3d)     0.00025
   172    H    4  dxz    Ryd( 4d)     0.00006
   173    H    4  dyz    Ryd( 3d)     0.00045
   174    H    4  dyz    Ryd( 4d)     0.00011
   175    H    4  dx2y2  Ryd( 3d)     0.00022
   176    H    4  dx2y2  Ryd( 4d)     0.00012
   177    H    4  dz2    Ryd( 3d)     0.00026
   178    H    4  dz2    Ryd( 4d)     0.00009

 WARNING:  5 low occupancy (<1.9990e) core orbitals found on Br    3


 Summary of Natural Population Analysis:                  
                                                          
                                       Natural Population 
                Natural  -----------------------------------------------
    Atom  No    Charge         Core      Valence    Rydberg      Total
 -----------------------------------------------------------------------
      O    1   -0.79027      1.99974     6.67868    0.11185     8.79027
     Cl    2    0.14881      9.99978     6.70513    0.14627    16.85119
     Br    3   -0.80698     27.98781     7.66741    0.15176    35.80698
      H    4    0.44843      0.00000     0.52348    0.02809     0.55157
 =======================================================================
   * Total *   -1.00000     39.98733    21.57470    0.43797    62.00000

                                 Natural Population      
 --------------------------------------------------------
   Core                      39.98733 ( 99.9683% of  40)
   Valence                   21.57470 ( 98.0668% of  22)
   Natural Minimal Basis     61.56203 ( 99.2936% of  62)
   Natural Rydberg Basis      0.43797 (  0.7064% of  62)
 --------------------------------------------------------

    Atom  No          Natural Electron Configuration
 ----------------------------------------------------------------------------
      O    1      [core]2S( 1.81)2p( 4.87)3S( 0.01)3p( 0.04)3d( 0.05)
     Cl    2      [core]3S( 1.88)3p( 4.83)4S( 0.01)3d( 0.09)4p( 0.03)4f( 0.01)
     Br    3      [core]4S( 1.96)4p( 5.71)4d( 0.09)5p( 0.03)4f( 0.01)5d( 0.01)
      H    4            1S( 0.52)2S( 0.01)2p( 0.02)


 NATURAL BOND ORBITAL ANALYSIS:
 Warning:  a bond orbital has occupanc of -0.00005
 Warning:  a bond orbital has occupanc of -0.00000

                       Occupancies       Lewis Structure    Low   High
           Occ.    -------------------  -----------------   occ   occ
  Cycle   Thresh.   Lewis   Non-Lewis     CR  BD  3C  LP    (L)   (NL)   Dev
 =============================================================================
   1(1)    1.90    61.35680   0.64320     20   2   0   9     1      1    0.24
 Warning:  a bond orbital has occupanc of -0.00005
 Warning:  a bond orbital has occupanc of -0.00000
   2(2)    1.90    61.18750   0.81250     20   2   0   9     1      1    0.49
 Warning:  a bond orbital has occupanc of -0.00005
 Warning:  a bond orbital has occupanc of -0.00000
   3(3)    1.90    61.35680   0.64320     20   2   0   9     1      1    0.24
 Warning:  a bond orbital has occupanc of -0.00005
 Warning:  a bond orbital has occupanc of -0.00000
   4(1)    1.80    61.35680   0.64320     20   2   0   9     1      1    0.24
 Warning:  a bond orbital has occupanc of -0.00005
 Warning:  a bond orbital has occupanc of -0.00000
   5(2)    1.80    61.18750   0.81250     20   2   0   9     1      1    0.49
 Warning:  a bond orbital has occupanc of -0.00005
 Warning:  a bond orbital has occupanc of -0.00000
   6(3)    1.80    61.35680   0.64320     20   2   0   9     1      1    0.24
 Warning:  a bond orbital has occupanc of -0.00005
 Warning:  a bond orbital has occupanc of -0.00000
   7(1)    1.70    61.35680   0.64320     20   2   0   9     0      1    0.24
 Warning:  a bond orbital has occupanc of -0.00005
 Warning:  a bond orbital has occupanc of -0.00000
   8(2)    1.70    61.35680   0.64320     20   2   0   9     0      1    0.24
 Warning:  a bond orbital has occupanc of -0.00005
 Warning:  a bond orbital has occupanc of -0.00000
   9(1)    1.60    61.02704   0.97296     20   1   0  10     0      1    0.49
 Warning:  a bond orbital has occupanc of -0.00005
 Warning:  a bond orbital has occupanc of -0.00000
  10(2)    1.60    61.02704   0.97296     20   1   0  10     0      1    0.49
 Warning:  a bond orbital has occupanc of -0.00005
 Warning:  a bond orbital has occupanc of -0.00000
  11(1)    1.50    61.02704   0.97296     20   1   0  10     0      1    0.49
 Warning:  a bond orbital has occupanc of -0.00005
 Warning:  a bond orbital has occupanc of -0.00000
  12(2)    1.50    61.02704   0.97296     20   1   0  10     0      1    0.49
 Warning:  a bond orbital has occupanc of -0.00005
 Warning:  a bond orbital has occupanc of -0.00000
  13(1)    1.90    61.35680   0.64320     20   2   0   9     1      1    0.24
 -----------------------------------------------------------------------------

 Structure accepted: RESONANCE keyword permits strongly delocalized structure

 WARNING:  5 low occupancy (<1.9990e) core orbitals found on Br    3

 --------------------------------------------------------
   Core                     39.98733 ( 99.968% of  40)
   Valence Lewis            21.36946 ( 97.134% of  22)
  ==================       ============================
   Total Lewis              61.35680 ( 98.963% of  62)
  -----------------------------------------------------
   Valence non-Lewis         0.25035 (  0.404% of  62)
   Rydberg non-Lewis         0.39286 (  0.634% of  62)
  ==================       ============================
   Total non-Lewis           0.64320 (  1.037% of  62)
 --------------------------------------------------------


       (Occupancy)   Bond orbital/ Coefficients/ Hybrids
 ---------------------------------------------------------------------------------
     1. (1.93842) BD ( 1) O   1 -Cl   2  
                ( 58.43%)   0.7644* O   1 s( 10.43%)p 8.54( 89.05%)d 0.05(  0.51%)
                                                  f 0.00(  0.02%)
                                            0.0003  0.3191 -0.0467  0.0158 -0.0005
                                            0.9417 -0.0364 -0.0105 -0.0132 -0.0373
                                           -0.0263 -0.0048  0.0006  0.0000  0.0000
                                            0.0000  0.0000 -0.0195 -0.0017  0.0020
                                            0.0000  0.0000  0.0000  0.0000  0.0000
                                            0.0000  0.0543  0.0043  0.0024 -0.0417
                                           -0.0034  0.0005  0.0000  0.0000 -0.0111
                                            0.0012 -0.0001  0.0002  0.0000  0.0000
                                            0.0000  0.0000  0.0066  0.0010 -0.0007
                                            0.0017
                ( 41.57%)   0.6447*Cl   2 s(  8.79%)p10.23( 89.95%)d 0.13(  1.13%)
                                                  f 0.01(  0.12%)
                                           -0.0000  0.0005  0.2911 -0.0555 -0.0100
                                           -0.0027 -0.0004 -0.9460  0.0649  0.0139
                                           -0.0042 -0.0000 -0.0122 -0.0020  0.0030
                                           -0.0012  0.0000  0.0000  0.0000  0.0000
                                            0.0000  0.0131 -0.0001  0.0004  0.0000
                                            0.0000  0.0000  0.0000  0.0000  0.0000
                                            0.0885 -0.0112 -0.0009 -0.0563  0.0067
                                            0.0015  0.0000  0.0000  0.0215 -0.0031
                                            0.0006 -0.0002  0.0000  0.0000  0.0000
                                            0.0000 -0.0262  0.0029 -0.0018  0.0003
     2. (1.96006) BD ( 1) O   1 - H   4  
                ( 81.29%)   0.9016* O   1 s( 25.97%)p 2.83( 73.61%)d 0.02(  0.42%)
                                                  f 0.00(  0.01%)
                                           -0.0002 -0.5095  0.0030 -0.0082 -0.0024
                                            0.2036 -0.0145 -0.0028 -0.0044  0.8332
                                            0.0026 -0.0049 -0.0043  0.0000  0.0000
                                            0.0000  0.0000  0.0040  0.0025  0.0005
                                            0.0000  0.0000  0.0000  0.0000  0.0000
                                            0.0000  0.0551  0.0064  0.0004  0.0327
                                            0.0018 -0.0038  0.0000  0.0000 -0.0018
                                           -0.0005 -0.0091  0.0003  0.0000  0.0000
                                            0.0000  0.0000 -0.0023 -0.0019  0.0002
                                           -0.0010
                ( 18.71%)   0.4326* H   4 s( 99.79%)p 0.00(  0.21%)d 0.00(  0.01%)
                                           -0.9979 -0.0451 -0.0102  0.0013 -0.0092
                                           -0.0123  0.0018  0.0169 -0.0369 -0.0131
                                            0.0000  0.0000  0.0000 -0.0002 -0.0002
                                            0.0000  0.0000  0.0000  0.0000  0.0046
                                            0.0032  0.0008  0.0054
     3. (1.99974) CR ( 1) O   1           s(100.00%)p 0.00(  0.00%)
                                            1.0000 -0.0003  0.0000 -0.0000 -0.0000
                                           -0.0002  0.0000  0.0000  0.0000  0.0001
                                            0.0000 -0.0000 -0.0000  0.0000  0.0000
                                            0.0000  0.0000  0.0000  0.0000  0.0000
                                            0.0000  0.0000  0.0000  0.0000  0.0000
                                            0.0000 -0.0000  0.0000  0.0000  0.0000
                                            0.0000 -0.0000  0.0000  0.0000  0.0000
                                           -0.0000 -0.0000  0.0000  0.0000  0.0000
                                            0.0000  0.0000 -0.0000 -0.0000 -0.0000
                                           -0.0000
     4. (2.00000) CR ( 1)Cl   2           s(100.00%)
                                            1.0000  0.0000 -0.0000 -0.0000 -0.0000
                                           -0.0000 -0.0000 -0.0000  0.0000  0.0000
                                           -0.0000 -0.0000 -0.0000 -0.0000  0.0000
                                           -0.0000  0.0000  0.0000  0.0000  0.0000
                                            0.0000  0.0000 -0.0000  0.0000  0.0000
                                            0.0000  0.0000  0.0000  0.0000  0.0000
                                            0.0000 -0.0000 -0.0000 -0.0000  0.0000
                                            0.0000  0.0000  0.0000  0.0000 -0.0000
                                            0.0000 -0.0000  0.0000  0.0000  0.0000
                                            0.0000 -0.0000  0.0000 -0.0000  0.0000
     5. (1.99977) CR ( 2)Cl   2           s(100.00%)p 0.00(  0.00%)
                                            0.0000  1.0000 -0.0004  0.0000  0.0000
                                            0.0000  0.0000  0.0004 -0.0000 -0.0000
                                            0.0000 -0.0000  0.0000  0.0000 -0.0000
                                            0.0000  0.0000  0.0000  0.0000  0.0000
                                            0.0000 -0.0000  0.0000  0.0000  0.0000
                                            0.0000  0.0000  0.0000  0.0000  0.0000
                                           -0.0000  0.0000  0.0000  0.0000 -0.0000
                                           -0.0000  0.0000  0.0000 -0.0000  0.0000
                                           -0.0000  0.0000  0.0000  0.0000  0.0000
                                            0.0000  0.0000 -0.0000  0.0000 -0.0000
     6. (1.99995) CR ( 3)Cl   2           s(  0.00%)p 1.00(100.00%)
                                           -0.0000  0.0000  0.0001 -0.0000 -0.0000
                                           -0.0000  1.0000 -0.0004  0.0000  0.0000
                                           -0.0000  0.0000 -0.0000 -0.0000  0.0000
                                           -0.0000  0.0000  0.0000  0.0000  0.0000
                                            0.0000  0.0000 -0.0000 -0.0000  0.0000
                                            0.0000  0.0000  0.0000  0.0000  0.0000
                                            0.0000 -0.0000 -0.0000 -0.0000  0.0000
                                            0.0000  0.0000  0.0000  0.0000 -0.0000
                                            0.0000 -0.0000  0.0000  0.0000  0.0000
                                            0.0000 -0.0000  0.0000 -0.0000  0.0000
     7. (2.00003) CR ( 4)Cl   2           s(  0.00%)p 1.00(100.00%)
                                           -0.0000 -0.0000  0.0000  0.0000  0.0000
                                           -0.0000  0.0000 -0.0000  0.0000  0.0000
                                           -0.0000  1.0000  0.0002  0.0000  0.0000
                                            0.0000  0.0000  0.0000  0.0000  0.0000
                                            0.0000  0.0000  0.0000  0.0000  0.0000
                                            0.0000  0.0000  0.0000  0.0000  0.0000
                                           -0.0000 -0.0000 -0.0000 -0.0000 -0.0000
                                           -0.0000  0.0000  0.0000  0.0000  0.0000
                                           -0.0000  0.0000  0.0000  0.0000  0.0000
                                            0.0000 -0.0000  0.0000  0.0000 -0.0000
     8. (2.00003) CR ( 5)Cl   2           s(  0.00%)p 1.00(100.00%)
                                            0.0000  0.0000  0.0000  0.0000  0.0000
                                            0.0000  0.0000  0.0000  0.0000  0.0000
                                            0.0000  0.0000  0.0000  0.0000  0.0000
                                            0.0000  1.0000  0.0002  0.0000  0.0000
                                           -0.0000  0.0000  0.0000  0.0000  0.0000
                                            0.0000  0.0000  0.0000  0.0000  0.0000
                                            0.0000  0.0000  0.0000  0.0000  0.0000
                                            0.0000 -0.0000  0.0000  0.0000  0.0000
                                            0.0000  0.0000  0.0000 -0.0000  0.0000
                                           -0.0000  0.0000  0.0000  0.0000  0.0000
     9. (2.00000) CR ( 1)Br   3           s(100.00%)
                                            1.0000 -0.0000  0.0000  0.0000 -0.0000
                                            0.0000  0.0000  0.0000 -0.0000 -0.0000
                                            0.0000 -0.0000 -0.0000  0.0000 -0.0000
                                           -0.0000  0.0000 -0.0000 -0.0000  0.0000
                                            0.0000  0.0000  0.0000  0.0000  0.0000
                                           -0.0000 -0.0000  0.0000 -0.0000  0.0000
                                            0.0000  0.0000  0.0000  0.0000  0.0000
                                            0.0000  0.0000  0.0000  0.0000  0.0000
                                            0.0000  0.0000  0.0000 -0.0000  0.0000
                                            0.0000  0.0000  0.0000  0.0000  0.0000
                                           -0.0000  0.0000  0.0000  0.0000  0.0000
                                            0.0000 -0.0000  0.0000 -0.0000
    10. (2.00000) CR ( 2)Br   3           s(100.00%)
                                           -0.0000  1.0000  0.0000  0.0000 -0.0000
                                            0.0000  0.0000  0.0000 -0.0000  0.0000
                                            0.0000 -0.0000 -0.0000  0.0000 -0.0000
                                           -0.0000  0.0000 -0.0000 -0.0000  0.0000
                                            0.0000  0.0000  0.0000  0.0000  0.0000
                                           -0.0000  0.0000 -0.0000 -0.0000  0.0000
                                            0.0000  0.0000  0.0000  0.0000  0.0000
                                            0.0000  0.0000  0.0000  0.0000  0.0000
                                            0.0000  0.0000  0.0000 -0.0000  0.0000
                                            0.0000  0.0000 -0.0000 -0.0000  0.0000
                                           -0.0000  0.0000  0.0000  0.0000  0.0000
                                           -0.0000 -0.0000  0.0000  0.0000
    11. (1.99971) CR ( 3)Br   3           s(100.00%)p 0.00(  0.00%)
                                            0.0000  0.0000  1.0000 -0.0003  0.0000
                                           -0.0000 -0.0000 -0.0000  0.0000  0.0000
                                           -0.0000  0.0000  0.0000 -0.0000  0.0000
                                            0.0001 -0.0000  0.0000  0.0000  0.0000
                                            0.0000  0.0000  0.0000  0.0000  0.0000
                                            0.0000  0.0000 -0.0000  0.0000  0.0000
                                            0.0000  0.0000  0.0000  0.0000  0.0000
                                            0.0000  0.0000 -0.0000 -0.0000 -0.0000
                                           -0.0000 -0.0000 -0.0000  0.0000 -0.0000
                                            0.0000  0.0000 -0.0000 -0.0000 -0.0000
                                            0.0000  0.0000  0.0000  0.0000  0.0000
                                           -0.0000  0.0000 -0.0000  0.0000
    12. (2.00000) CR ( 4)Br   3           s(  0.00%)p 1.00(100.00%)
                                            0.0000  0.0000 -0.0000 -0.0000  0.0000
                                           -0.0000 -0.0000  1.0000  0.0000  0.0000
                                            0.0000  0.0000 -0.0000  0.0000 -0.0000
                                           -0.0000 -0.0000 -0.0000  0.0000  0.0000
                                            0.0000  0.0000  0.0000  0.0000  0.0000
                                           -0.0000  0.0000 -0.0000 -0.0000  0.0000
                                            0.0000  0.0000  0.0000  0.0000  0.0000
                                            0.0000  0.0000 -0.0000  0.0000  0.0000
                                           -0.0000 -0.0000  0.0000 -0.0000  0.0000
                                            0.0000  0.0000 -0.0000 -0.0000  0.0000
                                            0.0000  0.0000  0.0000  0.0000  0.0000
                                           -0.0000 -0.0000  0.0000  0.0000
    13. (1.99998) CR ( 5)Br   3           s(  0.00%)p 1.00(100.00%)
                                           -0.0000 -0.0000  0.0000  0.0000 -0.0000
                                            0.0000  0.0000  0.0000  1.0000 -0.0003
                                           -0.0000 -0.0000  0.0000 -0.0000  0.0000
                                            0.0001  0.0000  0.0000 -0.0000  0.0000
                                            0.0000  0.0000  0.0000  0.0000  0.0000
                                            0.0000 -0.0000  0.0000  0.0000  0.0000
                                            0.0000  0.0000  0.0000  0.0000  0.0000
                                            0.0000  0.0000  0.0000 -0.0000 -0.0000
                                            0.0000  0.0000 -0.0000  0.0000 -0.0000
                                            0.0000  0.0000  0.0000  0.0000 -0.0000
                                           -0.0000  0.0000  0.0000  0.0000  0.0000
                                            0.0000  0.0000 -0.0000 -0.0000
    14. (2.00000) CR ( 6)Br   3           s(  0.00%)p 1.00(100.00%)
                                            0.0000  0.0000 -0.0000 -0.0000  0.0000
                                           -0.0000 -0.0000  0.0000 -0.0000 -0.0000
                                           -0.0000 -0.0000  0.0000  1.0000  0.0000
                                            0.0000 -0.0000  0.0000 -0.0000  0.0000
                                            0.0000  0.0000  0.0000  0.0000  0.0000
                                            0.0000 -0.0000  0.0000  0.0000  0.0000
                                            0.0000  0.0000  0.0000  0.0000  0.0000
                                            0.0000  0.0000 -0.0000 -0.0000 -0.0000
                                            0.0000 -0.0000 -0.0000  0.0000 -0.0000
                                            0.0000  0.0000  0.0000  0.0000 -0.0000
                                            0.0000  0.0000  0.0000  0.0000  0.0000
                                            0.0000  0.0000 -0.0000 -0.0000
    15. (1.99988) CR ( 7)Br   3           s(  0.00%)p 1.00(100.00%)
                                           -0.0000 -0.0000  0.0000  0.0002 -0.0000
                                            0.0000  0.0000 -0.0000  0.0000  0.0001
                                            0.0000  0.0000 -0.0000  0.0000  1.0000
                                           -0.0001  0.0000 -0.0000 -0.0000  0.0000
                                            0.0000  0.0000  0.0000  0.0000  0.0000
                                           -0.0000  0.0000 -0.0000 -0.0000  0.0000
                                            0.0000  0.0000  0.0000  0.0000  0.0000
                                            0.0000  0.0000  0.0000  0.0000  0.0000
                                           -0.0000  0.0000  0.0000 -0.0000  0.0000
                                            0.0000  0.0000 -0.0000 -0.0000  0.0000
                                           -0.0000  0.0000  0.0000  0.0000  0.0000
                                           -0.0000 -0.0000  0.0000  0.0000
    16. (2.00000) CR ( 8)Br   3           s(  0.00%)p 1.00(100.00%)
                                            0.0000  0.0000  0.0000  0.0000  0.0000
                                            0.0000  0.0000  0.0000  0.0000  0.0000
                                            0.0000  0.0000  0.0000  0.0000  0.0000
                                            0.0000  0.0000  0.0000  0.0000  1.0000
                                            0.0000  0.0000  0.0000  0.0000 -0.0000
                                            0.0000  0.0000  0.0000  0.0000 -0.0000
                                            0.0000 -0.0000 -0.0000 -0.0000  0.0000
                                           -0.0000 -0.0000  0.0000  0.0000  0.0000
                                            0.0000  0.0000  0.0000  0.0000  0.0000
                                           -0.0000 -0.0000  0.0000  0.0000  0.0000
                                            0.0000 -0.0000 -0.0000  0.0000  0.0000
                                            0.0000  0.0000  0.0000  0.0000
    17. (1.99999) CR ( 9)Br   3           s(  0.00%)p 1.00(100.00%)
                                            0.0000  0.0000  0.0000  0.0000  0.0000
                                            0.0000  0.0000  0.0000  0.0000  0.0000
                                            0.0000  0.0000  0.0000  0.0000  0.0000
                                            0.0000  0.0000  0.0000  0.0000  0.0000
                                            1.0000 -0.0003 -0.0000 -0.0000  0.0000
                                            0.0000  0.0000  0.0000  0.0000  0.0000
                                           -0.0000  0.0000  0.0000  0.0000 -0.0000
                                            0.0000  0.0000  0.0000  0.0000  0.0000
                                            0.0000  0.0000  0.0000  0.0000  0.0000
                                            0.0000  0.0000  0.0000  0.0000  0.0000
                                            0.0000  0.0000  0.0000 -0.0000 -0.0000
                                            0.0000  0.0000  0.0000  0.0000
    18. (1.99764) CR (10)Br   3           s(  0.00%)p 0.00(  0.00%)d 1.00(100.00%)
                                           -0.0000 -0.0000  0.0000  0.0000  0.0000
                                            0.0000  0.0000 -0.0000  0.0000  0.0000
                                            0.0000  0.0000 -0.0000  0.0000 -0.0000
                                           -0.0000  0.0000 -0.0000  0.0000  0.0000
                                            0.0000  0.0000  0.0000  0.0000  0.0000
                                            1.0000  0.0000 -0.0000 -0.0000  0.0000
                                            0.0000  0.0000  0.0000  0.0000  0.0000
                                            0.0000  0.0000  0.0000  0.0000  0.0000
                                           -0.0000  0.0000  0.0000 -0.0000  0.0000
                                            0.0000  0.0000 -0.0000 -0.0000  0.0000
                                           -0.0000  0.0000  0.0000  0.0000  0.0000
                                           -0.0000 -0.0000  0.0000  0.0000
    19. (1.99768) CR (11)Br   3           s(  0.00%)p 0.00(  0.00%)d 1.00(100.00%)
                                            0.0000  0.0000  0.0000  0.0000  0.0000
                                            0.0000  0.0000  0.0000  0.0000  0.0000
                                            0.0000  0.0000  0.0000  0.0000  0.0000
                                            0.0000  0.0000  0.0000  0.0000 -0.0000
                                            0.0000  0.0000  0.0000  0.0000 -0.0000
                                            0.0000  0.0000  0.0000  0.0000  1.0000
                                            0.0000 -0.0000 -0.0000 -0.0000  0.0000
                                           -0.0000 -0.0000  0.0000  0.0000  0.0000
                                            0.0000  0.0000  0.0000  0.0000  0.0000
                                           -0.0000 -0.0000  0.0000  0.0000  0.0000
                                            0.0000 -0.0000 -0.0000  0.0000  0.0000
                                            0.0000  0.0000  0.0000  0.0000
    20. (1.99766) CR (12)Br   3           s(  0.00%)p 0.00(  0.00%)d 1.00(100.00%)
                                            0.0000  0.0000  0.0000  0.0000  0.0000
                                            0.0000  0.0000  0.0000  0.0000  0.0000
                                            0.0000  0.0000  0.0000  0.0000  0.0000
                                            0.0000  0.0000  0.0000  0.0000 -0.0000
                                            0.0000  0.0000  0.0000  0.0000 -0.0000
                                            0.0000  0.0000  0.0000  0.0000 -0.0000
                                            0.0000 -0.0000 -0.0000  1.0000  0.0000
                                           -0.0000 -0.0000  0.0000  0.0000  0.0000
                                            0.0000  0.0000  0.0000  0.0000  0.0000
                                           -0.0000 -0.0000  0.0000  0.0000  0.0000
                                            0.0000 -0.0000 -0.0000  0.0000  0.0000
                                            0.0000  0.0000  0.0000  0.0000
    21. (1.99761) CR (13)Br   3           s(  0.00%)p 0.00(  0.00%)d 1.00(100.00%)
                                            0.0000  0.0000 -0.0000 -0.0000  0.0000
                                           -0.0000 -0.0000 -0.0000  0.0000  0.0000
                                            0.0000  0.0000  0.0000 -0.0000  0.0000
                                            0.0000 -0.0000  0.0000  0.0000  0.0000
                                            0.0000  0.0000  0.0000  0.0000  0.0000
                                            0.0000  0.0000 -0.0000 -0.0000  0.0000
                                            0.0000  0.0000  0.0000  0.0000  0.0000
                                            0.0000  0.0000  1.0000 -0.0000 -0.0000
                                           -0.0000 -0.0000 -0.0000  0.0000 -0.0000
                                            0.0000  0.0000 -0.0000 -0.0000 -0.0000
                                            0.0000  0.0000  0.0000  0.0000  0.0000
                                           -0.0000 -0.0000  0.0000  0.0000
    22. (1.99765) CR (14)Br   3           s(  0.00%)p 0.00(  0.00%)d 1.00(100.00%)
                                            0.0000  0.0000 -0.0000 -0.0000  0.0000
                                           -0.0000 -0.0000 -0.0000  0.0000  0.0000
                                           -0.0000  0.0000  0.0000 -0.0000  0.0000
                                            0.0000 -0.0000  0.0000  0.0000  0.0000
                                            0.0000  0.0000  0.0000  0.0000  0.0000
                                            0.0000  0.0000 -0.0000  0.0000  0.0000
                                            0.0000  0.0000  0.0000  0.0000  0.0000
                                            0.0000  0.0000 -0.0000 -0.0000 -0.0000
                                           -0.0000  1.0000 -0.0000  0.0000 -0.0000
                                            0.0000  0.0000 -0.0000 -0.0000 -0.0000
                                            0.0000  0.0000  0.0000  0.0000  0.0000
                                            0.0000  0.0000 -0.0000  0.0000
    23. (1.96603) LP ( 1) O   1           s( 63.79%)p 0.57( 36.12%)d 0.00(  0.08%)
                                                  f 0.00(  0.00%)
                                            0.0002  0.7986  0.0103 -0.0083 -0.0015
                                           -0.2480 -0.0011 -0.0043 -0.0019  0.5473
                                            0.0079  0.0055  0.0016  0.0000  0.0000
                                            0.0000  0.0000  0.0219  0.0023 -0.0030
                                            0.0000  0.0000  0.0000  0.0000  0.0000
                                            0.0000  0.0136  0.0005 -0.0035  0.0102
                                            0.0008  0.0010  0.0000  0.0000 -0.0001
                                            0.0005 -0.0024  0.0000  0.0000  0.0000
                                            0.0000  0.0000  0.0035 -0.0024  0.0040
                                           -0.0014
    24. (1.95121) LP ( 2) O   1           s(  0.00%)p 1.00( 99.82%)d 0.00(  0.17%)
                                                  f 0.00(  0.01%)
                                            0.0000  0.0000  0.0000  0.0000  0.0000
                                            0.0000  0.0000  0.0000  0.0000  0.0000
                                            0.0000  0.0000  0.0000  0.9989  0.0172
                                            0.0055  0.0085  0.0000  0.0000  0.0000
                                            0.0314  0.0049 -0.0010 -0.0230  0.0039
                                            0.0111  0.0000  0.0000  0.0000  0.0000
                                            0.0000  0.0000 -0.0097  0.0006  0.0000
                                            0.0000  0.0000  0.0000  0.0057 -0.0021
                                            0.0007  0.0011  0.0000  0.0000  0.0000
                                            0.0000
    25. (1.97346) LP ( 1)Cl   2           s( 91.33%)p 0.09(  8.65%)d 0.00(  0.02%)
                                                  f 0.00(  0.00%)
                                            0.0000  0.0002  0.9556  0.0067  0.0012
                                            0.0004  0.0001  0.2918 -0.0063 -0.0032
                                            0.0013  0.0000 -0.0356  0.0011  0.0000
                                           -0.0005  0.0000  0.0000  0.0000  0.0000
                                            0.0000 -0.0002 -0.0004 -0.0004  0.0000
                                            0.0000  0.0000  0.0000  0.0000  0.0000
                                           -0.0125  0.0004  0.0003  0.0079  0.0005
                                            0.0003  0.0000  0.0000 -0.0022 -0.0003
                                            0.0001 -0.0000  0.0000  0.0000  0.0000
                                            0.0000  0.0036 -0.0001 -0.0004  0.0002
    26. (1.95582) LP ( 2)Cl   2           s(  0.00%)p 1.00( 99.94%)d 0.00(  0.05%)
                                                  f 0.00(  0.01%)
                                            0.0000  0.0000  0.0000  0.0000  0.0000
                                            0.0000  0.0000  0.0000  0.0000  0.0000
                                            0.0000  0.0000  0.0000  0.0000  0.0000
                                            0.0000 -0.0002  0.9996  0.0153  0.0052
                                           -0.0023  0.0000  0.0000  0.0000  0.0089
                                            0.0185  0.0081  0.0030  0.0025  0.0005
                                            0.0000  0.0000  0.0000  0.0000  0.0000
                                            0.0000 -0.0055  0.0012  0.0000  0.0000
                                            0.0000  0.0000  0.0065 -0.0010  0.0008
                                           -0.0007  0.0000  0.0000  0.0000  0.0000
    27. (1.95440) LP ( 3)Cl   2           s(  0.15%)p99.99( 99.80%)d 0.28(  0.04%)
                                                  f 0.06(  0.01%)
                                            0.0000 -0.0000  0.0377  0.0055  0.0039
                                           -0.0020  0.0000 -0.0022 -0.0002 -0.0002
                                           -0.0006 -0.0002  0.9989  0.0133  0.0015
                                            0.0003  0.0000  0.0000  0.0000  0.0000
                                            0.0000  0.0004  0.0163  0.0078  0.0000
                                            0.0000  0.0000  0.0000  0.0000  0.0000
                                           -0.0069 -0.0044 -0.0027 -0.0005 -0.0024
                                           -0.0002  0.0000  0.0000  0.0001  0.0003
                                           -0.0024  0.0003  0.0000  0.0000  0.0000
                                            0.0000 -0.0012  0.0002  0.0085 -0.0015
    28. (1.97725) LP ( 1)Br   3           s( 89.25%)p 0.12( 10.75%)d 0.00(  0.00%)
                                                  f 0.00(  0.00%)
                                           -0.0000 -0.0000  0.0003  0.9447 -0.0002
                                            0.0014  0.0007  0.0000 -0.0000 -0.0839
                                            0.0003 -0.0002 -0.0001  0.0000 -0.0002
                                           -0.3169  0.0024 -0.0005 -0.0001  0.0000
                                            0.0000  0.0000  0.0000  0.0000  0.0000
                                           -0.0000 -0.0009  0.0001 -0.0003  0.0000
                                            0.0000  0.0000  0.0000  0.0000  0.0000
                                            0.0000  0.0000  0.0001  0.0016  0.0000
                                            0.0003  0.0000  0.0013 -0.0001  0.0004
                                            0.0000  0.0000  0.0000  0.0000  0.0000
                                           -0.0000  0.0000  0.0000  0.0000  0.0000
                                            0.0001 -0.0000  0.0000 -0.0001
    29. (1.95415) LP ( 2)Br   3           s(  0.00%)p 1.00( 99.99%)d 0.00(  0.01%)
                                                  f 0.00(  0.00%)
                                            0.0000  0.0000  0.0000  0.0000  0.0000
                                            0.0000  0.0000  0.0000  0.0000  0.0000
                                            0.0000  0.0000  0.0000  0.0000  0.0000
                                            0.0000  0.0000  0.0000  0.0000 -0.0000
                                            0.0003  0.9999  0.0042  0.0022 -0.0004
                                            0.0000  0.0000  0.0000  0.0000 -0.0000
                                            0.0020 -0.0001 -0.0007 -0.0000  0.0097
                                           -0.0015 -0.0021  0.0000  0.0000  0.0000
                                            0.0000  0.0000  0.0000  0.0000  0.0000
                                           -0.0027 -0.0013  0.0000  0.0000  0.0000
                                            0.0000 -0.0030 -0.0013  0.0015  0.0007
                                            0.0000  0.0000  0.0000  0.0000
    30. (1.95380) LP ( 3)Br   3           s(  0.01%)p 1.00( 99.98%)d 0.00(  0.01%)
                                                  f 0.00(  0.00%)
                                           -0.0000 -0.0000 -0.0000  0.0077  0.0004
                                           -0.0003 -0.0008 -0.0000  0.0003  0.9720
                                            0.0041  0.0019 -0.0005  0.0000 -0.0001
                                           -0.2343 -0.0010 -0.0007  0.0002  0.0000
                                            0.0000  0.0000  0.0000  0.0000  0.0000
                                           -0.0000  0.0098 -0.0012 -0.0020  0.0000
                                            0.0000  0.0000  0.0000  0.0000  0.0000
                                            0.0000  0.0000 -0.0000  0.0037  0.0001
                                           -0.0018  0.0000  0.0002 -0.0001  0.0001
                                            0.0000  0.0000 -0.0011 -0.0005  0.0002
                                            0.0000  0.0000  0.0000  0.0000  0.0000
                                           -0.0032 -0.0013  0.0024  0.0010
    31. (1.78487) LP ( 4)Br   3           s( 10.74%)p 8.30( 89.16%)d 0.01(  0.09%)
                                                  f 0.00(  0.01%)
                                           -0.0000  0.0000 -0.0000  0.3277  0.0008
                                           -0.0046 -0.0022  0.0000  0.0000  0.2188
                                           -0.0016 -0.0007  0.0002  0.0000  0.0000
                                            0.9185 -0.0088 -0.0050  0.0009  0.0000
                                            0.0000  0.0000  0.0000  0.0000  0.0000
                                            0.0000  0.0113 -0.0023 -0.0000  0.0000
                                            0.0000  0.0000  0.0000  0.0000  0.0000
                                            0.0000  0.0000  0.0000 -0.0223  0.0042
                                            0.0014 -0.0000 -0.0155  0.0032 -0.0004
                                            0.0000  0.0000 -0.0015 -0.0008 -0.0061
                                           -0.0028  0.0000  0.0000  0.0000  0.0000
                                           -0.0049 -0.0020 -0.0059 -0.0021
    32. (0.02058) RY*( 1) O   1           s(  0.00%)p 1.00( 98.85%)d 0.01(  1.10%)
                                                  f 0.00(  0.05%)
                                            0.0000  0.0000  0.0000  0.0000  0.0000
                                            0.0000  0.0000  0.0000  0.0000  0.0000
                                            0.0000  0.0000  0.0000 -0.0212  0.9933
                                           -0.0341 -0.0123  0.0000  0.0000  0.0000
                                            0.0782  0.0272  0.0086 -0.0626 -0.0001
                                            0.0134  0.0000  0.0000  0.0000  0.0000
                                            0.0000  0.0000 -0.0130  0.0109  0.0000
                                            0.0000  0.0000  0.0000  0.0105 -0.0095
                                           -0.0020  0.0011  0.0000  0.0000  0.0000
                                            0.0000
    33. (0.01694) RY*( 2) O   1           s( 29.34%)p 2.34( 68.68%)d 0.06(  1.81%)
                                                  f 0.01(  0.17%)
                                           -0.0000  0.0053  0.5410  0.0260 -0.0101
                                            0.0350 -0.3368 -0.0095  0.0241 -0.0197
                                            0.7530 -0.0023 -0.0637  0.0000  0.0000
                                            0.0000  0.0000  0.1180  0.0290  0.0114
                                            0.0000  0.0000  0.0000  0.0000  0.0000
                                            0.0000  0.0250  0.0070  0.0076  0.0492
                                            0.0050 -0.0030  0.0000  0.0000 -0.0034
                                            0.0002  0.0028  0.0029  0.0000  0.0000
                                            0.0000  0.0000  0.0303 -0.0133  0.0212
                                           -0.0108
    34. (0.00833) RY*( 3) O   1           s( 21.38%)p 0.76( 16.33%)d 2.87( 61.31%)
                                                  f 0.05(  0.98%)
                                            0.0000  0.0139  0.4544  0.0825  0.0184
                                           -0.0159 -0.2015  0.0084  0.0545 -0.0097
                                           -0.3328  0.0289 -0.0878 -0.0000 -0.0000
                                           -0.0000 -0.0000 -0.7180 -0.0122 -0.0222
                                           -0.0000 -0.0000 -0.0000 -0.0000 -0.0000
                                           -0.0000  0.1970  0.0004  0.0292  0.2387
                                           -0.0123  0.0059 -0.0000 -0.0000 -0.0203
                                            0.0138  0.0035  0.0021 -0.0000 -0.0000
                                           -0.0000 -0.0000 -0.0240  0.0106 -0.0847
                                            0.0366
    35. (0.00706) RY*( 4) O   1           s(  0.00%)p 1.00(  0.33%)d99.99( 97.88%)
                                                  f 5.46(  1.79%)
                                            0.0000  0.0000  0.0000  0.0000  0.0000
                                            0.0000  0.0000  0.0000  0.0000  0.0000
[...]
                                           -0.0000 -0.0000 -0.0000 -0.0000  0.0121
                                           -0.1245  0.1529 -0.0633
   162. (0.00034) RY*( 8) H   4           s( 20.70%)p 2.45( 50.60%)d 1.39( 28.70%)
                                           -0.0043  0.0136  0.3051  0.3371 -0.0804
                                            0.4535 -0.1627  0.0647 -0.2614  0.4415
                                           -0.0000 -0.0000 -0.0000 -0.4628  0.1377
                                           -0.0000 -0.0000 -0.0000 -0.0000  0.0170
                                           -0.1432  0.1429 -0.1125
   163. (0.00030) RY*( 9) H   4           s(  0.00%)p 1.00( 91.50%)d 0.09(  8.50%)
                                            0.0000  0.0000  0.0000  0.0000  0.0000
                                            0.0000  0.0000  0.0000  0.0000  0.0000
                                           -0.1011  0.9396  0.1483  0.0000  0.0000
                                           -0.0771  0.1050  0.1569  0.2083  0.0000
                                            0.0000  0.0000  0.0000
   164. (0.00027) RY*(10) H   4           s(  1.12%)p12.61( 14.09%)d75.92( 84.80%)
                                            0.0091  0.0415  0.0134  0.0958 -0.0820
                                           -0.0150 -0.1440  0.0129 -0.0566 -0.3313
                                            0.0000  0.0000  0.0000 -0.3847  0.0048
                                            0.0000  0.0000  0.0000  0.0000  0.5553
                                            0.0617 -0.5769  0.2344
   165. (0.00026) RY*(11) H   4           s(  0.00%)p 1.00(  1.01%)d98.18( 98.99%)
                                            0.0000  0.0000  0.0000  0.0000  0.0000
                                            0.0000  0.0000  0.0000  0.0000  0.0000
                                           -0.0104  0.0922  0.0384  0.0000  0.0000
                                            0.9654 -0.2192 -0.0689  0.0715  0.0000
                                            0.0000  0.0000  0.0000
   166. (0.00022) RY*(12) H   4           s( 14.56%)p 1.32( 19.17%)d 4.55( 66.27%)
                                            0.0136  0.0242  0.0847  0.3710  0.0792
                                            0.0501  0.1013  0.0001 -0.2251 -0.3493
                                            0.0000  0.0000  0.0000  0.2412 -0.0390
                                            0.0000  0.0000  0.0000  0.0000  0.4802
                                            0.1953  0.5780  0.0141
   167. (0.00021) RY*(13) H   4           s(  8.60%)p 2.83( 24.32%)d 7.80( 67.08%)
                                           -0.0090 -0.0396  0.1687  0.2365  0.0663
                                           -0.0392  0.2478  0.0050  0.1136  0.4036
                                            0.0000  0.0000  0.0000  0.5364  0.2285
                                            0.0000  0.0000  0.0000  0.0000  0.3588
                                           -0.2089 -0.3678 -0.1527
   168. (0.00014) RY*(14) H   4           s( 72.06%)p 0.22( 15.93%)d 0.17( 12.01%)
                                           -0.0051 -0.0758 -0.4364  0.7241 -0.0023
                                            0.1643 -0.0835  0.0231  0.3337 -0.1158
                                            0.0000  0.0000  0.0000  0.0375 -0.1641
                                            0.0000  0.0000  0.0000  0.0000 -0.2725
                                           -0.0233 -0.1297  0.0138
   169. (0.00011) RY*(15) H   4           s(  0.00%)p 1.00( 32.39%)d 2.09( 67.61%)
                                            0.0000  0.0000  0.0000  0.0000  0.0000
                                            0.0000  0.0000  0.0000  0.0000  0.0000
                                           -0.0388 -0.1783  0.5390  0.0000  0.0000
                                           -0.0490  0.1658 -0.4685  0.6532  0.0000
                                            0.0000  0.0000  0.0000
   170. (0.00009) RY*(16) H   4           s( 18.63%)p 1.53( 28.50%)d 2.84( 52.87%)
   171. (0.00009) RY*(17) H   4           s(  6.20%)p 5.92( 36.72%)d 9.21( 57.08%)
   172. (0.00006) RY*(18) H   4           s(  0.00%)p 1.00( 38.63%)d 1.59( 61.37%)
   173. (0.00004) RY*(19) H   4           s( 11.57%)p 4.27( 49.40%)d 3.37( 39.03%)
   174. (0.00004) RY*(20) H   4           s(  4.05%)p 4.13( 16.70%)d19.59( 79.25%)
   175. (0.00005) RY*(21) H   4           s(  0.00%)p 1.00(  0.04%)d99.99( 99.96%)
   176. (0.00004) RY*(22) H   4           s(  3.34%)p 0.68(  2.29%)d28.24( 94.37%)
   177. (0.05863) BD*( 1) O   1 -Cl   2  
                ( 41.57%)   0.6447* O   1 s( 10.43%)p 8.54( 89.05%)d 0.05(  0.51%)
                                                  f 0.00(  0.02%)
                                           -0.0003 -0.3191  0.0467 -0.0158  0.0005
                                           -0.9417  0.0364  0.0105  0.0132  0.0373
                                            0.0263  0.0048 -0.0006 -0.0000 -0.0000
                                           -0.0000 -0.0000  0.0195  0.0017 -0.0020
                                           -0.0000 -0.0000 -0.0000 -0.0000 -0.0000
                                           -0.0000 -0.0543 -0.0043 -0.0024  0.0417
                                            0.0034 -0.0005 -0.0000 -0.0000  0.0111
                                           -0.0012  0.0001 -0.0002 -0.0000 -0.0000
                                           -0.0000 -0.0000 -0.0066 -0.0010  0.0007
                                           -0.0017
                ( 58.43%)  -0.7644*Cl   2 s(  8.79%)p10.23( 89.95%)d 0.13(  1.13%)
                                                  f 0.01(  0.12%)
                                            0.0000 -0.0005 -0.2911  0.0555  0.0100
                                            0.0027  0.0004  0.9460 -0.0649 -0.0139
                                            0.0042  0.0000  0.0122  0.0020 -0.0030
                                            0.0012 -0.0000 -0.0000 -0.0000 -0.0000
                                           -0.0000 -0.0131  0.0001 -0.0004 -0.0000
                                           -0.0000 -0.0000 -0.0000 -0.0000 -0.0000
                                           -0.0885  0.0112  0.0009  0.0563 -0.0067
                                           -0.0015 -0.0000 -0.0000 -0.0215  0.0031
                                           -0.0006  0.0002 -0.0000 -0.0000 -0.0000
                                           -0.0000  0.0262 -0.0029  0.0018 -0.0003
   178. (0.19172) BD*( 1) O   1 - H   4  
                ( 18.71%)   0.4326* O   1 s( 25.97%)p 2.83( 73.61%)d 0.02(  0.42%)
                                                  f 0.00(  0.01%)
                                            0.0002  0.5095 -0.0030  0.0082  0.0024
                                           -0.2036  0.0145  0.0028  0.0044 -0.8332
                                           -0.0026  0.0049  0.0043 -0.0000 -0.0000
                                           -0.0000 -0.0000 -0.0040 -0.0025 -0.0005
                                           -0.0000 -0.0000 -0.0000 -0.0000 -0.0000
                                           -0.0000 -0.0551 -0.0064 -0.0004 -0.0327
                                           -0.0018  0.0038 -0.0000 -0.0000  0.0018
                                            0.0005  0.0091 -0.0003 -0.0000 -0.0000
                                           -0.0000 -0.0000  0.0023  0.0019 -0.0002
                                            0.0010
                ( 81.29%)  -0.9016* H   4 s( 99.79%)p 0.00(  0.21%)d 0.00(  0.01%)
                                            0.9979  0.0451  0.0102 -0.0013  0.0092
                                            0.0123 -0.0018 -0.0169  0.0369  0.0131
                                           -0.0000 -0.0000 -0.0000  0.0002  0.0002
                                           -0.0000 -0.0000 -0.0000 -0.0000 -0.0046
                                           -0.0032 -0.0008 -0.0054


 NHO Directionality and "Bond Bending" (deviations from line of nuclear centers)

         [Thresholds for printing:  angular deviation  >  1.0 degree]
                                    hybrid p-character > 25.0%
                                    orbital occupancy  >  0.10e

                                Line of Centers        Hybrid 1              Hybrid 2
                                ---------------  -------------------   ------------------
                NBO               Theta   Phi    Theta   Phi    Dev    Theta   Phi    Dev
 ========================================================================================
     1. BD (   1) O   1 -Cl   2    90.0    0.0    90.0  355.6   4.4      --     --    --
     2. BD (   1) O   1 - H   4    90.0  256.6    90.0  257.6   1.0      --     --    --
    23. LP (   1) O   1             --     --     90.0  114.4   --       --     --    --
    24. LP (   2) O   1             --     --      0.0    0.0   --       --     --    --
    26. LP (   2)Cl   2             --     --      0.0    0.0   --       --     --    --
    27. LP (   3)Cl   2             --     --     90.0   90.2   --       --     --    --
    29. LP (   2)Br   3             --     --      0.0    0.0   --       --     --    --
    30. LP (   3)Br   3             --     --     90.0  346.4   --       --     --    --
    31. LP (   4)Br   3             --     --     90.0   76.5   --       --     --    --
   178. BD*(   1) O   1 - H   4    90.0  256.6    90.0  257.6   1.0      --     --    --


 Natural Bond Orbitals (Summary):

           NBO                  Occupancy  
 -----------------------------------------------
 Molecular unit  1  (HOCl)
     1. BD (   1) O   1 -Cl   2          1.93842
     2. BD (   1) O   1 - H   4          1.96006
     3. CR (   1) O   1                  1.99974
     4. CR (   1)Cl   2                  2.00000
     5. CR (   2)Cl   2                  1.99977
     6. CR (   3)Cl   2                  1.99995
     7. CR (   4)Cl   2                  2.00003
     8. CR (   5)Cl   2                  2.00003
    23. LP (   1) O   1                  1.96603
    24. LP (   2) O   1                  1.95121
    25. LP (   1)Cl   2                  1.97346
    26. LP (   2)Cl   2                  1.95582
    27. LP (   3)Cl   2                  1.95440
    32. RY*(   1) O   1                  0.02058
    33. RY*(   2) O   1                  0.01694
    34. RY*(   3) O   1                  0.00833
    35. RY*(   4) O   1                  0.00706
    36. RY*(   5) O   1                  0.00656
    37. RY*(   6) O   1                  0.00625
    38. RY*(   7) O   1                  0.00575
    39. RY*(   8) O   1                  0.00400
    40. RY*(   9) O   1                  0.00244
    41. RY*(  10) O   1                  0.00077
    42. RY*(  11) O   1                  0.00065
    43. RY*(  12) O   1                  0.00064
    44. RY*(  13) O   1                  0.00060
    45. RY*(  14) O   1                  0.00052
    46. RY*(  15) O   1                  0.00052
    47. RY*(  16) O   1                  0.00048
    48. RY*(  17) O   1                  0.00048
    49. RY*(  18) O   1                  0.00048
    50. RY*(  19) O   1                  0.00046
    51. RY*(  20) O   1                  0.00045
    52. RY*(  21) O   1                  0.00046
    53. RY*(  22) O   1                  0.00043
    54. RY*(  23) O   1                  0.00038
    55. RY*(  24) O   1                  0.00033
    56. RY*(  25) O   1                  0.00026
    57. RY*(  26) O   1                  0.00018
    58. RY*(  27) O   1                  0.00013
    59. RY*(  28) O   1                  0.00013
    60. RY*(  29) O   1                  0.00013
    61. RY*(  30) O   1                  0.00009
    62. RY*(  31) O   1                  0.00008
    63. RY*(  32) O   1                  0.00009
    64. RY*(  33) O   1                  0.00008
    65. RY*(  34) O   1                  0.00008
    66. RY*(  35) O   1                  0.00007
    67. RY*(  36) O   1                  0.00007
    68. RY*(  37) O   1                  0.00006
    69. RY*(  38) O   1                  0.00006
    70. RY*(  39) O   1                  0.00004
    71. RY*(  40) O   1                  0.00003
    72. RY*(  41) O   1                 -0.00005
    73. RY*(   1)Cl   2                  0.02311
    74. RY*(   2)Cl   2                  0.01820
    75. RY*(   3)Cl   2                  0.01683
    76. RY*(   4)Cl   2                  0.01683
    77. RY*(   5)Cl   2                  0.01189
    78. RY*(   6)Cl   2                  0.00942
    79. RY*(   7)Cl   2                  0.00917
    80. RY*(   8)Cl   2                  0.00641
    81. RY*(   9)Cl   2                  0.00174
    82. RY*(  10)Cl   2                  0.00127
    83. RY*(  11)Cl   2                  0.00127
    84. RY*(  12)Cl   2                  0.00120
    85. RY*(  13)Cl   2                  0.00120
    86. RY*(  14)Cl   2                  0.00117
    87. RY*(  15)Cl   2                  0.00111
    88. RY*(  16)Cl   2                  0.00096
    89. RY*(  17)Cl   2                  0.00078
    90. RY*(  18)Cl   2                  0.00076
    91. RY*(  19)Cl   2                  0.00065
    92. RY*(  20)Cl   2                  0.00058
    93. RY*(  21)Cl   2                  0.00045
    94. RY*(  22)Cl   2                  0.00038
    95. RY*(  23)Cl   2                  0.00036
    96. RY*(  24)Cl   2                  0.00031
    97. RY*(  25)Cl   2                  0.00018
    98. RY*(  26)Cl   2                  0.00016
    99. RY*(  27)Cl   2                  0.00016
   100. RY*(  28)Cl   2                  0.00013
   101. RY*(  29)Cl   2                  0.00013
   102. RY*(  30)Cl   2                  0.00013
   103. RY*(  31)Cl   2                  0.00011
   104. RY*(  32)Cl   2                  0.00011
   105. RY*(  33)Cl   2                  0.00010
   106. RY*(  34)Cl   2                  0.00009
   107. RY*(  35)Cl   2                  0.00010
   108. RY*(  36)Cl   2                  0.00010
   109. RY*(  37)Cl   2                  0.00008
   110. RY*(  38)Cl   2                  0.00004
   111. RY*(  39)Cl   2                  0.00004
   112. RY*(  40)Cl   2                  0.00003
   113. RY*(  41)Cl   2                 -0.00000
   155. RY*(   1) H   4                  0.00985
   156. RY*(   2) H   4                  0.00577
   157. RY*(   3) H   4                  0.00474
   158. RY*(   4) H   4                  0.00401
   159. RY*(   5) H   4                  0.00125
   160. RY*(   6) H   4                  0.00063
   161. RY*(   7) H   4                  0.00043
   162. RY*(   8) H   4                  0.00034
   163. RY*(   9) H   4                  0.00030
   164. RY*(  10) H   4                  0.00027
   165. RY*(  11) H   4                  0.00026
   166. RY*(  12) H   4                  0.00022
   167. RY*(  13) H   4                  0.00021
   168. RY*(  14) H   4                  0.00014
   169. RY*(  15) H   4                  0.00011
   170. RY*(  16) H   4                  0.00009
   171. RY*(  17) H   4                  0.00009
   172. RY*(  18) H   4                  0.00006
   173. RY*(  19) H   4                  0.00004
   174. RY*(  20) H   4                  0.00004
   175. RY*(  21) H   4                  0.00005
   176. RY*(  22) H   4                  0.00004
   177. BD*(   1) O   1 -Cl   2          0.05863
   178. BD*(   1) O   1 - H   4          0.19172
       -------------------------------
              Total Lewis   25.69892  ( 98.1136%)
        Valence non-Lewis    0.25035  (  0.9558%)
        Rydberg non-Lewis    0.24376  (  0.9306%)
       -------------------------------
            Total unit  1   26.19302  (100.0000%)
           Charge unit  1   -0.19302

 Molecular unit  2  (Br)
     9. CR (   1)Br   3                  2.00000
    10. CR (   2)Br   3                  2.00000
    11. CR (   3)Br   3                  1.99971
    12. CR (   4)Br   3                  2.00000
    13. CR (   5)Br   3                  1.99998
    14. CR (   6)Br   3                  2.00000
    15. CR (   7)Br   3                  1.99988
    16. CR (   8)Br   3                  2.00000
    17. CR (   9)Br   3                  1.99999
    18. CR (  10)Br   3                  1.99764
    19. CR (  11)Br   3                  1.99768
    20. CR (  12)Br   3                  1.99766
    21. CR (  13)Br   3                  1.99761
    22. CR (  14)Br   3                  1.99765
    28. LP (   1)Br   3                  1.97725
    29. LP (   2)Br   3                  1.95415
    30. LP (   3)Br   3                  1.95380
    31. LP (   4)Br   3                  1.78487
   114. RY*(   1)Br   3                  0.01860
   115. RY*(   2)Br   3                  0.01853
   116. RY*(   3)Br   3                  0.01852
   117. RY*(   4)Br   3                  0.01849
   118. RY*(   5)Br   3                  0.01770
   119. RY*(   6)Br   3                  0.01087
   120. RY*(   7)Br   3                  0.01080
   121. RY*(   8)Br   3                  0.00857
   122. RY*(   9)Br   3                  0.00198
   123. RY*(  10)Br   3                  0.00177
   124. RY*(  11)Br   3                  0.00176
   125. RY*(  12)Br   3                  0.00174
   126. RY*(  13)Br   3                  0.00175
   127. RY*(  14)Br   3                  0.00173
   128. RY*(  15)Br   3                  0.00173
   129. RY*(  16)Br   3                  0.00173
   130. RY*(  17)Br   3                  0.00173
   131. RY*(  18)Br   3                  0.00173
   132. RY*(  19)Br   3                  0.00135
   133. RY*(  20)Br   3                  0.00131
   134. RY*(  21)Br   3                  0.00113
   135. RY*(  22)Br   3                  0.00078
   136. RY*(  23)Br   3                  0.00078
   137. RY*(  24)Br   3                  0.00068
   138. RY*(  25)Br   3                  0.00035
   139. RY*(  26)Br   3                  0.00030
   140. RY*(  27)Br   3                  0.00028
   141. RY*(  28)Br   3                  0.00024
   142. RY*(  29)Br   3                  0.00024
   143. RY*(  30)Br   3                  0.00025
   144. RY*(  31)Br   3                  0.00024
   145. RY*(  32)Br   3                  0.00024
   146. RY*(  33)Br   3                  0.00022
   147. RY*(  34)Br   3                  0.00021
   148. RY*(  35)Br   3                  0.00017
   149. RY*(  36)Br   3                  0.00014
   150. RY*(  37)Br   3                  0.00015
   151. RY*(  38)Br   3                  0.00011
   152. RY*(  39)Br   3                  0.00008
   153. RY*(  40)Br   3                  0.00008
   154. RY*(  41)Br   3                  0.00004
       -------------------------------
              Total Lewis   35.65788  ( 99.5836%)
        Valence non-Lewis    0.00000  (  0.0000%)
        Rydberg non-Lewis    0.14910  (  0.4164%)
       -------------------------------
            Total unit  2   35.80698  (100.0000%)
           Charge unit  2   -0.80698
 Leave Link  607 at Tue Oct 12 14:24:51 2021, MaxMem=  1048576000 cpu:         9.9
 (Enter /usr/local/gaussian/g09/l9999.exe)
 1\1\GINC-KRYPTON\SP\RMP2-FC\Aug-CC-pVTZ\Br1Cl1H1O1(1-)\CGAVINH\12-Oct-
 2021\0\\#p pop=NBO SP NoSymm mp2/aug-cc-pvtz density=current\\title\\-
 1,1\O\X,1,10.\Cl,1,1.68432554,2,90.\Br,1,3.07381752,2,90.,3,103.420351
 85,0\H,1,1.1,2,90.,3,103.42035185,0\\Version=ES64L-G09RevE.01\HF=-3107
 .4707944\MP2=-3108.1799741\RMSD=5.786e-09\Dipole=0.6876308,0.554862,0.
 \Quadrupole=6.6339464,-15.1369119,8.5029655,-5.933015,0.,0.\PG=CS [SG(
 Br1Cl1H1O1)]\\@


 Sacred cows make the best hamburger.
                               -- Mark Twain
 Job cpu time:       0 days  0 hours  2 minutes 34.4 seconds.
 File lengths (MBytes):  RWF=     14 Int=      0 D2E=      0 Chk=      4 Scr=      1
 Normal termination of Gaussian 09 at Tue Oct 12 14:24:51 2021.
