 Entering Gaussian System, Link 0=g09
 Input=brhocl_rOH_130_sp.gjf
 Output=brhocl_rOH_130_sp.log
 Initial command:
 /usr/local/gaussian/g09/l1.exe "/scratch/Gau-18467.inp" -scrdir="/scratch/"
 Entering Link 1 = /usr/local/gaussian/g09/l1.exe PID=     18468.
  
 Copyright (c) 1988,1990,1992,1993,1995,1998,2003,2009,2015,
            Gaussian, Inc.  All Rights Reserved.
  
 This is part of the Gaussian(R) 09 program.  It is based on
 the Gaussian(R) 03 system (copyright 2003, Gaussian, Inc.),
 the Gaussian(R) 98 system (copyright 1998, Gaussian, Inc.),
 the Gaussian(R) 94 system (copyright 1995, Gaussian, Inc.),
 the Gaussian 92(TM) system (copyright 1992, Gaussian, Inc.),
 the Gaussian 90(TM) system (copyright 1990, Gaussian, Inc.),
 the Gaussian 88(TM) system (copyright 1988, Gaussian, Inc.),
 the Gaussian 86(TM) system (copyright 1986, Carnegie Mellon
 University), and the Gaussian 82(TM) system (copyright 1983,
 Carnegie Mellon University). Gaussian is a federally registered
 trademark of Gaussian, Inc.
  
 This software contains proprietary and confidential information,
 including trade secrets, belonging to Gaussian, Inc.
  
 This software is provided under written license and may be
 used, copied, transmitted, or stored only in accord with that
 written license.
  
 The following legend is applicable only to US Government
 contracts under FAR:
  
                    RESTRICTED RIGHTS LEGEND
  
 Use, reproduction and disclosure by the US Government is
 subject to restrictions as set forth in subparagraphs (a)
 and (c) of the Commercial Computer Software - Restricted
 Rights clause in FAR 52.227-19.
  
 Gaussian, Inc.
 340 Quinnipiac St., Bldg. 40, Wallingford CT 06492
  
  
 ---------------------------------------------------------------
 Warning -- This program may not be used in any manner that
 competes with the business of Gaussian, Inc. or will provide
 assistance to any competitor of Gaussian, Inc.  The licensee
 of this program is prohibited from giving any competitor of
 Gaussian, Inc. access to this program.  By using this program,
 the user acknowledges that Gaussian, Inc. is engaged in the
 business of creating and licensing software in the field of
 computational chemistry and represents and warrants to the
 licensee that it is not a competitor of Gaussian, Inc. and that
 it will not use this program in any manner prohibited above.
 ---------------------------------------------------------------
  

 Cite this work as:
 Gaussian 09, Revision E.01,
 M. J. Frisch, G. W. Trucks, H. B. Schlegel, G. E. Scuseria, 
 M. A. Robb, J. R. Cheeseman, G. Scalmani, V. Barone, B. Mennucci, 
 G. A. Petersson, H. Nakatsuji, M. Caricato, X. Li, H. P. Hratchian, 
 A. F. Izmaylov, J. Bloino, G. Zheng, J. L. Sonnenberg, M. Hada, 
 M. Ehara, K. Toyota, R. Fukuda, J. Hasegawa, M. Ishida, T. Nakajima, 
 Y. Honda, O. Kitao, H. Nakai, T. Vreven, J. A. Montgomery, Jr., 
 J. E. Peralta, F. Ogliaro, M. Bearpark, J. J. Heyd, E. Brothers, 
 K. N. Kudin, V. N. Staroverov, T. Keith, R. Kobayashi, J. Normand, 
 K. Raghavachari, A. Rendell, J. C. Burant, S. S. Iyengar, J. Tomasi, 
 M. Cossi, N. Rega, J. M. Millam, M. Klene, J. E. Knox, J. B. Cross, 
 V. Bakken, C. Adamo, J. Jaramillo, R. Gomperts, R. E. Stratmann, 
 O. Yazyev, A. J. Austin, R. Cammi, C. Pomelli, J. W. Ochterski, 
 R. L. Martin, K. Morokuma, V. G. Zakrzewski, G. A. Voth, 
 P. Salvador, J. J. Dannenberg, S. Dapprich, A. D. Daniels, 
 O. Farkas, J. B. Foresman, J. V. Ortiz, J. Cioslowski, 
 and D. J. Fox, Gaussian, Inc., Wallingford CT, 2013.
 
 ******************************************
 Gaussian 09:  ES64L-G09RevE.01 30-Nov-2015
                12-Oct-2021 
 ******************************************
 %nproc=12
 Will use up to   12 processors via shared memory.
 %mem=8000MB
 %chk=/home/netid.washington.edu/cgavinh/mccoy_hocl/rOH_s_oop_0/brhocl/brhocl_rOH
 _130_sp.chk
 ----------------------------------------------------
 #p pop=NBO SP NoSymm mp2/aug-cc-pvtz density=current
 ----------------------------------------------------
 1/30=1,38=1/1;
 2/12=2,15=1,17=6,18=5,40=1/2;
 3/5=16,6=1,7=10,11=9,16=1,25=1,30=1,71=1/1,2,3;
 4//1;
 5/5=2,38=5/2;
 8/6=4,10=1/1;
 9/15=1,16=-3/6;
 10/5=1,13=10,31=1/2;
 6/7=2,8=2,9=2,10=2,22=-1,40=1/1,7;
 99/5=1,9=1/99;
 Leave Link    1 at Tue Oct 12 14:25:42 2021, MaxMem=  1048576000 cpu:         0.2
 (Enter /usr/local/gaussian/g09/l101.exe)
 -----
 title
 -----
 Symbolic Z-matrix:
 Charge = -1 Multiplicity = 1
 O
 X                    1     10. 
 Cl                   1    r1       2     90. 
 Br                   1    r2       2     90.      3    a1       0
 H                    1    r3       2    oop      3    a1       0
       Variables:
  r1                    1.68433                  
  r2                    3.07382                  
  r3                    1.3                      
  a1                  103.42035                  
  OOP                  90.                       
 
 NAtoms=      4 NQM=        4 NQMF=       0 NMMI=      0 NMMIF=      0
                NMic=       0 NMicF=      0.
                    Isotopes and Nuclear Properties:
 (Nuclear quadrupole moments (NQMom) in fm**2, nuclear magnetic moments (NMagM)
  in nuclear magnetons)

  Atom         1           2           3           4
 IAtWgt=          16          35          79           1
 AtmWgt=  15.9949146  34.9688527  78.9183361   1.0078250
 NucSpn=           0           3           3           1
 AtZEff=   0.0000000   0.0000000   0.0000000   0.0000000
 NQMom=    0.0000000  -8.1650000  31.3000000   0.0000000
 NMagM=    0.0000000   0.8218740   2.1063990   2.7928460
 AtZNuc=   8.0000000  17.0000000  35.0000000   1.0000000
 Leave Link  101 at Tue Oct 12 14:25:42 2021, MaxMem=  1048576000 cpu:         0.4
 (Enter /usr/local/gaussian/g09/l202.exe)
                          Input orientation:                          
 ---------------------------------------------------------------------
 Center     Atomic      Atomic             Coordinates (Angstroms)
 Number     Number       Type             X           Y           Z
 ---------------------------------------------------------------------
      1          8           0        0.000000    0.000000    0.000000
      2         17           0        1.684326    0.000000    0.000000
      3         35           0       -0.713413   -2.989882    0.000000
      4          1           0       -0.301721   -1.264502    0.000000
 ---------------------------------------------------------------------
                    Distance matrix (angstroms):
                    1          2          3          4
     1  O    0.000000
     2  Cl   1.684326   0.000000
     3  Br   3.073818   3.832564   0.000000
     4  H    1.300000   2.354431   1.773818   0.000000
 Symmetry turned off by external request.
 Stoichiometry    BrClHO(1-)
 Framework group  CS[SG(BrClHO)]
 Deg. of freedom     5
 Full point group                 CS      NOp   2
 Rotational constants (GHZ):     22.7730696      1.2815293      1.2132548
 Leave Link  202 at Tue Oct 12 14:25:42 2021, MaxMem=  1048576000 cpu:         0.0
 (Enter /usr/local/gaussian/g09/l301.exe)
 Standard basis: Aug-CC-pVTZ (5D, 7F)
 Ernie: Thresh=  0.10000D-02 Tol=  0.10000D-05 Strict=F.
 Ernie:  48 primitive shells out of 228 were deleted.
   178 basis functions,   430 primitive gaussians,   208 cartesian basis functions
    31 alpha electrons       31 beta electrons
       nuclear repulsion energy       190.6047140357 Hartrees.
 IExCor=    0 DFT=F Ex=HF Corr=None ExCW=0 ScaHFX=  1.000000
 ScaDFX=  1.000000  1.000000  1.000000  1.000000 ScalE2=  1.000000  1.000000
 IRadAn=      0 IRanWt=     -1 IRanGd=            0 ICorTp=0 IEmpDi=  4
 NAtoms=    4 NActive=    4 NUniq=    4 SFac= 1.00D+00 NAtFMM=   60 NAOKFM=F Big=F
 Integral buffers will be    131072 words long.
 Raffenetti 1 integral format.
 Two-electron integral symmetry is turned off.
 Leave Link  301 at Tue Oct 12 14:25:42 2021, MaxMem=  1048576000 cpu:         0.3
 (Enter /usr/local/gaussian/g09/l302.exe)
 NPDir=0 NMtPBC=     1 NCelOv=     1 NCel=       1 NClECP=     1 NCelD=      1
         NCelK=      1 NCelE2=     1 NClLst=     1 CellRange=     0.0.
 One-electron integrals computed using PRISM.
 NBasis=   178 RedAO= T EigKep=  3.27D-04  NBF=   178
 NBsUse=   178 1.00D-06 EigRej= -1.00D+00 NBFU=   178
 Leave Link  302 at Tue Oct 12 14:25:42 2021, MaxMem=  1048576000 cpu:         1.6
 (Enter /usr/local/gaussian/g09/l303.exe)
 DipDrv:  MaxL=1.
 Leave Link  303 at Tue Oct 12 14:25:42 2021, MaxMem=  1048576000 cpu:         0.2
 (Enter /usr/local/gaussian/g09/l401.exe)
 ExpMin= 2.53D-02 ExpMax= 1.06D+07 ExpMxC= 1.21D+04 IAcc=3 IRadAn=         5 AccDes= 0.00D+00
 Harris functional with IExCor=  205 and IRadAn=       5 diagonalized for initial guess.
 HarFok:  IExCor=  205 AccDes= 0.00D+00 IRadAn=         5 IDoV= 1 UseB2=F ITyADJ=14
 ICtDFT=  3500011 ScaDFX=  1.000000  1.000000  1.000000  1.000000
 FoFCou: FMM=F IPFlag=           0 FMFlag=      100000 FMFlg1=           0
         NFxFlg=           0 DoJE=T BraDBF=F KetDBF=T FulRan=T
         wScrn=  0.000000 ICntrl=     500 IOpCl=  0 I1Cent=   200000004 NGrid=           0
         NMat0=    1 NMatS0=      1 NMatT0=    0 NMatD0=    1 NMtDS0=    0 NMtDT0=    0
 Symmetry not used in FoFCou.
 Harris En= -3106.35367466551    
 JPrj=0 DoOrth=F DoCkMO=F.
 Leave Link  401 at Tue Oct 12 14:25:42 2021, MaxMem=  1048576000 cpu:         3.0
 (Enter /usr/local/gaussian/g09/l502.exe)
 Closed shell SCF:
 Using DIIS extrapolation, IDIIS=  1040.
 Two-electron integral symmetry not used.
 Keep R1 ints in memory in canonical form, NReq=131623000.
 IVT=      152094 IEndB=      152094 NGot=  1048576000 MDV=   921517561
 LenX=   921517561 LenY=   921473856
 Requested convergence on RMS density matrix=1.00D-08 within 128 cycles.
 Requested convergence on MAX density matrix=1.00D-06.
 Requested convergence on             energy=1.00D-06.
 No special actions if energy rises.
 FoFCou: FMM=F IPFlag=           0 FMFlag=           0 FMFlg1=           0
         NFxFlg=           0 DoJE=F BraDBF=F KetDBF=F FulRan=T
         wScrn=  0.000000 ICntrl=     600 IOpCl=  0 I1Cent=           0 NGrid=           0
         NMat0=    1 NMatS0=  15931 NMatT0=    0 NMatD0=    1 NMtDS0=    0 NMtDT0=    0
 Symmetry not used in FoFCou.

 Cycle   1  Pass 1  IDiag  1:
 E= -3107.29205856747    
 DIIS: error= 5.85D-02 at cycle   1 NSaved=   1.
 NSaved= 1 IEnMin= 1 EnMin= -3107.29205856747     IErMin= 1 ErrMin= 5.85D-02
 ErrMax= 5.85D-02  0.00D+00 EMaxC= 1.00D-01 BMatC= 6.47D-01 BMatP= 6.47D-01
 IDIUse=3 WtCom= 4.15D-01 WtEn= 5.85D-01
 Coeff-Com:  0.100D+01
 Coeff-En:   0.100D+01
 Coeff:      0.100D+01
 Gap=     0.544 Goal=   None    Shift=    0.000
 GapD=    0.544 DampG=2.000 DampE=0.500 DampFc=1.0000 IDamp=-1.
 RMSDP=3.14D-03 MaxDP=1.08D-01              OVMax= 1.32D-01

 Cycle   2  Pass 1  IDiag  1:
 E= -3107.41330665260     Delta-E=       -0.121248085128 Rises=F Damp=F
 DIIS: error= 1.63D-02 at cycle   2 NSaved=   2.
 NSaved= 2 IEnMin= 2 EnMin= -3107.41330665260     IErMin= 2 ErrMin= 1.63D-02
 ErrMax= 1.63D-02  0.00D+00 EMaxC= 1.00D-01 BMatC= 4.98D-02 BMatP= 6.47D-01
 IDIUse=3 WtCom= 8.37D-01 WtEn= 1.63D-01
 Coeff-Com:  0.146D+00 0.854D+00
 Coeff-En:   0.000D+00 0.100D+01
 Coeff:      0.122D+00 0.878D+00
 Gap=     0.390 Goal=   None    Shift=    0.000
 RMSDP=1.21D-03 MaxDP=4.24D-02 DE=-1.21D-01 OVMax= 7.85D-02

 Cycle   3  Pass 1  IDiag  1:
 E= -3107.43253534693     Delta-E=       -0.019228694331 Rises=F Damp=F
 DIIS: error= 9.23D-03 at cycle   3 NSaved=   3.
 NSaved= 3 IEnMin= 3 EnMin= -3107.43253534693     IErMin= 3 ErrMin= 9.23D-03
 ErrMax= 9.23D-03  0.00D+00 EMaxC= 1.00D-01 BMatC= 1.93D-02 BMatP= 4.98D-02
 IDIUse=3 WtCom= 9.08D-01 WtEn= 9.23D-02
 Coeff-Com:  0.835D-02 0.382D+00 0.609D+00
 Coeff-En:   0.000D+00 0.250D+00 0.750D+00
 Coeff:      0.758D-02 0.370D+00 0.622D+00
 Gap=     0.365 Goal=   None    Shift=    0.000
 RMSDP=3.96D-04 MaxDP=1.59D-02 DE=-1.92D-02 OVMax= 4.10D-02

 Cycle   4  Pass 1  IDiag  1:
 E= -3107.44606493589     Delta-E=       -0.013529588967 Rises=F Damp=F
 DIIS: error= 1.18D-03 at cycle   4 NSaved=   4.
 NSaved= 4 IEnMin= 4 EnMin= -3107.44606493589     IErMin= 4 ErrMin= 1.18D-03
 ErrMax= 1.18D-03  0.00D+00 EMaxC= 1.00D-01 BMatC= 2.06D-04 BMatP= 1.93D-02
 IDIUse=3 WtCom= 9.88D-01 WtEn= 1.18D-02
 Coeff-Com: -0.609D-02-0.247D-01 0.447D-01 0.986D+00
 Coeff-En:   0.000D+00 0.000D+00 0.000D+00 0.100D+01
 Coeff:     -0.601D-02-0.244D-01 0.442D-01 0.986D+00
 Gap=     0.364 Goal=   None    Shift=    0.000
 RMSDP=7.35D-05 MaxDP=2.00D-03 DE=-1.35D-02 OVMax= 4.79D-03

 Cycle   5  Pass 1  IDiag  1:
 E= -3107.44636078023     Delta-E=       -0.000295844332 Rises=F Damp=F
 DIIS: error= 2.91D-04 at cycle   5 NSaved=   5.
 NSaved= 5 IEnMin= 5 EnMin= -3107.44636078023     IErMin= 5 ErrMin= 2.91D-04
 ErrMax= 2.91D-04  0.00D+00 EMaxC= 1.00D-01 BMatC= 2.11D-05 BMatP= 2.06D-04
 IDIUse=3 WtCom= 9.97D-01 WtEn= 2.91D-03
 Coeff-Com:  0.135D-02-0.260D-01-0.540D-01-0.182D+00 0.126D+01
 Coeff-En:   0.000D+00 0.000D+00 0.000D+00 0.000D+00 0.100D+01
 Coeff:      0.134D-02-0.260D-01-0.539D-01-0.181D+00 0.126D+01
 Gap=     0.364 Goal=   None    Shift=    0.000
 RMSDP=4.34D-05 MaxDP=1.59D-03 DE=-2.96D-04 OVMax= 4.26D-03

 Cycle   6  Pass 1  IDiag  1:
 E= -3107.44642797442     Delta-E=       -0.000067194197 Rises=F Damp=F
 DIIS: error= 1.45D-04 at cycle   6 NSaved=   6.
 NSaved= 6 IEnMin= 6 EnMin= -3107.44642797442     IErMin= 6 ErrMin= 1.45D-04
 ErrMax= 1.45D-04  0.00D+00 EMaxC= 1.00D-01 BMatC= 3.09D-06 BMatP= 2.11D-05
 IDIUse=3 WtCom= 9.99D-01 WtEn= 1.45D-03
 Coeff-Com:  0.487D-03 0.787D-02 0.321D-02-0.142D+00-0.103D+00 0.123D+01
 Coeff-En:   0.000D+00 0.000D+00 0.000D+00 0.000D+00 0.000D+00 0.100D+01
 Coeff:      0.486D-03 0.786D-02 0.320D-02-0.142D+00-0.103D+00 0.123D+01
 Gap=     0.365 Goal=   None    Shift=    0.000
 RMSDP=2.02D-05 MaxDP=7.76D-04 DE=-6.72D-05 OVMax= 2.13D-03

 Cycle   7  Pass 1  IDiag  1:
 E= -3107.44643953785     Delta-E=       -0.000011563425 Rises=F Damp=F
 DIIS: error= 4.96D-05 at cycle   7 NSaved=   7.
 NSaved= 7 IEnMin= 7 EnMin= -3107.44643953785     IErMin= 7 ErrMin= 4.96D-05
 ErrMax= 4.96D-05  0.00D+00 EMaxC= 1.00D-01 BMatC= 2.78D-07 BMatP= 3.09D-06
 IDIUse=1 WtCom= 1.00D+00 WtEn= 0.00D+00
 Coeff-Com: -0.244D-03 0.378D-03 0.614D-02 0.620D-01-0.147D+00-0.253D+00
 Coeff-Com:  0.133D+01
 Coeff:     -0.244D-03 0.378D-03 0.614D-02 0.620D-01-0.147D+00-0.253D+00
 Coeff:      0.133D+01
 Gap=     0.365 Goal=   None    Shift=    0.000
 RMSDP=6.83D-06 MaxDP=2.36D-04 DE=-1.16D-05 OVMax= 7.26D-04

 Cycle   8  Pass 1  IDiag  1:
 E= -3107.44644059237     Delta-E=       -0.000001054525 Rises=F Damp=F
 DIIS: error= 6.93D-06 at cycle   8 NSaved=   8.
 NSaved= 8 IEnMin= 8 EnMin= -3107.44644059237     IErMin= 8 ErrMin= 6.93D-06
 ErrMax= 6.93D-06  0.00D+00 EMaxC= 1.00D-01 BMatC= 1.28D-08 BMatP= 2.78D-07
 IDIUse=1 WtCom= 1.00D+00 WtEn= 0.00D+00
 Coeff-Com: -0.479D-04-0.148D-03 0.609D-03 0.871D-02-0.709D-02-0.671D-01
 Coeff-Com:  0.681D-01 0.997D+00
 Coeff:     -0.479D-04-0.148D-03 0.609D-03 0.871D-02-0.709D-02-0.671D-01
 Coeff:      0.681D-01 0.997D+00
 Gap=     0.365 Goal=   None    Shift=    0.000
 RMSDP=9.94D-07 MaxDP=2.46D-05 DE=-1.05D-06 OVMax= 9.72D-05

 Cycle   9  Pass 1  IDiag  1:
 E= -3107.44644062181     Delta-E=       -0.000000029435 Rises=F Damp=F
 DIIS: error= 2.34D-06 at cycle   9 NSaved=   9.
 NSaved= 9 IEnMin= 9 EnMin= -3107.44644062181     IErMin= 9 ErrMin= 2.34D-06
 ErrMax= 2.34D-06  0.00D+00 EMaxC= 1.00D-01 BMatC= 1.36D-09 BMatP= 1.28D-08
 IDIUse=1 WtCom= 1.00D+00 WtEn= 0.00D+00
 Coeff-Com:  0.166D-04-0.212D-03-0.614D-03-0.383D-02 0.149D-01 0.858D-02
 Coeff-Com: -0.116D+00 0.137D+00 0.960D+00
 Coeff:      0.166D-04-0.212D-03-0.614D-03-0.383D-02 0.149D-01 0.858D-02
 Coeff:     -0.116D+00 0.137D+00 0.960D+00
 Gap=     0.365 Goal=   None    Shift=    0.000
 RMSDP=3.01D-07 MaxDP=6.97D-06 DE=-2.94D-08 OVMax= 2.23D-05

 Cycle  10  Pass 1  IDiag  1:
 E= -3107.44644062457     Delta-E=       -0.000000002760 Rises=F Damp=F
 DIIS: error= 7.61D-07 at cycle  10 NSaved=  10.
 NSaved=10 IEnMin=10 EnMin= -3107.44644062457     IErMin=10 ErrMin= 7.61D-07
 ErrMax= 7.61D-07  0.00D+00 EMaxC= 1.00D-01 BMatC= 9.98D-11 BMatP= 1.36D-09
 IDIUse=1 WtCom= 1.00D+00 WtEn= 0.00D+00
 Coeff-Com: -0.516D-06 0.654D-04 0.103D-03-0.631D-04-0.236D-02 0.376D-02
 Coeff-Com:  0.141D-01-0.767D-01-0.218D+00 0.128D+01
 Coeff:     -0.516D-06 0.654D-04 0.103D-03-0.631D-04-0.236D-02 0.376D-02
 Coeff:      0.141D-01-0.767D-01-0.218D+00 0.128D+01
 Gap=     0.365 Goal=   None    Shift=    0.000
 RMSDP=1.40D-07 MaxDP=2.75D-06 DE=-2.76D-09 OVMax= 9.36D-06

 Cycle  11  Pass 1  IDiag  1:
 E= -3107.44644062500     Delta-E=       -0.000000000434 Rises=F Damp=F
 DIIS: error= 4.76D-07 at cycle  11 NSaved=  11.
 NSaved=11 IEnMin=11 EnMin= -3107.44644062500     IErMin=11 ErrMin= 4.76D-07
 ErrMax= 4.76D-07  0.00D+00 EMaxC= 1.00D-01 BMatC= 2.10D-11 BMatP= 9.98D-11
 IDIUse=1 WtCom= 1.00D+00 WtEn= 0.00D+00
 Coeff-Com: -0.158D-05-0.471D-05 0.238D-04 0.475D-03-0.788D-03-0.218D-02
 Coeff-Com:  0.694D-02 0.149D-01-0.711D-02-0.549D+00 0.154D+01
 Coeff:     -0.158D-05-0.471D-05 0.238D-04 0.475D-03-0.788D-03-0.218D-02
 Coeff:      0.694D-02 0.149D-01-0.711D-02-0.549D+00 0.154D+01
 Gap=     0.365 Goal=   None    Shift=    0.000
 RMSDP=7.91D-08 MaxDP=1.87D-06 DE=-4.34D-10 OVMax= 6.20D-06

 Cycle  12  Pass 1  IDiag  1:
 E= -3107.44644062512     Delta-E=       -0.000000000118 Rises=F Damp=F
 DIIS: error= 2.19D-07 at cycle  12 NSaved=  12.
 NSaved=12 IEnMin=12 EnMin= -3107.44644062512     IErMin=12 ErrMin= 2.19D-07
 ErrMax= 2.19D-07  0.00D+00 EMaxC= 1.00D-01 BMatC= 3.47D-12 BMatP= 2.10D-11
 IDIUse=1 WtCom= 1.00D+00 WtEn= 0.00D+00
 Coeff-Com:  0.846D-07-0.151D-04-0.263D-04-0.167D-04 0.630D-03-0.707D-03
 Coeff-Com: -0.419D-02 0.162D-01 0.596D-01-0.256D+00-0.192D+00 0.138D+01
 Coeff:      0.846D-07-0.151D-04-0.263D-04-0.167D-04 0.630D-03-0.707D-03
 Coeff:     -0.419D-02 0.162D-01 0.596D-01-0.256D+00-0.192D+00 0.138D+01
 Gap=     0.365 Goal=   None    Shift=    0.000
 RMSDP=4.17D-08 MaxDP=9.84D-07 DE=-1.18D-10 OVMax= 3.56D-06

 Cycle  13  Pass 1  IDiag  1:
 E= -3107.44644062515     Delta-E=       -0.000000000027 Rises=F Damp=F
 DIIS: error= 5.04D-08 at cycle  13 NSaved=  13.
 NSaved=13 IEnMin=13 EnMin= -3107.44644062515     IErMin=13 ErrMin= 5.04D-08
 ErrMax= 5.04D-08  0.00D+00 EMaxC= 1.00D-01 BMatC= 1.79D-13 BMatP= 3.47D-12
 IDIUse=1 WtCom= 1.00D+00 WtEn= 0.00D+00
 Coeff-Com:  0.126D-06 0.293D-05 0.280D-05-0.375D-04-0.519D-04 0.298D-03
 Coeff-Com:  0.225D-03-0.377D-02-0.117D-01 0.950D-01-0.918D-01-0.272D+00
 Coeff-Com:  0.128D+01
 Coeff:      0.126D-06 0.293D-05 0.280D-05-0.375D-04-0.519D-04 0.298D-03
 Coeff:      0.225D-03-0.377D-02-0.117D-01 0.950D-01-0.918D-01-0.272D+00
 Coeff:      0.128D+01
 Gap=     0.365 Goal=   None    Shift=    0.000
 RMSDP=9.14D-09 MaxDP=1.79D-07 DE=-2.68D-11 OVMax= 7.35D-07

 SCF Done:  E(RHF) =  -3107.44644063     A.U. after   13 cycles
            NFock= 13  Conv=0.91D-08     -V/T= 2.0001
 KE= 3.107170793194D+03 PE=-7.823403612154D+03 EE= 1.418181664300D+03
 Leave Link  502 at Tue Oct 12 14:25:46 2021, MaxMem=  1048576000 cpu:        19.4
 (Enter /usr/local/gaussian/g09/l801.exe)
 ExpMin= 2.53D-02 ExpMax= 1.06D+07 ExpMxC= 1.21D+04 IAcc=3 IRadAn=         5 AccDes= 0.00D+00
 HarFok:  IExCor=  205 AccDes= 0.00D+00 IRadAn=         5 IDoV=-2 UseB2=F ITyADJ=14
 ICtDFT= 12500011 ScaDFX=  1.000000  1.000000  1.000000  1.000000
 DSYEVD-2 returned Info=         119 IAlg= 4 N=    59 NDim=    59 NE2=    17770621 trying  DSYEV.
 Largest valence mixing into a core orbital is  4.46D-04
 Largest core mixing into a valence orbital is  1.53D-04
 Range of M.O.s used for correlation:    16   178
 NBasis=   178 NAE=    31 NBE=    31 NFC=    15 NFV=     0
 NROrb=    163 NOA=    16 NOB=    16 NVA=   147 NVB=   147

 **** Warning!!: The largest alpha MO coefficient is  0.15865144D+02

 Leave Link  801 at Tue Oct 12 14:25:46 2021, MaxMem=  1048576000 cpu:         0.7
 (Enter /usr/local/gaussian/g09/l906.exe)
 Frozen-core derivative calculation, NFC=  15 NFV=   0.
 FulOut=F Deriv=T AODrv=F NAtomX=     4
   MMem=         227  MDisk=          16 MDiskD=          16
  W3Min=     1147744 MinDsk=     1765480 NBas6D=         208
 NBas2D=       22240    NTT=       21736    LW2=     9911920
    MDV=  1048101861 MDiskM=       25146 NBas2p=       22041
 Fully in-core method, ICMem=   526646768.
 IMap=   1   2   3   4   5   6   7   8   9  10  11  12  13  14  15  16  17  18  19  20
 IMap=  21  22  23  24  25  26  27  28  29  30  31
 JobTyp=1 Pass  1 fully in-core, NPsUse= 12.
 Compute canonical integrals.
 FoFCou: FMM=F IPFlag=           0 FMFlag=           0 FMFlg1=           0
         NFxFlg=           0 DoJE=F BraDBF=F KetDBF=F FulRan=T
         wScrn=  0.000000 ICntrl=     600 IOpCl=  1 I1Cent=           0 NGrid=           0
         NMat0=    1 NMatS0=  22240 NMatT0=    0 NMatD0=    1 NMtDS0=    0 NMtDT0=    0
 Symmetry not used in FoFCou.
 Spin components of T(2) and E(2):
     alpha-alpha T2 =       0.3202848803D-01 E2=     -0.9683138590D-01
     alpha-beta  T2 =       0.1683503818D+00 E2=     -0.5244734671D+00
     beta-beta   T2 =       0.3202848803D-01 E2=     -0.9683138590D-01
 The integrals were generated   1 times.
 ANorm=    0.1110138441D+01
 E2 =    -0.7181362390D+00 EUMP2 =    -0.31081645768641D+04
 Leave Link  906 at Tue Oct 12 14:25:54 2021, MaxMem=  1048576000 cpu:        97.5
 (Enter /usr/local/gaussian/g09/l1002.exe)
 Minotr:  Closed shell wavefunction.
          Computing MP2/KS-MP2 derivatives.
          Using Z-Vector for PSCF gradient.
          Skipping F1 and S1 gradient terms here.
          Frozen-core window.
          Direct CPHF calculation.
          Differentiating once with respect to electric field.
                with respect to dipole field.
          Electric field/nuclear overlap derivatives assumed to be zero.
          Requested convergence is 1.0D-10 RMS, and 1.0D-09 maximum.
          NewPWx=F KeepS1=T KeepF1=T KeepIn=T MapXYZ=F SortEE=F KeepMc=T.
          MDV=    1048575801 using IRadAn=       0.
 Keep R1 ints in memory in canonical form, NReq=131472178.
 FoFCou: FMM=F IPFlag=           0 FMFlag=           0 FMFlg1=           0
         NFxFlg=           0 DoJE=F BraDBF=F KetDBF=F FulRan=T
         wScrn=  0.000000 ICntrl=     600 IOpCl=  0 I1Cent=           0 NGrid=           0
         NMat0=    1 NMatS0=  15931 NMatT0=    0 NMatD0=    1 NMtDS0=    0 NMtDT0=    0
 Symmetry not used in FoFCou.
          Solving linear equations separately, MaxMat=       0.
          There are     1 degrees of freedom in the 1st order CPHF.  IDoFFX=0 NUNeed=     1.
 LinEq1:  Iter=  0 NonCon=     1 RMS=3.08D-03 Max=5.65D-02 NDo=     1
 AX will form     1 AO Fock derivatives at one time.
 LinEq1:  Iter=  1 NonCon=     1 RMS=5.02D-04 Max=7.13D-03 NDo=     1
 LinEq1:  Iter=  2 NonCon=     1 RMS=2.12D-04 Max=2.93D-03 NDo=     1
 LinEq1:  Iter=  3 NonCon=     1 RMS=7.45D-05 Max=1.09D-03 NDo=     1
 LinEq1:  Iter=  4 NonCon=     1 RMS=1.92D-05 Max=4.03D-04 NDo=     1
 LinEq1:  Iter=  5 NonCon=     1 RMS=8.69D-06 Max=1.05D-04 NDo=     1
 LinEq1:  Iter=  6 NonCon=     1 RMS=2.54D-06 Max=3.29D-05 NDo=     1
 LinEq1:  Iter=  7 NonCon=     1 RMS=6.76D-07 Max=9.90D-06 NDo=     1
 LinEq1:  Iter=  8 NonCon=     1 RMS=2.02D-07 Max=2.22D-06 NDo=     1
 LinEq1:  Iter=  9 NonCon=     1 RMS=6.52D-08 Max=7.80D-07 NDo=     1
 LinEq1:  Iter= 10 NonCon=     1 RMS=1.79D-08 Max=3.04D-07 NDo=     1
 LinEq1:  Iter= 11 NonCon=     1 RMS=4.66D-09 Max=5.24D-08 NDo=     1
 LinEq1:  Iter= 12 NonCon=     1 RMS=7.33D-10 Max=9.53D-09 NDo=     1
 LinEq1:  Iter= 13 NonCon=     1 RMS=1.31D-10 Max=2.31D-09 NDo=     1
 LinEq1:  Iter= 14 NonCon=     0 RMS=3.40D-11 Max=5.57D-10 NDo=     1
 Linear equations converged to 1.000D-10 1.000D-09 after    14 iterations.
 End of Minotr F.D. properties file   721 does not exist.
 End of Minotr F.D. properties file   722 does not exist.
 End of Minotr F.D. properties file   788 does not exist.
 Leave Link 1002 at Tue Oct 12 14:25:58 2021, MaxMem=  1048576000 cpu:        18.6
 (Enter /usr/local/gaussian/g09/l601.exe)
 Copying SCF densities to generalized density rwf, IOpCl= 0 IROHF=0.

 **********************************************************************

            Population analysis using the MP2 density.

 **********************************************************************

 Alpha  occ. eigenvalues -- -489.79235-104.69589 -64.93270 -58.28736 -58.28707
 Alpha  occ. eigenvalues --  -58.28707 -20.41537 -10.41561  -9.60531  -7.88272
 Alpha  occ. eigenvalues --   -7.88042  -7.88035  -7.21398  -7.21211  -7.21210
 Alpha  occ. eigenvalues --   -2.95607  -2.95509  -2.95506  -2.95280  -2.95280
 Alpha  occ. eigenvalues --   -1.15395  -0.84634  -0.77219  -0.45804  -0.39618
 Alpha  occ. eigenvalues --   -0.38749  -0.28285  -0.24078  -0.21076  -0.20777
 Alpha  occ. eigenvalues --   -0.20616
 Alpha virt. eigenvalues --    0.15851   0.18955   0.21336   0.22749   0.23618
 Alpha virt. eigenvalues --    0.24876   0.25198   0.29703   0.31538   0.32510
 Alpha virt. eigenvalues --    0.33467   0.33666   0.36716   0.43042   0.43717
 Alpha virt. eigenvalues --    0.45408   0.45784   0.47910   0.50051   0.54745
 Alpha virt. eigenvalues --    0.55168   0.58188   0.59078   0.59625   0.61480
 Alpha virt. eigenvalues --    0.62304   0.65473   0.67821   0.72205   0.72268
 Alpha virt. eigenvalues --    0.73164   0.79325   0.79599   0.85317   0.91531
 Alpha virt. eigenvalues --    0.92899   0.93458   0.95228   0.97388   0.97941
 Alpha virt. eigenvalues --    1.00369   1.01458   1.03008   1.04134   1.06429
 Alpha virt. eigenvalues --    1.10004   1.10867   1.11790   1.13007   1.15658
 Alpha virt. eigenvalues --    1.15742   1.18435   1.18559   1.23611   1.24588
 Alpha virt. eigenvalues --    1.25668   1.30010   1.32042   1.34162   1.35303
 Alpha virt. eigenvalues --    1.36652   1.41096   1.47097   1.49674   1.53026
 Alpha virt. eigenvalues --    1.57850   1.61139   1.63019   1.68753   1.71180
 Alpha virt. eigenvalues --    1.73593   1.74483   1.77814   1.84357   1.87898
 Alpha virt. eigenvalues --    2.00652   2.08628   2.31541   2.40878   2.41913
 Alpha virt. eigenvalues --    2.42677   2.43975   2.50109   2.50841   2.51467
 Alpha virt. eigenvalues --    2.51860   2.52946   2.52950   2.53316   2.54611
 Alpha virt. eigenvalues --    2.56025   2.59201   2.60082   2.62281   2.63229
 Alpha virt. eigenvalues --    2.66465   2.68081   2.69827   2.73281   2.74003
 Alpha virt. eigenvalues --    2.75324   2.76123   2.81263   2.82667   2.86348
 Alpha virt. eigenvalues --    3.06974   3.11119   3.15314   3.16971   3.18682
 Alpha virt. eigenvalues --    3.26586   3.27005   3.29220   3.32903   3.34337
 Alpha virt. eigenvalues --    3.41978   3.55066   3.57158   3.63512   3.93459
 Alpha virt. eigenvalues --    4.03182   4.18048   4.32165   4.40538   4.52627
 Alpha virt. eigenvalues --    4.63082   4.69075   4.75638   4.78376   5.14942
 Alpha virt. eigenvalues --    5.39980   5.43723   6.30549   6.55373   6.85977
 Alpha virt. eigenvalues --    6.91609   6.95589   7.00325   7.07472   7.16845
 Alpha virt. eigenvalues --    7.38276   7.38394   7.54717   7.56556   7.87429
 Alpha virt. eigenvalues --    8.16295  12.83168
          Condensed to atoms (all electrons):
               1          2          3          4
     1  O    8.687583  -0.138689  -0.132420   0.159755
     2  Cl  -0.138689  17.150705   0.016777  -0.029421
     3  Br  -0.132420   0.016777  35.723090   0.031900
     4  H    0.159755  -0.029421   0.031900   0.622816
 Mulliken charges:
               1
     1  O   -0.576229
     2  Cl   0.000628
     3  Br  -0.639347
     4  H    0.214949
 Sum of Mulliken charges =  -1.00000
 Mulliken charges with hydrogens summed into heavy atoms:
               1
     1  O   -0.361280
     2  Cl   0.000628
     3  Br  -0.639347
 Electronic spatial extent (au):  <R**2>=           1476.4511
 Charge=             -1.0000 electrons
 Dipole moment (field-independent basis, Debye):
    X=              0.6192    Y=              7.8857    Z=              0.0000  Tot=              7.9100
 Quadrupole moment (field-independent basis, Debye-Ang):
   XX=            -46.0086   YY=            -68.8206   ZZ=            -42.8976
   XY=             -6.5454   XZ=              0.0000   YZ=              0.0000
 Traceless Quadrupole moment (field-independent basis, Debye-Ang):
   XX=              6.5670   YY=            -16.2450   ZZ=              9.6780
   XY=             -6.5454   XZ=              0.0000   YZ=              0.0000
 Octapole moment (field-independent basis, Debye-Ang**2):
  XXX=            -20.9789  YYY=            276.4128  ZZZ=              0.0000  XYY=             11.3718
  XXY=             70.8590  XXZ=              0.0000  XZZ=             -7.6704  YZZ=             66.4255
  YYZ=              0.0000  XYZ=             -0.0000
 Hexadecapole moment (field-independent basis, Debye-Ang**3):
 XXXX=           -348.1962 YYYY=          -1453.1240 ZZZZ=            -59.3921 XXXY=           -145.4073
 XXXZ=              0.0000 YYYX=           -193.7015 YYYZ=             -0.0000 ZZZX=              0.0000
 ZZZY=             -0.0000 XXYY=           -281.4167 XXZZ=            -71.9606 YYZZ=           -217.2592
 XXYZ=              0.0000 YYXZ=              0.0000 ZZXY=            -47.4427
 N-N= 1.906047140357D+02 E-N=-7.821971705255D+03  KE= 3.107202706320D+03
 No NMR shielding tensors so no spin-rotation constants.
 Leave Link  601 at Tue Oct 12 14:25:58 2021, MaxMem=  1048576000 cpu:         2.3
 (Enter /usr/local/gaussian/g09/l607.exe)
 ******************************Gaussian NBO Version 3.1******************************
             N A T U R A L   A T O M I C   O R B I T A L   A N D
          N A T U R A L   B O N D   O R B I T A L   A N A L Y S I S
 ******************************Gaussian NBO Version 3.1******************************
       /RESON  / : Allow strongly delocalized NBO set

 Analyzing the MP2 density

 Job title: title                                                           

 Storage needed:     95974 in NPA,    127345 in NBO (1048575904 available)


 NATURAL POPULATIONS:  Natural atomic orbital occupancies 
                                                          
   NAO  Atom  No  lang   Type(AO)    Occupancy
 --------------------------------------------
     1    O    1  S      Cor( 1S)     1.99982
     2    O    1  S      Val( 2S)     1.84373
     3    O    1  S      Ryd( 3S)     0.01203
     4    O    1  S      Ryd( 4S)     0.00123
     5    O    1  S      Ryd( 5S)     0.00018
     6    O    1  px     Val( 2p)     1.17684
     7    O    1  px     Ryd( 3p)     0.00799
     8    O    1  px     Ryd( 4p)     0.00068
     9    O    1  px     Ryd( 5p)     0.00067
    10    O    1  py     Val( 2p)     1.74737
    11    O    1  py     Ryd( 3p)     0.01492
    12    O    1  py     Ryd( 4p)     0.00066
    13    O    1  py     Ryd( 5p)     0.00036
    14    O    1  pz     Val( 2p)     1.94445
    15    O    1  pz     Ryd( 3p)     0.02278
    16    O    1  pz     Ryd( 4p)     0.00060
    17    O    1  pz     Ryd( 5p)     0.00015
    18    O    1  dxy    Ryd( 3d)     0.00847
    19    O    1  dxy    Ryd( 4d)     0.00054
    20    O    1  dxy    Ryd( 5d)     0.00013
    21    O    1  dxz    Ryd( 3d)     0.00881
    22    O    1  dxz    Ryd( 4d)     0.00061
    23    O    1  dxz    Ryd( 5d)     0.00011
    24    O    1  dyz    Ryd( 3d)     0.00682
    25    O    1  dyz    Ryd( 4d)     0.00067
    26    O    1  dyz    Ryd( 5d)     0.00027
    27    O    1  dx2y2  Ryd( 3d)     0.01071
    28    O    1  dx2y2  Ryd( 4d)     0.00042
    29    O    1  dx2y2  Ryd( 5d)     0.00014
    30    O    1  dz2    Ryd( 3d)     0.00815
    31    O    1  dz2    Ryd( 4d)     0.00064
    32    O    1  dz2    Ryd( 5d)     0.00016
    33    O    1  f(0)   Ryd( 4f)     0.00066
    34    O    1  f(0)   Ryd( 5f)     0.00011
    35    O    1  f(C1)  Ryd( 4f)     0.00066
    36    O    1  f(C1)  Ryd( 5f)     0.00012
    37    O    1  f(S1)  Ryd( 4f)     0.00062
    38    O    1  f(S1)  Ryd( 5f)     0.00012
    39    O    1  f(C2)  Ryd( 4f)     0.00066
    40    O    1  f(C2)  Ryd( 5f)     0.00014
    41    O    1  f(S2)  Ryd( 4f)     0.00056
    42    O    1  f(S2)  Ryd( 5f)     0.00012
    43    O    1  f(C3)  Ryd( 4f)     0.00065
    44    O    1  f(C3)  Ryd( 5f)     0.00014
    45    O    1  f(S3)  Ryd( 4f)     0.00061
    46    O    1  f(S3)  Ryd( 5f)     0.00012

    47   Cl    2  S      Cor( 1S)     2.00000
    48   Cl    2  S      Cor( 2S)     1.99975
    49   Cl    2  S      Val( 3S)     1.87589
    50   Cl    2  S      Ryd( 4S)     0.00870
    51   Cl    2  S      Ryd( 5S)     0.00058
    52   Cl    2  S      Ryd( 6S)     0.00018
    53   Cl    2  px     Cor( 2p)     1.99995
    54   Cl    2  px     Val( 3p)     0.94370
    55   Cl    2  px     Ryd( 4p)     0.00715
    56   Cl    2  px     Ryd( 5p)     0.00055
    57   Cl    2  px     Ryd( 6p)     0.00021
    58   Cl    2  py     Cor( 2p)     2.00003
    59   Cl    2  py     Val( 3p)     1.95184
    60   Cl    2  py     Ryd( 4p)     0.01087
    61   Cl    2  py     Ryd( 5p)     0.00057
    62   Cl    2  py     Ryd( 6p)     0.00007
    63   Cl    2  pz     Cor( 2p)     2.00003
    64   Cl    2  pz     Val( 3p)     1.95325
    65   Cl    2  pz     Ryd( 4p)     0.01162
    66   Cl    2  pz     Ryd( 5p)     0.00074
    67   Cl    2  pz     Ryd( 6p)     0.00003
    68   Cl    2  dxy    Ryd( 3d)     0.01958
    69   Cl    2  dxy    Ryd( 4d)     0.00116
    70   Cl    2  dxy    Ryd( 5d)     0.00037
    71   Cl    2  dxz    Ryd( 3d)     0.02324
    72   Cl    2  dxz    Ryd( 4d)     0.00136
    73   Cl    2  dxz    Ryd( 5d)     0.00038
    74   Cl    2  dyz    Ryd( 3d)     0.01700
    75   Cl    2  dyz    Ryd( 4d)     0.00071
    76   Cl    2  dyz    Ryd( 5d)     0.00024
    77   Cl    2  dx2y2  Ryd( 3d)     0.01894
    78   Cl    2  dx2y2  Ryd( 4d)     0.00050
    79   Cl    2  dx2y2  Ryd( 5d)     0.00020
    80   Cl    2  dz2    Ryd( 3d)     0.01782
    81   Cl    2  dz2    Ryd( 4d)     0.00060
    82   Cl    2  dz2    Ryd( 5d)     0.00021
    83   Cl    2  f(0)   Ryd( 4f)     0.00133
    84   Cl    2  f(0)   Ryd( 5f)     0.00015
    85   Cl    2  f(C1)  Ryd( 4f)     0.00153
    86   Cl    2  f(C1)  Ryd( 5f)     0.00015
    87   Cl    2  f(S1)  Ryd( 4f)     0.00128
    88   Cl    2  f(S1)  Ryd( 5f)     0.00013
    89   Cl    2  f(C2)  Ryd( 4f)     0.00137
    90   Cl    2  f(C2)  Ryd( 5f)     0.00014
    91   Cl    2  f(S2)  Ryd( 4f)     0.00122
    92   Cl    2  f(S2)  Ryd( 5f)     0.00014
    93   Cl    2  f(C3)  Ryd( 4f)     0.00169
    94   Cl    2  f(C3)  Ryd( 5f)     0.00014
    95   Cl    2  f(S3)  Ryd( 4f)     0.00133
    96   Cl    2  f(S3)  Ryd( 5f)     0.00016

    97   Br    3  S      Cor( 1S)     2.00000
    98   Br    3  S      Cor( 2S)     2.00000
    99   Br    3  S      Cor( 3S)     1.99947
   100   Br    3  S      Val( 4S)     1.93131
   101   Br    3  S      Ryd( 5S)     0.00134
   102   Br    3  S      Ryd( 6S)     0.00051
   103   Br    3  S      Ryd( 7S)     0.00022
   104   Br    3  px     Cor( 2p)     2.00000
   105   Br    3  px     Cor( 3p)     1.99995
   106   Br    3  px     Val( 4p)     1.93922
   107   Br    3  px     Ryd( 5p)     0.01008
   108   Br    3  px     Ryd( 6p)     0.00078
   109   Br    3  px     Ryd( 7p)     0.00012
   110   Br    3  py     Cor( 2p)     2.00000
   111   Br    3  py     Cor( 3p)     1.99981
   112   Br    3  py     Val( 4p)     1.69860
   113   Br    3  py     Ryd( 5p)     0.00838
   114   Br    3  py     Ryd( 6p)     0.00070
   115   Br    3  py     Ryd( 7p)     0.00013
   116   Br    3  pz     Cor( 2p)     2.00000
   117   Br    3  pz     Cor( 3p)     1.99996
   118   Br    3  pz     Val( 4p)     1.95427
   119   Br    3  pz     Ryd( 5p)     0.01019
   120   Br    3  pz     Ryd( 6p)     0.00077
   121   Br    3  pz     Ryd( 7p)     0.00010
   122   Br    3  dxy    Cor( 3d)     1.99763
   123   Br    3  dxy    Ryd( 4d)     0.01832
   124   Br    3  dxy    Ryd( 5d)     0.00129
   125   Br    3  dxy    Ryd( 6d)     0.00023
   126   Br    3  dxz    Cor( 3d)     1.99769
   127   Br    3  dxz    Ryd( 4d)     0.01820
   128   Br    3  dxz    Ryd( 5d)     0.00165
   129   Br    3  dxz    Ryd( 6d)     0.00025
   130   Br    3  dyz    Cor( 3d)     1.99765
   131   Br    3  dyz    Ryd( 4d)     0.01825
   132   Br    3  dyz    Ryd( 5d)     0.00130
   133   Br    3  dyz    Ryd( 6d)     0.00023
   134   Br    3  dx2y2  Cor( 3d)     1.99756
   135   Br    3  dx2y2  Ryd( 4d)     0.01887
   136   Br    3  dx2y2  Ryd( 5d)     0.00145
   137   Br    3  dx2y2  Ryd( 6d)     0.00025
   138   Br    3  dz2    Cor( 3d)     1.99764
   139   Br    3  dz2    Ryd( 4d)     0.01851
   140   Br    3  dz2    Ryd( 5d)     0.00162
   141   Br    3  dz2    Ryd( 6d)     0.00020
   142   Br    3  f(0)   Ryd( 4f)     0.00170
   143   Br    3  f(0)   Ryd( 5f)     0.00025
   144   Br    3  f(C1)  Ryd( 4f)     0.00173
   145   Br    3  f(C1)  Ryd( 5f)     0.00024
   146   Br    3  f(S1)  Ryd( 4f)     0.00178
   147   Br    3  f(S1)  Ryd( 5f)     0.00028
   148   Br    3  f(C2)  Ryd( 4f)     0.00168
   149   Br    3  f(C2)  Ryd( 5f)     0.00025
   150   Br    3  f(S2)  Ryd( 4f)     0.00170
   151   Br    3  f(S2)  Ryd( 5f)     0.00024
   152   Br    3  f(C3)  Ryd( 4f)     0.00171
   153   Br    3  f(C3)  Ryd( 5f)     0.00026
   154   Br    3  f(S3)  Ryd( 4f)     0.00174
   155   Br    3  f(S3)  Ryd( 5f)     0.00028

   156    H    4  S      Val( 1S)     0.60884
   157    H    4  S      Ryd( 2S)     0.00552
   158    H    4  S      Ryd( 3S)     0.00086
   159    H    4  S      Ryd( 4S)     0.00018
   160    H    4  px     Ryd( 2p)     0.00481
   161    H    4  px     Ryd( 3p)     0.00048
   162    H    4  px     Ryd( 4p)     0.00012
   163    H    4  py     Ryd( 2p)     0.00484
   164    H    4  py     Ryd( 3p)     0.00145
   165    H    4  py     Ryd( 4p)     0.00020
   166    H    4  pz     Ryd( 2p)     0.00620
   167    H    4  pz     Ryd( 3p)     0.00043
   168    H    4  pz     Ryd( 4p)     0.00028
   169    H    4  dxy    Ryd( 3d)     0.00031
   170    H    4  dxy    Ryd( 4d)     0.00011
   171    H    4  dxz    Ryd( 3d)     0.00026
   172    H    4  dxz    Ryd( 4d)     0.00007
   173    H    4  dyz    Ryd( 3d)     0.00037
   174    H    4  dyz    Ryd( 4d)     0.00008
   175    H    4  dx2y2  Ryd( 3d)     0.00030
   176    H    4  dx2y2  Ryd( 4d)     0.00017
   177    H    4  dz2    Ryd( 3d)     0.00027
   178    H    4  dz2    Ryd( 4d)     0.00013

 WARNING:  5 low occupancy (<1.9990e) core orbitals found on Br    3


 Summary of Natural Population Analysis:                  
                                                          
                                       Natural Population 
                Natural  -----------------------------------------------
    Atom  No    Charge         Core      Valence    Rydberg      Total
 -----------------------------------------------------------------------
      O    1   -0.82639      1.99982     6.71238    0.11418     8.82639
     Cl    2    0.12124      9.99976     6.72469    0.15432    16.87876
     Br    3   -0.65854     27.98736     7.52340    0.14778    35.65854
      H    4    0.36369      0.00000     0.60884    0.02746     0.63631
 =======================================================================
   * Total *   -1.00000     39.98694    21.56932    0.44374    62.00000

                                 Natural Population      
 --------------------------------------------------------
   Core                      39.98694 ( 99.9674% of  40)
   Valence                   21.56932 ( 98.0423% of  22)
   Natural Minimal Basis     61.55626 ( 99.2843% of  62)
   Natural Rydberg Basis      0.44374 (  0.7157% of  62)
 --------------------------------------------------------

    Atom  No          Natural Electron Configuration
 ----------------------------------------------------------------------------
      O    1      [core]2S( 1.84)2p( 4.87)3S( 0.01)3p( 0.05)3d( 0.04)
     Cl    2      [core]3S( 1.88)3p( 4.85)4S( 0.01)3d( 0.10)4p( 0.03)4f( 0.01)
     Br    3      [core]4S( 1.93)4p( 5.59)4d( 0.09)5p( 0.03)4f( 0.01)5d( 0.01)
      H    4            1S( 0.61)2S( 0.01)2p( 0.02)


 NATURAL BOND ORBITAL ANALYSIS:
 Warning:  a bond orbital has occupanc of -0.00018

                       Occupancies       Lewis Structure    Low   High
           Occ.    -------------------  -----------------   occ   occ
  Cycle   Thresh.   Lewis   Non-Lewis     CR  BD  3C  LP    (L)   (NL)   Dev
 =============================================================================
   1(1)    1.90    61.20035   0.79965     20   2   0   9     1      1    0.42
 Warning:  a bond orbital has occupanc of -0.00018
   2(2)    1.90    61.23771   0.76229     20   2   0   9     1      1    0.37
 Warning:  a bond orbital has occupanc of -0.00018
   3(3)    1.90    61.20035   0.79965     20   2   0   9     1      1    0.42
 Warning:  a bond orbital has occupanc of -0.00018
   4(4)    1.90    61.23771   0.76229     20   2   0   9     1      1    0.37
 Warning:  a bond orbital has occupanc of -0.00018
   5(1)    1.80    61.23771   0.76229     20   2   0   9     1      1    0.37
 Warning:  a bond orbital has occupanc of -0.00018
   6(2)    1.80    61.20035   0.79965     20   2   0   9     1      1    0.42
 Warning:  a bond orbital has occupanc of -0.00018
   7(3)    1.80    61.23771   0.76229     20   2   0   9     1      1    0.37
 Warning:  a bond orbital has occupanc of -0.00018
   8(1)    1.70    61.23771   0.76229     20   2   0   9     1      1    0.37
 Warning:  a bond orbital has occupanc of -0.00018
   9(2)    1.70    61.20035   0.79965     20   2   0   9     1      1    0.42
 Warning:  a bond orbital has occupanc of -0.00018
  10(3)    1.70    61.23771   0.76229     20   2   0   9     1      1    0.37
 Warning:  a bond orbital has occupanc of -0.00018
  11(1)    1.60    60.93697   1.06303     20   1   0  10     0      1    0.42
 Warning:  a bond orbital has occupanc of -0.00018
  12(2)    1.60    60.93697   1.06303     20   1   0  10     0      1    0.42
 Warning:  a bond orbital has occupanc of -0.00018
  13(1)    1.50    60.93697   1.06303     20   1   0  10     0      1    0.42
 Warning:  a bond orbital has occupanc of -0.00018
  14(2)    1.50    60.93697   1.06303     20   1   0  10     0      1    0.42
 Warning:  a bond orbital has occupanc of -0.00018
  15(1)    1.90    61.23771   0.76229     20   2   0   9     1      1    0.37
 -----------------------------------------------------------------------------

 Structure accepted: RESONANCE keyword permits strongly delocalized structure

 WARNING:  5 low occupancy (<1.9990e) core orbitals found on Br    3

 --------------------------------------------------------
   Core                     39.98694 ( 99.967% of  40)
   Valence Lewis            21.25076 ( 96.594% of  22)
  ==================       ============================
   Total Lewis              61.23771 ( 98.770% of  62)
  -----------------------------------------------------
   Valence non-Lewis         0.36423 (  0.587% of  62)
   Rydberg non-Lewis         0.39807 (  0.642% of  62)
  ==================       ============================
   Total non-Lewis           0.76229 (  1.230% of  62)
 --------------------------------------------------------


       (Occupancy)   Bond orbital/ Coefficients/ Hybrids
 ---------------------------------------------------------------------------------
     1. (1.93755) BD ( 1) O   1 -Cl   2  
                ( 57.48%)   0.7581* O   1 s( 11.99%)p 7.30( 87.53%)d 0.04(  0.47%)
                                                  f 0.00(  0.02%)
                                            0.0003  0.3409 -0.0581  0.0173 -0.0007
                                            0.9283 -0.0436 -0.0110 -0.0166 -0.1035
                                           -0.0226 -0.0036  0.0027  0.0000  0.0000
                                            0.0000  0.0000 -0.0149 -0.0019  0.0010
                                            0.0000  0.0000  0.0000  0.0000  0.0000
                                            0.0000  0.0515  0.0033  0.0018 -0.0418
                                           -0.0035  0.0003  0.0000  0.0000 -0.0104
                                            0.0009  0.0005 -0.0001  0.0000  0.0000
                                            0.0000  0.0000  0.0083  0.0009 -0.0010
                                            0.0011
                ( 42.52%)   0.6521*Cl   2 s(  9.37%)p 9.55( 89.42%)d 0.12(  1.09%)
                                                  f 0.01(  0.12%)
                                           -0.0000  0.0006  0.2999 -0.0601 -0.0105
                                           -0.0026 -0.0004 -0.9432  0.0658  0.0136
                                           -0.0033 -0.0000 -0.0109 -0.0013  0.0033
                                           -0.0016  0.0000  0.0000  0.0000  0.0000
                                            0.0000  0.0134 -0.0002  0.0001  0.0000
                                            0.0000  0.0000  0.0000  0.0000  0.0000
                                            0.0865 -0.0128 -0.0019 -0.0549  0.0082
                                            0.0022  0.0000  0.0000  0.0219 -0.0028
                                            0.0006 -0.0001  0.0000  0.0000  0.0000
                                            0.0000 -0.0269  0.0028 -0.0023  0.0003
     2. (1.95307) BD ( 1)Br   3 - H   4  
                ( 81.27%)   0.9015*Br   3 s( 13.47%)p 6.41( 86.30%)d 0.02(  0.21%)
                                                  f 0.00(  0.02%)
                                           -0.0000  0.0000  0.0003  0.3670  0.0019
                                           -0.0037  0.0008 -0.0000  0.0001  0.2166
                                           -0.0025 -0.0011  0.0005 -0.0000  0.0005
                                            0.9032 -0.0140 -0.0063  0.0022  0.0000
                                            0.0000  0.0000  0.0000  0.0000  0.0000
                                            0.0000  0.0176 -0.0025  0.0005  0.0000
                                            0.0000  0.0000  0.0000  0.0000  0.0000
                                            0.0000  0.0000 -0.0000 -0.0349  0.0039
                                           -0.0004 -0.0000 -0.0235  0.0031 -0.0009
                                            0.0000  0.0000 -0.0019 -0.0002 -0.0079
                                           -0.0005  0.0000  0.0000  0.0000  0.0000
                                           -0.0067 -0.0005 -0.0076  0.0000
                ( 18.73%)   0.4327* H   4 s( 99.77%)p 0.00(  0.20%)d 0.00(  0.03%)
                                            0.9986 -0.0032  0.0236  0.0005 -0.0067
                                           -0.0037 -0.0037 -0.0343 -0.0272 -0.0037
                                            0.0000  0.0000  0.0000 -0.0002  0.0072
                                            0.0000  0.0000  0.0000  0.0000 -0.0007
                                           -0.0125 -0.0020 -0.0088
     3. (1.99982) CR ( 1) O   1           s(100.00%)p 0.00(  0.00%)
                                            1.0000 -0.0002  0.0000 -0.0000  0.0000
                                           -0.0002  0.0000  0.0000  0.0000 -0.0001
                                            0.0000  0.0000 -0.0000  0.0000  0.0000
                                            0.0000  0.0000  0.0000  0.0000  0.0000
                                            0.0000  0.0000  0.0000  0.0000  0.0000
                                            0.0000 -0.0000 -0.0000  0.0000  0.0000
                                            0.0000 -0.0000  0.0000  0.0000  0.0000
                                           -0.0000  0.0000  0.0000  0.0000  0.0000
                                            0.0000  0.0000 -0.0000  0.0000 -0.0000
                                           -0.0000
     4. (2.00000) CR ( 1)Cl   2           s(100.00%)
                                            1.0000  0.0000 -0.0000 -0.0000 -0.0000
                                           -0.0000 -0.0000 -0.0000  0.0000  0.0000
                                           -0.0000 -0.0000 -0.0000 -0.0000  0.0000
                                           -0.0000  0.0000  0.0000  0.0000  0.0000
                                            0.0000  0.0000 -0.0000 -0.0000  0.0000
                                            0.0000  0.0000  0.0000  0.0000  0.0000
                                            0.0000 -0.0000 -0.0000 -0.0000  0.0000
                                            0.0000  0.0000  0.0000  0.0000 -0.0000
                                            0.0000 -0.0000  0.0000  0.0000  0.0000
                                            0.0000 -0.0000  0.0000 -0.0000  0.0000
     5. (1.99975) CR ( 2)Cl   2           s(100.00%)p 0.00(  0.00%)
                                            0.0000  1.0000 -0.0004  0.0000  0.0000
                                            0.0000  0.0000  0.0005 -0.0000 -0.0000
                                            0.0000 -0.0000  0.0000  0.0000 -0.0000
                                            0.0000  0.0000  0.0000  0.0000  0.0000
                                            0.0000 -0.0000  0.0000  0.0000  0.0000
                                            0.0000  0.0000  0.0000  0.0000  0.0000
                                           -0.0000  0.0000  0.0000  0.0000 -0.0000
                                           -0.0000  0.0000  0.0000 -0.0000  0.0000
                                           -0.0000  0.0000  0.0000  0.0000  0.0000
                                            0.0000  0.0000 -0.0000  0.0000 -0.0000
     6. (1.99995) CR ( 3)Cl   2           s(  0.00%)p 1.00(100.00%)
                                           -0.0000  0.0000  0.0001 -0.0000 -0.0000
                                           -0.0000  1.0000 -0.0004  0.0000  0.0000
                                           -0.0000  0.0000 -0.0000 -0.0000  0.0000
                                           -0.0000  0.0000  0.0000  0.0000  0.0000
                                            0.0000  0.0000 -0.0000 -0.0000  0.0000
                                            0.0000  0.0000  0.0000  0.0000  0.0000
                                            0.0000 -0.0000 -0.0000 -0.0000  0.0000
                                            0.0000  0.0000  0.0000  0.0000 -0.0000
                                            0.0000 -0.0000  0.0000  0.0000  0.0000
                                            0.0000 -0.0000  0.0000 -0.0000  0.0000
     7. (2.00003) CR ( 4)Cl   2           s(  0.00%)p 1.00(100.00%)
                                           -0.0000 -0.0000  0.0000  0.0000  0.0000
                                           -0.0000  0.0000 -0.0000  0.0000  0.0000
                                           -0.0000  1.0000  0.0001  0.0000  0.0000
                                            0.0000  0.0000  0.0000  0.0000  0.0000
                                            0.0000  0.0000  0.0000  0.0000  0.0000
                                            0.0000  0.0000  0.0000  0.0000  0.0000
                                           -0.0000 -0.0000 -0.0000 -0.0000 -0.0000
                                            0.0000  0.0000  0.0000  0.0000  0.0000
                                           -0.0000  0.0000  0.0000  0.0000  0.0000
                                            0.0000 -0.0000  0.0000  0.0000 -0.0000
     8. (2.00003) CR ( 5)Cl   2           s(  0.00%)p 1.00(100.00%)
                                            0.0000  0.0000  0.0000  0.0000  0.0000
                                            0.0000  0.0000  0.0000  0.0000  0.0000
                                            0.0000  0.0000  0.0000  0.0000  0.0000
                                            0.0000  1.0000  0.0001  0.0000  0.0000
                                           -0.0000  0.0000  0.0000  0.0000  0.0000
                                            0.0000  0.0000  0.0000  0.0000  0.0000
                                            0.0000  0.0000  0.0000  0.0000  0.0000
                                            0.0000 -0.0000  0.0000  0.0000  0.0000
                                            0.0000  0.0000  0.0000 -0.0000  0.0000
                                           -0.0000  0.0000  0.0000  0.0000  0.0000
     9. (2.00000) CR ( 1)Br   3           s(100.00%)
                                            1.0000  0.0000  0.0000  0.0000  0.0000
                                           -0.0000 -0.0000 -0.0000  0.0000  0.0000
                                           -0.0000 -0.0000  0.0000 -0.0000  0.0000
                                            0.0000 -0.0000 -0.0000  0.0000  0.0000
                                            0.0000  0.0000  0.0000  0.0000  0.0000
                                           -0.0000  0.0000 -0.0000 -0.0000  0.0000
                                            0.0000  0.0000  0.0000  0.0000  0.0000
                                            0.0000  0.0000  0.0000 -0.0000  0.0000
                                            0.0000  0.0000 -0.0000  0.0000  0.0000
                                            0.0000  0.0000 -0.0000 -0.0000 -0.0000
                                           -0.0000  0.0000  0.0000  0.0000  0.0000
                                           -0.0000 -0.0000 -0.0000 -0.0000
    10. (2.00000) CR ( 2)Br   3           s(100.00%)
                                            0.0000  1.0000 -0.0000 -0.0000 -0.0000
                                            0.0000 -0.0000  0.0000 -0.0000 -0.0000
                                            0.0000  0.0000 -0.0000  0.0000 -0.0000
                                           -0.0000  0.0000  0.0000 -0.0000  0.0000
                                            0.0000  0.0000  0.0000  0.0000  0.0000
                                           -0.0000 -0.0000  0.0000 -0.0000  0.0000
                                            0.0000  0.0000  0.0000  0.0000  0.0000
                                            0.0000  0.0000  0.0000  0.0000 -0.0000
                                            0.0000  0.0000  0.0000 -0.0000  0.0000
                                            0.0000  0.0000  0.0000  0.0000  0.0000
                                            0.0000  0.0000  0.0000  0.0000  0.0000
                                            0.0000  0.0000  0.0000  0.0000
    11. (1.99947) CR ( 3)Br   3           s(100.00%)p 0.00(  0.00%)
                                            0.0000 -0.0000  1.0000 -0.0006 -0.0000
                                            0.0000 -0.0000  0.0000 -0.0000 -0.0000
                                            0.0000  0.0000 -0.0000  0.0000 -0.0000
                                           -0.0001  0.0000  0.0000 -0.0000  0.0000
                                            0.0000  0.0000  0.0000  0.0000  0.0000
                                            0.0000 -0.0000  0.0000  0.0000  0.0000
                                            0.0000  0.0000  0.0000  0.0000  0.0000
                                            0.0000  0.0000 -0.0000  0.0000 -0.0000
                                           -0.0000 -0.0000  0.0000 -0.0000  0.0000
                                            0.0000  0.0000  0.0000  0.0000  0.0000
                                            0.0000  0.0000  0.0000  0.0000  0.0000
                                            0.0000  0.0000  0.0000  0.0000
    12. (2.00000) CR ( 4)Br   3           s(  0.00%)p 1.00(100.00%)
                                           -0.0000  0.0000  0.0000  0.0000  0.0000
                                           -0.0000  0.0000  1.0000  0.0000  0.0000
                                            0.0000  0.0000 -0.0000 -0.0000  0.0000
                                            0.0000 -0.0000 -0.0000  0.0000  0.0000
                                            0.0000  0.0000  0.0000  0.0000  0.0000
                                           -0.0000  0.0000 -0.0000 -0.0000  0.0000
                                            0.0000  0.0000  0.0000  0.0000  0.0000
                                            0.0000  0.0000 -0.0000 -0.0000  0.0000
                                           -0.0000 -0.0000 -0.0000  0.0000 -0.0000
                                            0.0000  0.0000 -0.0000 -0.0000 -0.0000
                                           -0.0000  0.0000  0.0000  0.0000  0.0000
                                           -0.0000 -0.0000  0.0000  0.0000
    13. (1.99995) CR ( 5)Br   3           s(  0.00%)p 1.00(100.00%)
                                            0.0000 -0.0000 -0.0000  0.0000 -0.0000
                                            0.0000 -0.0000  0.0000  1.0000 -0.0004
                                           -0.0000 -0.0000  0.0000  0.0000 -0.0000
                                           -0.0000  0.0000  0.0000 -0.0000  0.0000
                                            0.0000  0.0000  0.0000  0.0000  0.0000
                                            0.0000 -0.0000  0.0000  0.0000  0.0000
                                            0.0000  0.0000  0.0000  0.0000  0.0000
                                            0.0000  0.0000  0.0000  0.0000 -0.0000
                                            0.0000  0.0000  0.0000 -0.0000  0.0000
                                            0.0000  0.0000  0.0000  0.0000  0.0000
                                            0.0000  0.0000  0.0000  0.0000  0.0000
                                            0.0000  0.0000 -0.0000 -0.0000
    14. (2.00000) CR ( 6)Br   3           s(  0.00%)p 1.00(100.00%)
                                           -0.0000  0.0000  0.0000  0.0000  0.0000
                                           -0.0000  0.0000 -0.0000  0.0000  0.0000
                                           -0.0000 -0.0000  0.0000  1.0000  0.0000
                                            0.0000 -0.0000 -0.0000  0.0000  0.0000
                                            0.0000  0.0000  0.0000  0.0000  0.0000
                                            0.0000  0.0000 -0.0000  0.0000  0.0000
                                            0.0000  0.0000  0.0000  0.0000  0.0000
                                            0.0000  0.0000 -0.0000 -0.0000  0.0000
                                           -0.0000 -0.0000 -0.0000  0.0000 -0.0000
                                            0.0000  0.0000 -0.0000 -0.0000 -0.0000
                                           -0.0000  0.0000  0.0000  0.0000  0.0000
                                           -0.0000 -0.0000 -0.0000 -0.0000
    15. (1.99981) CR ( 7)Br   3           s(  0.00%)p 1.00(100.00%)
                                            0.0000 -0.0000 -0.0000  0.0001 -0.0000
                                            0.0000 -0.0000  0.0000 -0.0000 -0.0000
                                            0.0000  0.0000 -0.0000  0.0000  1.0000
                                           -0.0006  0.0000  0.0000 -0.0000  0.0000
                                            0.0000  0.0000  0.0000  0.0000  0.0000
                                           -0.0000 -0.0000  0.0000 -0.0000  0.0000
                                            0.0000  0.0000  0.0000  0.0000  0.0000
                                            0.0000  0.0000  0.0000  0.0000 -0.0000
                                            0.0000  0.0000  0.0000 -0.0000  0.0000
                                            0.0000  0.0000  0.0000  0.0000  0.0000
                                            0.0000  0.0000  0.0000  0.0000  0.0000
                                            0.0000  0.0000  0.0000  0.0000
    16. (2.00000) CR ( 8)Br   3           s(  0.00%)p 1.00(100.00%)
                                            0.0000  0.0000  0.0000  0.0000  0.0000
                                            0.0000  0.0000  0.0000  0.0000  0.0000
                                            0.0000  0.0000  0.0000  0.0000  0.0000
                                            0.0000  0.0000  0.0000  0.0000  1.0000
                                            0.0000  0.0000  0.0000  0.0000 -0.0000
                                            0.0000  0.0000  0.0000  0.0000 -0.0000
                                            0.0000  0.0000 -0.0000 -0.0000  0.0000
                                           -0.0000 -0.0000  0.0000  0.0000  0.0000
                                            0.0000  0.0000  0.0000  0.0000  0.0000
                                           -0.0000 -0.0000  0.0000  0.0000  0.0000
                                            0.0000 -0.0000 -0.0000  0.0000  0.0000
                                            0.0000  0.0000  0.0000  0.0000
    17. (1.99996) CR ( 9)Br   3           s(  0.00%)p 1.00(100.00%)
                                            0.0000  0.0000  0.0000  0.0000  0.0000
                                            0.0000  0.0000  0.0000  0.0000  0.0000
                                            0.0000  0.0000  0.0000  0.0000  0.0000
                                            0.0000  0.0000  0.0000  0.0000  0.0000
                                            1.0000 -0.0004 -0.0000 -0.0000  0.0000
                                            0.0000  0.0000  0.0000  0.0000  0.0000
                                           -0.0000 -0.0000  0.0000  0.0000 -0.0000
                                            0.0000  0.0000  0.0000  0.0000  0.0000
                                            0.0000  0.0000  0.0000  0.0000  0.0000
                                            0.0000  0.0000  0.0000  0.0000  0.0000
                                            0.0000  0.0000  0.0000 -0.0000 -0.0000
                                            0.0000  0.0000  0.0000  0.0000
    18. (1.99763) CR (10)Br   3           s(  0.00%)p 0.00(  0.00%)d 1.00(100.00%)
                                           -0.0000 -0.0000  0.0000  0.0000 -0.0000
                                            0.0000 -0.0000 -0.0000  0.0000  0.0000
                                            0.0000  0.0000 -0.0000  0.0000 -0.0000
                                           -0.0000  0.0000 -0.0000 -0.0000  0.0000
                                            0.0000  0.0000  0.0000  0.0000  0.0000
                                            1.0000  0.0000  0.0000 -0.0000  0.0000
                                            0.0000  0.0000  0.0000  0.0000  0.0000
                                            0.0000  0.0000  0.0000  0.0000  0.0000
                                           -0.0000  0.0000  0.0000 -0.0000  0.0000
                                            0.0000  0.0000 -0.0000 -0.0000  0.0000
                                           -0.0000  0.0000  0.0000  0.0000  0.0000
                                           -0.0000 -0.0000  0.0000  0.0000
    19. (1.99769) CR (11)Br   3           s(  0.00%)p 0.00(  0.00%)d 1.00(100.00%)
                                            0.0000  0.0000  0.0000  0.0000  0.0000
                                            0.0000  0.0000  0.0000  0.0000  0.0000
                                            0.0000  0.0000  0.0000  0.0000  0.0000
                                            0.0000  0.0000  0.0000  0.0000 -0.0000
                                            0.0000  0.0000  0.0000  0.0000 -0.0000
                                            0.0000  0.0000  0.0000  0.0000  1.0000
                                            0.0000  0.0000 -0.0000 -0.0000  0.0000
                                           -0.0000 -0.0000  0.0000  0.0000  0.0000
                                            0.0000  0.0000  0.0000  0.0000  0.0000
                                           -0.0000 -0.0000  0.0000  0.0000  0.0000
                                            0.0000 -0.0000 -0.0000  0.0000  0.0000
                                            0.0000  0.0000  0.0000  0.0000
    20. (1.99765) CR (12)Br   3           s(  0.00%)p 0.00(  0.00%)d 1.00(100.00%)
                                            0.0000  0.0000  0.0000  0.0000  0.0000
                                            0.0000  0.0000  0.0000  0.0000  0.0000
                                            0.0000  0.0000  0.0000  0.0000  0.0000
                                            0.0000  0.0000  0.0000  0.0000 -0.0000
                                            0.0000  0.0000  0.0000  0.0000 -0.0000
                                            0.0000  0.0000  0.0000  0.0000 -0.0000
                                            0.0000  0.0000 -0.0000  1.0000  0.0000
                                           -0.0000 -0.0000  0.0000  0.0000  0.0000
                                            0.0000  0.0000  0.0000  0.0000  0.0000
                                           -0.0000 -0.0000  0.0000  0.0000  0.0000
                                            0.0000 -0.0000 -0.0000  0.0000  0.0000
                                            0.0000  0.0000  0.0000  0.0000
    21. (1.99756) CR (13)Br   3           s(  0.00%)p 0.00(  0.00%)d 1.00(100.00%)
                                            0.0000  0.0000 -0.0000 -0.0001  0.0000
                                           -0.0000  0.0000 -0.0000  0.0000  0.0000
                                            0.0000  0.0000 -0.0000 -0.0000  0.0000
                                            0.0000 -0.0000 -0.0000  0.0000  0.0000
                                            0.0000  0.0000  0.0000  0.0000  0.0000
                                            0.0000  0.0000 -0.0000 -0.0000  0.0000
                                            0.0000  0.0000  0.0000  0.0000  0.0000
                                            0.0000  0.0000  1.0000 -0.0000  0.0000
                                           -0.0000 -0.0000 -0.0000  0.0000 -0.0000
                                            0.0000  0.0000 -0.0000 -0.0000 -0.0000
                                            0.0000  0.0000  0.0000  0.0000  0.0000
                                           -0.0000 -0.0000 -0.0000  0.0000
    22. (1.99764) CR (14)Br   3           s(  0.00%)p 0.00(  0.00%)d 1.00(100.00%)
                                            0.0000  0.0000 -0.0000 -0.0000  0.0000
                                           -0.0000  0.0000 -0.0000  0.0000  0.0000
                                           -0.0000  0.0000  0.0000 -0.0000  0.0000
                                            0.0000 -0.0000 -0.0000  0.0000  0.0000
                                            0.0000  0.0000  0.0000  0.0000  0.0000
                                            0.0000  0.0000 -0.0000  0.0000  0.0000
                                            0.0000  0.0000  0.0000  0.0000  0.0000
                                            0.0000  0.0000 -0.0000 -0.0000  0.0000
                                           -0.0000  1.0000 -0.0000  0.0000 -0.0000
                                            0.0000  0.0000 -0.0000 -0.0000 -0.0000
                                            0.0000  0.0000  0.0000  0.0000  0.0000
                                           -0.0000  0.0000 -0.0000  0.0000
    23. (1.96651) LP ( 1) O   1           s( 70.86%)p 0.41( 29.09%)d 0.00(  0.05%)
                                                  f 0.00(  0.00%)
                                            0.0002  0.8417  0.0100 -0.0075 -0.0013
                                           -0.2549  0.0020 -0.0041 -0.0004  0.4752
                                            0.0066  0.0045  0.0012  0.0000  0.0000
                                            0.0000  0.0000  0.0198  0.0027 -0.0021
                                            0.0000  0.0000  0.0000  0.0000  0.0000
                                            0.0000  0.0069  0.0000 -0.0029  0.0054
                                            0.0000  0.0011  0.0000  0.0000 -0.0003
                                            0.0006 -0.0013 -0.0002  0.0000  0.0000
                                            0.0000  0.0000  0.0034 -0.0022  0.0045
                                           -0.0010
    24. (1.94825) LP ( 2) O   1           s(  0.00%)p 1.00( 99.85%)d 0.00(  0.14%)
                                                  f 0.00(  0.01%)
                                            0.0000  0.0000  0.0000  0.0000  0.0000
                                            0.0000  0.0000  0.0000  0.0000  0.0000
                                            0.0000  0.0000  0.0000  0.9990  0.0161
                                            0.0042  0.0116  0.0000  0.0000  0.0000
                                            0.0322  0.0045 -0.0022 -0.0158  0.0039
                                            0.0095  0.0000  0.0000  0.0000  0.0000
                                            0.0000  0.0000 -0.0085  0.0000  0.0000
                                            0.0000  0.0000  0.0000  0.0075 -0.0024
                                            0.0000  0.0011  0.0000  0.0000  0.0000
                                            0.0000
    25. (1.67848) LP ( 3) O   1           s( 17.49%)p 4.70( 82.26%)d 0.01(  0.25%)
                                                  f 0.00(  0.01%)
                                            0.0000  0.4180  0.0088  0.0073  0.0033
                                           -0.2484  0.0130  0.0027  0.0081 -0.8721
                                           -0.0092  0.0015  0.0025 -0.0000 -0.0000
                                           -0.0000 -0.0000 -0.0143 -0.0030 -0.0005
                                           -0.0000 -0.0000 -0.0000 -0.0000 -0.0000
                                           -0.0000 -0.0434 -0.0059  0.0014 -0.0176
                                           -0.0011  0.0043 -0.0000 -0.0000  0.0022
                                            0.0002  0.0085 -0.0016 -0.0000 -0.0000
                                           -0.0000 -0.0000  0.0017  0.0002 -0.0021
                                           -0.0007
    26. (1.97376) LP ( 1)Cl   2           s( 90.85%)p 0.10(  9.12%)d 0.00(  0.03%)
                                                  f 0.00(  0.00%)
                                            0.0000  0.0003  0.9531  0.0078  0.0013
                                            0.0003  0.0001  0.3005 -0.0064 -0.0033
                                            0.0014  0.0000 -0.0296  0.0009 -0.0000
                                           -0.0006  0.0000  0.0000  0.0000  0.0000
                                            0.0000 -0.0004 -0.0002 -0.0002  0.0000
                                            0.0000  0.0000  0.0000  0.0000  0.0000
                                           -0.0136  0.0001  0.0005  0.0083  0.0005
                                            0.0000  0.0000  0.0000 -0.0024 -0.0003
                                            0.0001 -0.0000  0.0000  0.0000  0.0000
                                            0.0000  0.0037 -0.0001 -0.0002  0.0001
    27. (1.95508) LP ( 2)Cl   2           s(  0.00%)p 1.00( 99.93%)d 0.00(  0.06%)
                                                  f 0.00(  0.01%)
                                            0.0000  0.0000  0.0000  0.0000  0.0000
                                            0.0000  0.0000  0.0000  0.0000  0.0000
                                            0.0000  0.0000  0.0000  0.0000  0.0000
                                            0.0000 -0.0001  0.9995  0.0154  0.0050
                                           -0.0022  0.0000  0.0000  0.0000  0.0116
                                            0.0200  0.0074  0.0022  0.0016  0.0001
                                            0.0000  0.0000  0.0000  0.0000  0.0000
                                            0.0000 -0.0055  0.0016  0.0000  0.0000
                                            0.0000  0.0000  0.0063 -0.0013  0.0006
                                           -0.0005  0.0000  0.0000  0.0000  0.0000
    28. (1.95348) LP ( 3)Cl   2           s(  0.10%)p99.99( 99.84%)d 0.44(  0.05%)
                                                  f 0.08(  0.01%)
                                            0.0000 -0.0000  0.0316  0.0042  0.0038
                                           -0.0026  0.0000 -0.0021  0.0006  0.0001
                                           -0.0005 -0.0001  0.9991  0.0142  0.0016
                                            0.0005  0.0000  0.0000  0.0000  0.0000
                                            0.0000  0.0044  0.0183  0.0073  0.0000
                                            0.0000  0.0000  0.0000  0.0000  0.0000
                                           -0.0051 -0.0038 -0.0023  0.0000 -0.0017
                                            0.0001  0.0000  0.0000  0.0001  0.0001
                                           -0.0025  0.0005  0.0000  0.0000  0.0000
                                            0.0000 -0.0011  0.0003  0.0083 -0.0019
    29. (1.97557) LP ( 1)Br   3           s( 86.51%)p 0.16( 13.49%)d 0.00(  0.00%)
                                                  f 0.00(  0.00%)
                                           -0.0000 -0.0000  0.0005  0.9301 -0.0007
                                            0.0018 -0.0006  0.0000 -0.0001 -0.0933
                                            0.0005 -0.0002 -0.0001  0.0000 -0.0003
                                           -0.3552  0.0043  0.0001 -0.0004  0.0000
                                            0.0000  0.0000  0.0000  0.0000  0.0000
                                           -0.0000 -0.0021  0.0002 -0.0004  0.0000
                                            0.0000  0.0000  0.0000  0.0000  0.0000
                                            0.0000  0.0000  0.0001  0.0039 -0.0003
                                            0.0005  0.0000  0.0029 -0.0003  0.0006
                                            0.0000  0.0000  0.0001  0.0000  0.0004
                                           -0.0001  0.0000  0.0000  0.0000  0.0000
                                            0.0004 -0.0001  0.0004 -0.0002
    30. (1.95467) LP ( 2)Br   3           s(  0.00%)p 1.00( 99.98%)d 0.00(  0.01%)
                                                  f 0.00(  0.00%)
                                            0.0000  0.0000  0.0000  0.0000  0.0000
                                            0.0000  0.0000  0.0000  0.0000  0.0000
                                            0.0000  0.0000  0.0000  0.0000  0.0000
                                            0.0000  0.0000  0.0000  0.0000 -0.0000
                                            0.0004  0.9999  0.0053  0.0024 -0.0006
                                            0.0000  0.0000  0.0000  0.0000 -0.0000
                                            0.0018  0.0003 -0.0015 -0.0000  0.0103
                                           -0.0005 -0.0043  0.0000  0.0000  0.0000
                                            0.0000  0.0000  0.0000  0.0000  0.0000
                                           -0.0035 -0.0013  0.0000  0.0000  0.0000
                                            0.0000 -0.0040 -0.0014  0.0020  0.0007
                                            0.0000  0.0000  0.0000  0.0000
    31. (1.95435) LP ( 3)Br   3           s(  0.01%)p 1.00( 99.98%)d 0.00(  0.01%)
                                                  f 0.00(  0.00%)
                                           -0.0000 -0.0000  0.0000  0.0074  0.0005
                                           -0.0008  0.0006 -0.0000  0.0004  0.9716
                                            0.0051  0.0022 -0.0008  0.0000 -0.0001
                                           -0.2361 -0.0012 -0.0008  0.0002  0.0000
                                            0.0000  0.0000  0.0000  0.0000  0.0000
                                           -0.0000  0.0105 -0.0003 -0.0039  0.0000
                                            0.0000  0.0000  0.0000  0.0000  0.0000
                                            0.0000  0.0000 -0.0000  0.0036  0.0007
                                           -0.0030  0.0000  0.0004 -0.0003  0.0003
                                            0.0000  0.0000 -0.0014 -0.0005  0.0003
                                            0.0001  0.0000  0.0000  0.0000  0.0000
                                           -0.0043 -0.0014  0.0032  0.0011
    32. (0.02243) RY*( 1) O   1           s(  0.00%)p 1.00( 99.22%)d 0.01(  0.74%)
                                                  f 0.00(  0.04%)
                                            0.0000  0.0000  0.0000  0.0000  0.0000
                                            0.0000  0.0000  0.0000  0.0000  0.0000
                                            0.0000  0.0000  0.0000 -0.0191  0.9954
                                           -0.0295 -0.0134  0.0000  0.0000  0.0000
                                            0.0661  0.0257  0.0053 -0.0466 -0.0009
                                            0.0111  0.0000  0.0000  0.0000  0.0000
                                            0.0000  0.0000 -0.0120  0.0092  0.0000
                                            0.0000  0.0000  0.0000  0.0103 -0.0094
                                           -0.0011  0.0010  0.0000  0.0000  0.0000
                                            0.0000
    33. (0.01827) RY*( 2) O   1           s( 24.57%)p 3.00( 73.79%)d 0.06(  1.52%)
                                                  f 0.00(  0.11%)
                                           -0.0000  0.0061  0.4952  0.0135 -0.0175
                                            0.0352 -0.3023 -0.0152  0.0268 -0.0174
                                            0.8004 -0.0114 -0.0571  0.0000  0.0000
                                            0.0000  0.0000  0.1150  0.0347  0.0151
                                            0.0000  0.0000  0.0000  0.0000  0.0000
                                            0.0000 -0.0042  0.0053  0.0048  0.0217
                                            0.0006 -0.0071  0.0000  0.0000 -0.0033
                                            0.0001  0.0006  0.0041  0.0000  0.0000
                                            0.0000  0.0000  0.0226 -0.0090  0.0204
                                           -0.0093
    34. (0.00871) RY*( 3) O   1           s( 32.28%)p 0.91( 29.24%)d 1.17( 37.86%)
                                                  f 0.02(  0.62%)
                                            0.0000  0.0048  0.5541  0.1247  0.0141
                                           -0.0039 -0.3359  0.0063  0.0930  0.0045
                                           -0.4043  0.0294 -0.0813  0.0000  0.0000
                                            0.0000  0.0000 -0.5378 -0.0144 -0.0123
                                            0.0000  0.0000  0.0000  0.0000  0.0000
                                            0.0000  0.2123 -0.0136  0.0151  0.2081
                                           -0.0145 -0.0024  0.0000  0.0000 -0.0166
                                            0.0087  0.0106 -0.0082  0.0000  0.0000
                                            0.0000  0.0000  0.0108 -0.0067 -0.0699
                                            0.0250
    35. (0.00696) RY*( 4) O   1           s(  0.00%)p 1.00(  0.33%)d99.99( 97.82%)
                                                  f 5.56(  1.85%)
                                            0.0000  0.0000  0.0000  0.0000  0.0000
                                            0.0000  0.0000  0.0000  0.0000  0.0000
                                            0.0000  0.0000  0.0000 -0.0244 -0.0477
                                           -0.0124 -0.0176  0.0000  0.0000  0.0000
                                            0.9237 -0.0366  0.0112  0.3509 -0.0148
                                            0.0099  0.0000  0.0000  0.0000  0.0000
[...]
   162. (0.00031) RY*( 8) H   4           s( 21.86%)p 0.50( 10.97%)d 3.07( 67.17%)
                                            0.0048  0.0355 -0.2828  0.3706 -0.0965
                                            0.0831 -0.1797  0.0499 -0.1350  0.2011
                                           -0.0000 -0.0000 -0.0000 -0.6313 -0.0254
                                           -0.0000 -0.0000 -0.0000 -0.0000  0.4890
                                           -0.0928 -0.0546  0.1477
   163. (0.00030) RY*( 9) H   4           s(  0.00%)p 1.00(  1.50%)d65.53( 98.50%)
                                            0.0000  0.0000  0.0000  0.0000  0.0000
                                            0.0000  0.0000  0.0000  0.0000  0.0000
                                            0.0145 -0.1215  0.0076  0.0000  0.0000
                                            0.9158 -0.3537 -0.1170  0.0865  0.0000
                                            0.0000  0.0000  0.0000
   164. (0.00030) RY*(10) H   4           s(  5.93%)p 1.43(  8.50%)d14.43( 85.57%)
                                           -0.0005 -0.0010 -0.0982  0.2229 -0.0072
                                           -0.1136 -0.0681  0.0070 -0.1008  0.2390
                                            0.0000  0.0000  0.0000 -0.1572 -0.1067
                                            0.0000  0.0000  0.0000  0.0000 -0.3900
                                            0.0201  0.7615 -0.2954
   165. (0.00023) RY*(11) H   4           s(  3.53%)p 2.68(  9.47%)d24.64( 87.00%)
                                            0.0069  0.0150 -0.0454  0.1816  0.1181
                                            0.1676  0.2083  0.0045 -0.0055 -0.0963
                                            0.0000  0.0000  0.0000  0.4654  0.0372
                                            0.0000  0.0000  0.0000  0.0000  0.6368
                                            0.2301  0.4398  0.0082
   166. (0.00024) RY*(12) H   4           s(  0.00%)p 1.00( 59.19%)d 0.69( 40.81%)
                                            0.0000  0.0000  0.0000  0.0000  0.0000
                                            0.0000  0.0000  0.0000  0.0000  0.0000
                                           -0.0084  0.7436  0.1971  0.0000  0.0000
                                            0.1775  0.0365  0.6020  0.1135  0.0000
                                            0.0000  0.0000  0.0000
   167. (0.00021) RY*(13) H   4           s( 23.72%)p 1.06( 25.15%)d 2.16( 51.13%)
                                           -0.0090 -0.0592 -0.1069  0.4714  0.0178
                                           -0.0623  0.0751  0.0064 -0.1706  0.4610
                                            0.0000  0.0000  0.0000  0.4287  0.2524
                                            0.0000  0.0000  0.0000  0.0000 -0.0729
                                           -0.3295 -0.3142 -0.2263
   168. (0.00015) RY*(14) H   4           s( 54.74%)p 0.74( 40.67%)d 0.08(  4.58%)
                                           -0.0016 -0.0060  0.7080  0.2147  0.0252
                                            0.0544  0.2441 -0.0314  0.4756  0.3411
                                            0.0000  0.0000  0.0000 -0.1951 -0.0316
                                            0.0000  0.0000  0.0000  0.0000  0.0699
                                            0.0230  0.0179  0.0323
   169. (0.00011) RY*(15) H   4           s( 43.77%)p 1.16( 50.90%)d 0.12(  5.33%)
                                            0.0002  0.0016  0.0747  0.6574 -0.0053
                                            0.0971 -0.0654  0.0584  0.1407 -0.6870
                                           -0.0000 -0.0000 -0.0000 -0.0213 -0.0108
                                           -0.0000 -0.0000 -0.0000 -0.0000 -0.2086
                                           -0.0356 -0.0724 -0.0521
   170. (0.00009) RY*(16) H   4           s(  0.00%)p 1.00( 71.47%)d 0.40( 28.53%)
   171. (0.00007) RY*(17) H   4           s(  0.98%)p13.63( 13.32%)d87.72( 85.71%)
   172. (0.00008) RY*(18) H   4           s(  0.00%)p 1.00(  2.68%)d36.35( 97.32%)
   173. (0.00005) RY*(19) H   4           s(  3.67%)p19.69( 72.31%)d 6.54( 24.02%)
   174. (0.00004) RY*(20) H   4           s(  4.69%)p 1.34(  6.28%)d18.96( 89.03%)
   175. (0.00003) RY*(21) H   4           s(  0.00%)p 1.00(  0.36%)d99.99( 99.64%)
   176. (0.00003) RY*(22) H   4           s(  3.10%)p 1.42(  4.40%)d29.80( 92.49%)
   177. (0.06588) BD*( 1) O   1 -Cl   2  
                ( 42.52%)   0.6521* O   1 s( 11.99%)p 7.30( 87.53%)d 0.04(  0.47%)
                                                  f 0.00(  0.02%)
                                           -0.0003 -0.3409  0.0581 -0.0173  0.0007
                                           -0.9283  0.0436  0.0110  0.0166  0.1035
                                            0.0226  0.0036 -0.0027 -0.0000 -0.0000
                                           -0.0000 -0.0000  0.0149  0.0019 -0.0010
                                           -0.0000 -0.0000 -0.0000 -0.0000 -0.0000
                                           -0.0000 -0.0515 -0.0033 -0.0018  0.0418
                                            0.0035 -0.0003 -0.0000 -0.0000  0.0104
                                           -0.0009 -0.0005  0.0001 -0.0000 -0.0000
                                           -0.0000 -0.0000 -0.0083 -0.0009  0.0010
                                           -0.0011
                ( 57.48%)  -0.7581*Cl   2 s(  9.37%)p 9.55( 89.42%)d 0.12(  1.09%)
                                                  f 0.01(  0.12%)
                                            0.0000 -0.0006 -0.2999  0.0601  0.0105
                                            0.0026  0.0004  0.9432 -0.0658 -0.0136
                                            0.0033  0.0000  0.0109  0.0013 -0.0033
                                            0.0016 -0.0000 -0.0000 -0.0000 -0.0000
                                           -0.0000 -0.0134  0.0002 -0.0001 -0.0000
                                           -0.0000 -0.0000 -0.0000 -0.0000 -0.0000
                                           -0.0865  0.0128  0.0019  0.0549 -0.0082
                                           -0.0022 -0.0000 -0.0000 -0.0219  0.0028
                                           -0.0006  0.0001 -0.0000 -0.0000 -0.0000
                                           -0.0000  0.0269 -0.0028  0.0023 -0.0003
   178. (0.29834) BD*( 1)Br   3 - H   4  
                ( 18.73%)   0.4327*Br   3 s( 13.47%)p 6.41( 86.30%)d 0.02(  0.21%)
                                                  f 0.00(  0.02%)
                                            0.0000 -0.0000 -0.0003 -0.3670 -0.0019
                                            0.0037 -0.0008  0.0000 -0.0001 -0.2166
                                            0.0025  0.0011 -0.0005  0.0000 -0.0005
                                           -0.9032  0.0140  0.0063 -0.0022 -0.0000
                                           -0.0000 -0.0000 -0.0000 -0.0000 -0.0000
                                           -0.0000 -0.0176  0.0025 -0.0005 -0.0000
                                           -0.0000 -0.0000 -0.0000 -0.0000 -0.0000
                                           -0.0000 -0.0000  0.0000  0.0349 -0.0039
                                            0.0004  0.0000  0.0235 -0.0031  0.0009
                                           -0.0000 -0.0000  0.0019  0.0002  0.0079
                                            0.0005 -0.0000 -0.0000 -0.0000 -0.0000
                                            0.0067  0.0005  0.0076 -0.0000
                ( 81.27%)  -0.9015* H   4 s( 99.77%)p 0.00(  0.20%)d 0.00(  0.03%)
                                           -0.9986  0.0032 -0.0236 -0.0005  0.0067
                                            0.0037  0.0037  0.0343  0.0272  0.0037
                                           -0.0000 -0.0000 -0.0000  0.0002 -0.0072
                                           -0.0000 -0.0000 -0.0000 -0.0000  0.0007
                                            0.0125  0.0020  0.0088


 NHO Directionality and "Bond Bending" (deviations from line of nuclear centers)

         [Thresholds for printing:  angular deviation  >  1.0 degree]
                                    hybrid p-character > 25.0%
                                    orbital occupancy  >  0.10e

                                Line of Centers        Hybrid 1              Hybrid 2
                                ---------------  -------------------   ------------------
                NBO               Theta   Phi    Theta   Phi    Dev    Theta   Phi    Dev
 ========================================================================================
     1. BD (   1) O   1 -Cl   2    90.0    0.0    90.0  351.6   8.4      --     --    --
    23. LP (   1) O   1             --     --     90.0  117.8   --       --     --    --
    24. LP (   2) O   1             --     --      0.0    0.0   --       --     --    --
    25. LP (   3) O   1             --     --     90.0  255.6   --       --     --    --
    27. LP (   2)Cl   2             --     --      0.0    0.0   --       --     --    --
    28. LP (   3)Cl   2             --     --     90.0   90.1   --       --     --    --
    30. LP (   2)Br   3             --     --      0.0    0.0   --       --     --    --
    31. LP (   3)Br   3             --     --     90.0  346.3   --       --     --    --


 Natural Bond Orbitals (Summary):

           NBO                  Occupancy  
 -----------------------------------------------
 Molecular unit  1  (OCl)
     1. BD (   1) O   1 -Cl   2          1.93755
     3. CR (   1) O   1                  1.99982
     4. CR (   1)Cl   2                  2.00000
     5. CR (   2)Cl   2                  1.99975
     6. CR (   3)Cl   2                  1.99995
     7. CR (   4)Cl   2                  2.00003
     8. CR (   5)Cl   2                  2.00003
    23. LP (   1) O   1                  1.96651
    24. LP (   2) O   1                  1.94825
    25. LP (   3) O   1                  1.67848
    26. LP (   1)Cl   2                  1.97376
    27. LP (   2)Cl   2                  1.95508
    28. LP (   3)Cl   2                  1.95348
    32. RY*(   1) O   1                  0.02243
    33. RY*(   2) O   1                  0.01827
    34. RY*(   3) O   1                  0.00871
    35. RY*(   4) O   1                  0.00696
    36. RY*(   5) O   1                  0.00677
    37. RY*(   6) O   1                  0.00632
    38. RY*(   7) O   1                  0.00574
    39. RY*(   8) O   1                  0.00488
    40. RY*(   9) O   1                  0.00227
    41. RY*(  10) O   1                  0.00070
    42. RY*(  11) O   1                  0.00069
    43. RY*(  12) O   1                  0.00068
    44. RY*(  13) O   1                  0.00061
    45. RY*(  14) O   1                  0.00056
    46. RY*(  15) O   1                  0.00054
    47. RY*(  16) O   1                  0.00050
    48. RY*(  17) O   1                  0.00050
    49. RY*(  18) O   1                  0.00049
    50. RY*(  19) O   1                  0.00047
    51. RY*(  20) O   1                  0.00047
    52. RY*(  21) O   1                  0.00046
    53. RY*(  22) O   1                  0.00046
    54. RY*(  23) O   1                  0.00042
    55. RY*(  24) O   1                  0.00036
    56. RY*(  25) O   1                  0.00028
    57. RY*(  26) O   1                  0.00015
    58. RY*(  27) O   1                  0.00013
    59. RY*(  28) O   1                  0.00011
    60. RY*(  29) O   1                  0.00012
    61. RY*(  30) O   1                  0.00009
    62. RY*(  31) O   1                  0.00009
    63. RY*(  32) O   1                  0.00009
    64. RY*(  33) O   1                  0.00009
    65. RY*(  34) O   1                  0.00008
    66. RY*(  35) O   1                  0.00009
    67. RY*(  36) O   1                  0.00007
    68. RY*(  37) O   1                  0.00007
    69. RY*(  38) O   1                  0.00005
    70. RY*(  39) O   1                  0.00005
    71. RY*(  40) O   1                  0.00002
    72. RY*(  41) O   1                 -0.00018
    73. RY*(   1)Cl   2                  0.02478
    74. RY*(   2)Cl   2                  0.02079
    75. RY*(   3)Cl   2                  0.01702
    76. RY*(   4)Cl   2                  0.01699
    77. RY*(   5)Cl   2                  0.01267
    78. RY*(   6)Cl   2                  0.00986
    79. RY*(   7)Cl   2                  0.00956
    80. RY*(   8)Cl   2                  0.00676
    81. RY*(   9)Cl   2                  0.00189
    82. RY*(  10)Cl   2                  0.00127
    83. RY*(  11)Cl   2                  0.00127
    84. RY*(  12)Cl   2                  0.00122
    85. RY*(  13)Cl   2                  0.00122
    86. RY*(  14)Cl   2                  0.00119
    87. RY*(  15)Cl   2                  0.00114
    88. RY*(  16)Cl   2                  0.00100
    89. RY*(  17)Cl   2                  0.00080
    90. RY*(  18)Cl   2                  0.00078
    91. RY*(  19)Cl   2                  0.00070
    92. RY*(  20)Cl   2                  0.00065
    93. RY*(  21)Cl   2                  0.00047
    94. RY*(  22)Cl   2                  0.00038
    95. RY*(  23)Cl   2                  0.00037
    96. RY*(  24)Cl   2                  0.00033
    97. RY*(  25)Cl   2                  0.00019
    98. RY*(  26)Cl   2                  0.00017
    99. RY*(  27)Cl   2                  0.00017
   100. RY*(  28)Cl   2                  0.00015
   101. RY*(  29)Cl   2                  0.00013
   102. RY*(  30)Cl   2                  0.00013
   103. RY*(  31)Cl   2                  0.00013
   104. RY*(  32)Cl   2                  0.00012
   105. RY*(  33)Cl   2                  0.00011
   106. RY*(  34)Cl   2                  0.00010
   107. RY*(  35)Cl   2                  0.00009
   108. RY*(  36)Cl   2                  0.00010
   109. RY*(  37)Cl   2                  0.00008
   110. RY*(  38)Cl   2                  0.00004
   111. RY*(  39)Cl   2                  0.00003
   112. RY*(  40)Cl   2                  0.00003
   113. RY*(  41)Cl   2                  0.00000
   177. BD*(   1) O   1 -Cl   2          0.06588
       -------------------------------
              Total Lewis   25.41269  ( 98.8622%)
        Valence non-Lewis    0.06588  (  0.2563%)
        Rydberg non-Lewis    0.22658  (  0.8814%)
       -------------------------------
            Total unit  1   25.70515  (100.0000%)
           Charge unit  1   -0.70515

 Molecular unit  2  (HBr)
     2. BD (   1)Br   3 - H   4          1.95307
     9. CR (   1)Br   3                  2.00000
    10. CR (   2)Br   3                  2.00000
    11. CR (   3)Br   3                  1.99947
    12. CR (   4)Br   3                  2.00000
    13. CR (   5)Br   3                  1.99995
    14. CR (   6)Br   3                  2.00000
    15. CR (   7)Br   3                  1.99981
    16. CR (   8)Br   3                  2.00000
    17. CR (   9)Br   3                  1.99996
    18. CR (  10)Br   3                  1.99763
    19. CR (  11)Br   3                  1.99769
    20. CR (  12)Br   3                  1.99765
    21. CR (  13)Br   3                  1.99756
    22. CR (  14)Br   3                  1.99764
    29. LP (   1)Br   3                  1.97557
    30. LP (   2)Br   3                  1.95467
    31. LP (   3)Br   3                  1.95435
   114. RY*(   1)Br   3                  0.01824
   115. RY*(   2)Br   3                  0.01824
   116. RY*(   3)Br   3                  0.01803
   117. RY*(   4)Br   3                  0.01792
   118. RY*(   5)Br   3                  0.01707
   119. RY*(   6)Br   3                  0.01013
   120. RY*(   7)Br   3                  0.01008
   121. RY*(   8)Br   3                  0.00784
   122. RY*(   9)Br   3                  0.00173
   123. RY*(  10)Br   3                  0.00173
   124. RY*(  11)Br   3                  0.00172
   125. RY*(  12)Br   3                  0.00172
   126. RY*(  13)Br   3                  0.00168
   127. RY*(  14)Br   3                  0.00168
   128. RY*(  15)Br   3                  0.00168
   129. RY*(  16)Br   3                  0.00168
   130. RY*(  17)Br   3                  0.00169
   131. RY*(  18)Br   3                  0.00159
   132. RY*(  19)Br   3                  0.00126
   133. RY*(  20)Br   3                  0.00121
   134. RY*(  21)Br   3                  0.00114
   135. RY*(  22)Br   3                  0.00074
   136. RY*(  23)Br   3                  0.00074
   137. RY*(  24)Br   3                  0.00060
   138. RY*(  25)Br   3                  0.00044
   139. RY*(  26)Br   3                  0.00028
   140. RY*(  27)Br   3                  0.00026
   141. RY*(  28)Br   3                  0.00023
   142. RY*(  29)Br   3                  0.00023
   143. RY*(  30)Br   3                  0.00022
   144. RY*(  31)Br   3                  0.00023
   145. RY*(  32)Br   3                  0.00023
   146. RY*(  33)Br   3                  0.00021
   147. RY*(  34)Br   3                  0.00019
   148. RY*(  35)Br   3                  0.00016
   149. RY*(  36)Br   3                  0.00012
   150. RY*(  37)Br   3                  0.00013
   151. RY*(  38)Br   3                  0.00012
   152. RY*(  39)Br   3                  0.00008
   153. RY*(  40)Br   3                  0.00008
   154. RY*(  41)Br   3                  0.00004
   155. RY*(   1) H   4                  0.00623
   156. RY*(   2) H   4                  0.00616
   157. RY*(   3) H   4                  0.00491
   158. RY*(   4) H   4                  0.00423
   159. RY*(   5) H   4                  0.00322
   160. RY*(   6) H   4                  0.00075
   161. RY*(   7) H   4                  0.00036
   162. RY*(   8) H   4                  0.00031
   163. RY*(   9) H   4                  0.00030
   164. RY*(  10) H   4                  0.00030
   165. RY*(  11) H   4                  0.00023
   166. RY*(  12) H   4                  0.00024
   167. RY*(  13) H   4                  0.00021
   168. RY*(  14) H   4                  0.00015
   169. RY*(  15) H   4                  0.00011
   170. RY*(  16) H   4                  0.00009
   171. RY*(  17) H   4                  0.00007
   172. RY*(  18) H   4                  0.00008
   173. RY*(  19) H   4                  0.00005
   174. RY*(  20) H   4                  0.00004
   175. RY*(  21) H   4                  0.00003
   176. RY*(  22) H   4                  0.00003
   178. BD*(   1)Br   3 - H   4          0.29834
       -------------------------------
              Total Lewis   35.82502  ( 98.7055%)
        Valence non-Lewis    0.29834  (  0.8220%)
        Rydberg non-Lewis    0.17149  (  0.4725%)
       -------------------------------
            Total unit  2   36.29485  (100.0000%)
           Charge unit  2   -0.29485
 Leave Link  607 at Tue Oct 12 14:25:59 2021, MaxMem=  1048576000 cpu:        10.5
 (Enter /usr/local/gaussian/g09/l9999.exe)
 1\1\GINC-KRYPTON\SP\RMP2-FC\Aug-CC-pVTZ\Br1Cl1H1O1(1-)\CGAVINH\12-Oct-
 2021\0\\#p pop=NBO SP NoSymm mp2/aug-cc-pvtz density=current\\title\\-
 1,1\O\X,1,10.\Cl,1,1.68432554,2,90.\Br,1,3.07381752,2,90.,3,103.420351
 85,0\H,1,1.3,2,90.,3,103.42035185,0\\Version=ES64L-G09RevE.01\HF=-3107
 .4464406\MP2=-3108.1645769\RMSD=9.141e-09\Dipole=0.3477696,-0.178524,0
 .\Quadrupole=4.8824173,-12.0777786,7.1953612,-4.8663132,0.,0.\PG=CS [S
 G(Br1Cl1H1O1)]\\@


 IT IS IMPOSSIBLE TO MEDITATE ON TIME AND THE MYSTERY 
 OF NATURE WITHOUT AN OVERWHELMING EMOTION AT THE
 LIMITATIONS OF HUMAN INTELLIGENCE.

                                         -- ALFRED NORTH WHITEHEAD
 Job cpu time:       0 days  0 hours  2 minutes 35.0 seconds.
 File lengths (MBytes):  RWF=     14 Int=      0 D2E=      0 Chk=      4 Scr=      1
 Normal termination of Gaussian 09 at Tue Oct 12 14:25:59 2021.
