 Entering Gaussian System, Link 0=g09
 Input=brhocl_0_opt.gjf
 Output=brhocl_0_opt.log
 Initial command:
 /usr/local/gaussian/g09/l1.exe "/scratch/Gau-5992.inp" -scrdir="/scratch/"
 Entering Link 1 = /usr/local/gaussian/g09/l1.exe PID=      5993.
  
 Copyright (c) 1988,1990,1992,1993,1995,1998,2003,2009,2015,
            Gaussian, Inc.  All Rights Reserved.
  
 This is part of the Gaussian(R) 09 program.  It is based on
 the Gaussian(R) 03 system (copyright 2003, Gaussian, Inc.),
 the Gaussian(R) 98 system (copyright 1998, Gaussian, Inc.),
 the Gaussian(R) 94 system (copyright 1995, Gaussian, Inc.),
 the Gaussian 92(TM) system (copyright 1992, Gaussian, Inc.),
 the Gaussian 90(TM) system (copyright 1990, Gaussian, Inc.),
 the Gaussian 88(TM) system (copyright 1988, Gaussian, Inc.),
 the Gaussian 86(TM) system (copyright 1986, Carnegie Mellon
 University), and the Gaussian 82(TM) system (copyright 1983,
 Carnegie Mellon University). Gaussian is a federally registered
 trademark of Gaussian, Inc.
  
 This software contains proprietary and confidential information,
 including trade secrets, belonging to Gaussian, Inc.
  
 This software is provided under written license and may be
 used, copied, transmitted, or stored only in accord with that
 written license.
  
 The following legend is applicable only to US Government
 contracts under FAR:
  
                    RESTRICTED RIGHTS LEGEND
  
 Use, reproduction and disclosure by the US Government is
 subject to restrictions as set forth in subparagraphs (a)
 and (c) of the Commercial Computer Software - Restricted
 Rights clause in FAR 52.227-19.
  
 Gaussian, Inc.
 340 Quinnipiac St., Bldg. 40, Wallingford CT 06492
  
  
 ---------------------------------------------------------------
 Warning -- This program may not be used in any manner that
 competes with the business of Gaussian, Inc. or will provide
 assistance to any competitor of Gaussian, Inc.  The licensee
 of this program is prohibited from giving any competitor of
 Gaussian, Inc. access to this program.  By using this program,
 the user acknowledges that Gaussian, Inc. is engaged in the
 business of creating and licensing software in the field of
 computational chemistry and represents and warrants to the
 licensee that it is not a competitor of Gaussian, Inc. and that
 it will not use this program in any manner prohibited above.
 ---------------------------------------------------------------
  

 Cite this work as:
 Gaussian 09, Revision E.01,
 M. J. Frisch, G. W. Trucks, H. B. Schlegel, G. E. Scuseria, 
 M. A. Robb, J. R. Cheeseman, G. Scalmani, V. Barone, B. Mennucci, 
 G. A. Petersson, H. Nakatsuji, M. Caricato, X. Li, H. P. Hratchian, 
 A. F. Izmaylov, J. Bloino, G. Zheng, J. L. Sonnenberg, M. Hada, 
 M. Ehara, K. Toyota, R. Fukuda, J. Hasegawa, M. Ishida, T. Nakajima, 
 Y. Honda, O. Kitao, H. Nakai, T. Vreven, J. A. Montgomery, Jr., 
 J. E. Peralta, F. Ogliaro, M. Bearpark, J. J. Heyd, E. Brothers, 
 K. N. Kudin, V. N. Staroverov, T. Keith, R. Kobayashi, J. Normand, 
 K. Raghavachari, A. Rendell, J. C. Burant, S. S. Iyengar, J. Tomasi, 
 M. Cossi, N. Rega, J. M. Millam, M. Klene, J. E. Knox, J. B. Cross, 
 V. Bakken, C. Adamo, J. Jaramillo, R. Gomperts, R. E. Stratmann, 
 O. Yazyev, A. J. Austin, R. Cammi, C. Pomelli, J. W. Ochterski, 
 R. L. Martin, K. Morokuma, V. G. Zakrzewski, G. A. Voth, 
 P. Salvador, J. J. Dannenberg, S. Dapprich, A. D. Daniels, 
 O. Farkas, J. B. Foresman, J. V. Ortiz, J. Cioslowski, 
 and D. J. Fox, Gaussian, Inc., Wallingford CT, 2013.
 
 ******************************************
 Gaussian 09:  ES64L-G09RevE.01 30-Nov-2015
                12-Oct-2021 
 ******************************************
 %nproc=12
 Will use up to   12 processors via shared memory.
 %mem=120GB
 %chk=/home/netid.washington.edu/cgavinh/mccoy_hocl/rOH_s_oop_0/brhocl/brhocl_0_o
 pt.chk
 -------------------------------------------------
 #p opt=(z-matrix) mp2/aug-cc-pvtz density=current
 -------------------------------------------------
 1/10=7,18=40,38=1/1,3;
 2/12=2,17=6,18=5,29=3,40=1/2;
 3/5=16,6=1,7=10,11=9,16=1,25=1,30=1,71=1/1,2,3;
 4//1;
 5/5=2,38=5/2;
 8/6=4,10=1/1;
 9/15=2,16=-3/6;
 10/5=1/2;
 6/7=2,8=2,9=2,10=2,22=-1/1;
 7/12=2,29=1/1,2,3,16;
 1/10=7,18=40/3(2);
 2/29=3/2;
 99//99;
 2/29=3/2;
 3/5=16,6=1,7=10,11=9,16=1,25=1,30=1,71=1/1,2,3;
 4/5=5,16=3,69=1/1;
 5/5=2,38=5/2;
 8/6=4,10=1/1;
 9/15=2,16=-3/6;
 10/5=1/2;
 7/12=2/1,2,3,16;
 1/18=40/3(-8);
 2/29=3/2;
 6/7=2,8=2,9=2,10=2,22=-1/1;
 99//99;
 Leave Link    1 at Tue Oct 12 13:27:27 2021, MaxMem= 16106127360 cpu:         0.5
 (Enter /usr/local/gaussian/g09/l101.exe)
 -----
 title
 -----
 Symbolic Z-matrix:
 Charge = -1 Multiplicity = 1
 O
 X                    1     10. 
 Cl                   1    r1       2     90. 
 Br                   1    r2       2     90.      3    a1       0
 H                    1    r3       2    oop      3    a1       0
       Variables:
  r1                    1.685                    
  r2                    3.07067                  
  r3                    1.01773                  
  a1                  103.50791                  
  OOP                  90.                       
 
 NAtoms=      4 NQM=        4 NQMF=       0 NMMI=      0 NMMIF=      0
                NMic=       0 NMicF=      0.
                    Isotopes and Nuclear Properties:
 (Nuclear quadrupole moments (NQMom) in fm**2, nuclear magnetic moments (NMagM)
  in nuclear magnetons)

  Atom         1           2           3           4
 IAtWgt=          16          35          79           1
 AtmWgt=  15.9949146  34.9688527  78.9183361   1.0078250
 NucSpn=           0           3           3           1
 AtZEff=   0.0000000   0.0000000   0.0000000   0.0000000
 NQMom=    0.0000000  -8.1650000  31.3000000   0.0000000
 NMagM=    0.0000000   0.8218740   2.1063990   2.7928460
 AtZNuc=   8.0000000  17.0000000  35.0000000   1.0000000
 Leave Link  101 at Tue Oct 12 13:27:27 2021, MaxMem= 16106127360 cpu:         0.6
 (Enter /usr/local/gaussian/g09/l103.exe)

 GradGradGradGradGradGradGradGradGradGradGradGradGradGradGradGradGradGrad
 Berny optimization.
 Initialization pass.
                       ----------------------------
                       !    Initial Parameters    !
                       ! (Angstroms and Degrees)  !
 ----------------------                            ----------------------
 !      Name          Value   Derivative information (Atomic Units)     !
 ------------------------------------------------------------------------
 !       r1          1.685    estimate D2E/DX2                          !
 !       r2          3.0707   estimate D2E/DX2                          !
 !       r3          1.0177   estimate D2E/DX2                          !
 !       a1        103.5079   estimate D2E/DX2                          !
 !       OOP        90.0      estimate D2E/DX2                          !
 ------------------------------------------------------------------------
 Trust Radius=3.00D-01 FncErr=1.00D-07 GrdErr=1.00D-07
 Number of steps in this run=     20 maximum allowed number of steps=    100.
 GradGradGradGradGradGradGradGradGradGradGradGradGradGradGradGradGradGrad

 Leave Link  103 at Tue Oct 12 13:27:27 2021, MaxMem= 16106127360 cpu:         0.1
 (Enter /usr/local/gaussian/g09/l202.exe)
 ---------------------------------------------------------------------------------------------------
                            Z-MATRIX (ANGSTROMS AND DEGREES)
   CD    Cent   Atom    N1       Length/X        N2       Alpha/Y        N3        Beta/Z          J
 ---------------------------------------------------------------------------------------------------
      1      1  O 
      2         X        1  10.000000(     1)
      3      2  Cl       1   1.685000(     2)      2   90.000(     5)
      4      3  Br       1   3.070672(     3)      2   90.000(     6)      3  103.508(     8)      0
      5      4  H        1   1.017728(     4)      2   90.000(     7)      3  103.508(     9)      0
 ---------------------------------------------------------------------------------------------------
                         Z-Matrix orientation:                         
 ---------------------------------------------------------------------
 Center     Atomic      Atomic             Coordinates (Angstroms)
 Number     Number       Type             X           Y           Z
 ---------------------------------------------------------------------
      1          8           0        0.000000    0.000000    0.000000
      2         -1           0        0.000000    0.000000   10.000000
      3         17           0        1.685000    0.000000    0.000000
      4         35           0       -0.717246   -2.985731    0.000000
      5          1           0       -0.237720   -0.989575    0.000000
 ---------------------------------------------------------------------
                    Distance matrix (angstroms):
                    1          2          3          4          5
     1  O    0.000000
     2  X   10.000000   0.000000
     3  Cl   1.685000  10.140968   0.000000
     4  Br   3.070672  10.460833   3.832150   0.000000
     5  H    1.017728  10.051655   2.162432   2.052945   0.000000
 Stoichiometry    BrClHO(1-)
 Framework group  CS[SG(BrClHO)]
 Deg. of freedom     5
 Full point group                 CS      NOp   2
 Largest Abelian subgroup         CS      NOp   2
 Largest concise Abelian subgroup C1      NOp   1
                         Standard orientation:                         
 ---------------------------------------------------------------------
 Center     Atomic      Atomic             Coordinates (Angstroms)
 Number     Number       Type             X           Y           Z
 ---------------------------------------------------------------------
      1          8           0        0.584323    1.628539    0.000000
      2         17           0        2.151733    1.010114    0.000000
      3         35           0       -1.178687   -0.885586    0.000000
      4          1           0        0.000000    0.795271    0.000000
 ---------------------------------------------------------------------
 Rotational constants (GHZ):     22.6784948      1.2815329      1.2129885
 Leave Link  202 at Tue Oct 12 13:27:27 2021, MaxMem= 16106127360 cpu:         0.1
 (Enter /usr/local/gaussian/g09/l301.exe)
 Standard basis: Aug-CC-pVTZ (5D, 7F)
 Ernie: Thresh=  0.10000D-02 Tol=  0.10000D-05 Strict=F.
 Ernie:  48 primitive shells out of 228 were deleted.
 There are   142 symmetry adapted cartesian basis functions of A'  symmetry.
 There are    66 symmetry adapted cartesian basis functions of A"  symmetry.
 There are   118 symmetry adapted basis functions of A'  symmetry.
 There are    60 symmetry adapted basis functions of A"  symmetry.
   178 basis functions,   430 primitive gaussians,   208 cartesian basis functions
    31 alpha electrons       31 beta electrons
       nuclear repulsion energy       190.4686489436 Hartrees.
 IExCor=    0 DFT=F Ex=HF Corr=None ExCW=0 ScaHFX=  1.000000
 ScaDFX=  1.000000  1.000000  1.000000  1.000000 ScalE2=  1.000000  1.000000
 IRadAn=      0 IRanWt=     -1 IRanGd=            0 ICorTp=0 IEmpDi=  4
 NAtoms=    4 NActive=    4 NUniq=    4 SFac= 1.00D+00 NAtFMM=   60 NAOKFM=F Big=F
 Integral buffers will be    131072 words long.
 Raffenetti 1 integral format.
 Two-electron integral symmetry is turned on.
 Leave Link  301 at Tue Oct 12 13:27:27 2021, MaxMem= 16106127360 cpu:         0.4
 (Enter /usr/local/gaussian/g09/l302.exe)
 NPDir=0 NMtPBC=     1 NCelOv=     1 NCel=       1 NClECP=     1 NCelD=      1
         NCelK=      1 NCelE2=     1 NClLst=     1 CellRange=     0.0.
 One-electron integrals computed using PRISM.
 NBasis=   178 RedAO= T EigKep=  3.38D-04  NBF=   118    60
 NBsUse=   178 1.00D-06 EigRej= -1.00D+00 NBFU=   118    60
 Leave Link  302 at Tue Oct 12 13:27:27 2021, MaxMem= 16106127360 cpu:         2.0
 (Enter /usr/local/gaussian/g09/l303.exe)
 DipDrv:  MaxL=1.
 Leave Link  303 at Tue Oct 12 13:27:27 2021, MaxMem= 16106127360 cpu:         0.2
 (Enter /usr/local/gaussian/g09/l401.exe)
 ExpMin= 2.53D-02 ExpMax= 1.06D+07 ExpMxC= 1.21D+04 IAcc=3 IRadAn=         5 AccDes= 0.00D+00
 Harris functional with IExCor=  205 and IRadAn=       5 diagonalized for initial guess.
 HarFok:  IExCor=  205 AccDes= 0.00D+00 IRadAn=         5 IDoV= 1 UseB2=F ITyADJ=14
 ICtDFT=  3500011 ScaDFX=  1.000000  1.000000  1.000000  1.000000
 FoFCou: FMM=F IPFlag=           0 FMFlag=      100000 FMFlg1=           0
         NFxFlg=           0 DoJE=T BraDBF=F KetDBF=T FulRan=T
         wScrn=  0.000000 ICntrl=     500 IOpCl=  0 I1Cent=   200000004 NGrid=           0
         NMat0=    1 NMatS0=      1 NMatT0=    0 NMatD0=    1 NMtDS0=    0 NMtDT0=    0
 Petite list used in FoFCou.
 Harris En= -3106.38945614079    
 JPrj=0 DoOrth=F DoCkMO=F.
 Initial guess orbital symmetries:
       Occupied  (A') (A') (A') (A') (A') (A") (A') (A') (A') (A')
                 (A') (A") (A') (A') (A") (A') (A') (A") (A') (A")
                 (A') (A') (A') (A') (A') (A") (A') (A') (A") (A')
                 (A")
       Virtual   (A') (A') (A') (A') (A") (A') (A') (A") (A') (A')
                 (A") (A') (A") (A') (A') (A") (A') (A') (A") (A')
                 (A') (A') (A') (A") (A") (A') (A') (A') (A") (A')
                 (A') (A') (A") (A") (A') (A") (A') (A') (A') (A")
                 (A') (A') (A") (A") (A') (A') (A") (A') (A') (A")
                 (A') (A') (A") (A") (A') (A') (A') (A") (A') (A")
                 (A') (A") (A') (A') (A') (A') (A') (A") (A") (A')
                 (A") (A") (A') (A') (A') (A') (A') (A") (A') (A')
                 (A") (A') (A") (A') (A") (A') (A") (A") (A') (A')
                 (A') (A") (A') (A') (A") (A') (A") (A') (A') (A")
                 (A') (A") (A') (A") (A') (A') (A') (A") (A") (A')
                 (A') (A") (A') (A') (A") (A') (A') (A") (A') (A')
                 (A') (A") (A") (A') (A") (A') (A') (A') (A') (A')
                 (A") (A') (A') (A') (A") (A') (A") (A') (A") (A")
                 (A') (A') (A") (A') (A') (A') (A')
 The electronic state of the initial guess is 1-A'.
 Leave Link  401 at Tue Oct 12 13:27:27 2021, MaxMem= 16106127360 cpu:         3.1
 (Enter /usr/local/gaussian/g09/l502.exe)
 Closed shell SCF:
 Using DIIS extrapolation, IDIIS=  1040.
 Integral symmetry usage will be decided dynamically.
 Keep R1 ints in memory in symmetry-blocked form, NReq=191334358.
 IVT=      152392 IEndB=      152392 NGot= 16106127360 MDV= 16041699527
 LenX= 16041699527 LenY= 16041655822
 Requested convergence on RMS density matrix=1.00D-08 within 128 cycles.
 Requested convergence on MAX density matrix=1.00D-06.
 Requested convergence on             energy=1.00D-06.
 No special actions if energy rises.
 FoFCou: FMM=F IPFlag=           0 FMFlag=           0 FMFlg1=           0
         NFxFlg=           0 DoJE=F BraDBF=F KetDBF=F FulRan=T
         wScrn=  0.000000 ICntrl=     600 IOpCl=  0 I1Cent=           0 NGrid=           0
         NMat0=    1 NMatS0=  15931 NMatT0=    0 NMatD0=    1 NMtDS0=    0 NMtDT0=    0
 Petite list used in FoFCou.

 Cycle   1  Pass 1  IDiag  1:
 E= -3107.31686024961    
 DIIS: error= 6.13D-02 at cycle   1 NSaved=   1.
 NSaved= 1 IEnMin= 1 EnMin= -3107.31686024961     IErMin= 1 ErrMin= 6.13D-02
 ErrMax= 6.13D-02  0.00D+00 EMaxC= 1.00D-01 BMatC= 6.37D-01 BMatP= 6.37D-01
 IDIUse=3 WtCom= 3.87D-01 WtEn= 6.13D-01
 Coeff-Com:  0.100D+01
 Coeff-En:   0.100D+01
 Coeff:      0.100D+01
 Gap=     0.557 Goal=   None    Shift=    0.000
 GapD=    0.557 DampG=2.000 DampE=0.500 DampFc=1.0000 IDamp=-1.
 RMSDP=3.09D-03 MaxDP=1.01D-01              OVMax= 1.16D-01

 Cycle   2  Pass 1  IDiag  1:
 E= -3107.45107568419     Delta-E=       -0.134215434582 Rises=F Damp=F
 DIIS: error= 1.72D-02 at cycle   2 NSaved=   2.
 NSaved= 2 IEnMin= 2 EnMin= -3107.45107568419     IErMin= 2 ErrMin= 1.72D-02
 ErrMax= 1.72D-02  0.00D+00 EMaxC= 1.00D-01 BMatC= 4.21D-02 BMatP= 6.37D-01
 IDIUse=3 WtCom= 8.28D-01 WtEn= 1.72D-01
 Coeff-Com:  0.133D+00 0.867D+00
 Coeff-En:   0.000D+00 0.100D+01
 Coeff:      0.110D+00 0.890D+00
 Gap=     0.332 Goal=   None    Shift=    0.000
 RMSDP=1.13D-03 MaxDP=3.78D-02 DE=-1.34D-01 OVMax= 7.20D-02

 Cycle   3  Pass 1  IDiag  1:
 E= -3107.46877969598     Delta-E=       -0.017704011786 Rises=F Damp=F
 DIIS: error= 8.85D-03 at cycle   3 NSaved=   3.
 NSaved= 3 IEnMin= 3 EnMin= -3107.46877969598     IErMin= 3 ErrMin= 8.85D-03
 ErrMax= 8.85D-03  0.00D+00 EMaxC= 1.00D-01 BMatC= 1.36D-02 BMatP= 4.21D-02
 IDIUse=3 WtCom= 9.12D-01 WtEn= 8.85D-02
 Coeff-Com:  0.688D-02 0.360D+00 0.633D+00
 Coeff-En:   0.000D+00 0.183D+00 0.817D+00
 Coeff:      0.627D-02 0.345D+00 0.649D+00
 Gap=     0.334 Goal=   None    Shift=    0.000
 RMSDP=3.47D-04 MaxDP=1.23D-02 DE=-1.77D-02 OVMax= 3.53D-02

 Cycle   4  Pass 1  IDiag  1:
 E= -3107.47812529135     Delta-E=       -0.009345595368 Rises=F Damp=F
 DIIS: error= 1.40D-03 at cycle   4 NSaved=   4.
 NSaved= 4 IEnMin= 4 EnMin= -3107.47812529135     IErMin= 4 ErrMin= 1.40D-03
 ErrMax= 1.40D-03  0.00D+00 EMaxC= 1.00D-01 BMatC= 1.72D-04 BMatP= 1.36D-02
 IDIUse=3 WtCom= 9.86D-01 WtEn= 1.40D-02
 Coeff-Com: -0.514D-02-0.283D-01 0.495D-01 0.984D+00
 Coeff-En:   0.000D+00 0.000D+00 0.000D+00 0.100D+01
 Coeff:     -0.507D-02-0.279D-01 0.488D-01 0.984D+00
 Gap=     0.332 Goal=   None    Shift=    0.000
 RMSDP=6.06D-05 MaxDP=1.42D-03 DE=-9.35D-03 OVMax= 3.52D-03

 Cycle   5  Pass 1  IDiag  1:
 E= -3107.47832345067     Delta-E=       -0.000198159325 Rises=F Damp=F
 DIIS: error= 2.18D-04 at cycle   5 NSaved=   5.
 NSaved= 5 IEnMin= 5 EnMin= -3107.47832345067     IErMin= 5 ErrMin= 2.18D-04
 ErrMax= 2.18D-04  0.00D+00 EMaxC= 1.00D-01 BMatC= 1.21D-05 BMatP= 1.72D-04
 IDIUse=3 WtCom= 9.98D-01 WtEn= 2.18D-03
 Coeff-Com:  0.815D-03-0.176D-01-0.398D-01-0.169D+00 0.123D+01
 Coeff-En:   0.000D+00 0.000D+00 0.000D+00 0.000D+00 0.100D+01
 Coeff:      0.813D-03-0.176D-01-0.397D-01-0.169D+00 0.123D+01
 Gap=     0.333 Goal=   None    Shift=    0.000
 RMSDP=3.05D-05 MaxDP=8.29D-04 DE=-1.98D-04 OVMax= 2.88D-03

 Cycle   6  Pass 1  IDiag  1:
 E= -3107.47835713298     Delta-E=       -0.000033682306 Rises=F Damp=F
 DIIS: error= 1.22D-04 at cycle   6 NSaved=   6.
 NSaved= 6 IEnMin= 6 EnMin= -3107.47835713298     IErMin= 6 ErrMin= 1.22D-04
 ErrMax= 1.22D-04  0.00D+00 EMaxC= 1.00D-01 BMatC= 1.70D-06 BMatP= 1.21D-05
 IDIUse=3 WtCom= 9.99D-01 WtEn= 1.22D-03
 Coeff-Com:  0.467D-03 0.415D-02-0.144D-02-0.123D+00-0.543D-01 0.117D+01
 Coeff-En:   0.000D+00 0.000D+00 0.000D+00 0.000D+00 0.000D+00 0.100D+01
 Coeff:      0.466D-03 0.414D-02-0.143D-02-0.123D+00-0.542D-01 0.117D+01
 Gap=     0.333 Goal=   None    Shift=    0.000
 RMSDP=1.29D-05 MaxDP=3.75D-04 DE=-3.37D-05 OVMax= 1.44D-03

 Cycle   7  Pass 1  IDiag  1:
 E= -3107.47836287639     Delta-E=       -0.000005743407 Rises=F Damp=F
 DIIS: error= 4.55D-05 at cycle   7 NSaved=   7.
 NSaved= 7 IEnMin= 7 EnMin= -3107.47836287639     IErMin= 7 ErrMin= 4.55D-05
 ErrMax= 4.55D-05  0.00D+00 EMaxC= 1.00D-01 BMatC= 1.80D-07 BMatP= 1.70D-06
 IDIUse=1 WtCom= 1.00D+00 WtEn= 0.00D+00
 Coeff-Com: -0.227D-03 0.864D-03 0.660D-02 0.547D-01-0.154D+00-0.275D+00
 Coeff-Com:  0.137D+01
 Coeff:     -0.227D-03 0.864D-03 0.660D-02 0.547D-01-0.154D+00-0.275D+00
 Coeff:      0.137D+01
 Gap=     0.333 Goal=   None    Shift=    0.000
 RMSDP=5.27D-06 MaxDP=1.40D-04 DE=-5.74D-06 OVMax= 5.59D-04

 Cycle   8  Pass 1  IDiag  1:
 E= -3107.47836357021     Delta-E=       -0.000000693820 Rises=F Damp=F
 DIIS: error= 8.47D-06 at cycle   8 NSaved=   8.
 NSaved= 8 IEnMin= 8 EnMin= -3107.47836357021     IErMin= 8 ErrMin= 8.47D-06
 ErrMax= 8.47D-06  0.00D+00 EMaxC= 1.00D-01 BMatC= 8.77D-09 BMatP= 1.80D-07
 IDIUse=1 WtCom= 1.00D+00 WtEn= 0.00D+00
 Coeff-Com:  0.149D-04-0.466D-03-0.109D-02-0.454D-02 0.280D-01 0.133D-01
 Coeff-Com: -0.318D+00 0.128D+01
 Coeff:      0.149D-04-0.466D-03-0.109D-02-0.454D-02 0.280D-01 0.133D-01
 Coeff:     -0.318D+00 0.128D+01
 Gap=     0.333 Goal=   None    Shift=    0.000
 RMSDP=1.19D-06 MaxDP=2.55D-05 DE=-6.94D-07 OVMax= 1.29D-04

 Cycle   9  Pass 1  IDiag  1:
 E= -3107.47836360538     Delta-E=       -0.000000035172 Rises=F Damp=F
 DIIS: error= 3.53D-06 at cycle   9 NSaved=   9.
 NSaved= 9 IEnMin= 9 EnMin= -3107.47836360538     IErMin= 9 ErrMin= 3.53D-06
 ErrMax= 3.53D-06  0.00D+00 EMaxC= 1.00D-01 BMatC= 1.16D-09 BMatP= 8.77D-09
 IDIUse=1 WtCom= 1.00D+00 WtEn= 0.00D+00
 Coeff-Com:  0.127D-04-0.669D-04-0.336D-03-0.246D-02 0.721D-02 0.150D-01
 Coeff-Com: -0.546D-01-0.176D+00 0.121D+01
 Coeff:      0.127D-04-0.669D-04-0.336D-03-0.246D-02 0.721D-02 0.150D-01
 Coeff:     -0.546D-01-0.176D+00 0.121D+01
 Gap=     0.333 Goal=   None    Shift=    0.000
 RMSDP=4.35D-07 MaxDP=9.74D-06 DE=-3.52D-08 OVMax= 5.31D-05

 Cycle  10  Pass 1  IDiag  1:
 E= -3107.47836361049     Delta-E=       -0.000000005113 Rises=F Damp=F
 DIIS: error= 1.81D-06 at cycle  10 NSaved=  10.
 NSaved=10 IEnMin=10 EnMin= -3107.47836361049     IErMin=10 ErrMin= 1.81D-06
 ErrMax= 1.81D-06  0.00D+00 EMaxC= 1.00D-01 BMatC= 2.62D-10 BMatP= 1.16D-09
 IDIUse=1 WtCom= 1.00D+00 WtEn= 0.00D+00
 Coeff-Com: -0.338D-05 0.140D-03 0.249D-03 0.367D-03-0.604D-02 0.155D-02
 Coeff-Com:  0.590D-01-0.255D+00-0.832D-01 0.128D+01
 Coeff:     -0.338D-05 0.140D-03 0.249D-03 0.367D-03-0.604D-02 0.155D-02
 Coeff:      0.590D-01-0.255D+00-0.832D-01 0.128D+01
 Gap=     0.333 Goal=   None    Shift=    0.000
 RMSDP=2.68D-07 MaxDP=5.72D-06 DE=-5.11D-09 OVMax= 3.22D-05

 Cycle  11  Pass 1  IDiag  1:
 E= -3107.47836361175     Delta-E=       -0.000000001263 Rises=F Damp=F
 DIIS: error= 5.81D-07 at cycle  11 NSaved=  11.
 NSaved=11 IEnMin=11 EnMin= -3107.47836361175     IErMin=11 ErrMin= 5.81D-07
 ErrMax= 5.81D-07  0.00D+00 EMaxC= 1.00D-01 BMatC= 2.55D-11 BMatP= 2.62D-10
 IDIUse=1 WtCom= 1.00D+00 WtEn= 0.00D+00
 Coeff-Com: -0.162D-05-0.201D-04 0.150D-04 0.630D-03-0.699D-03-0.352D-02
 Coeff-Com:  0.433D-02 0.531D-01-0.150D+00-0.202D+00 0.130D+01
 Coeff:     -0.162D-05-0.201D-04 0.150D-04 0.630D-03-0.699D-03-0.352D-02
 Coeff:      0.433D-02 0.531D-01-0.150D+00-0.202D+00 0.130D+01
 Gap=     0.333 Goal=   None    Shift=    0.000
 RMSDP=8.85D-08 MaxDP=1.94D-06 DE=-1.26D-09 OVMax= 1.04D-05

 Cycle  12  Pass 1  IDiag  1:
 E= -3107.47836361189     Delta-E=       -0.000000000139 Rises=F Damp=F
 DIIS: error= 1.30D-07 at cycle  12 NSaved=  12.
 NSaved=12 IEnMin=12 EnMin= -3107.47836361189     IErMin=12 ErrMin= 1.30D-07
 ErrMax= 1.30D-07  0.00D+00 EMaxC= 1.00D-01 BMatC= 1.68D-12 BMatP= 2.55D-11
 IDIUse=1 WtCom= 1.00D+00 WtEn= 0.00D+00
 Coeff-Com:  0.113D-06-0.116D-04-0.219D-04-0.258D-04 0.532D-03-0.954D-04
 Coeff-Com: -0.591D-02 0.270D-01 0.400D-02-0.143D+00 0.115D+00 0.100D+01
 Coeff:      0.113D-06-0.116D-04-0.219D-04-0.258D-04 0.532D-03-0.954D-04
 Coeff:     -0.591D-02 0.270D-01 0.400D-02-0.143D+00 0.115D+00 0.100D+01
 Gap=     0.333 Goal=   None    Shift=    0.000
 RMSDP=1.61D-08 MaxDP=3.28D-07 DE=-1.39D-10 OVMax= 1.63D-06

 Cycle  13  Pass 1  IDiag  1:
 E= -3107.47836361190     Delta-E=       -0.000000000005 Rises=F Damp=F
 DIIS: error= 2.38D-08 at cycle  13 NSaved=  13.
 NSaved=13 IEnMin=13 EnMin= -3107.47836361190     IErMin=13 ErrMin= 2.38D-08
 ErrMax= 2.38D-08  0.00D+00 EMaxC= 1.00D-01 BMatC= 9.52D-14 BMatP= 1.68D-12
 IDIUse=1 WtCom= 1.00D+00 WtEn= 0.00D+00
 Coeff-Com:  0.825D-07 0.259D-05 0.222D-05-0.268D-04-0.408D-04 0.139D-03
 Coeff-Com:  0.895D-03-0.787D-02 0.906D-02 0.361D-01-0.110D+00-0.142D+00
 Coeff-Com:  0.121D+01
 Coeff:      0.825D-07 0.259D-05 0.222D-05-0.268D-04-0.408D-04 0.139D-03
 Coeff:      0.895D-03-0.787D-02 0.906D-02 0.361D-01-0.110D+00-0.142D+00
 Coeff:      0.121D+01
 Gap=     0.333 Goal=   None    Shift=    0.000
 RMSDP=4.86D-09 MaxDP=9.41D-08 DE=-5.00D-12 OVMax= 3.93D-07

 SCF Done:  E(RHF) =  -3107.47836361     A.U. after   13 cycles
            NFock= 13  Conv=0.49D-08     -V/T= 2.0000
 KE= 3.107330177230D+03 PE=-7.823463252570D+03 EE= 1.418186062784D+03
 Leave Link  502 at Tue Oct 12 13:27:30 2021, MaxMem= 16106127360 cpu:        28.3
 (Enter /usr/local/gaussian/g09/l801.exe)
 ExpMin= 2.53D-02 ExpMax= 1.06D+07 ExpMxC= 1.21D+04 IAcc=3 IRadAn=         5 AccDes= 0.00D+00
 HarFok:  IExCor=  205 AccDes= 0.00D+00 IRadAn=         5 IDoV=-2 UseB2=F ITyADJ=14
 ICtDFT= 12500011 ScaDFX=  1.000000  1.000000  1.000000  1.000000
 Largest valence mixing into a core orbital is  4.47D-04
 Largest core mixing into a valence orbital is  1.58D-04
 Range of M.O.s used for correlation:    16   178
 NBasis=   178 NAE=    31 NBE=    31 NFC=    15 NFV=     0
 NROrb=    163 NOA=    16 NOB=    16 NVA=   147 NVB=   147

 **** Warning!!: The largest alpha MO coefficient is  0.20385782D+02

 Leave Link  801 at Tue Oct 12 13:27:30 2021, MaxMem= 16106127360 cpu:         0.7
 (Enter /usr/local/gaussian/g09/l906.exe)
 Frozen-core derivative calculation, NFC=  15 NFV=   0.
 FulOut=F Deriv=T AODrv=T NAtomX=     4
   MMem=        3496  MDisk=          16 MDiskD=          16
  W3Min=     1147744 MinDsk=     1765480 NBas6D=         208
 NBas2D=       22240    NTT=       21736    LW2=     9911920
    MDV= 16105602809 MDiskM=      387105 NBas2p=       22140
 Fully direct method using O(ONN) memory.
 IMap=   1   2   3   4   5   6   7   8   9  10  11  12  13  14  15  16  17  18  19  20
 IMap=  21  22  23  24  25  26  27  28  29  30  31
 JobTyp=1 Pass  1:  I=  16 to  31 NPSUse= 12 ParTrn=T ParDer=T DoDerP=T.
 Spin components of T(2) and E(2):
     alpha-alpha T2 =       0.3037162644D-01 E2=     -0.9428739422D-01
     alpha-beta  T2 =       0.1615713441D+00 E2=     -0.5158267572D+00
     beta-beta   T2 =       0.3037162644D-01 E2=     -0.9428739422D-01
 The integrals were generated   1 times.
 ANorm=    0.1105583374D+01
 E2 =    -0.7044015457D+00 EUMP2 =    -0.31081827651576D+04
 Leave Link  906 at Tue Oct 12 13:27:45 2021, MaxMem= 16106127360 cpu:       180.8
 (Enter /usr/local/gaussian/g09/l1002.exe)
 Minotr:  Closed shell wavefunction.
          Computing MP2/KS-MP2 derivatives.
          Using Z-Vector for PSCF gradient.
          Skipping F1 and S1 gradient terms here.
          IDoAtm=1111
          Frozen-core window.
          Direct CPHF calculation.
          Differentiating once with respect to electric field.
                with respect to dipole field.
          Differentiating once with respect to nuclear coordinates.
          Using symmetry in CPHF.
          Requested convergence is 1.0D-10 RMS, and 1.0D-09 maximum.
          NewPWx=F KeepS1=T KeepF1=T KeepIn=T MapXYZ=F SortEE=F KeepMc=T.
          MDV=   16106127153 using IRadAn=       0.
 Keep R1 ints in memory in symmetry-blocked form, NReq=191183570.
 FoFCou: FMM=F IPFlag=           0 FMFlag=           0 FMFlg1=           0
         NFxFlg=           0 DoJE=F BraDBF=F KetDBF=F FulRan=T
         wScrn=  0.000000 ICntrl=     600 IOpCl=  0 I1Cent=           0 NGrid=           0
         NMat0=    1 NMatS0=  15931 NMatT0=    0 NMatD0=    1 NMtDS0=    0 NMtDT0=    0
 Petite list used in FoFCou.
          Solving linear equations separately, MaxMat=       0.
          There are     1 degrees of freedom in the 1st order CPHF.  IDoFFX=0 NUNeed=     1.
 LinEq1:  Iter=  0 NonCon=     1 RMS=2.66D-03 Max=4.59D-02 NDo=     1
 AX will form     1 AO Fock derivatives at one time.
 LinEq1:  Iter=  1 NonCon=     1 RMS=4.18D-04 Max=5.02D-03 NDo=     1
 LinEq1:  Iter=  2 NonCon=     1 RMS=1.96D-04 Max=4.11D-03 NDo=     1
 LinEq1:  Iter=  3 NonCon=     1 RMS=6.40D-05 Max=1.06D-03 NDo=     1
 LinEq1:  Iter=  4 NonCon=     1 RMS=2.73D-05 Max=9.18D-04 NDo=     1
 LinEq1:  Iter=  5 NonCon=     1 RMS=9.77D-06 Max=1.62D-04 NDo=     1
 LinEq1:  Iter=  6 NonCon=     1 RMS=2.03D-06 Max=2.42D-05 NDo=     1
 LinEq1:  Iter=  7 NonCon=     1 RMS=4.94D-07 Max=8.76D-06 NDo=     1
 LinEq1:  Iter=  8 NonCon=     1 RMS=1.37D-07 Max=2.09D-06 NDo=     1
 LinEq1:  Iter=  9 NonCon=     1 RMS=3.29D-08 Max=7.91D-07 NDo=     1
 LinEq1:  Iter= 10 NonCon=     1 RMS=9.25D-09 Max=2.45D-07 NDo=     1
 LinEq1:  Iter= 11 NonCon=     1 RMS=2.33D-09 Max=4.27D-08 NDo=     1
 LinEq1:  Iter= 12 NonCon=     1 RMS=4.52D-10 Max=6.68D-09 NDo=     1
 LinEq1:  Iter= 13 NonCon=     1 RMS=1.27D-10 Max=1.71D-09 NDo=     1
 LinEq1:  Iter= 14 NonCon=     0 RMS=2.78D-11 Max=4.05D-10 NDo=     1
 Linear equations converged to 1.000D-10 1.000D-09 after    14 iterations.
 End of Minotr F.D. properties file   721 does not exist.
 End of Minotr F.D. properties file   722 does not exist.
 End of Minotr F.D. properties file   788 does not exist.
 Leave Link 1002 at Tue Oct 12 13:27:48 2021, MaxMem= 16106127360 cpu:        27.1
 (Enter /usr/local/gaussian/g09/l601.exe)
 Copying SCF densities to generalized density rwf, IOpCl= 0 IROHF=0.

 **********************************************************************

            Population analysis using the MP2 density.

 **********************************************************************

 Orbital symmetries:
       Occupied  (A') (A') (A') (A') (A") (A') (A') (A') (A') (A')
                 (A') (A") (A') (A") (A') (A') (A") (A') (A") (A')
                 (A') (A') (A') (A') (A") (A') (A') (A") (A') (A")
                 (A')
       Virtual   (A') (A') (A') (A") (A') (A') (A") (A') (A') (A")
                 (A') (A') (A') (A') (A") (A") (A') (A') (A') (A')
                 (A") (A") (A') (A') (A') (A") (A') (A') (A') (A")
                 (A') (A") (A') (A') (A") (A') (A') (A") (A") (A')
                 (A") (A') (A') (A') (A") (A') (A") (A') (A') (A')
                 (A") (A') (A") (A') (A') (A") (A") (A') (A') (A")
                 (A') (A") (A') (A') (A') (A') (A') (A") (A") (A')
                 (A") (A') (A') (A") (A') (A') (A') (A") (A") (A')
                 (A') (A') (A") (A') (A") (A') (A") (A") (A') (A')
                 (A') (A') (A") (A') (A") (A') (A") (A') (A") (A')
                 (A") (A') (A') (A') (A") (A') (A") (A') (A") (A')
                 (A') (A") (A') (A') (A") (A') (A') (A") (A') (A')
                 (A') (A") (A") (A') (A") (A') (A') (A') (A') (A')
                 (A") (A') (A') (A') (A") (A') (A") (A') (A") (A')
                 (A") (A') (A") (A') (A') (A') (A')
 The electronic state is 1-A'.
 Alpha  occ. eigenvalues -- -489.75657-104.73053 -64.89695 -58.25145 -58.25140
 Alpha  occ. eigenvalues --  -58.25140 -20.46041 -10.45001  -9.56950  -7.91718
 Alpha  occ. eigenvalues --   -7.91455  -7.91445  -7.17734  -7.17675  -7.17673
 Alpha  occ. eigenvalues --   -2.91904  -2.91876  -2.91874  -2.91810  -2.91810
 Alpha  occ. eigenvalues --   -1.22674  -0.89451  -0.73244  -0.53734  -0.44091
 Alpha  occ. eigenvalues --   -0.43270  -0.30729  -0.27983  -0.18689  -0.17696
 Alpha  occ. eigenvalues --   -0.17691
 Alpha virt. eigenvalues --    0.15621   0.18127   0.21572   0.22800   0.24119
 Alpha virt. eigenvalues --    0.24624   0.25007   0.28723   0.30366   0.31831
 Alpha virt. eigenvalues --    0.32357   0.32498   0.35898   0.43610   0.43716
 Alpha virt. eigenvalues --    0.46922   0.48205   0.48583   0.50244   0.54236
 Alpha virt. eigenvalues --    0.54276   0.57093   0.59371   0.60140   0.60406
 Alpha virt. eigenvalues --    0.60919   0.65639   0.69970   0.73756   0.74480
 Alpha virt. eigenvalues --    0.75330   0.77681   0.78771   0.84679   0.89044
 Alpha virt. eigenvalues --    0.89652   0.92010   0.94396   0.99837   0.99876
 Alpha virt. eigenvalues --    1.00346   1.00884   1.01890   1.03282   1.06840
 Alpha virt. eigenvalues --    1.08176   1.09392   1.10328   1.11101   1.13346
 Alpha virt. eigenvalues --    1.15350   1.17665   1.18178   1.20894   1.22164
 Alpha virt. eigenvalues --    1.24165   1.28407   1.29529   1.33334   1.33541
 Alpha virt. eigenvalues --    1.37492   1.38913   1.47641   1.50610   1.51937
 Alpha virt. eigenvalues --    1.57003   1.59086   1.63289   1.66743   1.70155
 Alpha virt. eigenvalues --    1.70716   1.77270   1.79116   1.79968   1.89897
 Alpha virt. eigenvalues --    1.97489   2.15247   2.37833   2.41060   2.41740
 Alpha virt. eigenvalues --    2.42268   2.46596   2.50309   2.50587   2.52798
 Alpha virt. eigenvalues --    2.53522   2.54941   2.55079   2.55335   2.56236
 Alpha virt. eigenvalues --    2.58233   2.60227   2.63145   2.64771   2.65864
 Alpha virt. eigenvalues --    2.68014   2.68129   2.70056   2.72047   2.72669
 Alpha virt. eigenvalues --    2.74013   2.75694   2.78306   2.80946   2.81108
 Alpha virt. eigenvalues --    2.88308   3.03271   3.07543   3.09701   3.17746
 Alpha virt. eigenvalues --    3.20114   3.21758   3.25705   3.29176   3.31202
 Alpha virt. eigenvalues --    3.34017   3.53139   3.54813   3.57328   3.93548
 Alpha virt. eigenvalues --    4.18826   4.30664   4.45018   4.53721   4.59039
 Alpha virt. eigenvalues --    4.77655   4.97112   5.03596   5.25417   5.33248
 Alpha virt. eigenvalues --    5.37075   5.65885   6.43255   6.59456   6.84939
 Alpha virt. eigenvalues --    6.90265   6.91698   6.99963   7.27113   7.33107
 Alpha virt. eigenvalues --    7.34662   7.45028   7.55726   7.74306   7.81939
 Alpha virt. eigenvalues --    8.35103  14.56632
          Condensed to atoms (all electrons):
               1          2          3          4
     1  O    8.670741  -0.114848  -0.094477   0.032877
     2  Cl  -0.114848  17.069455   0.004400  -0.006769
     3  Br  -0.094477   0.004400  35.893071   0.042377
     4  H    0.032877  -0.006769   0.042377   0.639614
 Mulliken charges:
               1
     1  O   -0.494293
     2  Cl   0.047763
     3  Br  -0.845371
     4  H    0.291901
 Sum of Mulliken charges =  -1.00000
 Mulliken charges with hydrogens summed into heavy atoms:
               1
     1  O   -0.202392
     2  Cl   0.047763
     3  Br  -0.845371
 Electronic spatial extent (au):  <R**2>=            809.7646
 Charge=             -1.0000 electrons
 Dipole moment (field-independent basis, Debye):
    X=              2.6474    Y=              1.1261    Z=              0.0000  Tot=              2.8770
 Quadrupole moment (field-independent basis, Debye-Ang):
   XX=            -50.7593   YY=            -50.3911   ZZ=            -43.1692
   XY=             -7.3466   XZ=              0.0000   YZ=              0.0000
 Traceless Quadrupole moment (field-independent basis, Debye-Ang):
   XX=             -2.6528   YY=             -2.2846   ZZ=              4.9374
   XY=             -7.3466   XZ=              0.0000   YZ=              0.0000
 Octapole moment (field-independent basis, Debye-Ang**2):
  XXX=            -10.4347  YYY=            -16.5616  ZZZ=              0.0000  XYY=             -7.2965
  XXY=             -4.0605  XXZ=              0.0000  XZZ=             -5.8132  YZZ=             -3.7428
  YYZ=              0.0000  XYZ=              0.0000
 Hexadecapole moment (field-independent basis, Debye-Ang**3):
 XXXX=           -629.6268 YYYY=           -361.3343 ZZZZ=            -61.8281 XXXY=           -190.9487
 XXXZ=              0.0000 YYYX=           -184.4637 YYYZ=              0.0000 ZZZX=              0.0000
 ZZZY=              0.0000 XXYY=           -173.8410 XXZZ=           -118.7587 YYZZ=            -68.8974
 XXYZ=              0.0000 YYXZ=              0.0000 ZZXY=            -59.3383
 N-N= 1.904686489436D+02 E-N=-7.822034316842D+03  KE= 3.107356886904D+03
 Symmetry A'   KE= 2.681320290048D+03
 Symmetry A"   KE= 4.260365968562D+02
 No NMR shielding tensors so no spin-rotation constants.
 Leave Link  601 at Tue Oct 12 13:27:49 2021, MaxMem= 16106127360 cpu:         2.5
 (Enter /usr/local/gaussian/g09/l701.exe)
 Compute integral first derivatives.
 ... and contract with generalized density number  2.
 Leave Link  701 at Tue Oct 12 13:27:49 2021, MaxMem= 16106127360 cpu:         2.1
 (Enter /usr/local/gaussian/g09/l702.exe)
 L702 exits ... SP integral derivatives will be done elsewhere.
 Leave Link  702 at Tue Oct 12 13:27:49 2021, MaxMem= 16106127360 cpu:         0.1
 (Enter /usr/local/gaussian/g09/l703.exe)
 Compute integral first derivatives, UseDBF=F ICtDFT=           0.
 Integral derivatives from FoFJK, PRISM(SPDF).
 Calling FoFJK, ICntrl=  10002127 FMM=F ISym2X=1 I1Cent= 0 IOpClX= 0 NMat=1 NMatS=1 NMatT=0.
 FoFJK:  IHMeth= 1 ICntrl=10002127 DoSepK=F KAlg= 0 I1Cent=   0 FoldK=F
 IRaf=         0 NMat=   1 IRICut=       1 DoRegI=T DoRafI=F ISym2E= 1.
 FoFCou: FMM=F IPFlag=           0 FMFlag=      100000 FMFlg1=         800
         NFxFlg=           0 DoJE=F BraDBF=F KetDBF=F FulRan=T
         wScrn=  0.000000 ICntrl=10002127 IOpCl=  0 I1Cent=           0 NGrid=           0
         NMat0=    1 NMatS0=      1 NMatT0=    0 NMatD0=    1 NMtDS0=    0 NMtDT0=    0
 Petite list used in FoFCou.
 Leave Link  703 at Tue Oct 12 13:27:52 2021, MaxMem= 16106127360 cpu:        41.3
 (Enter /usr/local/gaussian/g09/l716.exe)
 Dipole        = 1.04156678D+00 4.43052726D-01 0.00000000D+00
 ***** Axes restored to original set *****
 -------------------------------------------------------------------
 Center     Atomic                   Forces (Hartrees/Bohr)
 Number     Number              X              Y              Z
 -------------------------------------------------------------------
      1        8          -0.000837946    0.000694481   -0.000000000
      2       17          -0.000436506   -0.000142488   -0.000000000
      3       35          -0.000586523   -0.000038463   -0.000000000
      4        1           0.001860974   -0.000513530   -0.000000000
 -------------------------------------------------------------------
 Cartesian Forces:  Max     0.001860974 RMS     0.000675014
 -----------------------------------------------------------------------------------------------
                       Internal Coordinate Forces (Hartree/Bohr or radian)
  Cent   Atom   N1       Length/X         N2         Alpha/Y        N3         Beta/Z          J
 -----------------------------------------------------------------------------------------------
      1  O 
         X        1   0.000000(     1)
      2  Cl       1  -0.000437(     2)      2  -0.000000(     5)
      3  Br       1   0.000174(     3)      2   0.000000(     6)      3   0.003257(     8)     0
      4  H        1   0.000065(     4)      2   0.000000(     7)      3  -0.003711(     9)     0
 -----------------------------------------------------------------------------------------------
 Internal  Forces:  Max     0.003710760 RMS     0.001653412
 Force constants in Cartesian coordinates: 
                1             2             3             4             5 
      1  0.469331D+00
      2  0.519155D-01  0.505611D+00
      3  0.000000D+00  0.000000D+00  0.288430D-01
      4 -0.377580D+00  0.000000D+00  0.000000D+00  0.377580D+00
      5  0.385604D-01 -0.497009D-01  0.000000D+00  0.000000D+00  0.404377D-01
      6  0.000000D+00  0.000000D+00  0.000000D+00  0.000000D+00  0.000000D+00
      7  0.877519D-03  0.781507D-02  0.000000D+00  0.000000D+00 -0.131561D-01
      8 -0.534100D-02 -0.232332D-01  0.000000D+00  0.000000D+00  0.316041D-02
      9  0.000000D+00  0.000000D+00  0.142986D-01  0.000000D+00  0.000000D+00
     10 -0.926291D-01 -0.597306D-01  0.000000D+00  0.000000D+00 -0.254043D-01
     11 -0.851349D-01 -0.432677D+00  0.000000D+00  0.000000D+00  0.610275D-02
     12  0.000000D+00  0.000000D+00 -0.431416D-01  0.000000D+00  0.000000D+00
                6             7             8             9            10 
      6  0.100000D+01
      7  0.000000D+00  0.126772D-01
      8  0.000000D+00  0.208481D-02  0.208550D-01
      9  0.000000D+00  0.000000D+00  0.000000D+00  0.708840D-02
     10  0.000000D+00 -0.135547D-01  0.325619D-02  0.000000D+00  0.106184D+00
     11  0.000000D+00  0.325619D-02 -0.782216D-03  0.000000D+00  0.818787D-01
     12  0.000000D+00  0.000000D+00  0.000000D+00 -0.213870D-01  0.000000D+00
               11            12 
     11  0.427357D+00
     12  0.000000D+00  0.645286D-01
 Force constants in internal coordinates: 
                1             2             3             4             5 
      1  0.000000D+00
      2  0.000000D+00  0.377580D+00
      3  0.000000D+00  0.000000D+00  0.213558D-01
      4  0.000000D+00  0.000000D+00  0.000000D+00  0.447026D+00
      5  0.000000D+00  0.000000D+00  0.000000D+00  0.000000D+00  0.101391D+02
      6  0.000000D+00  0.000000D+00  0.000000D+00  0.000000D+00  0.000000D+00
      7  0.000000D+00  0.000000D+00  0.000000D+00  0.000000D+00  0.000000D+00
      8  0.000000D+00  0.000000D+00  0.000000D+00  0.000000D+00  0.000000D+00
      9  0.000000D+00  0.000000D+00  0.000000D+00  0.000000D+00  0.000000D+00
                6             7             8             9 
      6  0.238678D+00
      7 -0.238678D+00  0.238678D+00
      8  0.000000D+00  0.000000D+00  0.410000D+00
      9  0.000000D+00  0.000000D+00 -0.160000D+00  0.320000D+00
 Leave Link  716 at Tue Oct 12 13:27:52 2021, MaxMem= 16106127360 cpu:         0.2
 (Enter /usr/local/gaussian/g09/l103.exe)

 GradGradGradGradGradGradGradGradGradGradGradGradGradGradGradGradGradGrad
 Berny optimization.
 Search for a local minimum.
 Step number   1 out of a maximum of   20
 All quantities printed in internal units (Hartrees-Bohrs-Radians)
 Second derivative matrix not updated -- first step.
 The second derivative matrix:
                          r1        r2        r3        a1        OOP
           r1           0.37758
           r2          -0.00000   0.02136
           r3           0.00000   0.00000   0.44703
           a1           0.00000  -0.00000  -0.00000   0.41000
           OOP          0.00000   0.00000   0.00000  -0.00000   0.23868
 ITU=  0
     Eigenvalues ---    0.02136   0.23868   0.37758   0.41000   0.44703
 RFO step:  Lambda=-2.44001444D-06 EMin= 2.13558189D-02
 Linear search not attempted -- first point.
 Variable       Old X    -DE/DX   Delta X   Delta X   Delta X     New X
                                 (Linear)    (Quad)   (Total)
    r1        3.18419  -0.00044   0.00000  -0.00116  -0.00116   3.18303
    r2        5.80273   0.00017   0.00000   0.00817   0.00817   5.81090
    r3        1.92323   0.00006   0.00000   0.00014   0.00014   1.92337
    a1        1.80655  -0.00045   0.00000  -0.00111  -0.00111   1.80545
   OOP        1.57080   0.00000   0.00000   0.00000   0.00000   1.57080
         Item               Value     Threshold  Converged?
 Maximum Force            0.000454     0.000450     NO 
 RMS     Force            0.000294     0.000300     YES
 Maximum Displacement     0.008165     0.001800     NO 
 RMS     Displacement     0.003722     0.001200     NO 
 Predicted change in Energy=-1.220007D-06
 Lowest energy point so far.  Saving SCF results.
 GradGradGradGradGradGradGradGradGradGradGradGradGradGradGradGradGradGrad

 Leave Link  103 at Tue Oct 12 13:27:52 2021, MaxMem= 16106127360 cpu:         0.1
 (Enter /usr/local/gaussian/g09/l202.exe)
 ---------------------------------------------------------------------------------------------------
                            Z-MATRIX (ANGSTROMS AND DEGREES)
   CD    Cent   Atom    N1       Length/X        N2       Alpha/Y        N3        Beta/Z          J
 ---------------------------------------------------------------------------------------------------
      1      1  O 
      2         X        1  10.000000(     1)
      3      2  Cl       1   1.684388(     2)      2   90.000(     5)
      4      3  Br       1   3.074993(     3)      2   90.000(     6)      3  103.445(     8)      0
      5      4  H        1   1.017804(     4)      2   90.000(     7)      3  103.445(     9)      0
 ---------------------------------------------------------------------------------------------------
                         Z-Matrix orientation:                         
 ---------------------------------------------------------------------
 Center     Atomic      Atomic             Coordinates (Angstroms)
 Number     Number       Type             X           Y           Z
 ---------------------------------------------------------------------
      1          8           0        0.000000    0.000000    0.000000
      2         -1           0        0.000000    0.000000   10.000000
      3         17           0        1.684388    0.000000    0.000000
      4         35           0       -0.714947   -2.990725    0.000000
      5          1           0       -0.236643   -0.989912    0.000000
 ---------------------------------------------------------------------
                    Distance matrix (angstroms):
                    1          2          3          4          5
     1  O    0.000000
     2  X   10.000000   0.000000
     3  Cl   1.684388  10.140866   0.000000
     4  Br   3.074993  10.462102   3.834220   0.000000
     5  H    1.017804  10.051663   2.161085   2.057189   0.000000
 Stoichiometry    BrClHO(1-)
 Framework group  CS[SG(BrClHO)]
 Deg. of freedom     5
 Full point group                 CS      NOp   2
 RotChk:  IX=0 Diff= 1.50D-03
 Largest Abelian subgroup         CS      NOp   2
 Largest concise Abelian subgroup C1      NOp   1
                         Standard orientation:                         
 ---------------------------------------------------------------------
 Center     Atomic      Atomic             Coordinates (Angstroms)
 Number     Number       Type             X           Y           Z
 ---------------------------------------------------------------------
      1          8           0        0.582558    1.632258    0.000000
      2         17           0        2.150055    1.015721    0.000000
      3         35           0       -1.177469   -0.889228    0.000000
      4          1           0        0.000000    0.797661    0.000000
 ---------------------------------------------------------------------
 Rotational constants (GHZ):     22.6508379      1.2797035      1.2112704
 Leave Link  202 at Tue Oct 12 13:27:52 2021, MaxMem= 16106127360 cpu:         0.1
 (Enter /usr/local/gaussian/g09/l301.exe)
 Standard basis: Aug-CC-pVTZ (5D, 7F)
 Ernie: Thresh=  0.10000D-02 Tol=  0.10000D-05 Strict=F.
 Ernie:  48 primitive shells out of 228 were deleted.
 There are   142 symmetry adapted cartesian basis functions of A'  symmetry.
 There are    66 symmetry adapted cartesian basis functions of A"  symmetry.
 There are   118 symmetry adapted basis functions of A'  symmetry.
 There are    60 symmetry adapted basis functions of A"  symmetry.
   178 basis functions,   430 primitive gaussians,   208 cartesian basis functions
    31 alpha electrons       31 beta electrons
       nuclear repulsion energy       190.3556610621 Hartrees.
 IExCor=    0 DFT=F Ex=HF Corr=None ExCW=0 ScaHFX=  1.000000
 ScaDFX=  1.000000  1.000000  1.000000  1.000000 ScalE2=  1.000000  1.000000
 IRadAn=      0 IRanWt=     -1 IRanGd=            0 ICorTp=0 IEmpDi=  4
 NAtoms=    4 NActive=    4 NUniq=    4 SFac= 1.00D+00 NAtFMM=   60 NAOKFM=F Big=F
 Integral buffers will be    131072 words long.
 Raffenetti 1 integral format.
 Two-electron integral symmetry is turned on.
 Leave Link  301 at Tue Oct 12 13:27:52 2021, MaxMem= 16106127360 cpu:         0.3
 (Enter /usr/local/gaussian/g09/l302.exe)
 NPDir=0 NMtPBC=     1 NCelOv=     1 NCel=       1 NClECP=     1 NCelD=      1
         NCelK=      1 NCelE2=     1 NClLst=     1 CellRange=     0.0.
 One-electron integrals computed using PRISM.
 NBasis=   178 RedAO= T EigKep=  3.38D-04  NBF=   118    60
 NBsUse=   178 1.00D-06 EigRej= -1.00D+00 NBFU=   118    60
 Leave Link  302 at Tue Oct 12 13:27:53 2021, MaxMem= 16106127360 cpu:         1.5
 (Enter /usr/local/gaussian/g09/l303.exe)
 DipDrv:  MaxL=1.
 Leave Link  303 at Tue Oct 12 13:27:53 2021, MaxMem= 16106127360 cpu:         0.2
 (Enter /usr/local/gaussian/g09/l401.exe)
 Initial guess from the checkpoint file:  "/home/netid.washington.edu/cgavinh/mccoy_hocl/rOH_s_oop_0/brhocl/brhocl_0_opt.chk"
 B after Tr=    -0.000000   -0.000000    0.000000
         Rot=    0.999999   -0.000000   -0.000000   -0.001174 Ang=  -0.13 deg.
 Guess basis will be translated and rotated to current coordinates.
 JPrj=2 DoOrth=T DoCkMO=T.
 Initial guess orbital symmetries:
       Occupied  (A') (A') (A') (A') (A") (A') (A') (A') (A') (A')
                 (A') (A") (A') (A") (A') (A') (A") (A') (A") (A')
                 (A') (A') (A') (A') (A") (A') (A') (A") (A') (A")
                 (A')
       Virtual   (A') (A') (A') (A') (A') (A') (A') (A') (A') (A')
                 (A') (A') (A') (A') (A') (A') (A') (A') (A') (A')
                 (A') (A') (A') (A') (A') (A') (A') (A') (A') (A')
                 (A') (A') (A') (A') (A') (A') (A') (A') (A') (A')
                 (A') (A') (A') (A') (A') (A') (A') (A') (A') (A')
                 (A') (A') (A') (A') (A') (A') (A') (A') (A') (A')
                 (A') (A') (A') (A') (A') (A') (A') (A') (A') (A')
                 (A') (A') (A') (A') (A') (A') (A') (A') (A') (A')
                 (A') (A') (A') (A') (A') (A') (A') (A') (A') (A')
                 (A') (A') (A') (A') (A') (A") (A") (A") (A") (A")
                 (A") (A") (A") (A") (A") (A") (A") (A") (A") (A")
                 (A") (A") (A") (A") (A") (A") (A") (A") (A") (A")
                 (A") (A") (A") (A") (A") (A") (A") (A") (A") (A")
                 (A") (A") (A") (A") (A") (A") (A") (A") (A") (A")
                 (A") (A") (A") (A") (A") (A") (A")
 The electronic state of the initial guess is 1-A'.
 Leave Link  401 at Tue Oct 12 13:27:53 2021, MaxMem= 16106127360 cpu:         0.8
 (Enter /usr/local/gaussian/g09/l502.exe)
 Closed shell SCF:
 Using DIIS extrapolation, IDIIS=  1040.
 Integral symmetry usage will be decided dynamically.
 Keep R1 ints in memory in symmetry-blocked form, NReq=191334358.
 IVT=      152392 IEndB=      152392 NGot= 16106127360 MDV= 16041699527
 LenX= 16041699527 LenY= 16041655822
 Requested convergence on RMS density matrix=1.00D-08 within 128 cycles.
 Requested convergence on MAX density matrix=1.00D-06.
 Requested convergence on             energy=1.00D-06.
 No special actions if energy rises.
 FoFCou: FMM=F IPFlag=           0 FMFlag=           0 FMFlg1=           0
         NFxFlg=           0 DoJE=F BraDBF=F KetDBF=F FulRan=T
         wScrn=  0.000000 ICntrl=     600 IOpCl=  0 I1Cent=           0 NGrid=           0
         NMat0=    1 NMatS0=  15931 NMatT0=    0 NMatD0=    1 NMtDS0=    0 NMtDT0=    0
 Petite list used in FoFCou.

 Cycle   1  Pass 1  IDiag  1:
 E= -3107.47844468719    
 DIIS: error= 7.31D-05 at cycle   1 NSaved=   1.
 NSaved= 1 IEnMin= 1 EnMin= -3107.47844468719     IErMin= 1 ErrMin= 7.31D-05
 ErrMax= 7.31D-05  0.00D+00 EMaxC= 1.00D-01 BMatC= 1.02D-06 BMatP= 1.02D-06
 IDIUse=1 WtCom= 1.00D+00 WtEn= 0.00D+00
 Coeff-Com:  0.100D+01
 Coeff:      0.100D+01
 Gap=     0.672 Goal=   None    Shift=    0.000
 RMSDP=8.05D-06 MaxDP=2.99D-04              OVMax= 3.65D-04

 Cycle   2  Pass 1  IDiag  1:
 E= -3107.47844603947     Delta-E=       -0.000001352284 Rises=F Damp=F
 DIIS: error= 3.31D-05 at cycle   2 NSaved=   2.
 NSaved= 2 IEnMin= 2 EnMin= -3107.47844603947     IErMin= 2 ErrMin= 3.31D-05
 ErrMax= 3.31D-05  0.00D+00 EMaxC= 1.00D-01 BMatC= 1.06D-07 BMatP= 1.02D-06
 IDIUse=1 WtCom= 1.00D+00 WtEn= 0.00D+00
 Coeff-Com: -0.364D-01 0.104D+01
 Coeff:     -0.364D-01 0.104D+01
 Gap=     0.333 Goal=   None    Shift=    0.000
 RMSDP=2.13D-06 MaxDP=6.38D-05 DE=-1.35D-06 OVMax= 1.63D-04

 Cycle   3  Pass 1  IDiag  1:
 E= -3107.47844621404     Delta-E=       -0.000000174568 Rises=F Damp=F
 DIIS: error= 1.56D-05 at cycle   3 NSaved=   3.
 NSaved= 3 IEnMin= 3 EnMin= -3107.47844621404     IErMin= 3 ErrMin= 1.56D-05
 ErrMax= 1.56D-05  0.00D+00 EMaxC= 1.00D-01 BMatC= 3.53D-08 BMatP= 1.06D-07
 IDIUse=1 WtCom= 1.00D+00 WtEn= 0.00D+00
 Coeff-Com: -0.985D-01 0.338D+00 0.761D+00
 Coeff:     -0.985D-01 0.338D+00 0.761D+00
 Gap=     0.333 Goal=   None    Shift=    0.000
 RMSDP=8.96D-07 MaxDP=2.63D-05 DE=-1.75D-07 OVMax= 9.15D-05

 Cycle   4  Pass 1  IDiag  1:
 E= -3107.47844626384     Delta-E=       -0.000000049799 Rises=F Damp=F
 DIIS: error= 5.84D-06 at cycle   4 NSaved=   4.
 NSaved= 4 IEnMin= 4 EnMin= -3107.47844626384     IErMin= 4 ErrMin= 5.84D-06
 ErrMax= 5.84D-06  0.00D+00 EMaxC= 1.00D-01 BMatC= 3.90D-09 BMatP= 3.53D-08
 IDIUse=1 WtCom= 1.00D+00 WtEn= 0.00D+00
 Coeff-Com:  0.173D-01-0.205D+00-0.563D-01 0.124D+01
 Coeff:      0.173D-01-0.205D+00-0.563D-01 0.124D+01
 Gap=     0.333 Goal=   None    Shift=    0.000
 RMSDP=6.80D-07 MaxDP=2.00D-05 DE=-4.98D-08 OVMax= 8.24D-05

 Cycle   5  Pass 1  IDiag  1:
 E= -3107.47844627753     Delta-E=       -0.000000013688 Rises=F Damp=F
 DIIS: error= 1.91D-06 at cycle   5 NSaved=   5.
 NSaved= 5 IEnMin= 5 EnMin= -3107.47844627753     IErMin= 5 ErrMin= 1.91D-06
 ErrMax= 1.91D-06  0.00D+00 EMaxC= 1.00D-01 BMatC= 3.67D-10 BMatP= 3.90D-09
 IDIUse=1 WtCom= 1.00D+00 WtEn= 0.00D+00
 Coeff-Com:  0.117D-01-0.385D-01-0.829D-01-0.398D-01 0.115D+01
 Coeff:      0.117D-01-0.385D-01-0.829D-01-0.398D-01 0.115D+01
 Gap=     0.333 Goal=   None    Shift=    0.000
 RMSDP=2.49D-07 MaxDP=8.68D-06 DE=-1.37D-08 OVMax= 3.45D-05

 Cycle   6  Pass 1  IDiag  1:
 E= -3107.47844627917     Delta-E=       -0.000000001641 Rises=F Damp=F
 DIIS: error= 6.13D-07 at cycle   6 NSaved=   6.
 NSaved= 6 IEnMin= 6 EnMin= -3107.47844627917     IErMin= 6 ErrMin= 6.13D-07
 ErrMax= 6.13D-07  0.00D+00 EMaxC= 1.00D-01 BMatC= 4.71D-11 BMatP= 3.67D-10
 IDIUse=1 WtCom= 1.00D+00 WtEn= 0.00D+00
 Coeff-Com: -0.203D-02 0.214D-01 0.149D-01-0.119D+00-0.106D+00 0.119D+01
 Coeff:     -0.203D-02 0.214D-01 0.149D-01-0.119D+00-0.106D+00 0.119D+01
 Gap=     0.333 Goal=   None    Shift=    0.000
 RMSDP=9.24D-08 MaxDP=2.98D-06 DE=-1.64D-09 OVMax= 1.26D-05

 Cycle   7  Pass 1  IDiag  1:
 E= -3107.47844627938     Delta-E=       -0.000000000212 Rises=F Damp=F
 DIIS: error= 3.12D-07 at cycle   7 NSaved=   7.
 NSaved= 7 IEnMin= 7 EnMin= -3107.47844627938     IErMin= 7 ErrMin= 3.12D-07
 ErrMax= 3.12D-07  0.00D+00 EMaxC= 1.00D-01 BMatC= 8.07D-12 BMatP= 4.71D-11
 IDIUse=1 WtCom= 1.00D+00 WtEn= 0.00D+00
 Coeff-Com: -0.909D-03 0.697D-03 0.916D-02 0.239D-01-0.142D+00-0.134D+00
 Coeff-Com:  0.124D+01
 Coeff:     -0.909D-03 0.697D-03 0.916D-02 0.239D-01-0.142D+00-0.134D+00
 Coeff:      0.124D+01
 Gap=     0.333 Goal=   None    Shift=    0.000
 RMSDP=4.40D-08 MaxDP=1.07D-06 DE=-2.12D-10 OVMax= 5.23D-06

 Cycle   8  Pass 1  IDiag  1:
 E= -3107.47844627941     Delta-E=       -0.000000000030 Rises=F Damp=F
 DIIS: error= 1.42D-07 at cycle   8 NSaved=   8.
 NSaved= 8 IEnMin= 8 EnMin= -3107.47844627941     IErMin= 8 ErrMin= 1.42D-07
 ErrMax= 1.42D-07  0.00D+00 EMaxC= 1.00D-01 BMatC= 1.53D-12 BMatP= 8.07D-12
 IDIUse=1 WtCom= 1.00D+00 WtEn= 0.00D+00
 Coeff-Com:  0.800D-03-0.593D-02-0.471D-02 0.249D-01 0.433D-01-0.226D+00
 Coeff-Com: -0.216D+00 0.138D+01
 Coeff:      0.800D-03-0.593D-02-0.471D-02 0.249D-01 0.433D-01-0.226D+00
 Coeff:     -0.216D+00 0.138D+01
 Gap=     0.333 Goal=   None    Shift=    0.000
 RMSDP=2.26D-08 MaxDP=4.50D-07 DE=-3.05D-11 OVMax= 2.43D-06

 Cycle   9  Pass 1  IDiag  1:
 E= -3107.47844627943     Delta-E=       -0.000000000021 Rises=F Damp=F
 DIIS: error= 2.50D-08 at cycle   9 NSaved=   9.
 NSaved= 9 IEnMin= 9 EnMin= -3107.47844627943     IErMin= 9 ErrMin= 2.50D-08
 ErrMax= 2.50D-08  0.00D+00 EMaxC= 1.00D-01 BMatC= 9.39D-14 BMatP= 1.53D-12
 IDIUse=1 WtCom= 1.00D+00 WtEn= 0.00D+00
 Coeff-Com:  0.188D-04 0.441D-03-0.246D-03-0.432D-02 0.107D-01 0.353D-01
 Coeff-Com: -0.127D+00-0.104D+00 0.119D+01
 Coeff:      0.188D-04 0.441D-03-0.246D-03-0.432D-02 0.107D-01 0.353D-01
 Coeff:     -0.127D+00-0.104D+00 0.119D+01
 Gap=     0.333 Goal=   None    Shift=    0.000
 RMSDP=5.49D-09 MaxDP=1.15D-07 DE=-2.14D-11 OVMax= 4.00D-07

 SCF Done:  E(RHF) =  -3107.47844628     A.U. after    9 cycles
            NFock=  9  Conv=0.55D-08     -V/T= 2.0000
 KE= 3.107329570429D+03 PE=-7.823234295914D+03 EE= 1.418070618144D+03
 Leave Link  502 at Tue Oct 12 13:27:55 2021, MaxMem= 16106127360 cpu:        27.1
 (Enter /usr/local/gaussian/g09/l801.exe)
 ExpMin= 2.53D-02 ExpMax= 1.06D+07 ExpMxC= 1.21D+04 IAcc=3 IRadAn=         5 AccDes= 0.00D+00
 HarFok:  IExCor=  205 AccDes= 0.00D+00 IRadAn=         5 IDoV=-2 UseB2=F ITyADJ=14
 ICtDFT= 12500011 ScaDFX=  1.000000  1.000000  1.000000  1.000000
 Largest valence mixing into a core orbital is  4.47D-04
 Largest core mixing into a valence orbital is  1.58D-04
 Range of M.O.s used for correlation:    16   178
 NBasis=   178 NAE=    31 NBE=    31 NFC=    15 NFV=     0
 NROrb=    163 NOA=    16 NOB=    16 NVA=   147 NVB=   147

 **** Warning!!: The largest alpha MO coefficient is  0.19966413D+02

 Leave Link  801 at Tue Oct 12 13:27:55 2021, MaxMem= 16106127360 cpu:         0.7
 (Enter /usr/local/gaussian/g09/l906.exe)
 Frozen-core derivative calculation, NFC=  15 NFV=   0.
 FulOut=F Deriv=T AODrv=T NAtomX=     4
   MMem=        3496  MDisk=          16 MDiskD=          16
  W3Min=     1147744 MinDsk=     1765480 NBas6D=         208
 NBas2D=       22240    NTT=       21736    LW2=     9911920
    MDV= 16105602876 MDiskM=      387105 NBas2p=       22137
 Fully direct method using O(ONN) memory.
 IMap=   1   2   3   4   5   6   7   8   9  10  11  12  13  14  15  16  17  18  19  20
 IMap=  21  22  23  24  25  26  27  28  29  30  31
 JobTyp=1 Pass  1:  I=  16 to  31 NPSUse= 12 ParTrn=T ParDer=T DoDerP=T.
 Spin components of T(2) and E(2):
     alpha-alpha T2 =       0.3036402355D-01 E2=     -0.9427185972D-01
     alpha-beta  T2 =       0.1615436366D+00 E2=     -0.5157762107D+00
     beta-beta   T2 =       0.3036402355D-01 E2=     -0.9427185972D-01
 The integrals were generated   1 times.
 ANorm=    0.1105563966D+01
 E2 =    -0.7043199301D+00 EUMP2 =    -0.31081827662096D+04
 Leave Link  906 at Tue Oct 12 13:28:11 2021, MaxMem= 16106127360 cpu:       181.8
 (Enter /usr/local/gaussian/g09/l1002.exe)
 Minotr:  Closed shell wavefunction.
          Computing MP2/KS-MP2 derivatives.
          Using Z-Vector for PSCF gradient.
          Skipping F1 and S1 gradient terms here.
          IDoAtm=1111
          Frozen-core window.
          Direct CPHF calculation.
          Differentiating once with respect to electric field.
                with respect to dipole field.
          Differentiating once with respect to nuclear coordinates.
          Using symmetry in CPHF.
          Requested convergence is 1.0D-10 RMS, and 1.0D-09 maximum.
          NewPWx=F KeepS1=T KeepF1=T KeepIn=T MapXYZ=F SortEE=F KeepMc=T.
          MDV=   16106127153 using IRadAn=       0.
 Keep R1 ints in memory in symmetry-blocked form, NReq=191183570.
 FoFCou: FMM=F IPFlag=           0 FMFlag=           0 FMFlg1=           0
         NFxFlg=           0 DoJE=F BraDBF=F KetDBF=F FulRan=T
         wScrn=  0.000000 ICntrl=     600 IOpCl=  0 I1Cent=           0 NGrid=           0
         NMat0=    1 NMatS0=  15931 NMatT0=    0 NMatD0=    1 NMtDS0=    0 NMtDT0=    0
 Petite list used in FoFCou.
          Solving linear equations separately, MaxMat=       0.
          There are     1 degrees of freedom in the 1st order CPHF.  IDoFFX=0 NUNeed=     1.
 LinEq1:  Iter=  0 NonCon=     1 RMS=2.65D-03 Max=4.58D-02 NDo=     1
 AX will form     1 AO Fock derivatives at one time.
 LinEq1:  Iter=  1 NonCon=     1 RMS=4.17D-04 Max=5.01D-03 NDo=     1
 LinEq1:  Iter=  2 NonCon=     1 RMS=1.96D-04 Max=4.07D-03 NDo=     1
 LinEq1:  Iter=  3 NonCon=     1 RMS=6.38D-05 Max=1.05D-03 NDo=     1
 LinEq1:  Iter=  4 NonCon=     1 RMS=2.71D-05 Max=9.12D-04 NDo=     1
 LinEq1:  Iter=  5 NonCon=     1 RMS=9.74D-06 Max=1.62D-04 NDo=     1
 LinEq1:  Iter=  6 NonCon=     1 RMS=2.03D-06 Max=2.43D-05 NDo=     1
 LinEq1:  Iter=  7 NonCon=     1 RMS=4.95D-07 Max=8.65D-06 NDo=     1
 LinEq1:  Iter=  8 NonCon=     1 RMS=1.38D-07 Max=2.21D-06 NDo=     1
 LinEq1:  Iter=  9 NonCon=     1 RMS=3.36D-08 Max=8.32D-07 NDo=     1
 LinEq1:  Iter= 10 NonCon=     1 RMS=9.53D-09 Max=2.46D-07 NDo=     1
 LinEq1:  Iter= 11 NonCon=     1 RMS=2.38D-09 Max=3.98D-08 NDo=     1
 LinEq1:  Iter= 12 NonCon=     1 RMS=4.55D-10 Max=6.75D-09 NDo=     1
 LinEq1:  Iter= 13 NonCon=     1 RMS=1.27D-10 Max=1.73D-09 NDo=     1
 LinEq1:  Iter= 14 NonCon=     0 RMS=2.77D-11 Max=4.07D-10 NDo=     1
 Linear equations converged to 1.000D-10 1.000D-09 after    14 iterations.
 End of Minotr F.D. properties file   721 does not exist.
 End of Minotr F.D. properties file   722 does not exist.
 End of Minotr F.D. properties file   788 does not exist.
 Leave Link 1002 at Tue Oct 12 13:28:13 2021, MaxMem= 16106127360 cpu:        27.0
 (Enter /usr/local/gaussian/g09/l701.exe)
 Compute integral first derivatives.
 ... and contract with generalized density number  2.
 Leave Link  701 at Tue Oct 12 13:28:14 2021, MaxMem= 16106127360 cpu:         2.4
 (Enter /usr/local/gaussian/g09/l702.exe)
 L702 exits ... SP integral derivatives will be done elsewhere.
 Leave Link  702 at Tue Oct 12 13:28:14 2021, MaxMem= 16106127360 cpu:         0.1
 (Enter /usr/local/gaussian/g09/l703.exe)
 Compute integral first derivatives, UseDBF=F ICtDFT=           0.
 Integral derivatives from FoFJK, PRISM(SPDF).
 Calling FoFJK, ICntrl=  10002127 FMM=F ISym2X=1 I1Cent= 0 IOpClX= 0 NMat=1 NMatS=1 NMatT=0.
 FoFJK:  IHMeth= 1 ICntrl=10002127 DoSepK=F KAlg= 0 I1Cent=   0 FoldK=F
 IRaf=         0 NMat=   1 IRICut=       1 DoRegI=T DoRafI=F ISym2E= 1.
 FoFCou: FMM=F IPFlag=           0 FMFlag=      100000 FMFlg1=         800
         NFxFlg=           0 DoJE=F BraDBF=F KetDBF=F FulRan=T
         wScrn=  0.000000 ICntrl=10002127 IOpCl=  0 I1Cent=           0 NGrid=           0
         NMat0=    1 NMatS0=      1 NMatT0=    0 NMatD0=    1 NMtDS0=    0 NMtDT0=    0
 Petite list used in FoFCou.
 Leave Link  703 at Tue Oct 12 13:28:17 2021, MaxMem= 16106127360 cpu:        41.4
 (Enter /usr/local/gaussian/g09/l716.exe)
 Dipole        = 1.04359464D+00 4.48804725D-01 0.00000000D+00
 ***** Axes restored to original set *****
 -------------------------------------------------------------------
 Center     Atomic                   Forces (Hartrees/Bohr)
 Number     Number              X              Y              Z
 -------------------------------------------------------------------
      1        8          -0.001172508    0.000210215   -0.000000000
      2       17          -0.000052564   -0.000066067   -0.000000000
      3       35          -0.000519520    0.000200870   -0.000000000
      4        1           0.001744592   -0.000345018   -0.000000000
 -------------------------------------------------------------------
 Cartesian Forces:  Max     0.001744592 RMS     0.000638943
 -----------------------------------------------------------------------------------------------
                       Internal Coordinate Forces (Hartree/Bohr or radian)
  Cent   Atom   N1       Length/X         N2         Alpha/Y        N3         Beta/Z          J
 -----------------------------------------------------------------------------------------------
      1  O 
         X        1   0.000000(     1)
      2  Cl       1  -0.000053(     2)      2  -0.000000(     5)
      3  Br       1  -0.000075(     3)      2  -0.000000(     6)      3   0.003208(     8)     0
      4  H        1  -0.000070(     4)      2  -0.000000(     7)      3  -0.003418(     9)     0
 -----------------------------------------------------------------------------------------------
 Internal  Forces:  Max     0.003417832 RMS     0.001562870
 Leave Link  716 at Tue Oct 12 13:28:17 2021, MaxMem= 16106127360 cpu:         0.2
 (Enter /usr/local/gaussian/g09/l103.exe)

 GradGradGradGradGradGradGradGradGradGradGradGradGradGradGradGradGradGrad
 Berny optimization.
 Search for a local minimum.
 Step number   2 out of a maximum of   20
 All quantities printed in internal units (Hartrees-Bohrs-Radians)
 Update second derivatives using D2CorN and points    1    2
 DE= -1.05D-06 DEPred=-1.22D-06 R= 8.62D-01
 TightC=F SS=  1.41D+00  RLast= 8.32D-03 DXNew= 5.0454D-01 2.4966D-02
 Trust test= 8.62D-01 RLast= 8.32D-03 DXMaxT set to 3.00D-01
 The second derivative matrix:
                          r1        r2        r3        a1        OOP
           r1           0.37670
           r2           0.00248   0.03015
           r3          -0.00053   0.00421   0.44717
           a1          -0.00218   0.01180  -0.00034   0.40664
           OOP          0.00000   0.00000   0.00000   0.00000   0.23868
 ITU=  1  0
     Eigenvalues ---    0.02972   0.23868   0.37657   0.40715   0.44722
 RFO step:  Lambda=-2.20117625D-07 EMin= 2.97199665D-02
 Quartic linear search produced a step of -0.11890.
 Variable       Old X    -DE/DX   Delta X   Delta X   Delta X     New X
                                 (Linear)    (Quad)   (Total)
    r1        3.18303  -0.00005   0.00014  -0.00026  -0.00012   3.18291
    r2        5.81090  -0.00007  -0.00097  -0.00125  -0.00222   5.80867
    r3        1.92337  -0.00007  -0.00002  -0.00011  -0.00013   1.92324
    a1        1.80545  -0.00021   0.00013  -0.00055  -0.00042   1.80503
   OOP        1.57080  -0.00000   0.00000  -0.00000   0.00000   1.57080
         Item               Value     Threshold  Converged?
 Maximum Force            0.000210     0.000450     YES
 RMS     Force            0.000107     0.000300     YES
 Maximum Displacement     0.002222     0.001800     NO 
 RMS     Displacement     0.001014     0.001200     YES
 Predicted change in Energy=-1.399146D-07
 Lowest energy point so far.  Saving SCF results.
 GradGradGradGradGradGradGradGradGradGradGradGradGradGradGradGradGradGrad

 Leave Link  103 at Tue Oct 12 13:28:17 2021, MaxMem= 16106127360 cpu:         0.1
 (Enter /usr/local/gaussian/g09/l202.exe)
 ---------------------------------------------------------------------------------------------------
                            Z-MATRIX (ANGSTROMS AND DEGREES)
   CD    Cent   Atom    N1       Length/X        N2       Alpha/Y        N3        Beta/Z          J
 ---------------------------------------------------------------------------------------------------
      1      1  O 
      2         X        1  10.000000(     1)
      3      2  Cl       1   1.684326(     2)      2   90.000(     5)
      4      3  Br       1   3.073818(     3)      2   90.000(     6)      3  103.420(     8)      0
      5      4  H        1   1.017737(     4)      2   90.000(     7)      3  103.420(     9)      0
 ---------------------------------------------------------------------------------------------------
                         Z-Matrix orientation:                         
 ---------------------------------------------------------------------
 Center     Atomic      Atomic             Coordinates (Angstroms)
 Number     Number       Type             X           Y           Z
 ---------------------------------------------------------------------
      1          8           0        0.000000    0.000000    0.000000
      2         -1           0        0.000000    0.000000   10.000000
      3         17           0        1.684326    0.000000    0.000000
      4         35           0       -0.713413   -2.989882    0.000000
      5          1           0       -0.236210   -0.989946    0.000000
 ---------------------------------------------------------------------
                    Distance matrix (angstroms):
                    1          2          3          4          5
     1  O    0.000000
     2  X   10.000000   0.000000
     3  Cl   1.684326  10.140856   0.000000
     4  Br   3.073818  10.461757   3.832564   0.000000
     5  H    1.017737  10.051656   2.160660   2.056081   0.000000
 Stoichiometry    BrClHO(1-)
 Framework group  CS[SG(BrClHO)]
 Deg. of freedom     5
 Full point group                 CS      NOp   2
 RotChk:  IX=0 Diff= 1.06D-03
 Largest Abelian subgroup         CS      NOp   2
 Largest concise Abelian subgroup C1      NOp   1
                         Standard orientation:                         
 ---------------------------------------------------------------------
 Center     Atomic      Atomic             Coordinates (Angstroms)
 Number     Number       Type             X           Y           Z
 ---------------------------------------------------------------------
      1          8           0        0.582791    1.631692    0.000000
      2         17           0        2.149769    1.014007    0.000000
      3         35           0       -1.177383   -0.888257    0.000000
      4          1           0        0.000000    0.797340    0.000000
 ---------------------------------------------------------------------
 Rotational constants (GHZ):     22.6455556      1.2808284      1.2122631
 Leave Link  202 at Tue Oct 12 13:28:17 2021, MaxMem= 16106127360 cpu:         0.1
 (Enter /usr/local/gaussian/g09/l301.exe)
 Standard basis: Aug-CC-pVTZ (5D, 7F)
 Ernie: Thresh=  0.10000D-02 Tol=  0.10000D-05 Strict=F.
 Ernie:  48 primitive shells out of 228 were deleted.
 There are   142 symmetry adapted cartesian basis functions of A'  symmetry.
 There are    66 symmetry adapted cartesian basis functions of A"  symmetry.
 There are   118 symmetry adapted basis functions of A'  symmetry.
 There are    60 symmetry adapted basis functions of A"  symmetry.
   178 basis functions,   430 primitive gaussians,   208 cartesian basis functions
    31 alpha electrons       31 beta electrons
       nuclear repulsion energy       190.4171187905 Hartrees.
 IExCor=    0 DFT=F Ex=HF Corr=None ExCW=0 ScaHFX=  1.000000
 ScaDFX=  1.000000  1.000000  1.000000  1.000000 ScalE2=  1.000000  1.000000
 IRadAn=      0 IRanWt=     -1 IRanGd=            0 ICorTp=0 IEmpDi=  4
 NAtoms=    4 NActive=    4 NUniq=    4 SFac= 1.00D+00 NAtFMM=   60 NAOKFM=F Big=F
 Integral buffers will be    131072 words long.
 Raffenetti 1 integral format.
 Two-electron integral symmetry is turned on.
 Leave Link  301 at Tue Oct 12 13:28:17 2021, MaxMem= 16106127360 cpu:         0.3
 (Enter /usr/local/gaussian/g09/l302.exe)
 NPDir=0 NMtPBC=     1 NCelOv=     1 NCel=       1 NClECP=     1 NCelD=      1
         NCelK=      1 NCelE2=     1 NClLst=     1 CellRange=     0.0.
 One-electron integrals computed using PRISM.
 NBasis=   178 RedAO= T EigKep=  3.38D-04  NBF=   118    60
 NBsUse=   178 1.00D-06 EigRej= -1.00D+00 NBFU=   118    60
 Leave Link  302 at Tue Oct 12 13:28:17 2021, MaxMem= 16106127360 cpu:         1.5
 (Enter /usr/local/gaussian/g09/l303.exe)
 DipDrv:  MaxL=1.
 Leave Link  303 at Tue Oct 12 13:28:17 2021, MaxMem= 16106127360 cpu:         0.2
 (Enter /usr/local/gaussian/g09/l401.exe)
 Initial guess from the checkpoint file:  "/home/netid.washington.edu/cgavinh/mccoy_hocl/rOH_s_oop_0/brhocl/brhocl_0_opt.chk"
 B after Tr=    -0.000000   -0.000000    0.000000
         Rot=    1.000000    0.000000    0.000000    0.000256 Ang=   0.03 deg.
 Guess basis will be translated and rotated to current coordinates.
 JPrj=2 DoOrth=T DoCkMO=T.
 Initial guess orbital symmetries:
       Occupied  (A') (A') (A') (A') (A") (A') (A') (A') (A') (A')
                 (A') (A") (A') (A") (A') (A') (A") (A') (A") (A')
                 (A') (A') (A') (A') (A") (A') (A') (A") (A') (A")
                 (A')
       Virtual   (A') (A') (A') (A') (A') (A') (A') (A') (A') (A')
                 (A') (A') (A') (A') (A') (A') (A') (A') (A') (A')
                 (A') (A') (A') (A') (A') (A') (A') (A') (A') (A')
                 (A') (A') (A') (A') (A') (A') (A') (A') (A') (A')
                 (A') (A') (A') (A') (A') (A') (A') (A') (A') (A')
                 (A') (A') (A') (A') (A') (A') (A') (A') (A') (A')
                 (A') (A') (A') (A') (A') (A') (A') (A') (A') (A')
                 (A') (A') (A') (A') (A') (A') (A') (A') (A') (A')
                 (A') (A') (A') (A') (A') (A') (A') (A') (A') (A')
                 (A') (A') (A') (A') (A') (A") (A") (A") (A") (A")
                 (A") (A") (A") (A") (A") (A") (A") (A") (A") (A")
                 (A") (A") (A") (A") (A") (A") (A") (A") (A") (A")
                 (A") (A") (A") (A") (A") (A") (A") (A") (A") (A")
                 (A") (A") (A") (A") (A") (A") (A") (A") (A") (A")
                 (A") (A") (A") (A") (A") (A") (A")
 The electronic state of the initial guess is 1-A'.
 Leave Link  401 at Tue Oct 12 13:28:17 2021, MaxMem= 16106127360 cpu:         0.8
 (Enter /usr/local/gaussian/g09/l502.exe)
 Closed shell SCF:
 Using DIIS extrapolation, IDIIS=  1040.
 Integral symmetry usage will be decided dynamically.
 Keep R1 ints in memory in symmetry-blocked form, NReq=191334358.
 IVT=      152392 IEndB=      152392 NGot= 16106127360 MDV= 16041699527
 LenX= 16041699527 LenY= 16041655822
 Requested convergence on RMS density matrix=1.00D-08 within 128 cycles.
 Requested convergence on MAX density matrix=1.00D-06.
 Requested convergence on             energy=1.00D-06.
 No special actions if energy rises.
 FoFCou: FMM=F IPFlag=           0 FMFlag=           0 FMFlg1=           0
         NFxFlg=           0 DoJE=F BraDBF=F KetDBF=F FulRan=T
         wScrn=  0.000000 ICntrl=     600 IOpCl=  0 I1Cent=           0 NGrid=           0
         NMat0=    1 NMatS0=  15931 NMatT0=    0 NMatD0=    1 NMtDS0=    0 NMtDT0=    0
 Petite list used in FoFCou.

 Cycle   1  Pass 1  IDiag  1:
 E= -3107.47842821917    
 DIIS: error= 1.58D-05 at cycle   1 NSaved=   1.
 NSaved= 1 IEnMin= 1 EnMin= -3107.47842821917     IErMin= 1 ErrMin= 1.58D-05
 ErrMax= 1.58D-05  0.00D+00 EMaxC= 1.00D-01 BMatC= 4.63D-08 BMatP= 4.63D-08
 IDIUse=1 WtCom= 1.00D+00 WtEn= 0.00D+00
 Coeff-Com:  0.100D+01
 Coeff:      0.100D+01
 Gap=     0.672 Goal=   None    Shift=    0.000
 RMSDP=2.02D-06 MaxDP=8.32D-05              OVMax= 8.22D-05

 Cycle   2  Pass 1  IDiag  1:
 E= -3107.47842827839     Delta-E=       -0.000000059227 Rises=F Damp=F
 DIIS: error= 4.14D-06 at cycle   2 NSaved=   2.
 NSaved= 2 IEnMin= 2 EnMin= -3107.47842827839     IErMin= 2 ErrMin= 4.14D-06
 ErrMax= 4.14D-06  0.00D+00 EMaxC= 1.00D-01 BMatC= 2.62D-09 BMatP= 4.63D-08
 IDIUse=1 WtCom= 1.00D+00 WtEn= 0.00D+00
 Coeff-Com: -0.129D+00 0.113D+01
 Coeff:     -0.129D+00 0.113D+01
 Gap=     0.333 Goal=   None    Shift=    0.000
 RMSDP=4.58D-07 MaxDP=1.51D-05 DE=-5.92D-08 OVMax= 4.15D-05

 Cycle   3  Pass 1  IDiag  1:
 E= -3107.47842828542     Delta-E=       -0.000000007025 Rises=F Damp=F
 DIIS: error= 1.64D-06 at cycle   3 NSaved=   3.
 NSaved= 3 IEnMin= 3 EnMin= -3107.47842828542     IErMin= 3 ErrMin= 1.64D-06
 ErrMax= 1.64D-06  0.00D+00 EMaxC= 1.00D-01 BMatC= 4.18D-10 BMatP= 2.62D-09
 IDIUse=1 WtCom= 1.00D+00 WtEn= 0.00D+00
 Coeff-Com: -0.394D-01 0.526D-01 0.987D+00
 Coeff:     -0.394D-01 0.526D-01 0.987D+00
 Gap=     0.333 Goal=   None    Shift=    0.000
 RMSDP=1.78D-07 MaxDP=5.14D-06 DE=-7.02D-09 OVMax= 2.14D-05

 Cycle   4  Pass 1  IDiag  1:
 E= -3107.47842828674     Delta-E=       -0.000000001319 Rises=F Damp=F
 DIIS: error= 9.74D-07 at cycle   4 NSaved=   4.
 NSaved= 4 IEnMin= 4 EnMin= -3107.47842828674     IErMin= 4 ErrMin= 9.74D-07
 ErrMax= 9.74D-07  0.00D+00 EMaxC= 1.00D-01 BMatC= 1.18D-10 BMatP= 4.18D-10
 IDIUse=1 WtCom= 1.00D+00 WtEn= 0.00D+00
 Coeff-Com:  0.230D-01-0.221D+00 0.504D-01 0.115D+01
 Coeff:      0.230D-01-0.221D+00 0.504D-01 0.115D+01
 Gap=     0.333 Goal=   None    Shift=    0.000
 RMSDP=1.39D-07 MaxDP=3.82D-06 DE=-1.32D-09 OVMax= 1.76D-05

 Cycle   5  Pass 1  IDiag  1:
 E= -3107.47842828720     Delta-E=       -0.000000000464 Rises=F Damp=F
 DIIS: error= 3.78D-07 at cycle   5 NSaved=   5.
 NSaved= 5 IEnMin= 5 EnMin= -3107.47842828720     IErMin= 5 ErrMin= 3.78D-07
 ErrMax= 3.78D-07  0.00D+00 EMaxC= 1.00D-01 BMatC= 1.98D-11 BMatP= 1.18D-10
 IDIUse=1 WtCom= 1.00D+00 WtEn= 0.00D+00
 Coeff-Com:  0.101D-01-0.474D-01-0.130D+00 0.169D+00 0.998D+00
 Coeff:      0.101D-01-0.474D-01-0.130D+00 0.169D+00 0.998D+00
 Gap=     0.333 Goal=   None    Shift=    0.000
 RMSDP=5.26D-08 MaxDP=1.73D-06 DE=-4.64D-10 OVMax= 7.16D-06

 Cycle   6  Pass 1  IDiag  1:
 E= -3107.47842828727     Delta-E=       -0.000000000066 Rises=F Damp=F
 DIIS: error= 1.94D-07 at cycle   6 NSaved=   6.
 NSaved= 6 IEnMin= 6 EnMin= -3107.47842828727     IErMin= 6 ErrMin= 1.94D-07
 ErrMax= 1.94D-07  0.00D+00 EMaxC= 1.00D-01 BMatC= 3.76D-12 BMatP= 1.98D-11
 IDIUse=1 WtCom= 1.00D+00 WtEn= 0.00D+00
 Coeff-Com: -0.385D-02 0.426D-01-0.171D-01-0.243D+00 0.123D+00 0.110D+01
 Coeff:     -0.385D-02 0.426D-01-0.171D-01-0.243D+00 0.123D+00 0.110D+01
 Gap=     0.333 Goal=   None    Shift=    0.000
 RMSDP=2.76D-08 MaxDP=7.13D-07 DE=-6.59D-11 OVMax= 3.64D-06

 Cycle   7  Pass 1  IDiag  1:
 E= -3107.47842828729     Delta-E=       -0.000000000025 Rises=F Damp=F
 DIIS: error= 6.26D-08 at cycle   7 NSaved=   7.
 NSaved= 7 IEnMin= 7 EnMin= -3107.47842828729     IErMin= 7 ErrMin= 6.26D-08
 ErrMax= 6.26D-08  0.00D+00 EMaxC= 1.00D-01 BMatC= 4.72D-13 BMatP= 3.76D-12
 IDIUse=1 WtCom= 1.00D+00 WtEn= 0.00D+00
 Coeff-Com: -0.719D-03 0.257D-04 0.160D-01 0.202D-01-0.157D+00-0.146D+00
 Coeff-Com:  0.127D+01
 Coeff:     -0.719D-03 0.257D-04 0.160D-01 0.202D-01-0.157D+00-0.146D+00
 Coeff:      0.127D+01
 Gap=     0.333 Goal=   None    Shift=    0.000
 RMSDP=1.05D-08 MaxDP=2.11D-07 DE=-2.46D-11 OVMax= 1.14D-06

 Cycle   8  Pass 1  IDiag  1:
 E= -3107.47842828729     Delta-E=        0.000000000001 Rises=F Damp=F
 DIIS: error= 2.12D-08 at cycle   8 NSaved=   8.
 NSaved= 8 IEnMin= 7 EnMin= -3107.47842828729     IErMin= 8 ErrMin= 2.12D-08
 ErrMax= 2.12D-08  0.00D+00 EMaxC= 1.00D-01 BMatC= 6.50D-14 BMatP= 4.72D-13
 IDIUse=1 WtCom= 1.00D+00 WtEn= 0.00D+00
 Coeff-Com:  0.793D-03-0.830D-02 0.352D-02 0.445D-01-0.210D-01-0.171D+00
 Coeff-Com: -0.127D+00 0.128D+01
 Coeff:      0.793D-03-0.830D-02 0.352D-02 0.445D-01-0.210D-01-0.171D+00
 Coeff:     -0.127D+00 0.128D+01
 Gap=     0.333 Goal=   None    Shift=    0.000
 RMSDP=4.17D-09 MaxDP=8.99D-08 DE= 9.09D-13 OVMax= 3.65D-07

 SCF Done:  E(RHF) =  -3107.47842829     A.U. after    8 cycles
            NFock=  8  Conv=0.42D-08     -V/T= 2.0000
 KE= 3.107330306605D+03 PE=-7.823358894207D+03 EE= 1.418133040524D+03
 Leave Link  502 at Tue Oct 12 13:28:20 2021, MaxMem= 16106127360 cpu:        26.8
 (Enter /usr/local/gaussian/g09/l801.exe)
 ExpMin= 2.53D-02 ExpMax= 1.06D+07 ExpMxC= 1.21D+04 IAcc=3 IRadAn=         5 AccDes= 0.00D+00
 HarFok:  IExCor=  205 AccDes= 0.00D+00 IRadAn=         5 IDoV=-2 UseB2=F ITyADJ=14
 ICtDFT= 12500011 ScaDFX=  1.000000  1.000000  1.000000  1.000000
 Largest valence mixing into a core orbital is  4.47D-04
 Largest core mixing into a valence orbital is  1.58D-04
 Range of M.O.s used for correlation:    16   178
 NBasis=   178 NAE=    31 NBE=    31 NFC=    15 NFV=     0
 NROrb=    163 NOA=    16 NOB=    16 NVA=   147 NVB=   147

 **** Warning!!: The largest alpha MO coefficient is  0.20105924D+02

 Leave Link  801 at Tue Oct 12 13:28:20 2021, MaxMem= 16106127360 cpu:         0.7
 (Enter /usr/local/gaussian/g09/l906.exe)
 Frozen-core derivative calculation, NFC=  15 NFV=   0.
 FulOut=F Deriv=T AODrv=T NAtomX=     4
   MMem=        3496  MDisk=          16 MDiskD=          16
  W3Min=     1147744 MinDsk=     1765480 NBas6D=         208
 NBas2D=       22240    NTT=       21736    LW2=     9911920
    MDV= 16105602862 MDiskM=      387105 NBas2p=       22137
 Fully direct method using O(ONN) memory.
 IMap=   1   2   3   4   5   6   7   8   9  10  11  12  13  14  15  16  17  18  19  20
 IMap=  21  22  23  24  25  26  27  28  29  30  31
 JobTyp=1 Pass  1:  I=  16 to  31 NPSUse= 12 ParTrn=T ParDer=T DoDerP=T.
 Spin components of T(2) and E(2):
     alpha-alpha T2 =       0.3036506475D-01 E2=     -0.9427687832D-01
     alpha-beta  T2 =       0.1615404070D+00 E2=     -0.5157843292D+00
     beta-beta   T2 =       0.3036506475D-01 E2=     -0.9427687832D-01
 The integrals were generated   1 times.
 ANorm=    0.1105563448D+01
 E2 =    -0.7043380858D+00 EUMP2 =    -0.31081827663731D+04
 Leave Link  906 at Tue Oct 12 13:28:35 2021, MaxMem= 16106127360 cpu:       179.4
 (Enter /usr/local/gaussian/g09/l1002.exe)
 Minotr:  Closed shell wavefunction.
          Computing MP2/KS-MP2 derivatives.
          Using Z-Vector for PSCF gradient.
          Skipping F1 and S1 gradient terms here.
          IDoAtm=1111
          Frozen-core window.
          Direct CPHF calculation.
          Differentiating once with respect to electric field.
                with respect to dipole field.
          Differentiating once with respect to nuclear coordinates.
          Using symmetry in CPHF.
          Requested convergence is 1.0D-10 RMS, and 1.0D-09 maximum.
          NewPWx=F KeepS1=T KeepF1=T KeepIn=T MapXYZ=F SortEE=F KeepMc=T.
          MDV=   16106127153 using IRadAn=       0.
 Keep R1 ints in memory in symmetry-blocked form, NReq=191183570.
 FoFCou: FMM=F IPFlag=           0 FMFlag=           0 FMFlg1=           0
         NFxFlg=           0 DoJE=F BraDBF=F KetDBF=F FulRan=T
         wScrn=  0.000000 ICntrl=     600 IOpCl=  0 I1Cent=           0 NGrid=           0
         NMat0=    1 NMatS0=  15931 NMatT0=    0 NMatD0=    1 NMtDS0=    0 NMtDT0=    0
 Petite list used in FoFCou.
          Solving linear equations separately, MaxMat=       0.
          There are     1 degrees of freedom in the 1st order CPHF.  IDoFFX=0 NUNeed=     1.
 LinEq1:  Iter=  0 NonCon=     1 RMS=2.65D-03 Max=4.58D-02 NDo=     1
 AX will form     1 AO Fock derivatives at one time.
 LinEq1:  Iter=  1 NonCon=     1 RMS=4.17D-04 Max=5.02D-03 NDo=     1
 LinEq1:  Iter=  2 NonCon=     1 RMS=1.96D-04 Max=4.07D-03 NDo=     1
 LinEq1:  Iter=  3 NonCon=     1 RMS=6.38D-05 Max=1.05D-03 NDo=     1
 LinEq1:  Iter=  4 NonCon=     1 RMS=2.71D-05 Max=9.12D-04 NDo=     1
 LinEq1:  Iter=  5 NonCon=     1 RMS=9.74D-06 Max=1.61D-04 NDo=     1
 LinEq1:  Iter=  6 NonCon=     1 RMS=2.03D-06 Max=2.43D-05 NDo=     1
 LinEq1:  Iter=  7 NonCon=     1 RMS=4.95D-07 Max=8.66D-06 NDo=     1
 LinEq1:  Iter=  8 NonCon=     1 RMS=1.38D-07 Max=2.20D-06 NDo=     1
 LinEq1:  Iter=  9 NonCon=     1 RMS=3.35D-08 Max=8.28D-07 NDo=     1
 LinEq1:  Iter= 10 NonCon=     1 RMS=9.51D-09 Max=2.46D-07 NDo=     1
 LinEq1:  Iter= 11 NonCon=     1 RMS=2.37D-09 Max=4.00D-08 NDo=     1
 LinEq1:  Iter= 12 NonCon=     1 RMS=4.55D-10 Max=6.75D-09 NDo=     1
 LinEq1:  Iter= 13 NonCon=     1 RMS=1.27D-10 Max=1.73D-09 NDo=     1
 LinEq1:  Iter= 14 NonCon=     0 RMS=2.77D-11 Max=4.07D-10 NDo=     1
 Linear equations converged to 1.000D-10 1.000D-09 after    14 iterations.
 End of Minotr F.D. properties file   721 does not exist.
 End of Minotr F.D. properties file   722 does not exist.
 End of Minotr F.D. properties file   788 does not exist.
 Leave Link 1002 at Tue Oct 12 13:28:38 2021, MaxMem= 16106127360 cpu:        27.1
 (Enter /usr/local/gaussian/g09/l701.exe)
 Compute integral first derivatives.
 ... and contract with generalized density number  2.
 Leave Link  701 at Tue Oct 12 13:28:38 2021, MaxMem= 16106127360 cpu:         2.4
 (Enter /usr/local/gaussian/g09/l702.exe)
 L702 exits ... SP integral derivatives will be done elsewhere.
 Leave Link  702 at Tue Oct 12 13:28:38 2021, MaxMem= 16106127360 cpu:         0.1
 (Enter /usr/local/gaussian/g09/l703.exe)
 Compute integral first derivatives, UseDBF=F ICtDFT=           0.
 Integral derivatives from FoFJK, PRISM(SPDF).
 Calling FoFJK, ICntrl=  10002127 FMM=F ISym2X=1 I1Cent= 0 IOpClX= 0 NMat=1 NMatS=1 NMatT=0.
 FoFJK:  IHMeth= 1 ICntrl=10002127 DoSepK=F KAlg= 0 I1Cent=   0 FoldK=F
 IRaf=         0 NMat=   1 IRICut=       1 DoRegI=T DoRafI=F ISym2E= 1.
 FoFCou: FMM=F IPFlag=           0 FMFlag=      100000 FMFlg1=         800
         NFxFlg=           0 DoJE=F BraDBF=F KetDBF=F FulRan=T
         wScrn=  0.000000 ICntrl=10002127 IOpCl=  0 I1Cent=           0 NGrid=           0
         NMat0=    1 NMatS0=      1 NMatT0=    0 NMatD0=    1 NMtDS0=    0 NMtDT0=    0
 Petite list used in FoFCou.
 Leave Link  703 at Tue Oct 12 13:28:42 2021, MaxMem= 16106127360 cpu:        41.4
 (Enter /usr/local/gaussian/g09/l716.exe)
 Dipole        = 1.04263518D+00 4.47316712D-01 0.00000000D+00
 ***** Axes restored to original set *****
 -------------------------------------------------------------------
 Center     Atomic                   Forces (Hartrees/Bohr)
 Number     Number              X              Y              Z
 -------------------------------------------------------------------
      1        8          -0.001144495    0.000299131   -0.000000000
      2       17          -0.000005748   -0.000037161   -0.000000000
      3       35          -0.000537122    0.000133653   -0.000000000
      4        1           0.001687364   -0.000395623   -0.000000000
 -------------------------------------------------------------------
 Cartesian Forces:  Max     0.001687364 RMS     0.000626554
 -----------------------------------------------------------------------------------------------
                       Internal Coordinate Forces (Hartree/Bohr or radian)
  Cent   Atom   N1       Length/X         N2         Alpha/Y        N3         Beta/Z          J
 -----------------------------------------------------------------------------------------------
      1  O 
         X        1   0.000000(     1)
      2  Cl       1  -0.000006(     2)      2  -0.000000(     5)
      3  Br       1  -0.000005(     3)      2  -0.000000(     6)      3   0.003215(     8)     0
      4  H        1  -0.000007(     4)      2  -0.000000(     7)      3  -0.003333(     9)     0
 -----------------------------------------------------------------------------------------------
 Internal  Forces:  Max     0.003333193 RMS     0.001543669
 Leave Link  716 at Tue Oct 12 13:28:42 2021, MaxMem= 16106127360 cpu:         0.2
 (Enter /usr/local/gaussian/g09/l103.exe)

 GradGradGradGradGradGradGradGradGradGradGradGradGradGradGradGradGradGrad
 Berny optimization.
 Search for a local minimum.
 Step number   3 out of a maximum of   20
 All quantities printed in internal units (Hartrees-Bohrs-Radians)
 Update second derivatives using D2CorN and points    1    2    3
 DE= -1.64D-07 DEPred=-1.40D-07 R= 1.17D+00
 Trust test= 1.17D+00 RLast= 2.27D-03 DXMaxT set to 3.00D-01
 The second derivative matrix:
                          r1        r2        r3        a1        OOP
           r1           0.37558
           r2           0.00324   0.02563
           r3          -0.00129   0.00495   0.44698
           a1          -0.00800  -0.00265  -0.00305   0.38718
           OOP          0.00000   0.00000   0.00000   0.00000   0.23868
 ITU=  0  1  0
     Eigenvalues ---    0.02552   0.23868   0.37142   0.39122   0.44720
 RFO step:  Lambda=-2.83093696D-08 EMin= 2.55189321D-02
 Quartic linear search produced a step of  0.34437.
 Variable       Old X    -DE/DX   Delta X   Delta X   Delta X     New X
                                 (Linear)    (Quad)   (Total)
    r1        3.18291  -0.00001  -0.00004   0.00002  -0.00002   3.18289
    r2        5.80867  -0.00001  -0.00077   0.00056  -0.00020   5.80847
    r3        1.92324  -0.00001  -0.00004   0.00003  -0.00002   1.92323
    a1        1.80503  -0.00012  -0.00015  -0.00022  -0.00037   1.80466
   OOP        1.57080  -0.00000   0.00000   0.00000   0.00000   1.57080
         Item               Value     Threshold  Converged?
 Maximum Force            0.000118     0.000450     YES
 RMS     Force            0.000053     0.000300     YES
 Maximum Displacement     0.000366     0.001800     YES
 RMS     Displacement     0.000188     0.001200     YES
 Predicted change in Energy=-1.823319D-08
 Optimization completed.
    -- Stationary point found.
                       ----------------------------
                       !   Optimized Parameters   !
                       ! (Angstroms and Degrees)  !
 ----------------------                            ----------------------
 !      Name          Value   Derivative information (Atomic Units)     !
 ------------------------------------------------------------------------
 !       r1          1.6843   -DE/DX =    0.0                           !
 !       r2          3.0738   -DE/DX =    0.0                           !
 !       r3          1.0177   -DE/DX =    0.0                           !
 !       a1        103.4204   -DE/DX =   -0.0001                        !
 !       OOP        90.0      -DE/DX =    0.0                           !
 ------------------------------------------------------------------------
 Lowest energy point so far.  Saving SCF results.
 GradGradGradGradGradGradGradGradGradGradGradGradGradGradGradGradGradGrad

 Largest change from initial coordinates is atom    2       0.002 Angstoms.
 Leave Link  103 at Tue Oct 12 13:28:42 2021, MaxMem= 16106127360 cpu:         0.1
 (Enter /usr/local/gaussian/g09/l202.exe)
 ---------------------------------------------------------------------------------------------------
                            Z-MATRIX (ANGSTROMS AND DEGREES)
   CD    Cent   Atom    N1       Length/X        N2       Alpha/Y        N3        Beta/Z          J
 ---------------------------------------------------------------------------------------------------
      1      1  O 
      2         X        1  10.000000(     1)
      3      2  Cl       1   1.684326(     2)      2   90.000(     5)
      4      3  Br       1   3.073818(     3)      2   90.000(     6)      3  103.420(     8)      0
      5      4  H        1   1.017737(     4)      2   90.000(     7)      3  103.420(     9)      0
 ---------------------------------------------------------------------------------------------------
                         Z-Matrix orientation:                         
 ---------------------------------------------------------------------
 Center     Atomic      Atomic             Coordinates (Angstroms)
 Number     Number       Type             X           Y           Z
 ---------------------------------------------------------------------
      1          8           0        0.000000    0.000000    0.000000
      2         -1           0        0.000000    0.000000   10.000000
      3         17           0        1.684326    0.000000    0.000000
      4         35           0       -0.713413   -2.989882    0.000000
      5          1           0       -0.236210   -0.989946    0.000000
 ---------------------------------------------------------------------
                    Distance matrix (angstroms):
                    1          2          3          4          5
     1  O    0.000000
     2  X   10.000000   0.000000
     3  Cl   1.684326  10.140856   0.000000
     4  Br   3.073818  10.461757   3.832564   0.000000
     5  H    1.017737  10.051656   2.160660   2.056081   0.000000
 Stoichiometry    BrClHO(1-)
 Framework group  CS[SG(BrClHO)]
 Deg. of freedom     5
 Full point group                 CS      NOp   2
 RotChk:  IX=0 Diff= 1.57D-16
 Largest Abelian subgroup         CS      NOp   2
 Largest concise Abelian subgroup C1      NOp   1
                         Standard orientation:                         
 ---------------------------------------------------------------------
 Center     Atomic      Atomic             Coordinates (Angstroms)
 Number     Number       Type             X           Y           Z
 ---------------------------------------------------------------------
      1          8           0        0.582791    1.631692    0.000000
      2         17           0        2.149769    1.014007    0.000000
      3         35           0       -1.177383   -0.888257    0.000000
      4          1           0        0.000000    0.797340    0.000000
 ---------------------------------------------------------------------
 Rotational constants (GHZ):     22.6455556      1.2808284      1.2122631
 Leave Link  202 at Tue Oct 12 13:28:42 2021, MaxMem= 16106127360 cpu:         0.1
 (Enter /usr/local/gaussian/g09/l601.exe)
 Copying SCF densities to generalized density rwf, IOpCl= 0 IROHF=0.

 **********************************************************************

            Population analysis using the MP2 density.

 **********************************************************************

 Orbital symmetries:
       Occupied  (A') (A') (A') (A') (A") (A') (A') (A') (A') (A')
                 (A') (A") (A') (A") (A') (A') (A") (A') (A") (A')
                 (A') (A') (A') (A') (A") (A') (A') (A") (A') (A")
                 (A')
       Virtual   (A') (A') (A') (A") (A') (A') (A") (A') (A') (A")
                 (A') (A') (A') (A') (A") (A") (A') (A') (A') (A')
                 (A") (A") (A') (A') (A') (A") (A') (A') (A') (A")
                 (A') (A") (A') (A') (A") (A') (A') (A") (A") (A')
                 (A") (A') (A') (A') (A") (A') (A") (A') (A') (A')
                 (A") (A') (A") (A') (A') (A") (A") (A') (A') (A")
                 (A') (A") (A') (A') (A') (A') (A') (A") (A") (A')
                 (A") (A') (A') (A") (A') (A') (A') (A") (A") (A')
                 (A') (A') (A") (A') (A") (A') (A") (A") (A') (A')
                 (A') (A') (A") (A') (A") (A') (A") (A') (A") (A')
                 (A") (A') (A') (A') (A") (A') (A") (A') (A") (A')
                 (A') (A") (A') (A') (A") (A') (A') (A") (A') (A')
                 (A') (A") (A") (A') (A") (A') (A') (A') (A') (A')
                 (A") (A') (A') (A') (A") (A') (A") (A') (A") (A')
                 (A") (A') (A") (A') (A') (A') (A')
 The electronic state is 1-A'.
 Alpha  occ. eigenvalues -- -489.75651-104.73061 -64.89689 -58.25139 -58.25134
 Alpha  occ. eigenvalues --  -58.25134 -20.46061 -10.45011  -9.56944  -7.91727
 Alpha  occ. eigenvalues --   -7.91464  -7.91454  -7.17727  -7.17668  -7.17667
 Alpha  occ. eigenvalues --   -2.91898  -2.91870  -2.91868  -2.91804  -2.91804
 Alpha  occ. eigenvalues --   -1.22717  -0.89453  -0.73230  -0.53756  -0.44120
 Alpha  occ. eigenvalues --   -0.43303  -0.30733  -0.27986  -0.18681  -0.17688
 Alpha  occ. eigenvalues --   -0.17682
 Alpha virt. eigenvalues --    0.15620   0.18126   0.21571   0.22800   0.24121
 Alpha virt. eigenvalues --    0.24627   0.25007   0.28728   0.30364   0.31823
 Alpha virt. eigenvalues --    0.32360   0.32491   0.35887   0.43610   0.43706
 Alpha virt. eigenvalues --    0.46922   0.48193   0.48577   0.50234   0.54236
 Alpha virt. eigenvalues --    0.54273   0.57090   0.59365   0.60132   0.60396
 Alpha virt. eigenvalues --    0.60909   0.65638   0.69974   0.73750   0.74481
 Alpha virt. eigenvalues --    0.75324   0.77670   0.78764   0.84688   0.89038
 Alpha virt. eigenvalues --    0.89654   0.92001   0.94390   0.99835   0.99886
 Alpha virt. eigenvalues --    1.00345   1.00865   1.01870   1.03254   1.06846
 Alpha virt. eigenvalues --    1.08158   1.09378   1.10321   1.11069   1.13329
 Alpha virt. eigenvalues --    1.15320   1.17672   1.18180   1.20870   1.22165
 Alpha virt. eigenvalues --    1.24113   1.28395   1.29499   1.33324   1.33525
 Alpha virt. eigenvalues --    1.37458   1.38885   1.47604   1.50602   1.51939
 Alpha virt. eigenvalues --    1.56912   1.59068   1.63298   1.66703   1.70118
 Alpha virt. eigenvalues --    1.70630   1.77177   1.79085   1.79935   1.89903
 Alpha virt. eigenvalues --    1.97532   2.15202   2.37834   2.41049   2.41726
 Alpha virt. eigenvalues --    2.42247   2.46604   2.50275   2.50599   2.52789
 Alpha virt. eigenvalues --    2.53517   2.54931   2.55085   2.55327   2.56244
 Alpha virt. eigenvalues --    2.58234   2.60219   2.63161   2.64742   2.65854
 Alpha virt. eigenvalues --    2.68018   2.68115   2.70053   2.72016   2.72612
 Alpha virt. eigenvalues --    2.73976   2.75706   2.78309   2.80846   2.81045
 Alpha virt. eigenvalues --    2.88347   3.03278   3.07443   3.09697   3.17740
 Alpha virt. eigenvalues --    3.20097   3.21751   3.25689   3.29138   3.31213
 Alpha virt. eigenvalues --    3.33996   3.53144   3.54848   3.57377   3.93455
 Alpha virt. eigenvalues --    4.18736   4.30652   4.44962   4.53644   4.58991
 Alpha virt. eigenvalues --    4.77660   4.97065   5.03347   5.25296   5.33136
 Alpha virt. eigenvalues --    5.37034   5.65903   6.43311   6.59525   6.84916
 Alpha virt. eigenvalues --    6.90278   6.91676   6.99928   7.27098   7.33089
 Alpha virt. eigenvalues --    7.34682   7.45082   7.55659   7.74303   7.81847
 Alpha virt. eigenvalues --    8.35132  14.56538
          Condensed to atoms (all electrons):
               1          2          3          4
     1  O    8.670642  -0.115202  -0.093928   0.032716
     2  Cl  -0.115202  17.069667   0.004300  -0.006867
     3  Br  -0.093928   0.004300  35.892742   0.042846
     4  H    0.032716  -0.006867   0.042846   0.639220
 Mulliken charges:
               1
     1  O   -0.494227
     2  Cl   0.048102
     3  Br  -0.845960
     4  H    0.292085
 Sum of Mulliken charges =  -1.00000
 Mulliken charges with hydrogens summed into heavy atoms:
               1
     1  O   -0.202142
     2  Cl   0.048102
     3  Br  -0.845960
 Electronic spatial extent (au):  <R**2>=            810.2049
 Charge=             -1.0000 electrons
 Dipole moment (field-independent basis, Debye):
    X=              2.6501    Y=              1.1370    Z=              0.0000  Tot=              2.8837
 Quadrupole moment (field-independent basis, Debye-Ang):
   XX=            -50.7411   YY=            -50.4242   ZZ=            -43.1709
   XY=             -7.3555   XZ=              0.0000   YZ=              0.0000
 Traceless Quadrupole moment (field-independent basis, Debye-Ang):
   XX=             -2.6291   YY=             -2.3121   ZZ=              4.9412
   XY=             -7.3555   XZ=              0.0000   YZ=              0.0000
 Octapole moment (field-independent basis, Debye-Ang**2):
  XXX=            -10.3974  YYY=            -16.5923  ZZZ=              0.0000  XYY=             -7.2757
  XXY=             -4.0558  XXZ=              0.0000  XZZ=             -5.8011  YZZ=             -3.7489
  YYZ=              0.0000  XYZ=              0.0000
 Hexadecapole moment (field-independent basis, Debye-Ang**3):
 XXXX=           -628.4286 YYYY=           -363.0824 ZZZZ=            -61.8399 XXXY=           -191.3180
 XXXZ=              0.0000 YYYX=           -184.8912 YYYZ=              0.0000 ZZZX=              0.0000
 ZZZY=              0.0000 XXYY=           -173.9657 XXZZ=           -118.5667 YYZZ=            -69.1764
 XXYZ=              0.0000 YYXZ=              0.0000 ZZXY=            -59.4675
 N-N= 1.904171187905D+02 E-N=-7.821930283359D+03  KE= 3.107357098517D+03
 Symmetry A'   KE= 2.681320072563D+03
 Symmetry A"   KE= 4.260370259539D+02
 No NMR shielding tensors so no spin-rotation constants.
 Leave Link  601 at Tue Oct 12 13:28:42 2021, MaxMem= 16106127360 cpu:         1.8
 (Enter /usr/local/gaussian/g09/l9999.exe)
 1\1\GINC-KRYPTON\FOpt\RMP2-FC\Aug-CC-pVTZ\Br1Cl1H1O1(1-)\CGAVINH\12-Oc
 t-2021\1\\#p opt=(z-matrix) mp2/aug-cc-pvtz density=current\\title\\-1
 ,1\O\X,1,10.\Cl,1,r1,2,90.\Br,1,r2,2,90.,3,a1,0\H,1,r3,2,OOP,3,a1,0\\r
 1=1.68432554\r2=3.07381752\r3=1.01773682\a1=103.42035185\OOP=90.\\Vers
 ion=ES64L-G09RevE.01\State=1-A'\HF=-3107.4784283\MP2=-3108.1827664\RMS
 D=4.174e-09\RMSF=6.266e-04\Dipole=1.0426352,0.4473167,0.\Quadrupole=-1
 .9546387,-1.7190095,3.6736482,-5.4686497,0.,0.\PG=CS [SG(Br1Cl1H1O1)]\
 \@


 WE THE UNWILLING
 LED BY THE UNQUALIFIED
 HAVE BEEN DOING THE UNBELIEVABLE SO LONG WITH SO LITTLE
 THAT WE NOW ATTEMPT THE IMPOSSIBLE WITH NOTHING.

                                    -- ANONYMOUS
 Job cpu time:       0 days  0 hours 14 minutes 17.7 seconds.
 File lengths (MBytes):  RWF=     16 Int=      0 D2E=      0 Chk=      4 Scr=      1
 Normal termination of Gaussian 09 at Tue Oct 12 13:28:42 2021.
