 Entering Gaussian System, Link 0=g09
 Input=brhocl_rOH_090_sp.gjf
 Output=brhocl_rOH_090_sp.log
 Initial command:
 /usr/local/gaussian/g09/l1.exe "/scratch/Gau-17081.inp" -scrdir="/scratch/"
 Entering Link 1 = /usr/local/gaussian/g09/l1.exe PID=     17082.
  
 Copyright (c) 1988,1990,1992,1993,1995,1998,2003,2009,2015,
            Gaussian, Inc.  All Rights Reserved.
  
 This is part of the Gaussian(R) 09 program.  It is based on
 the Gaussian(R) 03 system (copyright 2003, Gaussian, Inc.),
 the Gaussian(R) 98 system (copyright 1998, Gaussian, Inc.),
 the Gaussian(R) 94 system (copyright 1995, Gaussian, Inc.),
 the Gaussian 92(TM) system (copyright 1992, Gaussian, Inc.),
 the Gaussian 90(TM) system (copyright 1990, Gaussian, Inc.),
 the Gaussian 88(TM) system (copyright 1988, Gaussian, Inc.),
 the Gaussian 86(TM) system (copyright 1986, Carnegie Mellon
 University), and the Gaussian 82(TM) system (copyright 1983,
 Carnegie Mellon University). Gaussian is a federally registered
 trademark of Gaussian, Inc.
  
 This software contains proprietary and confidential information,
 including trade secrets, belonging to Gaussian, Inc.
  
 This software is provided under written license and may be
 used, copied, transmitted, or stored only in accord with that
 written license.
  
 The following legend is applicable only to US Government
 contracts under FAR:
  
                    RESTRICTED RIGHTS LEGEND
  
 Use, reproduction and disclosure by the US Government is
 subject to restrictions as set forth in subparagraphs (a)
 and (c) of the Commercial Computer Software - Restricted
 Rights clause in FAR 52.227-19.
  
 Gaussian, Inc.
 340 Quinnipiac St., Bldg. 40, Wallingford CT 06492
  
  
 ---------------------------------------------------------------
 Warning -- This program may not be used in any manner that
 competes with the business of Gaussian, Inc. or will provide
 assistance to any competitor of Gaussian, Inc.  The licensee
 of this program is prohibited from giving any competitor of
 Gaussian, Inc. access to this program.  By using this program,
 the user acknowledges that Gaussian, Inc. is engaged in the
 business of creating and licensing software in the field of
 computational chemistry and represents and warrants to the
 licensee that it is not a competitor of Gaussian, Inc. and that
 it will not use this program in any manner prohibited above.
 ---------------------------------------------------------------
  

 Cite this work as:
 Gaussian 09, Revision E.01,
 M. J. Frisch, G. W. Trucks, H. B. Schlegel, G. E. Scuseria, 
 M. A. Robb, J. R. Cheeseman, G. Scalmani, V. Barone, B. Mennucci, 
 G. A. Petersson, H. Nakatsuji, M. Caricato, X. Li, H. P. Hratchian, 
 A. F. Izmaylov, J. Bloino, G. Zheng, J. L. Sonnenberg, M. Hada, 
 M. Ehara, K. Toyota, R. Fukuda, J. Hasegawa, M. Ishida, T. Nakajima, 
 Y. Honda, O. Kitao, H. Nakai, T. Vreven, J. A. Montgomery, Jr., 
 J. E. Peralta, F. Ogliaro, M. Bearpark, J. J. Heyd, E. Brothers, 
 K. N. Kudin, V. N. Staroverov, T. Keith, R. Kobayashi, J. Normand, 
 K. Raghavachari, A. Rendell, J. C. Burant, S. S. Iyengar, J. Tomasi, 
 M. Cossi, N. Rega, J. M. Millam, M. Klene, J. E. Knox, J. B. Cross, 
 V. Bakken, C. Adamo, J. Jaramillo, R. Gomperts, R. E. Stratmann, 
 O. Yazyev, A. J. Austin, R. Cammi, C. Pomelli, J. W. Ochterski, 
 R. L. Martin, K. Morokuma, V. G. Zakrzewski, G. A. Voth, 
 P. Salvador, J. J. Dannenberg, S. Dapprich, A. D. Daniels, 
 O. Farkas, J. B. Foresman, J. V. Ortiz, J. Cioslowski, 
 and D. J. Fox, Gaussian, Inc., Wallingford CT, 2013.
 
 ******************************************
 Gaussian 09:  ES64L-G09RevE.01 30-Nov-2015
                12-Oct-2021 
 ******************************************
 %nproc=12
 Will use up to   12 processors via shared memory.
 %mem=8000MB
 %chk=/home/netid.washington.edu/cgavinh/mccoy_hocl/rOH_s_oop_0/brhocl/brhocl_rOH
 _090_sp.chk
 ----------------------------------------------------
 #p pop=NBO SP NoSymm mp2/aug-cc-pvtz density=current
 ----------------------------------------------------
 1/30=1,38=1/1;
 2/12=2,15=1,17=6,18=5,40=1/2;
 3/5=16,6=1,7=10,11=9,16=1,25=1,30=1,71=1/1,2,3;
 4//1;
 5/5=2,38=5/2;
 8/6=4,10=1/1;
 9/15=1,16=-3/6;
 10/5=1,13=10,31=1/2;
 6/7=2,8=2,9=2,10=2,22=-1,40=1/1,7;
 99/5=1,9=1/99;
 Leave Link    1 at Tue Oct 12 14:23:26 2021, MaxMem=  1048576000 cpu:         0.3
 (Enter /usr/local/gaussian/g09/l101.exe)
 -----
 title
 -----
 Symbolic Z-matrix:
 Charge = -1 Multiplicity = 1
 O
 X                    1     10. 
 Cl                   1    r1       2     90. 
 Br                   1    r2       2     90.      3    a1       0
 H                    1    r3       2    oop      3    a1       0
       Variables:
  r1                    1.68433                  
  r2                    3.07382                  
  r3                    0.9                      
  a1                  103.42035                  
  OOP                  90.                       
 
 NAtoms=      4 NQM=        4 NQMF=       0 NMMI=      0 NMMIF=      0
                NMic=       0 NMicF=      0.
                    Isotopes and Nuclear Properties:
 (Nuclear quadrupole moments (NQMom) in fm**2, nuclear magnetic moments (NMagM)
  in nuclear magnetons)

  Atom         1           2           3           4
 IAtWgt=          16          35          79           1
 AtmWgt=  15.9949146  34.9688527  78.9183361   1.0078250
 NucSpn=           0           3           3           1
 AtZEff=   0.0000000   0.0000000   0.0000000   0.0000000
 NQMom=    0.0000000  -8.1650000  31.3000000   0.0000000
 NMagM=    0.0000000   0.8218740   2.1063990   2.7928460
 AtZNuc=   8.0000000  17.0000000  35.0000000   1.0000000
 Leave Link  101 at Tue Oct 12 14:23:26 2021, MaxMem=  1048576000 cpu:         0.4
 (Enter /usr/local/gaussian/g09/l202.exe)
                          Input orientation:                          
 ---------------------------------------------------------------------
 Center     Atomic      Atomic             Coordinates (Angstroms)
 Number     Number       Type             X           Y           Z
 ---------------------------------------------------------------------
      1          8           0        0.000000    0.000000    0.000000
      2         17           0        1.684326    0.000000    0.000000
      3         35           0       -0.713413   -2.989882    0.000000
      4          1           0       -0.208884   -0.875424    0.000000
 ---------------------------------------------------------------------
                    Distance matrix (angstroms):
                    1          2          3          4
     1  O    0.000000
     2  Cl   1.684326   0.000000
     3  Br   3.073818   3.832564   0.000000
     4  H    0.900000   2.085812   2.173818   0.000000
 Symmetry turned off by external request.
 Stoichiometry    BrClHO(1-)
 Framework group  CS[SG(BrClHO)]
 Deg. of freedom     5
 Full point group                 CS      NOp   2
 Rotational constants (GHZ):     22.5869278      1.2804023      1.2117130
 Leave Link  202 at Tue Oct 12 14:23:26 2021, MaxMem=  1048576000 cpu:         0.0
 (Enter /usr/local/gaussian/g09/l301.exe)
 Standard basis: Aug-CC-pVTZ (5D, 7F)
 Ernie: Thresh=  0.10000D-02 Tol=  0.10000D-05 Strict=F.
 Ernie:  48 primitive shells out of 228 were deleted.
   178 basis functions,   430 primitive gaussians,   208 cartesian basis functions
    31 alpha electrons       31 beta electrons
       nuclear repulsion energy       190.6227975448 Hartrees.
 IExCor=    0 DFT=F Ex=HF Corr=None ExCW=0 ScaHFX=  1.000000
 ScaDFX=  1.000000  1.000000  1.000000  1.000000 ScalE2=  1.000000  1.000000
 IRadAn=      0 IRanWt=     -1 IRanGd=            0 ICorTp=0 IEmpDi=  4
 NAtoms=    4 NActive=    4 NUniq=    4 SFac= 1.00D+00 NAtFMM=   60 NAOKFM=F Big=F
 Integral buffers will be    131072 words long.
 Raffenetti 1 integral format.
 Two-electron integral symmetry is turned off.
 Leave Link  301 at Tue Oct 12 14:23:26 2021, MaxMem=  1048576000 cpu:         0.3
 (Enter /usr/local/gaussian/g09/l302.exe)
 NPDir=0 NMtPBC=     1 NCelOv=     1 NCel=       1 NClECP=     1 NCelD=      1
         NCelK=      1 NCelE2=     1 NClLst=     1 CellRange=     0.0.
 One-electron integrals computed using PRISM.
 NBasis=   178 RedAO= T EigKep=  2.01D-04  NBF=   178
 NBsUse=   178 1.00D-06 EigRej= -1.00D+00 NBFU=   178
 Leave Link  302 at Tue Oct 12 14:23:26 2021, MaxMem=  1048576000 cpu:         1.7
 (Enter /usr/local/gaussian/g09/l303.exe)
 DipDrv:  MaxL=1.
 Leave Link  303 at Tue Oct 12 14:23:26 2021, MaxMem=  1048576000 cpu:         0.2
 (Enter /usr/local/gaussian/g09/l401.exe)
 ExpMin= 2.53D-02 ExpMax= 1.06D+07 ExpMxC= 1.21D+04 IAcc=3 IRadAn=         5 AccDes= 0.00D+00
 Harris functional with IExCor=  205 and IRadAn=       5 diagonalized for initial guess.
 HarFok:  IExCor=  205 AccDes= 0.00D+00 IRadAn=         5 IDoV= 1 UseB2=F ITyADJ=14
 ICtDFT=  3500011 ScaDFX=  1.000000  1.000000  1.000000  1.000000
 FoFCou: FMM=F IPFlag=           0 FMFlag=      100000 FMFlg1=           0
         NFxFlg=           0 DoJE=T BraDBF=F KetDBF=T FulRan=T
         wScrn=  0.000000 ICntrl=     500 IOpCl=  0 I1Cent=   200000004 NGrid=           0
         NMat0=    1 NMatS0=      1 NMatT0=    0 NMatD0=    1 NMtDS0=    0 NMtDT0=    0
 Symmetry not used in FoFCou.
 Harris En= -3106.38908514167    
 JPrj=0 DoOrth=F DoCkMO=F.
 Leave Link  401 at Tue Oct 12 14:23:27 2021, MaxMem=  1048576000 cpu:         3.1
 (Enter /usr/local/gaussian/g09/l502.exe)
 Closed shell SCF:
 Using DIIS extrapolation, IDIIS=  1040.
 Two-electron integral symmetry not used.
 Keep R1 ints in memory in canonical form, NReq=131623000.
 IVT=      152094 IEndB=      152094 NGot=  1048576000 MDV=   921517561
 LenX=   921517561 LenY=   921473856
 Requested convergence on RMS density matrix=1.00D-08 within 128 cycles.
 Requested convergence on MAX density matrix=1.00D-06.
 Requested convergence on             energy=1.00D-06.
 No special actions if energy rises.
 FoFCou: FMM=F IPFlag=           0 FMFlag=           0 FMFlg1=           0
         NFxFlg=           0 DoJE=F BraDBF=F KetDBF=F FulRan=T
         wScrn=  0.000000 ICntrl=     600 IOpCl=  0 I1Cent=           0 NGrid=           0
         NMat0=    1 NMatS0=  15931 NMatT0=    0 NMatD0=    1 NMtDS0=    0 NMtDT0=    0
 Symmetry not used in FoFCou.

 Cycle   1  Pass 1  IDiag  1:
 E= -3107.30000994891    
 DIIS: error= 6.12D-02 at cycle   1 NSaved=   1.
 NSaved= 1 IEnMin= 1 EnMin= -3107.30000994891     IErMin= 1 ErrMin= 6.12D-02
 ErrMax= 6.12D-02  0.00D+00 EMaxC= 1.00D-01 BMatC= 6.51D-01 BMatP= 6.51D-01
 IDIUse=3 WtCom= 3.88D-01 WtEn= 6.12D-01
 Coeff-Com:  0.100D+01
 Coeff-En:   0.100D+01
 Coeff:      0.100D+01
 Gap=     0.569 Goal=   None    Shift=    0.000
 GapD=    0.569 DampG=2.000 DampE=0.500 DampFc=1.0000 IDamp=-1.
 RMSDP=3.12D-03 MaxDP=9.81D-02              OVMax= 1.21D-01

 Cycle   2  Pass 1  IDiag  1:
 E= -3107.44162498241     Delta-E=       -0.141615033500 Rises=F Damp=F
 DIIS: error= 1.90D-02 at cycle   2 NSaved=   2.
 NSaved= 2 IEnMin= 2 EnMin= -3107.44162498241     IErMin= 2 ErrMin= 1.90D-02
 ErrMax= 1.90D-02  0.00D+00 EMaxC= 1.00D-01 BMatC= 5.12D-02 BMatP= 6.51D-01
 IDIUse=3 WtCom= 8.10D-01 WtEn= 1.90D-01
 Coeff-Com:  0.149D+00 0.851D+00
 Coeff-En:   0.000D+00 0.100D+01
 Coeff:      0.120D+00 0.880D+00
 Gap=     0.323 Goal=   None    Shift=    0.000
 RMSDP=1.17D-03 MaxDP=4.03D-02 DE=-1.42D-01 OVMax= 7.97D-02

 Cycle   3  Pass 1  IDiag  1:
 E= -3107.46477634407     Delta-E=       -0.023151361662 Rises=F Damp=F
 DIIS: error= 9.21D-03 at cycle   3 NSaved=   3.
 NSaved= 3 IEnMin= 3 EnMin= -3107.46477634407     IErMin= 3 ErrMin= 9.21D-03
 ErrMax= 9.21D-03  0.00D+00 EMaxC= 1.00D-01 BMatC= 1.46D-02 BMatP= 5.12D-02
 IDIUse=3 WtCom= 9.08D-01 WtEn= 9.21D-02
 Coeff-Com:  0.604D-02 0.346D+00 0.648D+00
 Coeff-En:   0.000D+00 0.140D+00 0.860D+00
 Coeff:      0.548D-02 0.327D+00 0.668D+00
 Gap=     0.324 Goal=   None    Shift=    0.000
 RMSDP=3.52D-04 MaxDP=1.45D-02 DE=-2.32D-02 OVMax= 3.67D-02

 Cycle   4  Pass 1  IDiag  1:
 E= -3107.47468748516     Delta-E=       -0.009911141090 Rises=F Damp=F
 DIIS: error= 1.42D-03 at cycle   4 NSaved=   4.
 NSaved= 4 IEnMin= 4 EnMin= -3107.47468748516     IErMin= 4 ErrMin= 1.42D-03
 ErrMax= 1.42D-03  0.00D+00 EMaxC= 1.00D-01 BMatC= 1.74D-04 BMatP= 1.46D-02
 IDIUse=3 WtCom= 9.86D-01 WtEn= 1.42D-02
 Coeff-Com: -0.504D-02-0.323D-01 0.392D-01 0.998D+00
 Coeff-En:   0.000D+00 0.000D+00 0.000D+00 0.100D+01
 Coeff:     -0.497D-02-0.319D-01 0.386D-01 0.998D+00
 Gap=     0.322 Goal=   None    Shift=    0.000
 RMSDP=6.12D-05 MaxDP=1.46D-03 DE=-9.91D-03 OVMax= 3.56D-03

 Cycle   5  Pass 1  IDiag  1:
 E= -3107.47488419934     Delta-E=       -0.000196714172 Rises=F Damp=F
 DIIS: error= 2.34D-04 at cycle   5 NSaved=   5.
 NSaved= 5 IEnMin= 5 EnMin= -3107.47488419934     IErMin= 5 ErrMin= 2.34D-04
 ErrMax= 2.34D-04  0.00D+00 EMaxC= 1.00D-01 BMatC= 1.17D-05 BMatP= 1.74D-04
 IDIUse=3 WtCom= 9.98D-01 WtEn= 2.34D-03
 Coeff-Com:  0.840D-03-0.152D-01-0.370D-01-0.180D+00 0.123D+01
 Coeff-En:   0.000D+00 0.000D+00 0.000D+00 0.000D+00 0.100D+01
 Coeff:      0.838D-03-0.152D-01-0.369D-01-0.180D+00 0.123D+01
 Gap=     0.323 Goal=   None    Shift=    0.000
 RMSDP=3.03D-05 MaxDP=1.04D-03 DE=-1.97D-04 OVMax= 2.79D-03

 Cycle   6  Pass 1  IDiag  1:
 E= -3107.47491690213     Delta-E=       -0.000032702789 Rises=F Damp=F
 DIIS: error= 1.17D-04 at cycle   6 NSaved=   6.
 NSaved= 6 IEnMin= 6 EnMin= -3107.47491690213     IErMin= 6 ErrMin= 1.17D-04
 ErrMax= 1.17D-04  0.00D+00 EMaxC= 1.00D-01 BMatC= 1.65D-06 BMatP= 1.17D-05
 IDIUse=3 WtCom= 9.99D-01 WtEn= 1.17D-03
 Coeff-Com:  0.441D-03 0.406D-02-0.322D-03-0.117D+00-0.659D-01 0.118D+01
 Coeff-En:   0.000D+00 0.000D+00 0.000D+00 0.000D+00 0.000D+00 0.100D+01
 Coeff:      0.440D-03 0.406D-02-0.321D-03-0.117D+00-0.658D-01 0.118D+01
 Gap=     0.323 Goal=   None    Shift=    0.000
 RMSDP=1.28D-05 MaxDP=5.03D-04 DE=-3.27D-05 OVMax= 1.36D-03

 Cycle   7  Pass 1  IDiag  1:
 E= -3107.47492250983     Delta-E=       -0.000005607702 Rises=F Damp=F
 DIIS: error= 4.53D-05 at cycle   7 NSaved=   7.
 NSaved= 7 IEnMin= 7 EnMin= -3107.47492250983     IErMin= 7 ErrMin= 4.53D-05
 ErrMax= 4.53D-05  0.00D+00 EMaxC= 1.00D-01 BMatC= 1.82D-07 BMatP= 1.65D-06
 IDIUse=1 WtCom= 1.00D+00 WtEn= 0.00D+00
 Coeff-Com: -0.230D-03 0.808D-03 0.614D-02 0.542D-01-0.163D+00-0.249D+00
 Coeff-Com:  0.135D+01
 Coeff:     -0.230D-03 0.808D-03 0.614D-02 0.542D-01-0.163D+00-0.249D+00
 Coeff:      0.135D+01
 Gap=     0.323 Goal=   None    Shift=    0.000
 RMSDP=5.38D-06 MaxDP=1.80D-04 DE=-5.61D-06 OVMax= 5.34D-04

 Cycle   8  Pass 1  IDiag  1:
 E= -3107.47492322876     Delta-E=       -0.000000718931 Rises=F Damp=F
 DIIS: error= 9.42D-06 at cycle   8 NSaved=   8.
 NSaved= 8 IEnMin= 8 EnMin= -3107.47492322876     IErMin= 8 ErrMin= 9.42D-06
 ErrMax= 9.42D-06  0.00D+00 EMaxC= 1.00D-01 BMatC= 1.05D-08 BMatP= 1.82D-07
 IDIUse=1 WtCom= 1.00D+00 WtEn= 0.00D+00
 Coeff-Com:  0.192D-04-0.575D-03-0.128D-02-0.398D-02 0.329D-01 0.585D-02
 Coeff-Com: -0.347D+00 0.131D+01
 Coeff:      0.192D-04-0.575D-03-0.128D-02-0.398D-02 0.329D-01 0.585D-02
 Coeff:     -0.347D+00 0.131D+01
 Gap=     0.323 Goal=   None    Shift=    0.000
 RMSDP=1.38D-06 MaxDP=3.36D-05 DE=-7.19D-07 OVMax= 1.66D-04

 Cycle   9  Pass 1  IDiag  1:
 E= -3107.47492327346     Delta-E=       -0.000000044697 Rises=F Damp=F
 DIIS: error= 2.98D-06 at cycle   9 NSaved=   9.
 NSaved= 9 IEnMin= 9 EnMin= -3107.47492327346     IErMin= 9 ErrMin= 2.98D-06
 ErrMax= 2.98D-06  0.00D+00 EMaxC= 1.00D-01 BMatC= 1.31D-09 BMatP= 1.05D-08
 IDIUse=1 WtCom= 1.00D+00 WtEn= 0.00D+00
 Coeff-Com:  0.108D-04 0.853D-04-0.108D-03-0.286D-02 0.309D-02 0.201D-01
 Coeff-Com: -0.112D-01-0.406D+00 0.140D+01
 Coeff:      0.108D-04 0.853D-04-0.108D-03-0.286D-02 0.309D-02 0.201D-01
 Coeff:     -0.112D-01-0.406D+00 0.140D+01
 Gap=     0.323 Goal=   None    Shift=    0.000
 RMSDP=5.39D-07 MaxDP=1.60D-05 DE=-4.47D-08 OVMax= 7.17D-05

 Cycle  10  Pass 1  IDiag  1:
 E= -3107.47492328021     Delta-E=       -0.000000006757 Rises=F Damp=F
 DIIS: error= 1.28D-06 at cycle  10 NSaved=  10.
 NSaved=10 IEnMin=10 EnMin= -3107.47492328021     IErMin=10 ErrMin= 1.28D-06
 ErrMax= 1.28D-06  0.00D+00 EMaxC= 1.00D-01 BMatC= 1.96D-10 BMatP= 1.31D-09
 IDIUse=1 WtCom= 1.00D+00 WtEn= 0.00D+00
 Coeff-Com: -0.410D-05 0.102D-03 0.224D-03 0.815D-03-0.617D-02-0.125D-02
 Coeff-Com:  0.584D-01-0.191D+00-0.121D+00 0.126D+01
 Coeff:     -0.410D-05 0.102D-03 0.224D-03 0.815D-03-0.617D-02-0.125D-02
 Coeff:      0.584D-01-0.191D+00-0.121D+00 0.126D+01
 Gap=     0.323 Goal=   None    Shift=    0.000
 RMSDP=2.33D-07 MaxDP=7.37D-06 DE=-6.76D-09 OVMax= 3.02D-05

 Cycle  11  Pass 1  IDiag  1:
 E= -3107.47492328118     Delta-E=       -0.000000000963 Rises=F Damp=F
 DIIS: error= 3.45D-07 at cycle  11 NSaved=  11.
 NSaved=11 IEnMin=11 EnMin= -3107.47492328118     IErMin=11 ErrMin= 3.45D-07
 ErrMax= 3.45D-07  0.00D+00 EMaxC= 1.00D-01 BMatC= 1.25D-11 BMatP= 1.96D-10
 IDIUse=1 WtCom= 1.00D+00 WtEn= 0.00D+00
 Coeff-Com: -0.600D-06-0.288D-04-0.293D-04 0.288D-03 0.522D-03-0.195D-02
 Coeff-Com: -0.814D-02 0.731D-01-0.111D+00-0.254D+00 0.130D+01
 Coeff:     -0.600D-06-0.288D-04-0.293D-04 0.288D-03 0.522D-03-0.195D-02
 Coeff:     -0.814D-02 0.731D-01-0.111D+00-0.254D+00 0.130D+01
 Gap=     0.323 Goal=   None    Shift=    0.000
 RMSDP=5.87D-08 MaxDP=1.96D-06 DE=-9.63D-10 OVMax= 7.13D-06

 Cycle  12  Pass 1  IDiag  1:
 E= -3107.47492328123     Delta-E=       -0.000000000057 Rises=F Damp=F
 DIIS: error= 6.11D-08 at cycle  12 NSaved=  12.
 NSaved=12 IEnMin=12 EnMin= -3107.47492328123     IErMin=12 ErrMin= 6.11D-08
 ErrMax= 6.11D-08  0.00D+00 EMaxC= 1.00D-01 BMatC= 5.37D-13 BMatP= 1.25D-11
 IDIUse=1 WtCom= 1.00D+00 WtEn= 0.00D+00
 Coeff-Com:  0.148D-06-0.330D-05-0.980D-05-0.538D-04 0.292D-03 0.101D-03
 Coeff-Com: -0.259D-02 0.700D-02 0.112D-01-0.618D-01-0.256D-01 0.107D+01
 Coeff:      0.148D-06-0.330D-05-0.980D-05-0.538D-04 0.292D-03 0.101D-03
 Coeff:     -0.259D-02 0.700D-02 0.112D-01-0.618D-01-0.256D-01 0.107D+01
 Gap=     0.323 Goal=   None    Shift=    0.000
 RMSDP=9.19D-09 MaxDP=2.60D-07 DE=-5.73D-11 OVMax= 8.69D-07

 SCF Done:  E(RHF) =  -3107.47492328     A.U. after   12 cycles
            NFock= 12  Conv=0.92D-08     -V/T= 2.0000
 KE= 3.107529692255D+03 PE=-7.823883884611D+03 EE= 1.418256471530D+03
 Leave Link  502 at Tue Oct 12 14:23:30 2021, MaxMem=  1048576000 cpu:        19.0
 (Enter /usr/local/gaussian/g09/l801.exe)
 ExpMin= 2.53D-02 ExpMax= 1.06D+07 ExpMxC= 1.21D+04 IAcc=3 IRadAn=         5 AccDes= 0.00D+00
 HarFok:  IExCor=  205 AccDes= 0.00D+00 IRadAn=         5 IDoV=-2 UseB2=F ITyADJ=14
 ICtDFT= 12500011 ScaDFX=  1.000000  1.000000  1.000000  1.000000
 Largest valence mixing into a core orbital is  4.48D-04
 Largest core mixing into a valence orbital is  1.59D-04
 Range of M.O.s used for correlation:    16   178
 NBasis=   178 NAE=    31 NBE=    31 NFC=    15 NFV=     0
 NROrb=    163 NOA=    16 NOB=    16 NVA=   147 NVB=   147

 **** Warning!!: The largest alpha MO coefficient is  0.17987470D+02

 Leave Link  801 at Tue Oct 12 14:23:30 2021, MaxMem=  1048576000 cpu:         0.7
 (Enter /usr/local/gaussian/g09/l906.exe)
 Frozen-core derivative calculation, NFC=  15 NFV=   0.
 FulOut=F Deriv=T AODrv=F NAtomX=     4
   MMem=         227  MDisk=          16 MDiskD=          16
  W3Min=     1147744 MinDsk=     1765480 NBas6D=         208
 NBas2D=       22240    NTT=       21736    LW2=     9911920
    MDV=  1048101791 MDiskM=       25146 NBas2p=       22041
 Fully in-core method, ICMem=   526646768.
 IMap=   1   2   3   4   5   6   7   8   9  10  11  12  13  14  15  16  17  18  19  20
 IMap=  21  22  23  24  25  26  27  28  29  30  31
 JobTyp=1 Pass  1 fully in-core, NPsUse= 12.
 Compute canonical integrals.
 FoFCou: FMM=F IPFlag=           0 FMFlag=           0 FMFlg1=           0
         NFxFlg=           0 DoJE=F BraDBF=F KetDBF=F FulRan=T
         wScrn=  0.000000 ICntrl=     600 IOpCl=  1 I1Cent=           0 NGrid=           0
         NMat0=    1 NMatS0=  22240 NMatT0=    0 NMatD0=    1 NMtDS0=    0 NMtDT0=    0
 Symmetry not used in FoFCou.
 Spin components of T(2) and E(2):
     alpha-alpha T2 =       0.2957643732D-01 E2=     -0.9302279970D-01
     alpha-beta  T2 =       0.1582706002D+00 E2=     -0.5112981806D+00
     beta-beta   T2 =       0.2957643732D-01 E2=     -0.9302279970D-01
 The integrals were generated   1 times.
 ANorm=    0.1103369147D+01
 E2 =    -0.6973437800D+00 EUMP2 =    -0.31081722670612D+04
 Leave Link  906 at Tue Oct 12 14:23:38 2021, MaxMem=  1048576000 cpu:        98.1
 (Enter /usr/local/gaussian/g09/l1002.exe)
 Minotr:  Closed shell wavefunction.
          Computing MP2/KS-MP2 derivatives.
          Using Z-Vector for PSCF gradient.
          Skipping F1 and S1 gradient terms here.
          Frozen-core window.
          Direct CPHF calculation.
          Differentiating once with respect to electric field.
                with respect to dipole field.
          Electric field/nuclear overlap derivatives assumed to be zero.
          Requested convergence is 1.0D-10 RMS, and 1.0D-09 maximum.
          NewPWx=F KeepS1=T KeepF1=T KeepIn=T MapXYZ=F SortEE=F KeepMc=T.
          MDV=    1048575801 using IRadAn=       0.
 Keep R1 ints in memory in canonical form, NReq=131472178.
 FoFCou: FMM=F IPFlag=           0 FMFlag=           0 FMFlg1=           0
         NFxFlg=           0 DoJE=F BraDBF=F KetDBF=F FulRan=T
         wScrn=  0.000000 ICntrl=     600 IOpCl=  0 I1Cent=           0 NGrid=           0
         NMat0=    1 NMatS0=  15931 NMatT0=    0 NMatD0=    1 NMtDS0=    0 NMtDT0=    0
 Symmetry not used in FoFCou.
          Solving linear equations separately, MaxMat=       0.
          There are     1 degrees of freedom in the 1st order CPHF.  IDoFFX=0 NUNeed=     1.
 LinEq1:  Iter=  0 NonCon=     1 RMS=2.51D-03 Max=4.27D-02 NDo=     1
 AX will form     1 AO Fock derivatives at one time.
 LinEq1:  Iter=  1 NonCon=     1 RMS=3.94D-04 Max=4.45D-03 NDo=     1
 LinEq1:  Iter=  2 NonCon=     1 RMS=1.81D-04 Max=3.51D-03 NDo=     1
 LinEq1:  Iter=  3 NonCon=     1 RMS=5.49D-05 Max=8.18D-04 NDo=     1
 LinEq1:  Iter=  4 NonCon=     1 RMS=2.07D-05 Max=7.61D-04 NDo=     1
 LinEq1:  Iter=  5 NonCon=     1 RMS=8.06D-06 Max=1.27D-04 NDo=     1
 LinEq1:  Iter=  6 NonCon=     1 RMS=1.80D-06 Max=2.49D-05 NDo=     1
 LinEq1:  Iter=  7 NonCon=     1 RMS=4.25D-07 Max=5.80D-06 NDo=     1
 LinEq1:  Iter=  8 NonCon=     1 RMS=1.12D-07 Max=1.63D-06 NDo=     1
 LinEq1:  Iter=  9 NonCon=     1 RMS=2.37D-08 Max=3.33D-07 NDo=     1
 LinEq1:  Iter= 10 NonCon=     1 RMS=5.44D-09 Max=1.07D-07 NDo=     1
 LinEq1:  Iter= 11 NonCon=     1 RMS=1.17D-09 Max=3.55D-08 NDo=     1
 LinEq1:  Iter= 12 NonCon=     1 RMS=3.02D-10 Max=5.86D-09 NDo=     1
 LinEq1:  Iter= 13 NonCon=     1 RMS=9.82D-11 Max=1.99D-09 NDo=     1
 LinEq1:  Iter= 14 NonCon=     0 RMS=2.09D-11 Max=3.86D-10 NDo=     1
 Linear equations converged to 1.000D-10 1.000D-09 after    14 iterations.
 End of Minotr F.D. properties file   721 does not exist.
 End of Minotr F.D. properties file   722 does not exist.
 End of Minotr F.D. properties file   788 does not exist.
 Leave Link 1002 at Tue Oct 12 14:23:42 2021, MaxMem=  1048576000 cpu:        18.6
 (Enter /usr/local/gaussian/g09/l601.exe)
 Copying SCF densities to generalized density rwf, IOpCl= 0 IROHF=0.

 **********************************************************************

            Population analysis using the MP2 density.

 **********************************************************************

 Alpha  occ. eigenvalues -- -489.74781-104.74076 -64.88817 -58.24265 -58.24265
 Alpha  occ. eigenvalues --  -58.24264 -20.46550 -10.46015  -9.56070  -7.92733
 Alpha  occ. eigenvalues --   -7.92460  -7.92449  -7.16835  -7.16804  -7.16803
 Alpha  occ. eigenvalues --   -2.90999  -2.90986  -2.90984  -2.90954  -2.90953
 Alpha  occ. eigenvalues --   -1.26317  -0.91410  -0.72216  -0.57355  -0.45469
 Alpha  occ. eigenvalues --   -0.44678  -0.31885  -0.29108  -0.17789  -0.16888
 Alpha  occ. eigenvalues --   -0.16886
 Alpha virt. eigenvalues --    0.15443   0.17824   0.21670   0.22692   0.24142
 Alpha virt. eigenvalues --    0.24746   0.25083   0.27996   0.30091   0.31195
 Alpha virt. eigenvalues --    0.32049   0.32658   0.35834   0.43048   0.43681
 Alpha virt. eigenvalues --    0.47243   0.48381   0.48862   0.51254   0.54123
 Alpha virt. eigenvalues --    0.54469   0.56557   0.58923   0.59855   0.60609
 Alpha virt. eigenvalues --    0.61238   0.65120   0.70985   0.74075   0.74957
 Alpha virt. eigenvalues --    0.75709   0.77158   0.78702   0.85554   0.88313
 Alpha virt. eigenvalues --    0.88953   0.91568   0.94102   0.99516   1.00914
 Alpha virt. eigenvalues --    1.00915   1.01081   1.02714   1.04542   1.06363
 Alpha virt. eigenvalues --    1.06729   1.09088   1.10586   1.12004   1.13534
 Alpha virt. eigenvalues --    1.14402   1.18146   1.18719   1.19812   1.21745
 Alpha virt. eigenvalues --    1.22993   1.27292   1.29094   1.33177   1.33415
 Alpha virt. eigenvalues --    1.36862   1.38262   1.46466   1.50515   1.52596
 Alpha virt. eigenvalues --    1.56468   1.58133   1.63310   1.65944   1.69048
 Alpha virt. eigenvalues --    1.70904   1.74991   1.78512   1.84012   1.92207
 Alpha virt. eigenvalues --    1.95977   2.12900   2.36898   2.40558   2.41955
 Alpha virt. eigenvalues --    2.42914   2.47599   2.50535   2.51461   2.53218
 Alpha virt. eigenvalues --    2.53334   2.55445   2.55464   2.55797   2.56557
 Alpha virt. eigenvalues --    2.58157   2.61015   2.63732   2.65820   2.66234
 Alpha virt. eigenvalues --    2.67877   2.68072   2.69870   2.71475   2.73275
 Alpha virt. eigenvalues --    2.74006   2.75972   2.79678   2.80827   2.82263
 Alpha virt. eigenvalues --    2.93206   2.99442   3.07243   3.08894   3.15797
 Alpha virt. eigenvalues --    3.19355   3.20954   3.25099   3.29343   3.31144
 Alpha virt. eigenvalues --    3.33039   3.53250   3.54197   3.57225   3.96436
 Alpha virt. eigenvalues --    4.21165   4.40600   4.48358   4.64638   4.65833
 Alpha virt. eigenvalues --    4.78664   4.93643   5.07403   5.24336   5.69573
 Alpha virt. eigenvalues --    5.72152   5.89069   6.39132   6.59095   6.86491
 Alpha virt. eigenvalues --    6.90238   6.90989   7.01272   7.32744   7.45200
 Alpha virt. eigenvalues --    7.46178   7.60510   7.60696   7.87451   8.06157
 Alpha virt. eigenvalues --    8.52390  17.22888
          Condensed to atoms (all electrons):
               1          2          3          4
     1  O    8.558062  -0.102195  -0.081033   0.025645
     2  Cl  -0.102195  17.042725   0.001908  -0.009024
     3  Br  -0.081033   0.001908  35.928214   0.047443
     4  H    0.025645  -0.009024   0.047443   0.705511
 Mulliken charges:
               1
     1  O   -0.400480
     2  Cl   0.066586
     3  Br  -0.896531
     4  H    0.230425
 Sum of Mulliken charges =  -1.00000
 Mulliken charges with hydrogens summed into heavy atoms:
               1
     1  O   -0.170054
     2  Cl   0.066586
     3  Br  -0.896531
 Electronic spatial extent (au):  <R**2>=           1480.6168
 Charge=             -1.0000 electrons
 Dipole moment (field-independent basis, Debye):
    X=              2.1390    Y=             11.0455    Z=             -0.0000  Tot=             11.2507
 Quadrupole moment (field-independent basis, Debye-Ang):
   XX=            -45.2074   YY=            -79.1507   ZZ=            -43.1985
   XY=             -8.9780   XZ=             -0.0000   YZ=              0.0000
 Traceless Quadrupole moment (field-independent basis, Debye-Ang):
   XX=             10.6448   YY=            -23.2985   ZZ=             12.6537
   XY=             -8.9780   XZ=             -0.0000   YZ=              0.0000
 Octapole moment (field-independent basis, Debye-Ang**2):
  XXX=            -12.0368  YYY=            318.1495  ZZZ=             -0.0000  XYY=             20.2931
  XXY=             75.7941  XXZ=             -0.0000  XZZ=             -6.0981  YZZ=             69.8883
  YYZ=             -0.0000  XYZ=              0.0000
 Hexadecapole moment (field-independent basis, Debye-Ang**3):
 XXXX=           -338.9604 YYYY=          -1625.5020 ZZZZ=            -62.6191 XXXY=           -154.7637
 XXXZ=             -0.0000 YYYX=           -225.9722 YYYZ=              0.0000 ZZZX=             -0.0000
 ZZZY=              0.0000 XXYY=           -297.7157 XXZZ=            -71.9386 YYZZ=           -229.0844
 XXYZ=              0.0000 YYXZ=              0.0000 ZZXY=            -50.0489
 N-N= 1.906227975448D+02 E-N=-7.822452862855D+03  KE= 3.107542895298D+03
 No NMR shielding tensors so no spin-rotation constants.
 Leave Link  601 at Tue Oct 12 14:23:42 2021, MaxMem=  1048576000 cpu:         2.1
 (Enter /usr/local/gaussian/g09/l607.exe)
 ******************************Gaussian NBO Version 3.1******************************
             N A T U R A L   A T O M I C   O R B I T A L   A N D
          N A T U R A L   B O N D   O R B I T A L   A N A L Y S I S
 ******************************Gaussian NBO Version 3.1******************************
       /RESON  / : Allow strongly delocalized NBO set

 Analyzing the MP2 density

 Job title: title                                                           

 Storage needed:     95974 in NPA,    127345 in NBO (1048575896 available)


 NATURAL POPULATIONS:  Natural atomic orbital occupancies 
                                                          
   NAO  Atom  No  lang   Type(AO)    Occupancy
 --------------------------------------------
     1    O    1  S      Cor( 1S)     1.99960
     2    O    1  S      Val( 2S)     1.75405
     3    O    1  S      Ryd( 3S)     0.00922
     4    O    1  S      Ryd( 4S)     0.00107
     5    O    1  S      Ryd( 5S)     0.00019
     6    O    1  px     Val( 2p)     1.21374
     7    O    1  px     Ryd( 3p)     0.00623
     8    O    1  px     Ryd( 4p)     0.00061
     9    O    1  px     Ryd( 5p)     0.00030
    10    O    1  py     Val( 2p)     1.69504
    11    O    1  py     Ryd( 3p)     0.01177
    12    O    1  py     Ryd( 4p)     0.00077
    13    O    1  py     Ryd( 5p)     0.00038
    14    O    1  pz     Val( 2p)     1.94820
    15    O    1  pz     Ryd( 3p)     0.01939
    16    O    1  pz     Ryd( 4p)     0.00070
    17    O    1  pz     Ryd( 5p)     0.00014
    18    O    1  dxy    Ryd( 3d)     0.00875
    19    O    1  dxy    Ryd( 4d)     0.00044
    20    O    1  dxy    Ryd( 5d)     0.00015
    21    O    1  dxz    Ryd( 3d)     0.00850
    22    O    1  dxz    Ryd( 4d)     0.00054
    23    O    1  dxz    Ryd( 5d)     0.00010
    24    O    1  dyz    Ryd( 3d)     0.00791
    25    O    1  dyz    Ryd( 4d)     0.00057
    26    O    1  dyz    Ryd( 5d)     0.00038
    27    O    1  dx2y2  Ryd( 3d)     0.01333
    28    O    1  dx2y2  Ryd( 4d)     0.00031
    29    O    1  dx2y2  Ryd( 5d)     0.00020
    30    O    1  dz2    Ryd( 3d)     0.00981
    31    O    1  dz2    Ryd( 4d)     0.00050
    32    O    1  dz2    Ryd( 5d)     0.00013
    33    O    1  f(0)   Ryd( 4f)     0.00072
    34    O    1  f(0)   Ryd( 5f)     0.00010
    35    O    1  f(C1)  Ryd( 4f)     0.00067
    36    O    1  f(C1)  Ryd( 5f)     0.00011
    37    O    1  f(S1)  Ryd( 4f)     0.00054
    38    O    1  f(S1)  Ryd( 5f)     0.00011
    39    O    1  f(C2)  Ryd( 4f)     0.00057
    40    O    1  f(C2)  Ryd( 5f)     0.00012
    41    O    1  f(S2)  Ryd( 4f)     0.00053
    42    O    1  f(S2)  Ryd( 5f)     0.00012
    43    O    1  f(C3)  Ryd( 4f)     0.00055
    44    O    1  f(C3)  Ryd( 5f)     0.00014
    45    O    1  f(S3)  Ryd( 4f)     0.00052
    46    O    1  f(S3)  Ryd( 5f)     0.00015

    47   Cl    2  S      Cor( 1S)     2.00000
    48   Cl    2  S      Cor( 2S)     1.99982
    49   Cl    2  S      Val( 3S)     1.88467
    50   Cl    2  S      Ryd( 4S)     0.00774
    51   Cl    2  S      Ryd( 5S)     0.00052
    52   Cl    2  S      Ryd( 6S)     0.00015
    53   Cl    2  px     Cor( 2p)     1.99997
    54   Cl    2  px     Val( 3p)     0.89878
    55   Cl    2  px     Ryd( 4p)     0.00646
    56   Cl    2  px     Ryd( 5p)     0.00052
    57   Cl    2  px     Ryd( 6p)     0.00018
    58   Cl    2  py     Cor( 2p)     2.00003
    59   Cl    2  py     Val( 3p)     1.95344
    60   Cl    2  py     Ryd( 4p)     0.00962
    61   Cl    2  py     Ryd( 5p)     0.00051
    62   Cl    2  py     Ryd( 6p)     0.00009
    63   Cl    2  pz     Cor( 2p)     2.00003
    64   Cl    2  pz     Val( 3p)     1.95475
    65   Cl    2  pz     Ryd( 4p)     0.01035
    66   Cl    2  pz     Ryd( 5p)     0.00068
    67   Cl    2  pz     Ryd( 6p)     0.00003
    68   Cl    2  dxy    Ryd( 3d)     0.01630
    69   Cl    2  dxy    Ryd( 4d)     0.00074
    70   Cl    2  dxy    Ryd( 5d)     0.00031
    71   Cl    2  dxz    Ryd( 3d)     0.02136
    72   Cl    2  dxz    Ryd( 4d)     0.00103
    73   Cl    2  dxz    Ryd( 5d)     0.00036
    74   Cl    2  dyz    Ryd( 3d)     0.01674
    75   Cl    2  dyz    Ryd( 4d)     0.00073
    76   Cl    2  dyz    Ryd( 5d)     0.00018
    77   Cl    2  dx2y2  Ryd( 3d)     0.01863
    78   Cl    2  dx2y2  Ryd( 4d)     0.00047
    79   Cl    2  dx2y2  Ryd( 5d)     0.00016
    80   Cl    2  dz2    Ryd( 3d)     0.01748
    81   Cl    2  dz2    Ryd( 4d)     0.00060
    82   Cl    2  dz2    Ryd( 5d)     0.00015
    83   Cl    2  f(0)   Ryd( 4f)     0.00131
    84   Cl    2  f(0)   Ryd( 5f)     0.00013
    85   Cl    2  f(C1)  Ryd( 4f)     0.00142
    86   Cl    2  f(C1)  Ryd( 5f)     0.00014
    87   Cl    2  f(S1)  Ryd( 4f)     0.00127
    88   Cl    2  f(S1)  Ryd( 5f)     0.00013
    89   Cl    2  f(C2)  Ryd( 4f)     0.00135
    90   Cl    2  f(C2)  Ryd( 5f)     0.00013
    91   Cl    2  f(S2)  Ryd( 4f)     0.00119
    92   Cl    2  f(S2)  Ryd( 5f)     0.00013
    93   Cl    2  f(C3)  Ryd( 4f)     0.00152
    94   Cl    2  f(C3)  Ryd( 5f)     0.00013
    95   Cl    2  f(S3)  Ryd( 4f)     0.00125
    96   Cl    2  f(S3)  Ryd( 5f)     0.00013

    97   Br    3  S      Cor( 1S)     2.00000
    98   Br    3  S      Cor( 2S)     2.00000
    99   Br    3  S      Cor( 3S)     1.99995
   100   Br    3  S      Val( 4S)     1.97395
   101   Br    3  S      Ryd( 5S)     0.00204
   102   Br    3  S      Ryd( 6S)     0.00045
   103   Br    3  S      Ryd( 7S)     0.00014
   104   Br    3  px     Cor( 3p)     2.00000
   105   Br    3  px     Cor( 2p)     2.00001
   106   Br    3  px     Val( 4p)     1.95038
   107   Br    3  px     Ryd( 5p)     0.01126
   108   Br    3  px     Ryd( 6p)     0.00081
   109   Br    3  px     Ryd( 7p)     0.00009
   110   Br    3  py     Cor( 2p)     2.00000
   111   Br    3  py     Cor( 3p)     1.99997
   112   Br    3  py     Val( 4p)     1.89779
   113   Br    3  py     Ryd( 5p)     0.00994
   114   Br    3  py     Ryd( 6p)     0.00076
   115   Br    3  py     Ryd( 7p)     0.00010
   116   Br    3  pz     Cor( 3p)     2.00000
   117   Br    3  pz     Cor( 2p)     2.00002
   118   Br    3  pz     Val( 4p)     1.95382
   119   Br    3  pz     Ryd( 5p)     0.01141
   120   Br    3  pz     Ryd( 6p)     0.00082
   121   Br    3  pz     Ryd( 7p)     0.00009
   122   Br    3  dxy    Cor( 3d)     1.99766
   123   Br    3  dxy    Ryd( 4d)     0.01886
   124   Br    3  dxy    Ryd( 5d)     0.00148
   125   Br    3  dxy    Ryd( 6d)     0.00021
   126   Br    3  dxz    Cor( 3d)     1.99769
   127   Br    3  dxz    Ryd( 4d)     0.01869
   128   Br    3  dxz    Ryd( 5d)     0.00176
   129   Br    3  dxz    Ryd( 6d)     0.00025
   130   Br    3  dyz    Cor( 3d)     1.99767
   131   Br    3  dyz    Ryd( 4d)     0.01899
   132   Br    3  dyz    Ryd( 5d)     0.00149
   133   Br    3  dyz    Ryd( 6d)     0.00020
   134   Br    3  dx2y2  Cor( 3d)     1.99764
   135   Br    3  dx2y2  Ryd( 4d)     0.01856
   136   Br    3  dx2y2  Ryd( 5d)     0.00161
   137   Br    3  dx2y2  Ryd( 6d)     0.00024
   138   Br    3  dz2    Cor( 3d)     1.99767
   139   Br    3  dz2    Ryd( 4d)     0.01860
   140   Br    3  dz2    Ryd( 5d)     0.00173
   141   Br    3  dz2    Ryd( 6d)     0.00022
   142   Br    3  f(0)   Ryd( 4f)     0.00174
   143   Br    3  f(0)   Ryd( 5f)     0.00026
   144   Br    3  f(C1)  Ryd( 4f)     0.00175
   145   Br    3  f(C1)  Ryd( 5f)     0.00025
   146   Br    3  f(S1)  Ryd( 4f)     0.00174
   147   Br    3  f(S1)  Ryd( 5f)     0.00026
   148   Br    3  f(C2)  Ryd( 4f)     0.00173
   149   Br    3  f(C2)  Ryd( 5f)     0.00026
   150   Br    3  f(S2)  Ryd( 4f)     0.00176
   151   Br    3  f(S2)  Ryd( 5f)     0.00026
   152   Br    3  f(C3)  Ryd( 4f)     0.00171
   153   Br    3  f(C3)  Ryd( 5f)     0.00026
   154   Br    3  f(S3)  Ryd( 4f)     0.00171
   155   Br    3  f(S3)  Ryd( 5f)     0.00027

   156    H    4  S      Val( 1S)     0.50043
   157    H    4  S      Ryd( 2S)     0.00947
   158    H    4  S      Ryd( 3S)     0.00025
   159    H    4  S      Ryd( 4S)     0.00010
   160    H    4  px     Ryd( 2p)     0.00392
   161    H    4  px     Ryd( 3p)     0.00049
   162    H    4  px     Ryd( 4p)     0.00012
   163    H    4  py     Ryd( 2p)     0.00538
   164    H    4  py     Ryd( 3p)     0.00074
   165    H    4  py     Ryd( 4p)     0.00042
   166    H    4  pz     Ryd( 2p)     0.00540
   167    H    4  pz     Ryd( 3p)     0.00042
   168    H    4  pz     Ryd( 4p)     0.00022
   169    H    4  dxy    Ryd( 3d)     0.00027
   170    H    4  dxy    Ryd( 4d)     0.00012
   171    H    4  dxz    Ryd( 3d)     0.00022
   172    H    4  dxz    Ryd( 4d)     0.00008
   173    H    4  dyz    Ryd( 3d)     0.00044
   174    H    4  dyz    Ryd( 4d)     0.00011
   175    H    4  dx2y2  Ryd( 3d)     0.00020
   176    H    4  dx2y2  Ryd( 4d)     0.00013
   177    H    4  dz2    Ryd( 3d)     0.00022
   178    H    4  dz2    Ryd( 4d)     0.00011

 WARNING:  5 low occupancy (<1.9990e) core orbitals found on Br    3


 Summary of Natural Population Analysis:                  
                                                          
                                       Natural Population 
                Natural  -----------------------------------------------
    Atom  No    Charge         Core      Valence    Rydberg      Total
 -----------------------------------------------------------------------
      O    1   -0.71795      1.99960     6.61103    0.10733     8.71795
     Cl    2    0.16620      9.99984     6.69163    0.14232    16.83380
     Br    3   -0.91898     27.98826     7.77593    0.15479    35.91898
      H    4    0.47073      0.00000     0.50043    0.02883     0.52927
 =======================================================================
   * Total *   -1.00000     39.98770    21.57902    0.43327    62.00000

                                 Natural Population      
 --------------------------------------------------------
   Core                      39.98770 ( 99.9693% of  40)
   Valence                   21.57902 ( 98.0865% of  22)
   Natural Minimal Basis     61.56673 ( 99.3012% of  62)
   Natural Rydberg Basis      0.43327 (  0.6988% of  62)
 --------------------------------------------------------

    Atom  No          Natural Electron Configuration
 ----------------------------------------------------------------------------
      O    1      [core]2S( 1.75)2p( 4.86)3S( 0.01)3p( 0.04)3d( 0.05)
     Cl    2      [core]3S( 1.88)3p( 4.81)4S( 0.01)3d( 0.09)4p( 0.03)4f( 0.01)
     Br    3      [core]4S( 1.97)4p( 5.80)4d( 0.09)5p( 0.03)4f( 0.01)5d( 0.01)
      H    4            1S( 0.50)2S( 0.01)2p( 0.01)


 NATURAL BOND ORBITAL ANALYSIS:

                       Occupancies       Lewis Structure    Low   High
           Occ.    -------------------  -----------------   occ   occ
  Cycle   Thresh.   Lewis   Non-Lewis     CR  BD  3C  LP    (L)   (NL)   Dev
 =============================================================================
   1(1)    1.90    61.48116   0.51884     20   2   0   9     1      0    0.09
   2(2)    1.90    61.48116   0.51884     20   2   0   9     1      0    0.09
   3(1)    1.80    61.48116   0.51884     20   2   0   9     0      0    0.09
 -----------------------------------------------------------------------------

 Structure accepted: No low occupancy Lewis orbitals

 WARNING:  5 low occupancy (<1.9990e) core orbitals found on Br    3

 --------------------------------------------------------
   Core                     39.98770 ( 99.969% of  40)
   Valence Lewis            21.49346 ( 97.698% of  22)
  ==================       ============================
   Total Lewis              61.48116 ( 99.163% of  62)
  -----------------------------------------------------
   Valence non-Lewis         0.13248 (  0.214% of  62)
   Rydberg non-Lewis         0.38636 (  0.623% of  62)
  ==================       ============================
   Total non-Lewis           0.51884 (  0.837% of  62)
 --------------------------------------------------------


       (Occupancy)   Bond orbital/ Coefficients/ Hybrids
 ---------------------------------------------------------------------------------
     1. (1.94074) BD ( 1) O   1 -Cl   2  
                ( 59.26%)   0.7698* O   1 s( 10.70%)p 8.29( 88.77%)d 0.05(  0.51%)
                                                  f 0.00(  0.02%)
                                            0.0003  0.3243 -0.0405 -0.0136 -0.0004
                                            0.9411 -0.0259 -0.0106 -0.0096 -0.0141
                                           -0.0298 -0.0049 -0.0001  0.0000  0.0000
                                            0.0000  0.0000 -0.0245  0.0015  0.0027
                                            0.0000  0.0000  0.0000  0.0000  0.0000
                                            0.0000  0.0515 -0.0050  0.0024 -0.0420
                                            0.0036  0.0007  0.0000  0.0000 -0.0115
                                            0.0011 -0.0003  0.0002  0.0000  0.0000
                                            0.0000  0.0000  0.0050  0.0005 -0.0004
                                            0.0025
                ( 40.74%)   0.6383*Cl   2 s(  8.29%)p10.90( 90.41%)d 0.14(  1.19%)
                                                  f 0.01(  0.11%)
                                           -0.0000  0.0005  0.2825 -0.0551 -0.0100
                                            0.0024 -0.0004 -0.9484  0.0659  0.0140
                                           -0.0042 -0.0000 -0.0096 -0.0013  0.0025
                                           -0.0007  0.0000  0.0000  0.0000  0.0000
                                            0.0000  0.0128  0.0000  0.0010  0.0000
                                            0.0000  0.0000  0.0000  0.0000  0.0000
                                            0.0911 -0.0101  0.0001 -0.0576  0.0056
                                            0.0007  0.0000  0.0000  0.0207 -0.0032
                                            0.0004 -0.0002  0.0000  0.0000  0.0000
                                            0.0000 -0.0250  0.0028 -0.0010  0.0001
     2. (1.96991) BD ( 1) O   1 - H   4  
                ( 77.56%)   0.8807* O   1 s( 33.48%)p 1.97( 66.03%)d 0.01(  0.49%)
                                                  f 0.00(  0.01%)
                                           -0.0003 -0.5785  0.0110  0.0069 -0.0015
                                            0.2089 -0.0192 -0.0024 -0.0022  0.7848
                                           -0.0167 -0.0070 -0.0037  0.0000  0.0000
                                            0.0000  0.0000 -0.0029 -0.0032 -0.0001
                                            0.0000  0.0000  0.0000  0.0000  0.0000
                                            0.0000  0.0586 -0.0039  0.0030  0.0372
                                           -0.0003 -0.0024  0.0000  0.0000 -0.0015
                                           -0.0008 -0.0080 -0.0010  0.0000  0.0000
                                            0.0000  0.0000 -0.0017 -0.0029  0.0006
                                           -0.0031
                ( 22.44%)   0.4737* H   4 s( 99.87%)p 0.00(  0.13%)d 0.00(  0.00%)
                                           -0.9987 -0.0350 -0.0014  0.0002 -0.0113
                                           -0.0070 -0.0014  0.0147 -0.0286  0.0098
                                            0.0000  0.0000  0.0000  0.0007  0.0020
                                            0.0000  0.0000  0.0000  0.0000  0.0002
                                            0.0011 -0.0014  0.0034
     3. (1.99960) CR ( 1) O   1           s(100.00%)p 0.00(  0.00%)
                                            1.0000 -0.0004  0.0000  0.0000 -0.0000
                                           -0.0002  0.0000  0.0000  0.0000  0.0001
                                            0.0000 -0.0000 -0.0000  0.0000  0.0000
                                            0.0000  0.0000  0.0000 -0.0000 -0.0000
                                            0.0000  0.0000  0.0000  0.0000  0.0000
                                            0.0000 -0.0000  0.0000  0.0000  0.0000
                                           -0.0000 -0.0000  0.0000  0.0000  0.0000
                                           -0.0000 -0.0000 -0.0000  0.0000  0.0000
                                            0.0000  0.0000 -0.0000 -0.0000 -0.0000
                                           -0.0000
     4. (2.00000) CR ( 1)Cl   2           s(100.00%)
                                            1.0000  0.0000  0.0000 -0.0000 -0.0000
                                            0.0000 -0.0000 -0.0000  0.0000  0.0000
                                           -0.0000 -0.0000 -0.0000 -0.0000  0.0000
                                           -0.0000  0.0000  0.0000  0.0000  0.0000
                                            0.0000  0.0000 -0.0000  0.0000  0.0000
                                            0.0000  0.0000  0.0000  0.0000  0.0000
                                            0.0000 -0.0000  0.0000 -0.0000  0.0000
                                            0.0000  0.0000  0.0000  0.0000 -0.0000
                                            0.0000 -0.0000  0.0000  0.0000  0.0000
                                            0.0000 -0.0000  0.0000 -0.0000  0.0000
     5. (1.99982) CR ( 2)Cl   2           s(100.00%)p 0.00(  0.00%)
                                            0.0000  1.0000 -0.0004  0.0000  0.0000
                                           -0.0000  0.0000  0.0004 -0.0000 -0.0000
                                            0.0000  0.0000  0.0000  0.0000 -0.0000
                                            0.0000  0.0000  0.0000  0.0000  0.0000
                                            0.0000 -0.0000  0.0000 -0.0000  0.0000
                                            0.0000  0.0000  0.0000  0.0000  0.0000
                                           -0.0000  0.0000 -0.0000  0.0000 -0.0000
                                           -0.0000  0.0000  0.0000 -0.0000  0.0000
                                           -0.0000  0.0000  0.0000  0.0000  0.0000
                                            0.0000  0.0000 -0.0000  0.0000 -0.0000
     6. (1.99997) CR ( 3)Cl   2           s(  0.00%)p 1.00(100.00%)
                                           -0.0000  0.0000  0.0001 -0.0000 -0.0000
                                            0.0000  1.0000 -0.0003  0.0000  0.0000
                                           -0.0000  0.0000 -0.0000 -0.0000  0.0000
                                           -0.0000  0.0000  0.0000  0.0000  0.0000
                                            0.0000  0.0000 -0.0000  0.0000  0.0000
                                            0.0000  0.0000  0.0000  0.0000  0.0000
                                            0.0000 -0.0000  0.0000 -0.0000  0.0000
                                            0.0000  0.0000  0.0000  0.0000 -0.0000
                                            0.0000 -0.0000  0.0000  0.0000  0.0000
                                            0.0000 -0.0000  0.0000 -0.0000  0.0000
     7. (2.00003) CR ( 4)Cl   2           s(  0.00%)p 1.00(100.00%)
                                           -0.0000  0.0000  0.0000  0.0000  0.0000
                                            0.0000  0.0000 -0.0000  0.0000  0.0000
                                           -0.0000  1.0000  0.0002  0.0000  0.0000
                                            0.0000  0.0000  0.0000  0.0000  0.0000
                                            0.0000 -0.0000  0.0000  0.0000  0.0000
                                            0.0000  0.0000  0.0000  0.0000  0.0000
                                           -0.0000 -0.0000 -0.0000 -0.0000 -0.0000
                                           -0.0000  0.0000  0.0000  0.0000 -0.0000
                                           -0.0000  0.0000  0.0000  0.0000  0.0000
                                            0.0000 -0.0000  0.0000  0.0000 -0.0000
     8. (2.00003) CR ( 5)Cl   2           s(  0.00%)p 1.00(100.00%)
                                            0.0000  0.0000  0.0000  0.0000  0.0000
                                            0.0000  0.0000  0.0000  0.0000  0.0000
                                            0.0000  0.0000  0.0000  0.0000  0.0000
                                            0.0000  1.0000  0.0002  0.0000  0.0000
                                           -0.0000  0.0000  0.0000  0.0000  0.0000
                                            0.0000  0.0000  0.0000  0.0000  0.0000
                                            0.0000  0.0000  0.0000  0.0000  0.0000
                                            0.0000 -0.0000  0.0000  0.0000  0.0000
                                            0.0000  0.0000  0.0000 -0.0000  0.0000
                                           -0.0000  0.0000  0.0000  0.0000  0.0000
     9. (2.00000) CR ( 1)Br   3           s(100.00%)
                                            1.0000  0.0000  0.0000 -0.0000 -0.0000
                                            0.0000  0.0000  0.0000  0.0000 -0.0000
                                            0.0000  0.0000 -0.0000  0.0000  0.0000
                                           -0.0000  0.0000  0.0000 -0.0000  0.0000
                                            0.0000  0.0000  0.0000  0.0000  0.0000
                                            0.0000 -0.0000  0.0000 -0.0000  0.0000
                                            0.0000  0.0000  0.0000  0.0000  0.0000
                                            0.0000  0.0000 -0.0000  0.0000 -0.0000
                                           -0.0000 -0.0000  0.0000 -0.0000  0.0000
                                            0.0000  0.0000  0.0000  0.0000  0.0000
                                            0.0000  0.0000  0.0000  0.0000  0.0000
                                            0.0000  0.0000  0.0000  0.0000
    10. (2.00000) CR ( 2)Br   3           s(100.00%)
                                            0.0000  1.0000 -0.0000  0.0000  0.0000
                                           -0.0000 -0.0000 -0.0000 -0.0000  0.0000
                                           -0.0000 -0.0000  0.0000 -0.0000 -0.0000
                                            0.0000 -0.0000 -0.0000  0.0000  0.0000
                                            0.0000  0.0000  0.0000  0.0000  0.0000
                                           -0.0000  0.0000 -0.0000  0.0000  0.0000
                                            0.0000  0.0000  0.0000  0.0000  0.0000
                                            0.0000  0.0000  0.0000 -0.0000  0.0000
                                            0.0000  0.0000 -0.0000  0.0000 -0.0000
                                            0.0000  0.0000 -0.0000 -0.0000 -0.0000
                                           -0.0000  0.0000  0.0000  0.0000  0.0000
                                           -0.0000 -0.0000 -0.0000 -0.0000
    11. (1.99995) CR ( 3)Br   3           s(100.00%)p 0.00(  0.00%)
                                            0.0000 -0.0000  1.0000  0.0000  0.0000
                                           -0.0000 -0.0000 -0.0000 -0.0000  0.0001
                                           -0.0000 -0.0000  0.0000 -0.0000 -0.0000
                                            0.0004 -0.0000 -0.0000  0.0000  0.0000
                                            0.0000  0.0000  0.0000  0.0000  0.0000
                                           -0.0000  0.0000 -0.0000  0.0000  0.0000
                                            0.0000  0.0000  0.0000  0.0000  0.0000
                                            0.0000  0.0000  0.0000 -0.0000  0.0000
                                            0.0000  0.0000 -0.0000  0.0000 -0.0000
                                            0.0000  0.0000 -0.0000 -0.0000 -0.0000
                                           -0.0000  0.0000  0.0000  0.0000  0.0000
                                           -0.0000 -0.0000 -0.0000 -0.0000
    12. (2.00000) CR ( 4)Br   3           s(  0.00%)p 1.00(100.00%)
                                            0.0000 -0.0000 -0.0000  0.0000  0.0000
                                           -0.0000 -0.0000  1.0000 -0.0000 -0.0000
                                           -0.0000 -0.0000  0.0000 -0.0000 -0.0000
                                            0.0000 -0.0000 -0.0000  0.0000  0.0000
                                            0.0000  0.0000  0.0000  0.0000  0.0000
                                           -0.0000 -0.0000  0.0000  0.0000  0.0000
                                            0.0000  0.0000  0.0000  0.0000  0.0000
                                            0.0000  0.0000  0.0000 -0.0000  0.0000
                                            0.0000  0.0000 -0.0000  0.0000 -0.0000
                                            0.0000  0.0000  0.0000  0.0000 -0.0000
                                           -0.0000  0.0000  0.0000  0.0000  0.0000
                                            0.0000  0.0000 -0.0000 -0.0000
    13. (2.00001) CR ( 5)Br   3           s(  0.00%)p 1.00(100.00%)
                                            0.0000 -0.0000 -0.0000  0.0000  0.0000
                                           -0.0000 -0.0000 -0.0000  1.0000 -0.0001
                                           -0.0000 -0.0000  0.0000 -0.0000 -0.0000
                                            0.0001 -0.0000 -0.0000  0.0000  0.0000
                                            0.0000  0.0000  0.0000  0.0000  0.0000
                                           -0.0000 -0.0000  0.0000  0.0000  0.0000
                                            0.0000  0.0000  0.0000  0.0000  0.0000
                                            0.0000  0.0000  0.0000 -0.0000  0.0000
                                            0.0000  0.0000 -0.0000  0.0000 -0.0000
                                            0.0000  0.0000  0.0000  0.0000 -0.0000
                                           -0.0000  0.0000  0.0000  0.0000  0.0000
                                            0.0000  0.0000 -0.0000 -0.0000
    14. (2.00000) CR ( 6)Br   3           s(  0.00%)p 1.00(100.00%)
                                            0.0000 -0.0000 -0.0000  0.0000  0.0000
                                           -0.0000 -0.0000 -0.0000 -0.0000  0.0000
                                           -0.0000 -0.0000  0.0000  1.0000 -0.0000
                                            0.0000 -0.0000 -0.0000  0.0000  0.0000
                                            0.0000  0.0000  0.0000  0.0000  0.0000
                                           -0.0000  0.0000 -0.0000  0.0000  0.0000
                                            0.0000  0.0000  0.0000  0.0000  0.0000
                                            0.0000  0.0000  0.0000 -0.0000  0.0000
                                            0.0000  0.0000 -0.0000  0.0000 -0.0000
                                            0.0000  0.0000 -0.0000 -0.0000 -0.0000
                                           -0.0000  0.0000  0.0000  0.0000  0.0000
                                           -0.0000 -0.0000 -0.0000 -0.0000
    15. (1.99997) CR ( 7)Br   3           s(  0.00%)p 1.00(100.00%)
                                            0.0000 -0.0000 -0.0000  0.0002  0.0000
                                           -0.0000 -0.0000 -0.0000 -0.0000  0.0001
                                           -0.0000 -0.0000  0.0000 -0.0000  1.0000
                                            0.0003 -0.0000 -0.0000  0.0000  0.0000
                                            0.0000  0.0000  0.0000  0.0000  0.0000
                                           -0.0000  0.0000 -0.0000  0.0000  0.0000
                                            0.0000  0.0000  0.0000  0.0000  0.0000
                                            0.0000  0.0000  0.0000 -0.0000  0.0000
                                            0.0000  0.0000 -0.0000  0.0000 -0.0000
                                            0.0000  0.0000 -0.0000 -0.0000 -0.0000
                                           -0.0000  0.0000  0.0000  0.0000  0.0000
                                           -0.0000 -0.0000 -0.0000 -0.0000
    16. (2.00000) CR ( 8)Br   3           s(  0.00%)p 1.00(100.00%)
                                            0.0000  0.0000  0.0000  0.0000  0.0000
                                            0.0000  0.0000  0.0000  0.0000  0.0000
                                            0.0000  0.0000  0.0000  0.0000  0.0000
                                            0.0000  0.0000  0.0000  0.0000  1.0000
                                           -0.0000 -0.0000 -0.0000 -0.0000  0.0000
                                            0.0000  0.0000  0.0000  0.0000  0.0000
                                           -0.0000  0.0000  0.0000  0.0000 -0.0000
                                            0.0000  0.0000  0.0000  0.0000  0.0000
                                            0.0000  0.0000  0.0000  0.0000  0.0000
                                            0.0000  0.0000  0.0000  0.0000  0.0000
                                            0.0000  0.0000  0.0000 -0.0000 -0.0000
                                            0.0000  0.0000  0.0000  0.0000
    17. (2.00002) CR ( 9)Br   3           s(  0.00%)p 1.00(100.00%)
                                            0.0000  0.0000  0.0000  0.0000  0.0000
                                            0.0000  0.0000  0.0000  0.0000  0.0000
                                            0.0000  0.0000  0.0000  0.0000  0.0000
                                            0.0000  0.0000  0.0000  0.0000 -0.0000
                                            1.0000 -0.0001 -0.0000 -0.0000  0.0000
                                            0.0000  0.0000  0.0000  0.0000  0.0000
                                           -0.0000  0.0000  0.0000  0.0000 -0.0000
                                            0.0000  0.0000  0.0000  0.0000  0.0000
                                            0.0000  0.0000  0.0000  0.0000  0.0000
                                            0.0000  0.0000  0.0000  0.0000  0.0000
                                            0.0000  0.0000  0.0000 -0.0000 -0.0000
                                            0.0000  0.0000  0.0000  0.0000
    18. (1.99766) CR (10)Br   3           s(  0.00%)p 0.00(  0.00%)d 1.00(100.00%)
                                            0.0000 -0.0000 -0.0000  0.0000  0.0000
                                           -0.0000 -0.0000 -0.0000 -0.0000  0.0000
                                           -0.0000 -0.0000  0.0000 -0.0000 -0.0000
                                            0.0001 -0.0000 -0.0000  0.0000  0.0000
                                            0.0000  0.0000  0.0000  0.0000  0.0000
                                            1.0000  0.0000 -0.0000  0.0000  0.0000
                                            0.0000  0.0000  0.0000  0.0000  0.0000
                                            0.0000  0.0000  0.0000 -0.0000  0.0000
                                            0.0000  0.0000 -0.0000  0.0000 -0.0000
                                            0.0000  0.0000 -0.0000 -0.0000 -0.0000
                                           -0.0000  0.0000  0.0000  0.0000  0.0000
                                           -0.0000 -0.0000 -0.0000 -0.0000
    19. (1.99769) CR (11)Br   3           s(  0.00%)p 0.00(  0.00%)d 1.00(100.00%)
                                            0.0000  0.0000  0.0000  0.0000  0.0000
                                            0.0000  0.0000  0.0000  0.0000  0.0000
                                            0.0000  0.0000  0.0000  0.0000  0.0000
                                            0.0000  0.0000  0.0000  0.0000  0.0000
                                            0.0000  0.0000  0.0000  0.0000 -0.0000
                                            0.0000  0.0000  0.0000  0.0000  1.0000
                                            0.0000 -0.0000 -0.0000 -0.0000  0.0000
                                           -0.0000 -0.0000  0.0000  0.0000  0.0000
                                            0.0000  0.0000  0.0000  0.0000  0.0000
                                           -0.0000 -0.0000  0.0000  0.0000  0.0000
                                            0.0000 -0.0000 -0.0000  0.0000  0.0000
                                            0.0000  0.0000  0.0000  0.0000
    20. (1.99767) CR (12)Br   3           s(  0.00%)p 0.00(  0.00%)d 1.00(100.00%)
                                            0.0000  0.0000  0.0000  0.0000  0.0000
                                            0.0000  0.0000  0.0000  0.0000  0.0000
                                            0.0000  0.0000  0.0000  0.0000  0.0000
                                            0.0000  0.0000  0.0000  0.0000  0.0000
                                            0.0000  0.0000  0.0000  0.0000 -0.0000
                                            0.0000  0.0000  0.0000  0.0000 -0.0000
                                            0.0000 -0.0000 -0.0000  1.0000  0.0000
                                           -0.0000 -0.0000  0.0000  0.0000  0.0000
                                            0.0000  0.0000  0.0000  0.0000  0.0000
                                           -0.0000 -0.0000  0.0000  0.0000  0.0000
                                            0.0000 -0.0000 -0.0000  0.0000  0.0000
                                            0.0000  0.0000  0.0000  0.0000
    21. (1.99764) CR (13)Br   3           s(  0.00%)p 0.00(  0.00%)d 1.00(100.00%)
                                           -0.0000  0.0000  0.0000 -0.0001 -0.0000
                                            0.0000  0.0000  0.0000  0.0000 -0.0001
                                            0.0000  0.0000 -0.0000  0.0000  0.0000
                                           -0.0002  0.0000  0.0000 -0.0000  0.0000
                                            0.0000  0.0000  0.0000  0.0000  0.0000
                                            0.0000 -0.0000  0.0000 -0.0000  0.0000
                                            0.0000  0.0000  0.0000  0.0000  0.0000
                                            0.0000  0.0000  1.0000  0.0000 -0.0000
                                           -0.0000 -0.0000  0.0000 -0.0000  0.0000
                                            0.0000  0.0000  0.0000  0.0000  0.0000
                                            0.0000  0.0000  0.0000  0.0000  0.0000
                                            0.0000  0.0000  0.0000  0.0000
    22. (1.99767) CR (14)Br   3           s(  0.00%)p 0.00(  0.00%)d 1.00(100.00%)
                                           -0.0000  0.0000  0.0000 -0.0001 -0.0000
                                            0.0000  0.0000  0.0000  0.0000 -0.0000
                                            0.0000  0.0000 -0.0000  0.0000  0.0000
                                           -0.0002  0.0000  0.0000 -0.0000  0.0000
                                            0.0000  0.0000  0.0000  0.0000  0.0000
                                            0.0000 -0.0000  0.0000 -0.0000  0.0000
                                            0.0000  0.0000  0.0000  0.0000  0.0000
                                            0.0000  0.0000 -0.0000  0.0000 -0.0000
                                           -0.0000  1.0000  0.0000 -0.0000  0.0000
                                            0.0000  0.0000  0.0000  0.0000  0.0000
                                            0.0000  0.0000  0.0000  0.0000  0.0000
                                            0.0000  0.0000  0.0000  0.0000
    23. (1.96654) LP ( 1) O   1           s( 55.95%)p 0.79( 43.94%)d 0.00(  0.11%)
                                                  f 0.00(  0.00%)
                                            0.0002  0.7478  0.0156  0.0079 -0.0012
                                           -0.2474 -0.0050 -0.0037 -0.0022  0.6148
                                            0.0091  0.0058  0.0017  0.0000  0.0000
                                            0.0000  0.0000  0.0235 -0.0025 -0.0036
                                            0.0000  0.0000  0.0000  0.0000  0.0000
                                            0.0000  0.0186  0.0006 -0.0049  0.0138
                                           -0.0001  0.0000  0.0000  0.0000  0.0001
                                            0.0006 -0.0031  0.0001  0.0000  0.0000
                                            0.0000  0.0000  0.0036 -0.0023  0.0036
                                           -0.0022
    24. (1.95338) LP ( 2) O   1           s(  0.00%)p 1.00( 99.79%)d 0.00(  0.19%)
                                                  f 0.00(  0.01%)
                                            0.0000  0.0000  0.0000  0.0000  0.0000
                                            0.0000  0.0000  0.0000  0.0000  0.0000
                                            0.0000  0.0000  0.0000  0.9987  0.0227
                                            0.0060  0.0058  0.0000  0.0000  0.0000
                                            0.0290 -0.0055 -0.0003 -0.0300 -0.0043
                                            0.0121  0.0000  0.0000  0.0000  0.0000
                                            0.0000  0.0000 -0.0105  0.0004  0.0000
                                            0.0000  0.0000  0.0000  0.0041 -0.0026
                                            0.0011  0.0014  0.0000  0.0000  0.0000
                                            0.0000
    25. (1.97440) LP ( 1)Cl   2           s( 91.89%)p 0.09(  8.08%)d 0.00(  0.02%)
                                                  f 0.00(  0.00%)
                                            0.0000  0.0003  0.9586  0.0063  0.0011
                                           -0.0003  0.0000  0.2832 -0.0061 -0.0030
                                            0.0011  0.0000 -0.0245  0.0015  0.0002
                                           -0.0004  0.0000  0.0000  0.0000  0.0000
                                            0.0000  0.0001 -0.0004 -0.0005  0.0000
                                            0.0000  0.0000  0.0000  0.0000  0.0000
                                           -0.0119  0.0005 -0.0000  0.0076  0.0005
                                            0.0005  0.0000  0.0000 -0.0020 -0.0005
                                            0.0001 -0.0000  0.0000  0.0000  0.0000
                                            0.0000  0.0033  0.0000 -0.0006  0.0003
    26. (1.95628) LP ( 2)Cl   2           s(  0.00%)p 1.00( 99.95%)d 0.00(  0.04%)
                                                  f 0.00(  0.01%)
                                            0.0000  0.0000  0.0000  0.0000  0.0000
                                            0.0000  0.0000  0.0000  0.0000  0.0000
                                            0.0000  0.0000  0.0000  0.0000  0.0000
                                            0.0000 -0.0002  0.9996  0.0154  0.0051
                                           -0.0022  0.0000  0.0000  0.0000  0.0072
                                            0.0167  0.0088  0.0037  0.0032  0.0010
                                            0.0000  0.0000  0.0000  0.0000  0.0000
                                            0.0000 -0.0055  0.0009  0.0000  0.0000
                                            0.0000  0.0000  0.0067 -0.0010  0.0010
                                           -0.0008  0.0000  0.0000  0.0000  0.0000
    27. (1.95489) LP ( 3)Cl   2           s(  0.08%)p99.99( 99.88%)d 0.49(  0.04%)
                                                  f 0.12(  0.01%)
                                            0.0000 -0.0000  0.0264  0.0062  0.0038
                                            0.0018  0.0000 -0.0034 -0.0004 -0.0003
                                           -0.0008 -0.0002  0.9993  0.0129  0.0015
                                            0.0002  0.0000  0.0000  0.0000  0.0000
                                            0.0000 -0.0022  0.0137  0.0081  0.0000
                                            0.0000  0.0000  0.0000  0.0000  0.0000
                                           -0.0082 -0.0050 -0.0032 -0.0009 -0.0028
                                           -0.0006  0.0000  0.0000  0.0001  0.0002
                                           -0.0024  0.0001  0.0000  0.0000  0.0000
                                            0.0000 -0.0014  0.0003  0.0088 -0.0013
    28. (1.97895) LP ( 1)Br   3           s( 94.41%)p 0.06(  5.59%)d 0.00(  0.00%)
                                                  f 0.00(  0.00%)
                                           -0.0000  0.0000  0.0001  0.9716 -0.0002
                                            0.0003  0.0003 -0.0000 -0.0000 -0.0608
                                            0.0002 -0.0002 -0.0001 -0.0000 -0.0001
                                           -0.2285  0.0010 -0.0007  0.0001  0.0000
                                            0.0000  0.0000  0.0000  0.0000  0.0000
                                           -0.0000  0.0002 -0.0001 -0.0002  0.0000
                                            0.0000  0.0000  0.0000  0.0000  0.0000
                                            0.0000  0.0000  0.0000 -0.0004  0.0003
                                            0.0002  0.0000 -0.0002  0.0002  0.0002
                                            0.0000  0.0000 -0.0001 -0.0000 -0.0003
                                           -0.0002  0.0000  0.0000  0.0000  0.0000
                                           -0.0002 -0.0001 -0.0003 -0.0002
    29. (1.95403) LP ( 2)Br   3           s(  0.00%)p 1.00( 99.99%)d 0.00(  0.01%)
                                                  f 0.00(  0.00%)
                                            0.0000  0.0000  0.0000  0.0000  0.0000
                                            0.0000  0.0000  0.0000  0.0000  0.0000
                                            0.0000  0.0000  0.0000  0.0000  0.0000
                                            0.0000  0.0000  0.0000  0.0000  0.0000
                                            0.0001  0.9999  0.0022  0.0015 -0.0003
                                            0.0000  0.0000  0.0000  0.0000 -0.0000
                                            0.0021 -0.0005 -0.0001 -0.0000  0.0088
                                           -0.0023 -0.0005  0.0000  0.0000  0.0000
                                            0.0000  0.0000  0.0000  0.0000  0.0000
                                           -0.0020 -0.0012  0.0000  0.0000  0.0000
                                            0.0000 -0.0022 -0.0012  0.0012  0.0008
                                            0.0000  0.0000  0.0000  0.0000
    30. (1.95368) LP ( 3)Br   3           s(  0.00%)p 1.00( 99.98%)d 0.00(  0.01%)
                                                  f 0.00(  0.00%)
                                            0.0000 -0.0000 -0.0000  0.0066  0.0004
                                            0.0000 -0.0006  0.0000  0.0001  0.9730
                                            0.0022  0.0012 -0.0003 -0.0000 -0.0000
                                           -0.2306 -0.0004 -0.0004  0.0001  0.0000
                                            0.0000  0.0000  0.0000  0.0000  0.0000
                                           -0.0000  0.0089 -0.0020 -0.0006  0.0000
                                            0.0000  0.0000  0.0000  0.0000  0.0000
                                            0.0000  0.0000 -0.0000  0.0036 -0.0004
                                           -0.0009  0.0000  0.0000  0.0000 -0.0000
                                            0.0000  0.0000 -0.0008 -0.0005  0.0001
                                           -0.0000  0.0000  0.0000  0.0000  0.0000
                                           -0.0024 -0.0012  0.0018  0.0009
    31. (1.89067) LP ( 4)Br   3           s(  5.58%)p16.90( 94.37%)d 0.01(  0.04%)
                                                  f 0.00(  0.00%)
                                            0.0000 -0.0000 -0.0004  0.2363  0.0011
                                           -0.0015 -0.0014 -0.0000 -0.0001  0.2225
                                           -0.0011 -0.0005  0.0007 -0.0000 -0.0003
                                            0.9456 -0.0044 -0.0031  0.0005  0.0000
                                            0.0000  0.0000  0.0000  0.0000  0.0000
                                           -0.0001  0.0079 -0.0019  0.0003  0.0000
                                            0.0000  0.0000  0.0000  0.0000  0.0000
                                            0.0000  0.0000  0.0003 -0.0154  0.0030
                                            0.0005  0.0002 -0.0108  0.0024 -0.0004
                                            0.0000  0.0000 -0.0009 -0.0005 -0.0036
                                           -0.0018  0.0000  0.0000  0.0000  0.0000
                                           -0.0029 -0.0014 -0.0033 -0.0011
    32. (0.01860) RY*( 1) O   1           s(  0.00%)p 1.00( 98.71%)d 0.01(  1.23%)
                                                  f 0.00(  0.06%)
                                            0.0000  0.0000  0.0000  0.0000  0.0000
                                            0.0000  0.0000  0.0000  0.0000  0.0000
                                            0.0000  0.0000  0.0000 -0.0272  0.9922
                                           -0.0426 -0.0134  0.0000  0.0000  0.0000
                                            0.0863 -0.0287  0.0104 -0.0589 -0.0051
                                            0.0213  0.0000  0.0000  0.0000  0.0000
                                            0.0000  0.0000 -0.0090  0.0096  0.0000
                                            0.0000  0.0000  0.0000  0.0148 -0.0120
                                           -0.0045  0.0019  0.0000  0.0000  0.0000
                                            0.0000
    33. (0.01536) RY*( 2) O   1           s( 30.41%)p 2.22( 67.48%)d 0.06(  1.90%)
                                                  f 0.01(  0.21%)
                                           -0.0000 -0.0014  0.5487 -0.0544 -0.0022
                                            0.0415 -0.3408  0.0029  0.0201 -0.0154
                                            0.7444 -0.0045 -0.0458  0.0000  0.0000
                                            0.0000  0.0000  0.1250 -0.0244  0.0049
                                            0.0000  0.0000  0.0000  0.0000  0.0000
                                            0.0000  0.0209 -0.0028 -0.0017  0.0465
                                            0.0009 -0.0106  0.0000  0.0000 -0.0045
                                            0.0014  0.0056  0.0011  0.0000  0.0000
                                            0.0000  0.0000  0.0329 -0.0144  0.0247
                                           -0.0123
    34. (0.00762) RY*( 3) O   1           s( 13.82%)p 0.43(  5.95%)d 5.71( 78.84%)
                                                  f 0.10(  1.39%)
                                           -0.0000  0.0182  0.3669 -0.0558  0.0130
                                           -0.0222 -0.1265  0.0077  0.0216 -0.0093
                                           -0.1939  0.0294 -0.0627 -0.0000 -0.0000
                                           -0.0000 -0.0000 -0.8701  0.0177 -0.0278
                                           -0.0000 -0.0000 -0.0000 -0.0000 -0.0000
                                           -0.0000  0.0932 -0.0146  0.0291  0.1429
                                            0.0044  0.0044 -0.0000 -0.0000 -0.0275
                                            0.0153  0.0066 -0.0012 -0.0000 -0.0000
                                           -0.0000 -0.0000 -0.0612  0.0200 -0.0857
                                            0.0373
    35. (0.00700) RY*( 4) O   1           s(  0.00%)p 1.00(  0.46%)d99.99( 97.93%)
                                                  f 3.51(  1.61%)
                                            0.0000  0.0000  0.0000  0.0000  0.0000
                                            0.0000  0.0000  0.0000  0.0000  0.0000
                                            0.0000  0.0000  0.0000 -0.0163 -0.0645
                                           -0.0127 -0.0023  0.0000  0.0000  0.0000
                                            0.9312  0.0277  0.0186  0.3326  0.0190
                                            0.0041  0.0000  0.0000  0.0000  0.0000
                                            0.0000  0.0000 -0.0380  0.0180  0.0000
                                            0.0000  0.0000  0.0000  0.1072 -0.0458
                                           -0.0255  0.0102  0.0000  0.0000  0.0000
                                            0.0000
    36. (0.00612) RY*( 5) O   1           s(  0.00%)p 1.00(  0.89%)d99.99( 97.90%)
                                                  f 1.37(  1.22%)
                                            0.0000  0.0000  0.0000  0.0000  0.0000
                                            0.0000  0.0000  0.0000  0.0000  0.0000
                                            0.0000  0.0000  0.0000  0.0361  0.0837
                                           -0.0028 -0.0240  0.0000  0.0000  0.0000
                                           -0.3261 -0.0260  0.0027  0.9314  0.0588
                                            0.0308  0.0000  0.0000  0.0000  0.0000
                                            0.0000  0.0000  0.0829 -0.0373  0.0000
                                            0.0000  0.0000  0.0000  0.0348 -0.0139
                                            0.0455 -0.0203  0.0000  0.0000  0.0000
                                            0.0000
    37. (0.00599) RY*( 6) O   1           s(  2.60%)p 8.42( 21.89%)d28.44( 73.91%)
                                                  f 0.62(  1.60%)
                                           -0.0000  0.0136  0.1535 -0.0457 -0.0119
                                           -0.0222 -0.2897  0.0071  0.0375 -0.0688
                                           -0.3565  0.0344 -0.0061  0.0000  0.0000
                                            0.0000  0.0000  0.3383  0.0093  0.0191
                                            0.0000  0.0000  0.0000  0.0000  0.0000
                                            0.0000  0.6180  0.0069  0.0389  0.4891
                                            0.0295  0.0235  0.0000  0.0000  0.0106
                                           -0.0067 -0.0737  0.0378  0.0000  0.0000
                                            0.0000  0.0000  0.0783 -0.0300 -0.0411
                                            0.0176
    38. (0.00571) RY*( 7) O   1           s(  1.17%)p10.74( 12.61%)d71.63( 84.10%)
                                                  f 1.80(  2.12%)
                                           -0.0000  0.0184  0.1025 -0.0192  0.0228
                                            0.0719  0.3428 -0.0007 -0.0442  0.0014
                                            0.0355  0.0075 -0.0123  0.0000  0.0000
[...]
                                           -0.0032 -0.0423  0.5688 -0.0815 -0.0537
                                            0.4672  0.2949  0.0915  0.0422 -0.0577
                                           -0.0000 -0.0000 -0.0000 -0.5393  0.0898
                                           -0.0000 -0.0000 -0.0000 -0.0000  0.1945
                                           -0.0068  0.0976 -0.0103
   163. (0.00032) RY*( 9) H   4           s(  0.00%)p 1.00( 89.83%)d 0.11( 10.17%)
                                            0.0000  0.0000  0.0000  0.0000  0.0000
                                            0.0000  0.0000  0.0000  0.0000  0.0000
                                           -0.1174  0.9378  0.0704  0.0000  0.0000
                                           -0.0731  0.0697 -0.2438  0.1792  0.0000
                                            0.0000  0.0000  0.0000
   164. (0.00022) RY*(10) H   4           s(  0.00%)p 1.00(  0.38%)d99.99( 99.62%)
                                            0.0000  0.0000  0.0000  0.0000  0.0000
                                            0.0000  0.0000  0.0000  0.0000  0.0000
                                           -0.0211  0.0545  0.0205  0.0000  0.0000
                                            0.9923 -0.0461 -0.0959 -0.0144  0.0000
                                            0.0000  0.0000  0.0000
   165. (0.00022) RY*(11) H   4           s(  1.96%)p35.62( 69.80%)d14.41( 28.24%)
                                            0.0221  0.0600  0.0548  0.1118 -0.0365
                                           -0.2489  0.0314 -0.0838 -0.6757  0.4125
                                           -0.0000 -0.0000 -0.0000 -0.0819 -0.0176
                                           -0.0000 -0.0000 -0.0000 -0.0000  0.5235
                                            0.0227  0.0102 -0.0261
   166. (0.00023) RY*(12) H   4           s(  7.18%)p 0.57(  4.08%)d12.35( 88.73%)
                                            0.0009 -0.0338  0.2617 -0.0469  0.1058
                                            0.0866 -0.1039 -0.0081 -0.1062 -0.0028
                                            0.0000  0.0000  0.0000  0.4180 -0.0183
                                            0.0000  0.0000  0.0000  0.0000 -0.0460
                                           -0.0649  0.8389 -0.0464
   167. (0.00017) RY*(13) H   4           s( 10.51%)p 1.56( 16.37%)d 6.96( 73.12%)
                                           -0.0079 -0.0453  0.2766 -0.1627  0.0524
                                            0.0330 -0.2378  0.0260  0.2536 -0.1957
                                            0.0000  0.0000  0.0000  0.4433  0.1132
                                            0.0000  0.0000  0.0000  0.0000  0.6002
                                           -0.0622 -0.3091 -0.2496
   168. (0.00015) RY*(14) H   4           s(  0.00%)p 1.00( 49.70%)d 1.01( 50.30%)
                                            0.0000  0.0000  0.0000  0.0000  0.0000
                                            0.0000  0.0000  0.0000  0.0000  0.0000
                                            0.0032  0.1718  0.6837  0.0000  0.0000
                                           -0.0011 -0.1615  0.3940 -0.5672  0.0000
                                            0.0000  0.0000  0.0000
   169. (0.00012) RY*(15) H   4           s(  3.00%)p13.37( 40.14%)d18.94( 56.86%)
                                           -0.0029 -0.0032  0.0163  0.1724  0.0372
                                            0.0486  0.6119  0.0146 -0.0315 -0.1484
                                            0.0000  0.0000  0.0000  0.2858 -0.6206
                                            0.0000  0.0000  0.0000  0.0000  0.0693
                                           -0.2914 -0.1073  0.0217
   170. (0.00011) RY*(16) H   4           s( 66.53%)p 0.07(  4.92%)d 0.43( 28.55%)
                                            0.0025  0.0119  0.4699  0.6666  0.0446
                                            0.1007 -0.1461 -0.0029 -0.0781  0.0981
                                            0.0000  0.0000  0.0000  0.2363  0.0458
                                            0.0000  0.0000  0.0000  0.0000 -0.2738
                                            0.2674 -0.2568  0.1230
   171. (0.00007) RY*(17) H   4           s(  0.00%)p 1.00(  0.10%)d99.99( 99.90%)
   172. (0.00007) RY*(18) H   4           s(  0.07%)p13.58(  0.88%)d99.99( 99.05%)
   173. (0.00005) RY*(19) H   4           s(  0.00%)p 1.00( 29.68%)d 2.37( 70.32%)
   174. (0.00004) RY*(20) H   4           s(  4.31%)p 6.23( 26.84%)d15.98( 68.85%)
   175. (0.00004) RY*(21) H   4           s(  1.81%)p22.94( 41.43%)d31.43( 56.76%)
   176. (0.00004) RY*(22) H   4           s( 55.12%)p 0.26( 14.37%)d 0.55( 30.51%)
   177. (0.05730) BD*( 1) O   1 -Cl   2  
                ( 40.74%)   0.6383* O   1 s( 10.70%)p 8.29( 88.77%)d 0.05(  0.51%)
                                                  f 0.00(  0.02%)
                                           -0.0003 -0.3243  0.0405  0.0136  0.0004
                                           -0.9411  0.0259  0.0106  0.0096  0.0141
                                            0.0298  0.0049  0.0001 -0.0000 -0.0000
                                           -0.0000 -0.0000  0.0245 -0.0015 -0.0027
                                           -0.0000 -0.0000 -0.0000 -0.0000 -0.0000
                                           -0.0000 -0.0515  0.0050 -0.0024  0.0420
                                           -0.0036 -0.0007 -0.0000 -0.0000  0.0115
                                           -0.0011  0.0003 -0.0002 -0.0000 -0.0000
                                           -0.0000 -0.0000 -0.0050 -0.0005  0.0004
                                           -0.0025
                ( 59.26%)  -0.7698*Cl   2 s(  8.29%)p10.90( 90.41%)d 0.14(  1.19%)
                                                  f 0.01(  0.11%)
                                            0.0000 -0.0005 -0.2825  0.0551  0.0100
                                           -0.0024  0.0004  0.9484 -0.0659 -0.0140
                                            0.0042  0.0000  0.0096  0.0013 -0.0025
                                            0.0007 -0.0000 -0.0000 -0.0000 -0.0000
                                           -0.0000 -0.0128 -0.0000 -0.0010 -0.0000
                                           -0.0000 -0.0000 -0.0000 -0.0000 -0.0000
                                           -0.0911  0.0101 -0.0001  0.0576 -0.0056
                                           -0.0007 -0.0000 -0.0000 -0.0207  0.0032
                                           -0.0004  0.0002 -0.0000 -0.0000 -0.0000
                                           -0.0000  0.0250 -0.0028  0.0010 -0.0001
   178. (0.07518) BD*( 1) O   1 - H   4  
                ( 22.44%)   0.4737* O   1 s( 33.48%)p 1.97( 66.03%)d 0.01(  0.49%)
                                                  f 0.00(  0.01%)
                                            0.0003  0.5785 -0.0110 -0.0069  0.0015
                                           -0.2089  0.0192  0.0024  0.0022 -0.7848
                                            0.0167  0.0070  0.0037 -0.0000 -0.0000
                                           -0.0000 -0.0000  0.0029  0.0032  0.0001
                                           -0.0000 -0.0000 -0.0000 -0.0000 -0.0000
                                           -0.0000 -0.0586  0.0039 -0.0030 -0.0372
                                            0.0003  0.0024 -0.0000 -0.0000  0.0015
                                            0.0008  0.0080  0.0010 -0.0000 -0.0000
                                           -0.0000 -0.0000  0.0017  0.0029 -0.0006
                                            0.0031
                ( 77.56%)  -0.8807* H   4 s( 99.87%)p 0.00(  0.13%)d 0.00(  0.00%)
                                            0.9987  0.0350  0.0014 -0.0002  0.0113
                                            0.0070  0.0014 -0.0147  0.0286 -0.0098
                                           -0.0000 -0.0000 -0.0000 -0.0007 -0.0020
                                           -0.0000 -0.0000 -0.0000 -0.0000 -0.0002
                                           -0.0011  0.0014 -0.0034


 NHO Directionality and "Bond Bending" (deviations from line of nuclear centers)

         [Thresholds for printing:  angular deviation  >  1.0 degree]
                                    hybrid p-character > 25.0%
                                    orbital occupancy  >  0.10e

                                Line of Centers        Hybrid 1              Hybrid 2
                                ---------------  -------------------   ------------------
                NBO               Theta   Phi    Theta   Phi    Dev    Theta   Phi    Dev
 ========================================================================================
     1. BD (   1) O   1 -Cl   2    90.0    0.0    90.0  356.9   3.1      --     --    --
    23. LP (   1) O   1             --     --     90.0  112.2   --       --     --    --
    24. LP (   2) O   1             --     --      0.0    0.0   --       --     --    --
    26. LP (   2)Cl   2             --     --      0.0    0.0   --       --     --    --
    27. LP (   3)Cl   2             --     --     90.0   90.3   --       --     --    --
    29. LP (   2)Br   3             --     --      0.0    0.0   --       --     --    --
    30. LP (   3)Br   3             --     --     90.0  346.7   --       --     --    --
    31. LP (   4)Br   3             --     --     90.0   76.7   --       --     --    --


 Natural Bond Orbitals (Summary):

           NBO                  Occupancy  
 -----------------------------------------------
 Molecular unit  1  (HOCl)
     1. BD (   1) O   1 -Cl   2          1.94074
     2. BD (   1) O   1 - H   4          1.96991
     3. CR (   1) O   1                  1.99960
     4. CR (   1)Cl   2                  2.00000
     5. CR (   2)Cl   2                  1.99982
     6. CR (   3)Cl   2                  1.99997
     7. CR (   4)Cl   2                  2.00003
     8. CR (   5)Cl   2                  2.00003
    23. LP (   1) O   1                  1.96654
    24. LP (   2) O   1                  1.95338
    25. LP (   1)Cl   2                  1.97440
    26. LP (   2)Cl   2                  1.95628
    27. LP (   3)Cl   2                  1.95489
    32. RY*(   1) O   1                  0.01860
    33. RY*(   2) O   1                  0.01536
    34. RY*(   3) O   1                  0.00762
    35. RY*(   4) O   1                  0.00700
    36. RY*(   5) O   1                  0.00612
    37. RY*(   6) O   1                  0.00599
    38. RY*(   7) O   1                  0.00571
    39. RY*(   8) O   1                  0.00262
    40. RY*(   9) O   1                  0.00243
    41. RY*(  10) O   1                  0.00083
    42. RY*(  11) O   1                  0.00065
    43. RY*(  12) O   1                  0.00057
    44. RY*(  13) O   1                  0.00057
    45. RY*(  14) O   1                  0.00049
    46. RY*(  15) O   1                  0.00049
    47. RY*(  16) O   1                  0.00047
    48. RY*(  17) O   1                  0.00046
    49. RY*(  18) O   1                  0.00045
    50. RY*(  19) O   1                  0.00044
    51. RY*(  20) O   1                  0.00044
    52. RY*(  21) O   1                  0.00042
    53. RY*(  22) O   1                  0.00040
    54. RY*(  23) O   1                  0.00032
    55. RY*(  24) O   1                  0.00027
    56. RY*(  25) O   1                  0.00024
    57. RY*(  26) O   1                  0.00022
    58. RY*(  27) O   1                  0.00012
    59. RY*(  28) O   1                  0.00012
    60. RY*(  29) O   1                  0.00013
    61. RY*(  30) O   1                  0.00008
    62. RY*(  31) O   1                  0.00008
    63. RY*(  32) O   1                  0.00008
    64. RY*(  33) O   1                  0.00008
    65. RY*(  34) O   1                  0.00008
    66. RY*(  35) O   1                  0.00007
    67. RY*(  36) O   1                  0.00005
    68. RY*(  37) O   1                  0.00005
    69. RY*(  38) O   1                  0.00006
    70. RY*(  39) O   1                  0.00003
    71. RY*(  40) O   1                  0.00003
    72. RY*(  41) O   1                  0.00003
    73. RY*(   1)Cl   2                  0.02241
    74. RY*(   2)Cl   2                  0.01721
    75. RY*(   3)Cl   2                  0.01670
    76. RY*(   4)Cl   2                  0.01637
    77. RY*(   5)Cl   2                  0.01144
    78. RY*(   6)Cl   2                  0.00915
    79. RY*(   7)Cl   2                  0.00893
    80. RY*(   8)Cl   2                  0.00619
    81. RY*(   9)Cl   2                  0.00163
    82. RY*(  10)Cl   2                  0.00126
    83. RY*(  11)Cl   2                  0.00126
    84. RY*(  12)Cl   2                  0.00119
    85. RY*(  13)Cl   2                  0.00119
    86. RY*(  14)Cl   2                  0.00116
    87. RY*(  15)Cl   2                  0.00110
    88. RY*(  16)Cl   2                  0.00093
    89. RY*(  17)Cl   2                  0.00075
    90. RY*(  18)Cl   2                  0.00076
    91. RY*(  19)Cl   2                  0.00063
    92. RY*(  20)Cl   2                  0.00054
    93. RY*(  21)Cl   2                  0.00042
    94. RY*(  22)Cl   2                  0.00036
    95. RY*(  23)Cl   2                  0.00034
    96. RY*(  24)Cl   2                  0.00030
    97. RY*(  25)Cl   2                  0.00018
    98. RY*(  26)Cl   2                  0.00015
    99. RY*(  27)Cl   2                  0.00013
   100. RY*(  28)Cl   2                  0.00012
   101. RY*(  29)Cl   2                  0.00013
   102. RY*(  30)Cl   2                  0.00012
   103. RY*(  31)Cl   2                  0.00010
   104. RY*(  32)Cl   2                  0.00010
   105. RY*(  33)Cl   2                  0.00010
   106. RY*(  34)Cl   2                  0.00009
   107. RY*(  35)Cl   2                  0.00009
   108. RY*(  36)Cl   2                  0.00007
   109. RY*(  37)Cl   2                  0.00007
   110. RY*(  38)Cl   2                  0.00005
   111. RY*(  39)Cl   2                  0.00003
   112. RY*(  40)Cl   2                  0.00003
   113. RY*(  41)Cl   2                  0.00000
   155. RY*(   1) H   4                  0.01089
   156. RY*(   2) H   4                  0.00557
   157. RY*(   3) H   4                  0.00508
   158. RY*(   4) H   4                  0.00362
   159. RY*(   5) H   4                  0.00059
   160. RY*(   6) H   4                  0.00051
   161. RY*(   7) H   4                  0.00045
   162. RY*(   8) H   4                  0.00032
   163. RY*(   9) H   4                  0.00032
   164. RY*(  10) H   4                  0.00022
   165. RY*(  11) H   4                  0.00022
   166. RY*(  12) H   4                  0.00023
   167. RY*(  13) H   4                  0.00017
   168. RY*(  14) H   4                  0.00015
   169. RY*(  15) H   4                  0.00012
   170. RY*(  16) H   4                  0.00011
   171. RY*(  17) H   4                  0.00007
   172. RY*(  18) H   4                  0.00007
   173. RY*(  19) H   4                  0.00005
   174. RY*(  20) H   4                  0.00004
   175. RY*(  21) H   4                  0.00004
   176. RY*(  22) H   4                  0.00004
   177. BD*(   1) O   1 -Cl   2          0.05730
   178. BD*(   1) O   1 - H   4          0.07518
       -------------------------------
              Total Lewis   25.71557  ( 98.5988%)
        Valence non-Lewis    0.13248  (  0.5080%)
        Rydberg non-Lewis    0.23297  (  0.8933%)
       -------------------------------
            Total unit  1   26.08102  (100.0000%)
           Charge unit  1   -0.08102

 Molecular unit  2  (Br)
     9. CR (   1)Br   3                  2.00000
    10. CR (   2)Br   3                  2.00000
    11. CR (   3)Br   3                  1.99995
    12. CR (   4)Br   3                  2.00000
    13. CR (   5)Br   3                  2.00001
    14. CR (   6)Br   3                  2.00000
    15. CR (   7)Br   3                  1.99997
    16. CR (   8)Br   3                  2.00000
    17. CR (   9)Br   3                  2.00002
    18. CR (  10)Br   3                  1.99766
    19. CR (  11)Br   3                  1.99769
    20. CR (  12)Br   3                  1.99767
    21. CR (  13)Br   3                  1.99764
    22. CR (  14)Br   3                  1.99767
    28. LP (   1)Br   3                  1.97895
    29. LP (   2)Br   3                  1.95403
    30. LP (   3)Br   3                  1.95368
    31. LP (   4)Br   3                  1.89067
   114. RY*(   1)Br   3                  0.01886
   115. RY*(   2)Br   3                  0.01880
   116. RY*(   3)Br   3                  0.01868
   117. RY*(   4)Br   3                  0.01868
   118. RY*(   5)Br   3                  0.01792
   119. RY*(   6)Br   3                  0.01140
   120. RY*(   7)Br   3                  0.01133
   121. RY*(   8)Br   3                  0.00965
   122. RY*(   9)Br   3                  0.00238
   123. RY*(  10)Br   3                  0.00181
   124. RY*(  11)Br   3                  0.00180
   125. RY*(  12)Br   3                  0.00176
   126. RY*(  13)Br   3                  0.00175
   127. RY*(  14)Br   3                  0.00175
   128. RY*(  15)Br   3                  0.00176
   129. RY*(  16)Br   3                  0.00176
   130. RY*(  17)Br   3                  0.00175
   131. RY*(  18)Br   3                  0.00175
   132. RY*(  19)Br   3                  0.00145
   133. RY*(  20)Br   3                  0.00141
   134. RY*(  21)Br   3                  0.00124
   135. RY*(  22)Br   3                  0.00080
   136. RY*(  23)Br   3                  0.00079
   137. RY*(  24)Br   3                  0.00074
   138. RY*(  25)Br   3                  0.00039
   139. RY*(  26)Br   3                  0.00028
   140. RY*(  27)Br   3                  0.00026
   141. RY*(  28)Br   3                  0.00025
   142. RY*(  29)Br   3                  0.00025
   143. RY*(  30)Br   3                  0.00025
   144. RY*(  31)Br   3                  0.00024
   145. RY*(  32)Br   3                  0.00024
   146. RY*(  33)Br   3                  0.00023
   147. RY*(  34)Br   3                  0.00022
   148. RY*(  35)Br   3                  0.00017
   149. RY*(  36)Br   3                  0.00016
   150. RY*(  37)Br   3                  0.00017
   151. RY*(  38)Br   3                  0.00010
   152. RY*(  39)Br   3                  0.00007
   153. RY*(  40)Br   3                  0.00006
   154. RY*(  41)Br   3                  0.00003
       -------------------------------
              Total Lewis   35.76559  ( 99.5729%)
        Valence non-Lewis    0.00000  (  0.0000%)
        Rydberg non-Lewis    0.15339  (  0.4271%)
       -------------------------------
            Total unit  2   35.91898  (100.0000%)
           Charge unit  2   -0.91898
 Leave Link  607 at Tue Oct 12 14:23:43 2021, MaxMem=  1048576000 cpu:         6.4
 (Enter /usr/local/gaussian/g09/l9999.exe)
 1\1\GINC-KRYPTON\SP\RMP2-FC\Aug-CC-pVTZ\Br1Cl1H1O1(1-)\CGAVINH\12-Oct-
 2021\0\\#p pop=NBO SP NoSymm mp2/aug-cc-pvtz density=current\\title\\-
 1,1\O\X,1,10.\Cl,1,1.68432554,2,90.\Br,1,3.07381752,2,90.,3,103.420351
 85,0\H,1,0.9,2,90.,3,103.42035185,0\\Version=ES64L-G09RevE.01\HF=-3107
 .4749233\MP2=-3108.1722671\RMSD=9.192e-09\Dipole=0.9485852,1.0766793,0
 .\Quadrupole=7.9141469,-17.3218447,9.4076978,-6.674901,0.,0.\PG=CS [SG
 (Br1Cl1H1O1)]\\@


 I HAVE NOT FAILED, I HAVE ONLY DISCOVERED 10,000
 WAYS THAT DIDN'T WORK.  -- THOMAS A. EDISON
 Job cpu time:       0 days  0 hours  2 minutes 31.1 seconds.
 File lengths (MBytes):  RWF=     14 Int=      0 D2E=      0 Chk=      4 Scr=      1
 Normal termination of Gaussian 09 at Tue Oct 12 14:23:43 2021.
