 Entering Gaussian System, Link 0=g09
 Input=brhocl_rOH_095_sp.gjf
 Output=brhocl_rOH_095_sp.log
 Initial command:
 /usr/local/gaussian/g09/l1.exe "/scratch/Gau-17258.inp" -scrdir="/scratch/"
 Entering Link 1 = /usr/local/gaussian/g09/l1.exe PID=     17259.
  
 Copyright (c) 1988,1990,1992,1993,1995,1998,2003,2009,2015,
            Gaussian, Inc.  All Rights Reserved.
  
 This is part of the Gaussian(R) 09 program.  It is based on
 the Gaussian(R) 03 system (copyright 2003, Gaussian, Inc.),
 the Gaussian(R) 98 system (copyright 1998, Gaussian, Inc.),
 the Gaussian(R) 94 system (copyright 1995, Gaussian, Inc.),
 the Gaussian 92(TM) system (copyright 1992, Gaussian, Inc.),
 the Gaussian 90(TM) system (copyright 1990, Gaussian, Inc.),
 the Gaussian 88(TM) system (copyright 1988, Gaussian, Inc.),
 the Gaussian 86(TM) system (copyright 1986, Carnegie Mellon
 University), and the Gaussian 82(TM) system (copyright 1983,
 Carnegie Mellon University). Gaussian is a federally registered
 trademark of Gaussian, Inc.
  
 This software contains proprietary and confidential information,
 including trade secrets, belonging to Gaussian, Inc.
  
 This software is provided under written license and may be
 used, copied, transmitted, or stored only in accord with that
 written license.
  
 The following legend is applicable only to US Government
 contracts under FAR:
  
                    RESTRICTED RIGHTS LEGEND
  
 Use, reproduction and disclosure by the US Government is
 subject to restrictions as set forth in subparagraphs (a)
 and (c) of the Commercial Computer Software - Restricted
 Rights clause in FAR 52.227-19.
  
 Gaussian, Inc.
 340 Quinnipiac St., Bldg. 40, Wallingford CT 06492
  
  
 ---------------------------------------------------------------
 Warning -- This program may not be used in any manner that
 competes with the business of Gaussian, Inc. or will provide
 assistance to any competitor of Gaussian, Inc.  The licensee
 of this program is prohibited from giving any competitor of
 Gaussian, Inc. access to this program.  By using this program,
 the user acknowledges that Gaussian, Inc. is engaged in the
 business of creating and licensing software in the field of
 computational chemistry and represents and warrants to the
 licensee that it is not a competitor of Gaussian, Inc. and that
 it will not use this program in any manner prohibited above.
 ---------------------------------------------------------------
  

 Cite this work as:
 Gaussian 09, Revision E.01,
 M. J. Frisch, G. W. Trucks, H. B. Schlegel, G. E. Scuseria, 
 M. A. Robb, J. R. Cheeseman, G. Scalmani, V. Barone, B. Mennucci, 
 G. A. Petersson, H. Nakatsuji, M. Caricato, X. Li, H. P. Hratchian, 
 A. F. Izmaylov, J. Bloino, G. Zheng, J. L. Sonnenberg, M. Hada, 
 M. Ehara, K. Toyota, R. Fukuda, J. Hasegawa, M. Ishida, T. Nakajima, 
 Y. Honda, O. Kitao, H. Nakai, T. Vreven, J. A. Montgomery, Jr., 
 J. E. Peralta, F. Ogliaro, M. Bearpark, J. J. Heyd, E. Brothers, 
 K. N. Kudin, V. N. Staroverov, T. Keith, R. Kobayashi, J. Normand, 
 K. Raghavachari, A. Rendell, J. C. Burant, S. S. Iyengar, J. Tomasi, 
 M. Cossi, N. Rega, J. M. Millam, M. Klene, J. E. Knox, J. B. Cross, 
 V. Bakken, C. Adamo, J. Jaramillo, R. Gomperts, R. E. Stratmann, 
 O. Yazyev, A. J. Austin, R. Cammi, C. Pomelli, J. W. Ochterski, 
 R. L. Martin, K. Morokuma, V. G. Zakrzewski, G. A. Voth, 
 P. Salvador, J. J. Dannenberg, S. Dapprich, A. D. Daniels, 
 O. Farkas, J. B. Foresman, J. V. Ortiz, J. Cioslowski, 
 and D. J. Fox, Gaussian, Inc., Wallingford CT, 2013.
 
 ******************************************
 Gaussian 09:  ES64L-G09RevE.01 30-Nov-2015
                12-Oct-2021 
 ******************************************
 %nproc=12
 Will use up to   12 processors via shared memory.
 %mem=8000MB
 %chk=/home/netid.washington.edu/cgavinh/mccoy_hocl/rOH_s_oop_0/brhocl/brhocl_rOH
 _095_sp.chk
 ----------------------------------------------------
 #p pop=NBO SP NoSymm mp2/aug-cc-pvtz density=current
 ----------------------------------------------------
 1/30=1,38=1/1;
 2/12=2,15=1,17=6,18=5,40=1/2;
 3/5=16,6=1,7=10,11=9,16=1,25=1,30=1,71=1/1,2,3;
 4//1;
 5/5=2,38=5/2;
 8/6=4,10=1/1;
 9/15=1,16=-3/6;
 10/5=1,13=10,31=1/2;
 6/7=2,8=2,9=2,10=2,22=-1,40=1/1,7;
 99/5=1,9=1/99;
 Leave Link    1 at Tue Oct 12 14:23:43 2021, MaxMem=  1048576000 cpu:         0.2
 (Enter /usr/local/gaussian/g09/l101.exe)
 -----
 title
 -----
 Symbolic Z-matrix:
 Charge = -1 Multiplicity = 1
 O
 X                    1     10. 
 Cl                   1    r1       2     90. 
 Br                   1    r2       2     90.      3    a1       0
 H                    1    r3       2    oop      3    a1       0
       Variables:
  r1                    1.68433                  
  r2                    3.07382                  
  r3                    0.95                     
  a1                  103.42035                  
  OOP                  90.                       
 
 NAtoms=      4 NQM=        4 NQMF=       0 NMMI=      0 NMMIF=      0
                NMic=       0 NMicF=      0.
                    Isotopes and Nuclear Properties:
 (Nuclear quadrupole moments (NQMom) in fm**2, nuclear magnetic moments (NMagM)
  in nuclear magnetons)

  Atom         1           2           3           4
 IAtWgt=          16          35          79           1
 AtmWgt=  15.9949146  34.9688527  78.9183361   1.0078250
 NucSpn=           0           3           3           1
 AtZEff=   0.0000000   0.0000000   0.0000000   0.0000000
 NQMom=    0.0000000  -8.1650000  31.3000000   0.0000000
 NMagM=    0.0000000   0.8218740   2.1063990   2.7928460
 AtZNuc=   8.0000000  17.0000000  35.0000000   1.0000000
 Leave Link  101 at Tue Oct 12 14:23:43 2021, MaxMem=  1048576000 cpu:         0.4
 (Enter /usr/local/gaussian/g09/l202.exe)
                          Input orientation:                          
 ---------------------------------------------------------------------
 Center     Atomic      Atomic             Coordinates (Angstroms)
 Number     Number       Type             X           Y           Z
 ---------------------------------------------------------------------
      1          8           0        0.000000    0.000000    0.000000
      2         17           0        1.684326    0.000000    0.000000
      3         35           0       -0.713413   -2.989882    0.000000
      4          1           0       -0.220489   -0.924059    0.000000
 ---------------------------------------------------------------------
                    Distance matrix (angstroms):
                    1          2          3          4
     1  O    0.000000
     2  Cl   1.684326   0.000000
     3  Br   3.073818   3.832564   0.000000
     4  H    0.950000   2.117121   2.123818   0.000000
 Symmetry turned off by external request.
 Stoichiometry    BrClHO(1-)
 Framework group  CS[SG(BrClHO)]
 Deg. of freedom     5
 Full point group                 CS      NOp   2
 Rotational constants (GHZ):     22.6122090      1.2805929      1.2119564
 Leave Link  202 at Tue Oct 12 14:23:43 2021, MaxMem=  1048576000 cpu:         0.0
 (Enter /usr/local/gaussian/g09/l301.exe)
 Standard basis: Aug-CC-pVTZ (5D, 7F)
 Ernie: Thresh=  0.10000D-02 Tol=  0.10000D-05 Strict=F.
 Ernie:  48 primitive shells out of 228 were deleted.
   178 basis functions,   430 primitive gaussians,   208 cartesian basis functions
    31 alpha electrons       31 beta electrons
       nuclear repulsion energy       190.5120312246 Hartrees.
 IExCor=    0 DFT=F Ex=HF Corr=None ExCW=0 ScaHFX=  1.000000
 ScaDFX=  1.000000  1.000000  1.000000  1.000000 ScalE2=  1.000000  1.000000
 IRadAn=      0 IRanWt=     -1 IRanGd=            0 ICorTp=0 IEmpDi=  4
 NAtoms=    4 NActive=    4 NUniq=    4 SFac= 1.00D+00 NAtFMM=   60 NAOKFM=F Big=F
 Integral buffers will be    131072 words long.
 Raffenetti 1 integral format.
 Two-electron integral symmetry is turned off.
 Leave Link  301 at Tue Oct 12 14:23:43 2021, MaxMem=  1048576000 cpu:         0.3
 (Enter /usr/local/gaussian/g09/l302.exe)
 NPDir=0 NMtPBC=     1 NCelOv=     1 NCel=       1 NClECP=     1 NCelD=      1
         NCelK=      1 NCelE2=     1 NClLst=     1 CellRange=     0.0.
 One-electron integrals computed using PRISM.
 NBasis=   178 RedAO= T EigKep=  2.16D-04  NBF=   178
 NBsUse=   178 1.00D-06 EigRej= -1.00D+00 NBFU=   178
 Leave Link  302 at Tue Oct 12 14:23:43 2021, MaxMem=  1048576000 cpu:         1.6
 (Enter /usr/local/gaussian/g09/l303.exe)
 DipDrv:  MaxL=1.
 Leave Link  303 at Tue Oct 12 14:23:43 2021, MaxMem=  1048576000 cpu:         0.2
 (Enter /usr/local/gaussian/g09/l401.exe)
 ExpMin= 2.53D-02 ExpMax= 1.06D+07 ExpMxC= 1.21D+04 IAcc=3 IRadAn=         5 AccDes= 0.00D+00
 Harris functional with IExCor=  205 and IRadAn=       5 diagonalized for initial guess.
 HarFok:  IExCor=  205 AccDes= 0.00D+00 IRadAn=         5 IDoV= 1 UseB2=F ITyADJ=14
 ICtDFT=  3500011 ScaDFX=  1.000000  1.000000  1.000000  1.000000
 FoFCou: FMM=F IPFlag=           0 FMFlag=      100000 FMFlg1=           0
         NFxFlg=           0 DoJE=T BraDBF=F KetDBF=T FulRan=T
         wScrn=  0.000000 ICntrl=     500 IOpCl=  0 I1Cent=   200000004 NGrid=           0
         NMat0=    1 NMatS0=      1 NMatT0=    0 NMatD0=    1 NMtDS0=    0 NMtDT0=    0
 Symmetry not used in FoFCou.
 Harris En= -3106.39184437517    
 JPrj=0 DoOrth=F DoCkMO=F.
 Leave Link  401 at Tue Oct 12 14:23:43 2021, MaxMem=  1048576000 cpu:         3.1
 (Enter /usr/local/gaussian/g09/l502.exe)
 Closed shell SCF:
 Using DIIS extrapolation, IDIIS=  1040.
 Two-electron integral symmetry not used.
 Keep R1 ints in memory in canonical form, NReq=131623000.
 IVT=      152094 IEndB=      152094 NGot=  1048576000 MDV=   921517561
 LenX=   921517561 LenY=   921473856
 Requested convergence on RMS density matrix=1.00D-08 within 128 cycles.
 Requested convergence on MAX density matrix=1.00D-06.
 Requested convergence on             energy=1.00D-06.
 No special actions if energy rises.
 FoFCou: FMM=F IPFlag=           0 FMFlag=           0 FMFlg1=           0
         NFxFlg=           0 DoJE=F BraDBF=F KetDBF=F FulRan=T
         wScrn=  0.000000 ICntrl=     600 IOpCl=  0 I1Cent=           0 NGrid=           0
         NMat0=    1 NMatS0=  15931 NMatT0=    0 NMatD0=    1 NMtDS0=    0 NMtDT0=    0
 Symmetry not used in FoFCou.

 Cycle   1  Pass 1  IDiag  1:
 E= -3107.31147019223    
 DIIS: error= 5.60D-02 at cycle   1 NSaved=   1.
 NSaved= 1 IEnMin= 1 EnMin= -3107.31147019223     IErMin= 1 ErrMin= 5.60D-02
 ErrMax= 5.60D-02  0.00D+00 EMaxC= 1.00D-01 BMatC= 6.44D-01 BMatP= 6.44D-01
 IDIUse=3 WtCom= 4.40D-01 WtEn= 5.60D-01
 Coeff-Com:  0.100D+01
 Coeff-En:   0.100D+01
 Coeff:      0.100D+01
 Gap=     0.563 Goal=   None    Shift=    0.000
 GapD=    0.563 DampG=2.000 DampE=0.500 DampFc=1.0000 IDamp=-1.
 RMSDP=3.11D-03 MaxDP=9.93D-02              OVMax= 1.18D-01

 Cycle   2  Pass 1  IDiag  1:
 E= -3107.44953114817     Delta-E=       -0.138060955937 Rises=F Damp=F
 DIIS: error= 1.82D-02 at cycle   2 NSaved=   2.
 NSaved= 2 IEnMin= 2 EnMin= -3107.44953114817     IErMin= 2 ErrMin= 1.82D-02
 ErrMax= 1.82D-02  0.00D+00 EMaxC= 1.00D-01 BMatC= 4.62D-02 BMatP= 6.44D-01
 IDIUse=3 WtCom= 8.18D-01 WtEn= 1.82D-01
 Coeff-Com:  0.140D+00 0.860D+00
 Coeff-En:   0.000D+00 0.100D+01
 Coeff:      0.114D+00 0.886D+00
 Gap=     0.327 Goal=   None    Shift=    0.000
 RMSDP=1.15D-03 MaxDP=3.93D-02 DE=-1.38D-01 OVMax= 7.56D-02

 Cycle   3  Pass 1  IDiag  1:
 E= -3107.46974860870     Delta-E=       -0.020217460533 Rises=F Damp=F
 DIIS: error= 9.07D-03 at cycle   3 NSaved=   3.
 NSaved= 3 IEnMin= 3 EnMin= -3107.46974860870     IErMin= 3 ErrMin= 9.07D-03
 ErrMax= 9.07D-03  0.00D+00 EMaxC= 1.00D-01 BMatC= 1.40D-02 BMatP= 4.62D-02
 IDIUse=3 WtCom= 9.09D-01 WtEn= 9.07D-02
 Coeff-Com:  0.643D-02 0.352D+00 0.641D+00
 Coeff-En:   0.000D+00 0.159D+00 0.841D+00
 Coeff:      0.584D-02 0.335D+00 0.659D+00
 Gap=     0.328 Goal=   None    Shift=    0.000
 RMSDP=3.48D-04 MaxDP=1.41D-02 DE=-2.02D-02 OVMax= 3.58D-02

 Cycle   4  Pass 1  IDiag  1:
 E= -3107.47927337264     Delta-E=       -0.009524763939 Rises=F Damp=F
 DIIS: error= 1.42D-03 at cycle   4 NSaved=   4.
 NSaved= 4 IEnMin= 4 EnMin= -3107.47927337264     IErMin= 4 ErrMin= 1.42D-03
 ErrMax= 1.42D-03  0.00D+00 EMaxC= 1.00D-01 BMatC= 1.71D-04 BMatP= 1.40D-02
 IDIUse=3 WtCom= 9.86D-01 WtEn= 1.42D-02
 Coeff-Com: -0.506D-02-0.304D-01 0.443D-01 0.991D+00
 Coeff-En:   0.000D+00 0.000D+00 0.000D+00 0.100D+01
 Coeff:     -0.498D-02-0.299D-01 0.436D-01 0.991D+00
 Gap=     0.326 Goal=   None    Shift=    0.000
 RMSDP=6.05D-05 MaxDP=1.45D-03 DE=-9.52D-03 OVMax= 3.50D-03

 Cycle   5  Pass 1  IDiag  1:
 E= -3107.47946716893     Delta-E=       -0.000193796292 Rises=F Damp=F
 DIIS: error= 2.29D-04 at cycle   5 NSaved=   5.
 NSaved= 5 IEnMin= 5 EnMin= -3107.47946716893     IErMin= 5 ErrMin= 2.29D-04
 ErrMax= 2.29D-04  0.00D+00 EMaxC= 1.00D-01 BMatC= 1.16D-05 BMatP= 1.71D-04
 IDIUse=3 WtCom= 9.98D-01 WtEn= 2.29D-03
 Coeff-Com:  0.811D-03-0.162D-01-0.379D-01-0.174D+00 0.123D+01
 Coeff-En:   0.000D+00 0.000D+00 0.000D+00 0.000D+00 0.100D+01
 Coeff:      0.809D-03-0.161D-01-0.378D-01-0.173D+00 0.123D+01
 Gap=     0.327 Goal=   None    Shift=    0.000
 RMSDP=3.00D-05 MaxDP=1.04D-03 DE=-1.94D-04 OVMax= 2.79D-03

 Cycle   6  Pass 1  IDiag  1:
 E= -3107.47949945780     Delta-E=       -0.000032288873 Rises=F Damp=F
 DIIS: error= 1.19D-04 at cycle   6 NSaved=   6.
 NSaved= 6 IEnMin= 6 EnMin= -3107.47949945780     IErMin= 6 ErrMin= 1.19D-04
 ErrMax= 1.19D-04  0.00D+00 EMaxC= 1.00D-01 BMatC= 1.64D-06 BMatP= 1.16D-05
 IDIUse=3 WtCom= 9.99D-01 WtEn= 1.19D-03
 Coeff-Com:  0.453D-03 0.402D-02-0.958D-03-0.120D+00-0.582D-01 0.117D+01
 Coeff-En:   0.000D+00 0.000D+00 0.000D+00 0.000D+00 0.000D+00 0.100D+01
 Coeff:      0.452D-03 0.402D-02-0.957D-03-0.120D+00-0.581D-01 0.117D+01
 Gap=     0.327 Goal=   None    Shift=    0.000
 RMSDP=1.27D-05 MaxDP=5.11D-04 DE=-3.23D-05 OVMax= 1.38D-03

 Cycle   7  Pass 1  IDiag  1:
 E= -3107.47950498818     Delta-E=       -0.000005530380 Rises=F Damp=F
 DIIS: error= 4.54D-05 at cycle   7 NSaved=   7.
 NSaved= 7 IEnMin= 7 EnMin= -3107.47950498818     IErMin= 7 ErrMin= 4.54D-05
 ErrMax= 4.54D-05  0.00D+00 EMaxC= 1.00D-01 BMatC= 1.78D-07 BMatP= 1.64D-06
 IDIUse=1 WtCom= 1.00D+00 WtEn= 0.00D+00
 Coeff-Com: -0.228D-03 0.850D-03 0.635D-02 0.542D-01-0.158D+00-0.262D+00
 Coeff-Com:  0.136D+01
 Coeff:     -0.228D-03 0.850D-03 0.635D-02 0.542D-01-0.158D+00-0.262D+00
 Coeff:      0.136D+01
 Gap=     0.327 Goal=   None    Shift=    0.000
 RMSDP=5.28D-06 MaxDP=1.84D-04 DE=-5.53D-06 OVMax= 5.36D-04

 Cycle   8  Pass 1  IDiag  1:
 E= -3107.47950568377     Delta-E=       -0.000000695586 Rises=F Damp=F
 DIIS: error= 8.99D-06 at cycle   8 NSaved=   8.
 NSaved= 8 IEnMin= 8 EnMin= -3107.47950568377     IErMin= 8 ErrMin= 8.99D-06
 ErrMax= 8.99D-06  0.00D+00 EMaxC= 1.00D-01 BMatC= 9.61D-09 BMatP= 1.78D-07
 IDIUse=1 WtCom= 1.00D+00 WtEn= 0.00D+00
 Coeff-Com:  0.182D-04-0.540D-03-0.122D-02-0.436D-02 0.313D-01 0.109D-01
 Coeff-Com: -0.341D+00 0.131D+01
 Coeff:      0.182D-04-0.540D-03-0.122D-02-0.436D-02 0.313D-01 0.109D-01
 Coeff:     -0.341D+00 0.131D+01
 Gap=     0.327 Goal=   None    Shift=    0.000
 RMSDP=1.30D-06 MaxDP=2.95D-05 DE=-6.96D-07 OVMax= 1.50D-04

 Cycle   9  Pass 1  IDiag  1:
 E= -3107.47950572395     Delta-E=       -0.000000040182 Rises=F Damp=F
 DIIS: error= 3.22D-06 at cycle   9 NSaved=   9.
 NSaved= 9 IEnMin= 9 EnMin= -3107.47950572395     IErMin= 9 ErrMin= 3.22D-06
 ErrMax= 3.22D-06  0.00D+00 EMaxC= 1.00D-01 BMatC= 1.22D-09 BMatP= 9.61D-09
 IDIUse=1 WtCom= 1.00D+00 WtEn= 0.00D+00
 Coeff-Com:  0.110D-04 0.339D-04-0.176D-03-0.253D-02 0.408D-02 0.174D-01
 Coeff-Com: -0.212D-01-0.342D+00 0.134D+01
 Coeff:      0.110D-04 0.339D-04-0.176D-03-0.253D-02 0.408D-02 0.174D-01
 Coeff:     -0.212D-01-0.342D+00 0.134D+01
 Gap=     0.327 Goal=   None    Shift=    0.000
 RMSDP=4.99D-07 MaxDP=1.38D-05 DE=-4.02D-08 OVMax= 6.46D-05

 Cycle  10  Pass 1  IDiag  1:
 E= -3107.47950573000     Delta-E=       -0.000000006048 Rises=F Damp=F
 DIIS: error= 1.47D-06 at cycle  10 NSaved=  10.
 NSaved=10 IEnMin=10 EnMin= -3107.47950573000     IErMin=10 ErrMin= 1.47D-06
 ErrMax= 1.47D-06  0.00D+00 EMaxC= 1.00D-01 BMatC= 2.14D-10 BMatP= 1.22D-09
 IDIUse=1 WtCom= 1.00D+00 WtEn= 0.00D+00
 Coeff-Com: -0.387D-05 0.120D-03 0.237D-03 0.612D-03-0.612D-02-0.178D-03
 Coeff-Com:  0.589D-01-0.215D+00-0.106D+00 0.127D+01
 Coeff:     -0.387D-05 0.120D-03 0.237D-03 0.612D-03-0.612D-02-0.178D-03
 Coeff:      0.589D-01-0.215D+00-0.106D+00 0.127D+01
 Gap=     0.327 Goal=   None    Shift=    0.000
 RMSDP=2.45D-07 MaxDP=7.27D-06 DE=-6.05D-09 OVMax= 3.08D-05

 Cycle  11  Pass 1  IDiag  1:
 E= -3107.47950573105     Delta-E=       -0.000000001054 Rises=F Damp=F
 DIIS: error= 4.23D-07 at cycle  11 NSaved=  11.
 NSaved=11 IEnMin=11 EnMin= -3107.47950573105     IErMin=11 ErrMin= 4.23D-07
 ErrMax= 4.23D-07  0.00D+00 EMaxC= 1.00D-01 BMatC= 1.64D-11 BMatP= 2.14D-10
 IDIUse=1 WtCom= 1.00D+00 WtEn= 0.00D+00
 Coeff-Com: -0.993D-06-0.286D-04-0.147D-04 0.460D-03 0.473D-04-0.279D-02
 Coeff-Com: -0.323D-02 0.674D-01-0.130D+00-0.219D+00 0.129D+01
 Coeff:     -0.993D-06-0.286D-04-0.147D-04 0.460D-03 0.473D-04-0.279D-02
 Coeff:     -0.323D-02 0.674D-01-0.130D+00-0.219D+00 0.129D+01
 Gap=     0.327 Goal=   None    Shift=    0.000
 RMSDP=6.79D-08 MaxDP=2.17D-06 DE=-1.05D-09 OVMax= 8.18D-06

 Cycle  12  Pass 1  IDiag  1:
 E= -3107.47950573113     Delta-E=       -0.000000000079 Rises=F Damp=F
 DIIS: error= 7.95D-08 at cycle  12 NSaved=  12.
 NSaved=12 IEnMin=12 EnMin= -3107.47950573113     IErMin=12 ErrMin= 7.95D-08
 ErrMax= 7.95D-08  0.00D+00 EMaxC= 1.00D-01 BMatC= 1.02D-12 BMatP= 1.64D-11
 IDIUse=1 WtCom= 1.00D+00 WtEn= 0.00D+00
 Coeff-Com:  0.131D-06-0.788D-05-0.171D-04-0.448D-04 0.452D-03 0.333D-04
 Coeff-Com: -0.485D-02 0.197D-01 0.120D-02-0.112D+00 0.123D+00 0.972D+00
 Coeff:      0.131D-06-0.788D-05-0.171D-04-0.448D-04 0.452D-03 0.333D-04
 Coeff:     -0.485D-02 0.197D-01 0.120D-02-0.112D+00 0.123D+00 0.972D+00
 Gap=     0.327 Goal=   None    Shift=    0.000
 RMSDP=1.09D-08 MaxDP=3.04D-07 DE=-7.91D-11 OVMax= 1.05D-06

 Cycle  13  Pass 1  IDiag  1:
 E= -3107.47950573113     Delta-E=        0.000000000005 Rises=F Damp=F
 DIIS: error= 1.84D-08 at cycle  13 NSaved=  13.
 NSaved=13 IEnMin=12 EnMin= -3107.47950573113     IErMin=13 ErrMin= 1.84D-08
 ErrMax= 1.84D-08  0.00D+00 EMaxC= 1.00D-01 BMatC= 8.67D-14 BMatP= 1.02D-12
 IDIUse=1 WtCom= 1.00D+00 WtEn= 0.00D+00
 Coeff-Com:  0.764D-07 0.228D-05 0.206D-05-0.231D-04-0.404D-04 0.115D-03
 Coeff-Com:  0.914D-03-0.748D-02 0.117D-01 0.259D-01-0.127D+00-0.345D-01
 Coeff-Com:  0.113D+01
 Coeff:      0.764D-07 0.228D-05 0.206D-05-0.231D-04-0.404D-04 0.115D-03
 Coeff:      0.914D-03-0.748D-02 0.117D-01 0.259D-01-0.127D+00-0.345D-01
 Coeff:      0.113D+01
 Gap=     0.327 Goal=   None    Shift=    0.000
 RMSDP=3.93D-09 MaxDP=9.03D-08 DE= 5.46D-12 OVMax= 3.11D-07

 SCF Done:  E(RHF) =  -3107.47950573     A.U. after   13 cycles
            NFock= 13  Conv=0.39D-08     -V/T= 2.0000
 KE= 3.107431980670D+03 PE=-7.823614895228D+03 EE= 1.418191377603D+03
 Leave Link  502 at Tue Oct 12 14:23:47 2021, MaxMem=  1048576000 cpu:        19.3
 (Enter /usr/local/gaussian/g09/l801.exe)
 ExpMin= 2.53D-02 ExpMax= 1.06D+07 ExpMxC= 1.21D+04 IAcc=3 IRadAn=         5 AccDes= 0.00D+00
 HarFok:  IExCor=  205 AccDes= 0.00D+00 IRadAn=         5 IDoV=-2 UseB2=F ITyADJ=14
 ICtDFT= 12500011 ScaDFX=  1.000000  1.000000  1.000000  1.000000
 Largest valence mixing into a core orbital is  4.48D-04
 Largest core mixing into a valence orbital is  1.59D-04
 Range of M.O.s used for correlation:    16   178
 NBasis=   178 NAE=    31 NBE=    31 NFC=    15 NFV=     0
 NROrb=    163 NOA=    16 NOB=    16 NVA=   147 NVB=   147

 **** Warning!!: The largest alpha MO coefficient is  0.18682783D+02

 Leave Link  801 at Tue Oct 12 14:23:47 2021, MaxMem=  1048576000 cpu:         0.7
 (Enter /usr/local/gaussian/g09/l906.exe)
 Frozen-core derivative calculation, NFC=  15 NFV=   0.
 FulOut=F Deriv=T AODrv=F NAtomX=     4
   MMem=         227  MDisk=          16 MDiskD=          16
  W3Min=     1147744 MinDsk=     1765480 NBas6D=         208
 NBas2D=       22240    NTT=       21736    LW2=     9911920
    MDV=  1048101777 MDiskM=       25146 NBas2p=       22041
 Fully in-core method, ICMem=   526646768.
 IMap=   1   2   3   4   5   6   7   8   9  10  11  12  13  14  15  16  17  18  19  20
 IMap=  21  22  23  24  25  26  27  28  29  30  31
 JobTyp=1 Pass  1 fully in-core, NPsUse= 12.
 Compute canonical integrals.
 FoFCou: FMM=F IPFlag=           0 FMFlag=           0 FMFlg1=           0
         NFxFlg=           0 DoJE=F BraDBF=F KetDBF=F FulRan=T
         wScrn=  0.000000 ICntrl=     600 IOpCl=  1 I1Cent=           0 NGrid=           0
         NMat0=    1 NMatS0=  22240 NMatT0=    0 NMatD0=    1 NMtDS0=    0 NMtDT0=    0
 Symmetry not used in FoFCou.
 Spin components of T(2) and E(2):
     alpha-alpha T2 =       0.2990335865D-01 E2=     -0.9354546184D-01
     alpha-beta  T2 =       0.1596288291D+00 E2=     -0.5131891234D+00
     beta-beta   T2 =       0.2990335865D-01 E2=     -0.9354546184D-01
 The integrals were generated   1 times.
 ANorm=    0.1104280556D+01
 E2 =    -0.7002800471D+00 EUMP2 =    -0.31081797857782D+04
 Leave Link  906 at Tue Oct 12 14:23:55 2021, MaxMem=  1048576000 cpu:        97.6
 (Enter /usr/local/gaussian/g09/l1002.exe)
 Minotr:  Closed shell wavefunction.
          Computing MP2/KS-MP2 derivatives.
          Using Z-Vector for PSCF gradient.
          Skipping F1 and S1 gradient terms here.
          Frozen-core window.
          Direct CPHF calculation.
          Differentiating once with respect to electric field.
                with respect to dipole field.
          Electric field/nuclear overlap derivatives assumed to be zero.
          Requested convergence is 1.0D-10 RMS, and 1.0D-09 maximum.
          NewPWx=F KeepS1=T KeepF1=T KeepIn=T MapXYZ=F SortEE=F KeepMc=T.
          MDV=    1048575801 using IRadAn=       0.
 Keep R1 ints in memory in canonical form, NReq=131472178.
 FoFCou: FMM=F IPFlag=           0 FMFlag=           0 FMFlg1=           0
         NFxFlg=           0 DoJE=F BraDBF=F KetDBF=F FulRan=T
         wScrn=  0.000000 ICntrl=     600 IOpCl=  0 I1Cent=           0 NGrid=           0
         NMat0=    1 NMatS0=  15931 NMatT0=    0 NMatD0=    1 NMtDS0=    0 NMtDT0=    0
 Symmetry not used in FoFCou.
          Solving linear equations separately, MaxMat=       0.
          There are     1 degrees of freedom in the 1st order CPHF.  IDoFFX=0 NUNeed=     1.
 LinEq1:  Iter=  0 NonCon=     1 RMS=2.57D-03 Max=4.40D-02 NDo=     1
 AX will form     1 AO Fock derivatives at one time.
 LinEq1:  Iter=  1 NonCon=     1 RMS=4.03D-04 Max=4.51D-03 NDo=     1
 LinEq1:  Iter=  2 NonCon=     1 RMS=1.87D-04 Max=3.79D-03 NDo=     1
 LinEq1:  Iter=  3 NonCon=     1 RMS=5.86D-05 Max=9.13D-04 NDo=     1
 LinEq1:  Iter=  4 NonCon=     1 RMS=2.35D-05 Max=8.37D-04 NDo=     1
 LinEq1:  Iter=  5 NonCon=     1 RMS=8.80D-06 Max=1.41D-04 NDo=     1
 LinEq1:  Iter=  6 NonCon=     1 RMS=1.89D-06 Max=2.47D-05 NDo=     1
 LinEq1:  Iter=  7 NonCon=     1 RMS=4.52D-07 Max=7.27D-06 NDo=     1
 LinEq1:  Iter=  8 NonCon=     1 RMS=1.22D-07 Max=1.83D-06 NDo=     1
 LinEq1:  Iter=  9 NonCon=     1 RMS=2.71D-08 Max=5.57D-07 NDo=     1
 LinEq1:  Iter= 10 NonCon=     1 RMS=7.06D-09 Max=1.99D-07 NDo=     1
 LinEq1:  Iter= 11 NonCon=     1 RMS=1.79D-09 Max=4.76D-08 NDo=     1
 LinEq1:  Iter= 12 NonCon=     1 RMS=3.91D-10 Max=6.34D-09 NDo=     1
 LinEq1:  Iter= 13 NonCon=     1 RMS=1.15D-10 Max=1.60D-09 NDo=     1
 LinEq1:  Iter= 14 NonCon=     0 RMS=2.43D-11 Max=3.95D-10 NDo=     1
 Linear equations converged to 1.000D-10 1.000D-09 after    14 iterations.
 End of Minotr F.D. properties file   721 does not exist.
 End of Minotr F.D. properties file   722 does not exist.
 End of Minotr F.D. properties file   788 does not exist.
 Leave Link 1002 at Tue Oct 12 14:23:59 2021, MaxMem=  1048576000 cpu:        18.6
 (Enter /usr/local/gaussian/g09/l601.exe)
 Copying SCF densities to generalized density rwf, IOpCl= 0 IROHF=0.

 **********************************************************************

            Population analysis using the MP2 density.

 **********************************************************************

 Alpha  occ. eigenvalues -- -489.75111-104.73674 -64.89148 -58.24597 -58.24595
 Alpha  occ. eigenvalues --  -58.24594 -20.46444 -10.45617  -9.56402  -7.92335
 Alpha  occ. eigenvalues --   -7.92065  -7.92055  -7.17174  -7.17133  -7.17131
 Alpha  occ. eigenvalues --   -2.91340  -2.91321  -2.91319  -2.91277  -2.91277
 Alpha  occ. eigenvalues --   -1.24708  -0.90576  -0.72607  -0.55836  -0.44931
 Alpha  occ. eigenvalues --   -0.44130  -0.31418  -0.28664  -0.18142  -0.17196
 Alpha  occ. eigenvalues --   -0.17193
 Alpha virt. eigenvalues --    0.15520   0.17945   0.21627   0.22739   0.24137
 Alpha virt. eigenvalues --    0.24691   0.25047   0.28293   0.30213   0.31457
 Alpha virt. eigenvalues --    0.32195   0.32572   0.35839   0.43301   0.43684
 Alpha virt. eigenvalues --    0.47116   0.48310   0.48765   0.50880   0.54183
 Alpha virt. eigenvalues --    0.54315   0.56764   0.59144   0.59937   0.60737
 Alpha virt. eigenvalues --    0.60910   0.65326   0.70657   0.73955   0.74798
 Alpha virt. eigenvalues --    0.75514   0.77356   0.78713   0.85198   0.88539
 Alpha virt. eigenvalues --    0.89243   0.91757   0.94194   0.99687   1.00583
 Alpha virt. eigenvalues --    1.00668   1.00978   1.02486   1.03793   1.06816
 Alpha virt. eigenvalues --    1.07059   1.09141   1.10442   1.11679   1.12892
 Alpha virt. eigenvalues --    1.14777   1.17949   1.18504   1.20210   1.21859
 Alpha virt. eigenvalues --    1.23488   1.27726   1.29269   1.33199   1.33460
 Alpha virt. eigenvalues --    1.37189   1.38512   1.46967   1.50501   1.52350
 Alpha virt. eigenvalues --    1.56655   1.58437   1.63312   1.66248   1.69773
 Alpha virt. eigenvalues --    1.70544   1.75979   1.78787   1.82187   1.91128
 Alpha virt. eigenvalues --    1.96637   2.14227   2.37249   2.40743   2.42045
 Alpha virt. eigenvalues --    2.43203   2.47365   2.50387   2.51048   2.53033
 Alpha virt. eigenvalues --    2.53545   2.55256   2.55522   2.55601   2.56833
 Alpha virt. eigenvalues --    2.57326   2.60812   2.63552   2.65517   2.66150
 Alpha virt. eigenvalues --    2.68001   2.68057   2.70238   2.71683   2.73261
 Alpha virt. eigenvalues --    2.73560   2.75779   2.79233   2.80664   2.80898
 Alpha virt. eigenvalues --    2.88091   3.01015   3.07378   3.09170   3.16489
 Alpha virt. eigenvalues --    3.19680   3.21246   3.25395   3.29003   3.31131
 Alpha virt. eigenvalues --    3.33275   3.53111   3.54453   3.57195   3.95069
 Alpha virt. eigenvalues --    4.20973   4.35982   4.47053   4.60454   4.61673
 Alpha virt. eigenvalues --    4.78694   4.97083   5.05684   5.25624   5.51679
 Alpha virt. eigenvalues --    5.55785   5.78808   6.39194   6.58744   6.85659
 Alpha virt. eigenvalues --    6.90283   6.91118   7.00490   7.33340   7.41080
 Alpha virt. eigenvalues --    7.45418   7.46927   7.54246   7.85239   7.85705
 Alpha virt. eigenvalues --    8.45000  15.97310
          Condensed to atoms (all electrons):
               1          2          3          4
     1  O    8.626585  -0.109693  -0.086272   0.019123
     2  Cl  -0.109693  17.054035   0.002577  -0.005975
     3  Br  -0.086272   0.002577  35.914388   0.046567
     4  H    0.019123  -0.005975   0.046567   0.672340
 Mulliken charges:
               1
     1  O   -0.449742
     2  Cl   0.059056
     3  Br  -0.877260
     4  H    0.267946
 Sum of Mulliken charges =  -1.00000
 Mulliken charges with hydrogens summed into heavy atoms:
               1
     1  O   -0.181796
     2  Cl   0.059056
     3  Br  -0.877260
 Electronic spatial extent (au):  <R**2>=           1480.3911
 Charge=             -1.0000 electrons
 Dipole moment (field-independent basis, Debye):
    X=              1.9955    Y=             10.7743    Z=             -0.0000  Tot=             10.9575
 Quadrupole moment (field-independent basis, Debye-Ang):
   XX=            -45.3197   YY=            -78.2948   ZZ=            -43.1942
   XY=             -8.7752   XZ=             -0.0000   YZ=              0.0000
 Traceless Quadrupole moment (field-independent basis, Debye-Ang):
   XX=             10.2832   YY=            -22.6919   ZZ=             12.4088
   XY=             -8.7752   XZ=             -0.0000   YZ=              0.0000
 Octapole moment (field-independent basis, Debye-Ang**2):
  XXX=            -12.8546  YYY=            314.6924  ZZZ=             -0.0000  XYY=             19.5557
  XXY=             75.3992  XXZ=             -0.0000  XZZ=             -6.2345  YZZ=             69.6042
  YYZ=             -0.0000  XYZ=              0.0000
 Hexadecapole moment (field-independent basis, Debye-Ang**3):
 XXXX=           -339.8896 YYYY=          -1610.8211 ZZZZ=            -62.3169 XXXY=           -153.9495
 XXXZ=             -0.0000 YYYX=           -223.2886 YYYZ=             -0.0000 ZZZX=             -0.0000
 ZZZY=              0.0000 XXYY=           -296.3249 XXZZ=            -71.9409 YYZZ=           -228.0471
 XXYZ=              0.0000 YYXZ=             -0.0000 ZZXY=            -49.8257
 N-N= 1.905120312246D+02 E-N=-7.822185625989D+03  KE= 3.107451388674D+03
 No NMR shielding tensors so no spin-rotation constants.
 Leave Link  601 at Tue Oct 12 14:23:59 2021, MaxMem=  1048576000 cpu:         2.3
 (Enter /usr/local/gaussian/g09/l607.exe)
 ******************************Gaussian NBO Version 3.1******************************
             N A T U R A L   A T O M I C   O R B I T A L   A N D
          N A T U R A L   B O N D   O R B I T A L   A N A L Y S I S
 ******************************Gaussian NBO Version 3.1******************************
       /RESON  / : Allow strongly delocalized NBO set

 Analyzing the MP2 density

 Job title: title                                                           

 Storage needed:     95974 in NPA,    127345 in NBO (1048575896 available)


 NATURAL POPULATIONS:  Natural atomic orbital occupancies 
                                                          
   NAO  Atom  No  lang   Type(AO)    Occupancy
 --------------------------------------------
     1    O    1  S      Cor( 1S)     1.99964
     2    O    1  S      Val( 2S)     1.77118
     3    O    1  S      Ryd( 3S)     0.00944
     4    O    1  S      Ryd( 4S)     0.00111
     5    O    1  S      Ryd( 5S)     0.00019
     6    O    1  px     Val( 2p)     1.21066
     7    O    1  px     Ryd( 3p)     0.00646
     8    O    1  px     Ryd( 4p)     0.00062
     9    O    1  px     Ryd( 5p)     0.00034
    10    O    1  py     Val( 2p)     1.70412
    11    O    1  py     Ryd( 3p)     0.01191
    12    O    1  py     Ryd( 4p)     0.00077
    13    O    1  py     Ryd( 5p)     0.00043
    14    O    1  pz     Val( 2p)     1.94798
    15    O    1  pz     Ryd( 3p)     0.01974
    16    O    1  pz     Ryd( 4p)     0.00069
    17    O    1  pz     Ryd( 5p)     0.00014
    18    O    1  dxy    Ryd( 3d)     0.00872
    19    O    1  dxy    Ryd( 4d)     0.00045
    20    O    1  dxy    Ryd( 5d)     0.00015
    21    O    1  dxz    Ryd( 3d)     0.00861
    22    O    1  dxz    Ryd( 4d)     0.00055
    23    O    1  dxz    Ryd( 5d)     0.00010
    24    O    1  dyz    Ryd( 3d)     0.00778
    25    O    1  dyz    Ryd( 4d)     0.00059
    26    O    1  dyz    Ryd( 5d)     0.00038
    27    O    1  dx2y2  Ryd( 3d)     0.01354
    28    O    1  dx2y2  Ryd( 4d)     0.00032
    29    O    1  dx2y2  Ryd( 5d)     0.00018
    30    O    1  dz2    Ryd( 3d)     0.00985
    31    O    1  dz2    Ryd( 4d)     0.00053
    32    O    1  dz2    Ryd( 5d)     0.00014
    33    O    1  f(0)   Ryd( 4f)     0.00072
    34    O    1  f(0)   Ryd( 5f)     0.00010
    35    O    1  f(C1)  Ryd( 4f)     0.00067
    36    O    1  f(C1)  Ryd( 5f)     0.00011
    37    O    1  f(S1)  Ryd( 4f)     0.00056
    38    O    1  f(S1)  Ryd( 5f)     0.00011
    39    O    1  f(C2)  Ryd( 4f)     0.00058
    40    O    1  f(C2)  Ryd( 5f)     0.00012
    41    O    1  f(S2)  Ryd( 4f)     0.00053
    42    O    1  f(S2)  Ryd( 5f)     0.00012
    43    O    1  f(C3)  Ryd( 4f)     0.00056
    44    O    1  f(C3)  Ryd( 5f)     0.00014
    45    O    1  f(S3)  Ryd( 4f)     0.00053
    46    O    1  f(S3)  Ryd( 5f)     0.00014

    47   Cl    2  S      Cor( 1S)     2.00000
    48   Cl    2  S      Cor( 2S)     1.99980
    49   Cl    2  S      Val( 3S)     1.88328
    50   Cl    2  S      Ryd( 4S)     0.00776
    51   Cl    2  S      Ryd( 5S)     0.00052
    52   Cl    2  S      Ryd( 6S)     0.00016
    53   Cl    2  px     Cor( 2p)     1.99996
    54   Cl    2  px     Val( 3p)     0.90293
    55   Cl    2  px     Ryd( 4p)     0.00646
    56   Cl    2  px     Ryd( 5p)     0.00052
    57   Cl    2  px     Ryd( 6p)     0.00020
    58   Cl    2  py     Cor( 2p)     2.00003
    59   Cl    2  py     Val( 3p)     1.95335
    60   Cl    2  py     Ryd( 4p)     0.00973
    61   Cl    2  py     Ryd( 5p)     0.00051
    62   Cl    2  py     Ryd( 6p)     0.00009
    63   Cl    2  pz     Cor( 2p)     2.00003
    64   Cl    2  pz     Val( 3p)     1.95464
    65   Cl    2  pz     Ryd( 4p)     0.01047
    66   Cl    2  pz     Ryd( 5p)     0.00068
    67   Cl    2  pz     Ryd( 6p)     0.00003
    68   Cl    2  dxy    Ryd( 3d)     0.01647
    69   Cl    2  dxy    Ryd( 4d)     0.00078
    70   Cl    2  dxy    Ryd( 5d)     0.00032
    71   Cl    2  dxz    Ryd( 3d)     0.02138
    72   Cl    2  dxz    Ryd( 4d)     0.00106
    73   Cl    2  dxz    Ryd( 5d)     0.00036
    74   Cl    2  dyz    Ryd( 3d)     0.01676
    75   Cl    2  dyz    Ryd( 4d)     0.00073
    76   Cl    2  dyz    Ryd( 5d)     0.00019
    77   Cl    2  dx2y2  Ryd( 3d)     0.01858
    78   Cl    2  dx2y2  Ryd( 4d)     0.00047
    79   Cl    2  dx2y2  Ryd( 5d)     0.00016
    80   Cl    2  dz2    Ryd( 3d)     0.01750
    81   Cl    2  dz2    Ryd( 4d)     0.00060
    82   Cl    2  dz2    Ryd( 5d)     0.00015
    83   Cl    2  f(0)   Ryd( 4f)     0.00131
    84   Cl    2  f(0)   Ryd( 5f)     0.00013
    85   Cl    2  f(C1)  Ryd( 4f)     0.00143
    86   Cl    2  f(C1)  Ryd( 5f)     0.00014
    87   Cl    2  f(S1)  Ryd( 4f)     0.00127
    88   Cl    2  f(S1)  Ryd( 5f)     0.00013
    89   Cl    2  f(C2)  Ryd( 4f)     0.00134
    90   Cl    2  f(C2)  Ryd( 5f)     0.00013
    91   Cl    2  f(S2)  Ryd( 4f)     0.00120
    92   Cl    2  f(S2)  Ryd( 5f)     0.00013
    93   Cl    2  f(C3)  Ryd( 4f)     0.00154
    94   Cl    2  f(C3)  Ryd( 5f)     0.00013
    95   Cl    2  f(S3)  Ryd( 4f)     0.00126
    96   Cl    2  f(S3)  Ryd( 5f)     0.00014

    97   Br    3  S      Cor( 1S)     2.00000
    98   Br    3  S      Cor( 2S)     2.00000
    99   Br    3  S      Cor( 3S)     1.99990
   100   Br    3  S      Val( 4S)     1.97059
   101   Br    3  S      Ryd( 5S)     0.00193
   102   Br    3  S      Ryd( 6S)     0.00045
   103   Br    3  S      Ryd( 7S)     0.00015
   104   Br    3  px     Cor( 3p)     2.00000
   105   Br    3  px     Cor( 2p)     2.00001
   106   Br    3  px     Val( 4p)     1.94934
   107   Br    3  px     Ryd( 5p)     0.01115
   108   Br    3  px     Ryd( 6p)     0.00081
   109   Br    3  px     Ryd( 7p)     0.00009
   110   Br    3  py     Cor( 2p)     2.00000
   111   Br    3  py     Cor( 3p)     1.99994
   112   Br    3  py     Val( 4p)     1.88010
   113   Br    3  py     Ryd( 5p)     0.00972
   114   Br    3  py     Ryd( 6p)     0.00076
   115   Br    3  py     Ryd( 7p)     0.00011
   116   Br    3  pz     Cor( 3p)     2.00000
   117   Br    3  pz     Cor( 2p)     2.00001
   118   Br    3  pz     Val( 4p)     1.95380
   119   Br    3  pz     Ryd( 5p)     0.01130
   120   Br    3  pz     Ryd( 6p)     0.00082
   121   Br    3  pz     Ryd( 7p)     0.00009
   122   Br    3  dxy    Cor( 3d)     1.99765
   123   Br    3  dxy    Ryd( 4d)     0.01881
   124   Br    3  dxy    Ryd( 5d)     0.00145
   125   Br    3  dxy    Ryd( 6d)     0.00021
   126   Br    3  dxz    Cor( 3d)     1.99768
   127   Br    3  dxz    Ryd( 4d)     0.01866
   128   Br    3  dxz    Ryd( 5d)     0.00175
   129   Br    3  dxz    Ryd( 6d)     0.00025
   130   Br    3  dyz    Cor( 3d)     1.99766
   131   Br    3  dyz    Ryd( 4d)     0.01896
   132   Br    3  dyz    Ryd( 5d)     0.00147
   133   Br    3  dyz    Ryd( 6d)     0.00020
   134   Br    3  dx2y2  Cor( 3d)     1.99763
   135   Br    3  dx2y2  Ryd( 4d)     0.01850
   136   Br    3  dx2y2  Ryd( 5d)     0.00159
   137   Br    3  dx2y2  Ryd( 6d)     0.00024
   138   Br    3  dz2    Cor( 3d)     1.99767
   139   Br    3  dz2    Ryd( 4d)     0.01857
   140   Br    3  dz2    Ryd( 5d)     0.00172
   141   Br    3  dz2    Ryd( 6d)     0.00022
   142   Br    3  f(0)   Ryd( 4f)     0.00173
   143   Br    3  f(0)   Ryd( 5f)     0.00026
   144   Br    3  f(C1)  Ryd( 4f)     0.00175
   145   Br    3  f(C1)  Ryd( 5f)     0.00025
   146   Br    3  f(S1)  Ryd( 4f)     0.00175
   147   Br    3  f(S1)  Ryd( 5f)     0.00027
   148   Br    3  f(C2)  Ryd( 4f)     0.00172
   149   Br    3  f(C2)  Ryd( 5f)     0.00026
   150   Br    3  f(S2)  Ryd( 4f)     0.00176
   151   Br    3  f(S2)  Ryd( 5f)     0.00026
   152   Br    3  f(C3)  Ryd( 4f)     0.00171
   153   Br    3  f(C3)  Ryd( 5f)     0.00027
   154   Br    3  f(S3)  Ryd( 4f)     0.00172
   155   Br    3  f(S3)  Ryd( 5f)     0.00027

   156    H    4  S      Val( 1S)     0.49601
   157    H    4  S      Ryd( 2S)     0.00927
   158    H    4  S      Ryd( 3S)     0.00026
   159    H    4  S      Ryd( 4S)     0.00013
   160    H    4  px     Ryd( 2p)     0.00404
   161    H    4  px     Ryd( 3p)     0.00051
   162    H    4  px     Ryd( 4p)     0.00012
   163    H    4  py     Ryd( 2p)     0.00527
   164    H    4  py     Ryd( 3p)     0.00084
   165    H    4  py     Ryd( 4p)     0.00039
   166    H    4  pz     Ryd( 2p)     0.00542
   167    H    4  pz     Ryd( 3p)     0.00040
   168    H    4  pz     Ryd( 4p)     0.00024
   169    H    4  dxy    Ryd( 3d)     0.00028
   170    H    4  dxy    Ryd( 4d)     0.00012
   171    H    4  dxz    Ryd( 3d)     0.00023
   172    H    4  dxz    Ryd( 4d)     0.00007
   173    H    4  dyz    Ryd( 3d)     0.00044
   174    H    4  dyz    Ryd( 4d)     0.00011
   175    H    4  dx2y2  Ryd( 3d)     0.00020
   176    H    4  dx2y2  Ryd( 4d)     0.00012
   177    H    4  dz2    Ryd( 3d)     0.00024
   178    H    4  dz2    Ryd( 4d)     0.00010

 WARNING:  5 low occupancy (<1.9990e) core orbitals found on Br    3


 Summary of Natural Population Analysis:                  
                                                          
                                       Natural Population 
                Natural  -----------------------------------------------
    Atom  No    Charge         Core      Valence    Rydberg      Total
 -----------------------------------------------------------------------
      O    1   -0.74228      1.99964     6.63393    0.10871     8.74228
     Cl    2    0.16303      9.99982     6.69420    0.14294    16.83697
     Br    3   -0.89593     27.98817     7.75383    0.15393    35.89593
      H    4    0.47518      0.00000     0.49601    0.02881     0.52482
 =======================================================================
   * Total *   -1.00000     39.98763    21.57798    0.43439    62.00000

                                 Natural Population      
 --------------------------------------------------------
   Core                      39.98763 ( 99.9691% of  40)
   Valence                   21.57798 ( 98.0817% of  22)
   Natural Minimal Basis     61.56561 ( 99.2994% of  62)
   Natural Rydberg Basis      0.43439 (  0.7006% of  62)
 --------------------------------------------------------

    Atom  No          Natural Electron Configuration
 ----------------------------------------------------------------------------
      O    1      [core]2S( 1.77)2p( 4.86)3S( 0.01)3p( 0.04)3d( 0.05)
     Cl    2      [core]3S( 1.88)3p( 4.81)4S( 0.01)3d( 0.09)4p( 0.03)4f( 0.01)
     Br    3      [core]4S( 1.97)4p( 5.78)4d( 0.09)5p( 0.03)4f( 0.01)5d( 0.01)
      H    4            1S( 0.50)2S( 0.01)2p( 0.01)


 NATURAL BOND ORBITAL ANALYSIS:

                       Occupancies       Lewis Structure    Low   High
           Occ.    -------------------  -----------------   occ   occ
  Cycle   Thresh.   Lewis   Non-Lewis     CR  BD  3C  LP    (L)   (NL)   Dev
 =============================================================================
   1(1)    1.90    61.45511   0.54489     20   2   0   9     1      0    0.12
   2(2)    1.90    61.45511   0.54489     20   2   0   9     1      0    0.12
   3(1)    1.80    61.45511   0.54489     20   2   0   9     0      0    0.12
   4(2)    1.80    61.45511   0.54489     20   2   0   9     0      0    0.12
   5(1)    1.70    61.45511   0.54489     20   2   0   9     0      0    0.12
   6(2)    1.70    61.45511   0.54489     20   2   0   9     0      0    0.12
   7(1)    1.60    61.45511   0.54489     20   2   0   9     0      0    0.12
   8(2)    1.60    61.45511   0.54489     20   2   0   9     0      0    0.12
   9(1)    1.50    61.05888   0.94112     20   1   0  10     0      1    0.59
  10(2)    1.50    61.05888   0.94112     20   1   0  10     0      1    0.59
  11(1)    1.90    61.45511   0.54489     20   2   0   9     1      0    0.12
 -----------------------------------------------------------------------------

 Structure accepted: RESONANCE keyword permits strongly delocalized structure

 WARNING:  5 low occupancy (<1.9990e) core orbitals found on Br    3

 --------------------------------------------------------
   Core                     39.98763 ( 99.969% of  40)
   Valence Lewis            21.46748 ( 97.579% of  22)
  ==================       ============================
   Total Lewis              61.45511 ( 99.121% of  62)
  -----------------------------------------------------
   Valence non-Lewis         0.15676 (  0.253% of  62)
   Rydberg non-Lewis         0.38813 (  0.626% of  62)
  ==================       ============================
   Total non-Lewis           0.54489 (  0.879% of  62)
 --------------------------------------------------------


       (Occupancy)   Bond orbital/ Coefficients/ Hybrids
 ---------------------------------------------------------------------------------
     1. (1.94012) BD ( 1) O   1 -Cl   2  
                ( 59.10%)   0.7688* O   1 s( 10.62%)p 8.37( 88.86%)d 0.05(  0.51%)
                                                  f 0.00(  0.02%)
                                            0.0003  0.3230 -0.0407 -0.0141 -0.0005
                                            0.9414 -0.0288 -0.0104 -0.0104 -0.0209
                                           -0.0295 -0.0050 -0.0001  0.0000  0.0000
                                            0.0000  0.0000 -0.0233 -0.0016  0.0026
                                            0.0000  0.0000  0.0000  0.0000  0.0000
                                            0.0000  0.0522  0.0047  0.0025 -0.0422
                                           -0.0035  0.0007  0.0000  0.0000 -0.0115
                                            0.0012 -0.0003  0.0002  0.0000  0.0000
                                            0.0000  0.0000  0.0054  0.0007 -0.0004
                                            0.0023
                ( 40.90%)   0.6395*Cl   2 s(  8.41%)p10.74( 90.31%)d 0.14(  1.17%)
                                                  f 0.01(  0.11%)
                                           -0.0000  0.0005  0.2846 -0.0549 -0.0100
                                            0.0025 -0.0004 -0.9479  0.0655  0.0139
                                           -0.0043 -0.0000 -0.0106 -0.0016  0.0026
                                           -0.0008  0.0000  0.0000  0.0000  0.0000
                                            0.0000  0.0128  0.0000  0.0009  0.0000
                                            0.0000  0.0000  0.0000  0.0000  0.0000
                                            0.0903 -0.0103 -0.0001 -0.0572  0.0058
                                            0.0008  0.0000  0.0000  0.0209 -0.0032
                                            0.0005 -0.0002  0.0000  0.0000  0.0000
                                            0.0000 -0.0253  0.0028 -0.0012  0.0001
     2. (1.96754) BD ( 1) O   1 - H   4  
                ( 78.77%)   0.8875* O   1 s( 31.59%)p 2.15( 67.92%)d 0.02(  0.49%)
                                                  f 0.00(  0.01%)
                                           -0.0003 -0.5619  0.0091  0.0077 -0.0019
                                            0.2083 -0.0181 -0.0027 -0.0028  0.7970
                                           -0.0109 -0.0070 -0.0040  0.0000  0.0000
                                            0.0000  0.0000 -0.0016  0.0028  0.0000
                                            0.0000  0.0000  0.0000  0.0000  0.0000
                                            0.0000  0.0589  0.0048  0.0024  0.0370
                                            0.0010 -0.0027  0.0000  0.0000 -0.0016
                                           -0.0007 -0.0083 -0.0006  0.0000  0.0000
                                            0.0000  0.0000 -0.0018 -0.0026  0.0005
                                           -0.0026
                ( 21.23%)   0.4608* H   4 s( 99.85%)p 0.00(  0.15%)d 0.00(  0.00%)
                                           -0.9984 -0.0410 -0.0019  0.0010 -0.0110
                                           -0.0079 -0.0014  0.0166 -0.0300  0.0107
                                            0.0000  0.0000  0.0000  0.0004  0.0021
                                            0.0000  0.0000  0.0000  0.0000  0.0013
                                            0.0006 -0.0005  0.0031
     3. (1.99964) CR ( 1) O   1           s(100.00%)p 0.00(  0.00%)
                                            1.0000 -0.0004  0.0000  0.0000 -0.0000
                                           -0.0002  0.0000  0.0000  0.0000  0.0001
                                            0.0000 -0.0000 -0.0000  0.0000  0.0000
                                            0.0000  0.0000  0.0000  0.0000 -0.0000
                                            0.0000  0.0000  0.0000  0.0000  0.0000
                                            0.0000 -0.0000  0.0000  0.0000  0.0000
                                            0.0000 -0.0000  0.0000  0.0000  0.0000
                                           -0.0000 -0.0000 -0.0000  0.0000  0.0000
                                            0.0000  0.0000 -0.0000 -0.0000 -0.0000
                                           -0.0000
     4. (2.00000) CR ( 1)Cl   2           s(100.00%)
                                            1.0000  0.0000  0.0000 -0.0000 -0.0000
                                            0.0000 -0.0000 -0.0000  0.0000  0.0000
                                           -0.0000 -0.0000 -0.0000 -0.0000  0.0000
                                           -0.0000  0.0000  0.0000  0.0000  0.0000
                                            0.0000  0.0000 -0.0000  0.0000  0.0000
                                            0.0000  0.0000  0.0000  0.0000  0.0000
                                            0.0000 -0.0000  0.0000 -0.0000  0.0000
                                            0.0000  0.0000  0.0000  0.0000 -0.0000
                                            0.0000 -0.0000  0.0000  0.0000  0.0000
                                            0.0000 -0.0000  0.0000 -0.0000  0.0000
     5. (1.99980) CR ( 2)Cl   2           s(100.00%)p 0.00(  0.00%)
                                            0.0000  1.0000 -0.0004  0.0000  0.0000
                                           -0.0000  0.0000  0.0004 -0.0000 -0.0000
                                            0.0000  0.0000  0.0000  0.0000 -0.0000
                                            0.0000  0.0000  0.0000  0.0000  0.0000
                                            0.0000 -0.0000  0.0000 -0.0000  0.0000
                                            0.0000  0.0000  0.0000  0.0000  0.0000
                                           -0.0000  0.0000 -0.0000  0.0000 -0.0000
                                           -0.0000  0.0000  0.0000 -0.0000  0.0000
                                           -0.0000  0.0000  0.0000  0.0000  0.0000
                                            0.0000  0.0000 -0.0000  0.0000 -0.0000
     6. (1.99996) CR ( 3)Cl   2           s(  0.00%)p 1.00(100.00%)
                                           -0.0000  0.0000  0.0001 -0.0000 -0.0000
                                            0.0000  1.0000 -0.0004  0.0000  0.0000
                                           -0.0000  0.0000 -0.0000 -0.0000  0.0000
                                           -0.0000  0.0000  0.0000  0.0000  0.0000
                                            0.0000  0.0000 -0.0000  0.0000  0.0000
                                            0.0000  0.0000  0.0000  0.0000  0.0000
                                            0.0000 -0.0000  0.0000 -0.0000  0.0000
                                            0.0000  0.0000  0.0000  0.0000 -0.0000
                                            0.0000 -0.0000  0.0000  0.0000  0.0000
                                            0.0000 -0.0000  0.0000 -0.0000  0.0000
     7. (2.00003) CR ( 4)Cl   2           s(  0.00%)p 1.00(100.00%)
                                           -0.0000  0.0000  0.0000  0.0000  0.0000
                                            0.0000  0.0000 -0.0000  0.0000  0.0000
                                           -0.0000  1.0000  0.0002  0.0000  0.0000
                                            0.0000  0.0000  0.0000  0.0000  0.0000
                                            0.0000 -0.0000  0.0000  0.0000  0.0000
                                            0.0000  0.0000  0.0000  0.0000  0.0000
                                           -0.0000 -0.0000 -0.0000 -0.0000 -0.0000
                                           -0.0000  0.0000  0.0000  0.0000  0.0000
                                           -0.0000  0.0000  0.0000  0.0000  0.0000
                                            0.0000 -0.0000  0.0000  0.0000 -0.0000
     8. (2.00003) CR ( 5)Cl   2           s(  0.00%)p 1.00(100.00%)
                                            0.0000  0.0000  0.0000  0.0000  0.0000
                                            0.0000  0.0000  0.0000  0.0000  0.0000
                                            0.0000  0.0000  0.0000  0.0000  0.0000
                                            0.0000  1.0000  0.0002  0.0000  0.0000
                                           -0.0000  0.0000  0.0000  0.0000  0.0000
                                            0.0000  0.0000  0.0000  0.0000  0.0000
                                            0.0000  0.0000  0.0000  0.0000  0.0000
                                            0.0000 -0.0000  0.0000  0.0000  0.0000
                                            0.0000  0.0000  0.0000 -0.0000  0.0000
                                           -0.0000  0.0000  0.0000  0.0000  0.0000
     9. (2.00000) CR ( 1)Br   3           s(100.00%)
                                            1.0000 -0.0000  0.0000  0.0000 -0.0000
                                            0.0000  0.0000  0.0000 -0.0000 -0.0000
                                            0.0000 -0.0000 -0.0000  0.0000 -0.0000
                                           -0.0000  0.0000 -0.0000  0.0000  0.0000
                                            0.0000  0.0000  0.0000  0.0000  0.0000
                                           -0.0000 -0.0000 -0.0000 -0.0000  0.0000
                                            0.0000  0.0000  0.0000  0.0000  0.0000
                                            0.0000  0.0000  0.0000  0.0000  0.0000
                                            0.0000  0.0000  0.0000  0.0000  0.0000
                                            0.0000  0.0000 -0.0000 -0.0000 -0.0000
                                           -0.0000  0.0000  0.0000  0.0000  0.0000
                                           -0.0000 -0.0000 -0.0000 -0.0000
    10. (2.00000) CR ( 2)Br   3           s(100.00%)
                                           -0.0000  1.0000  0.0000  0.0000  0.0000
                                            0.0000 -0.0000 -0.0000  0.0000  0.0000
                                            0.0000  0.0000 -0.0000  0.0000 -0.0000
                                           -0.0000 -0.0000 -0.0000  0.0000  0.0000
                                            0.0000  0.0000  0.0000  0.0000  0.0000
                                           -0.0000  0.0000 -0.0000 -0.0000  0.0000
                                            0.0000  0.0000  0.0000  0.0000  0.0000
                                            0.0000  0.0000  0.0000  0.0000 -0.0000
                                           -0.0000  0.0000  0.0000  0.0000  0.0000
                                            0.0000  0.0000 -0.0000 -0.0000  0.0000
                                           -0.0000  0.0000  0.0000  0.0000  0.0000
                                           -0.0000 -0.0000  0.0000  0.0000
    11. (1.99990) CR ( 3)Br   3           s(100.00%)
                                            0.0000  0.0000  1.0000 -0.0002  0.0000
                                           -0.0000 -0.0000 -0.0000  0.0000  0.0000
                                           -0.0000  0.0000  0.0000 -0.0000  0.0000
                                            0.0000 -0.0000  0.0000 -0.0000  0.0000
                                            0.0000  0.0000  0.0000  0.0000  0.0000
                                            0.0000  0.0000 -0.0000  0.0000  0.0000
                                            0.0000  0.0000  0.0000  0.0000  0.0000
                                            0.0000  0.0000 -0.0000  0.0000 -0.0000
                                           -0.0000 -0.0000 -0.0000 -0.0000 -0.0000
                                            0.0000  0.0000  0.0000 -0.0000  0.0000
                                            0.0000  0.0000  0.0000  0.0000  0.0000
                                            0.0000  0.0000  0.0000  0.0000
    12. (2.00000) CR ( 4)Br   3           s(  0.00%)p 1.00(100.00%)
                                            0.0000 -0.0000 -0.0000 -0.0000  0.0000
                                           -0.0000 -0.0000  1.0000  0.0000  0.0000
                                            0.0000  0.0000 -0.0000  0.0000 -0.0000
                                           -0.0000 -0.0000 -0.0000  0.0000  0.0000
                                            0.0000  0.0000  0.0000  0.0000  0.0000
                                           -0.0000  0.0000 -0.0000 -0.0000  0.0000
                                            0.0000  0.0000  0.0000  0.0000  0.0000
                                            0.0000  0.0000 -0.0000  0.0000 -0.0000
                                           -0.0000 -0.0000  0.0000 -0.0000 -0.0000
                                            0.0000  0.0000 -0.0000 -0.0000  0.0000
                                            0.0000  0.0000  0.0000  0.0000  0.0000
                                           -0.0000 -0.0000  0.0000  0.0000
    13. (2.00001) CR ( 5)Br   3           s(  0.00%)p 1.00(100.00%)
                                           -0.0000  0.0000  0.0000  0.0000 -0.0000
                                            0.0000  0.0000  0.0000  1.0000 -0.0002
                                           -0.0000 -0.0000  0.0000 -0.0000  0.0000
                                            0.0000  0.0000  0.0000 -0.0000  0.0000
                                            0.0000  0.0000  0.0000  0.0000  0.0000
                                            0.0000 -0.0000  0.0000  0.0000  0.0000
                                            0.0000  0.0000  0.0000  0.0000  0.0000
                                            0.0000  0.0000  0.0000 -0.0000  0.0000
                                            0.0000  0.0000 -0.0000  0.0000  0.0000
                                            0.0000  0.0000  0.0000  0.0000 -0.0000
                                           -0.0000  0.0000  0.0000  0.0000  0.0000
                                            0.0000  0.0000 -0.0000 -0.0000
    14. (2.00000) CR ( 6)Br   3           s(  0.00%)p 1.00(100.00%)
                                            0.0000  0.0000 -0.0000 -0.0000  0.0000
                                           -0.0000 -0.0000  0.0000 -0.0000 -0.0000
                                           -0.0000 -0.0000  0.0000  1.0000  0.0000
                                            0.0000 -0.0000  0.0000 -0.0000  0.0000
                                            0.0000  0.0000  0.0000  0.0000  0.0000
                                            0.0000 -0.0000  0.0000  0.0000  0.0000
                                            0.0000  0.0000  0.0000  0.0000  0.0000
                                            0.0000  0.0000 -0.0000 -0.0000 -0.0000
                                            0.0000 -0.0000 -0.0000 -0.0000 -0.0000
                                            0.0000  0.0000  0.0000  0.0000  0.0000
                                            0.0000  0.0000  0.0000  0.0000  0.0000
                                            0.0000  0.0000 -0.0000 -0.0000
    15. (1.99994) CR ( 7)Br   3           s(  0.00%)p 1.00(100.00%)
                                           -0.0000 -0.0000  0.0000  0.0001 -0.0000
                                            0.0000  0.0000 -0.0000  0.0000  0.0000
                                            0.0000  0.0000 -0.0000  0.0000  1.0000
                                           -0.0000  0.0000 -0.0000  0.0000  0.0000
                                            0.0000  0.0000  0.0000  0.0000  0.0000
                                           -0.0000  0.0000 -0.0000 -0.0000  0.0000
                                            0.0000  0.0000  0.0000  0.0000  0.0000
                                            0.0000  0.0000  0.0000  0.0000  0.0000
                                           -0.0000  0.0000  0.0000  0.0000  0.0000
                                            0.0000  0.0000 -0.0000 -0.0000 -0.0000
                                           -0.0000  0.0000  0.0000  0.0000  0.0000
                                           -0.0000 -0.0000  0.0000  0.0000
    16. (2.00000) CR ( 8)Br   3           s(  0.00%)p 1.00(100.00%)
                                            0.0000  0.0000  0.0000  0.0000  0.0000
                                            0.0000  0.0000  0.0000  0.0000  0.0000
                                            0.0000  0.0000  0.0000  0.0000  0.0000
                                            0.0000  0.0000  0.0000  0.0000  1.0000
                                            0.0000  0.0000  0.0000  0.0000 -0.0000
                                            0.0000  0.0000  0.0000  0.0000 -0.0000
                                            0.0000 -0.0000 -0.0000 -0.0000  0.0000
                                           -0.0000 -0.0000  0.0000  0.0000  0.0000
                                            0.0000  0.0000  0.0000  0.0000  0.0000
                                           -0.0000 -0.0000  0.0000  0.0000  0.0000
                                            0.0000 -0.0000 -0.0000  0.0000  0.0000
                                            0.0000  0.0000  0.0000  0.0000
    17. (2.00001) CR ( 9)Br   3           s(  0.00%)p 1.00(100.00%)
                                            0.0000  0.0000  0.0000  0.0000  0.0000
                                            0.0000  0.0000  0.0000  0.0000  0.0000
                                            0.0000  0.0000  0.0000  0.0000  0.0000
                                            0.0000  0.0000  0.0000  0.0000  0.0000
                                            1.0000 -0.0002 -0.0000 -0.0000  0.0000
                                            0.0000  0.0000  0.0000  0.0000  0.0000
                                           -0.0000  0.0000  0.0000  0.0000 -0.0000
                                            0.0000  0.0000  0.0000  0.0000  0.0000
                                            0.0000  0.0000  0.0000  0.0000  0.0000
                                            0.0000  0.0000  0.0000  0.0000  0.0000
                                            0.0000  0.0000  0.0000 -0.0000 -0.0000
                                            0.0000  0.0000  0.0000  0.0000
    18. (1.99765) CR (10)Br   3           s(  0.00%)p 0.00(  0.00%)d 1.00(100.00%)
                                           -0.0000 -0.0000  0.0000  0.0000  0.0000
                                            0.0000 -0.0000 -0.0000  0.0000  0.0000
                                            0.0000  0.0000 -0.0000  0.0000 -0.0000
                                           -0.0000  0.0000 -0.0000  0.0000  0.0000
                                            0.0000  0.0000  0.0000  0.0000  0.0000
                                            1.0000  0.0000 -0.0000 -0.0000  0.0000
                                            0.0000  0.0000  0.0000  0.0000  0.0000
                                            0.0000  0.0000  0.0000  0.0000  0.0000
                                           -0.0000  0.0000  0.0000  0.0000  0.0000
                                            0.0000  0.0000 -0.0000 -0.0000 -0.0000
                                           -0.0000  0.0000  0.0000  0.0000  0.0000
                                           -0.0000 -0.0000  0.0000  0.0000
    19. (1.99768) CR (11)Br   3           s(  0.00%)p 0.00(  0.00%)d 1.00(100.00%)
                                            0.0000  0.0000  0.0000  0.0000  0.0000
                                            0.0000  0.0000  0.0000  0.0000  0.0000
                                            0.0000  0.0000  0.0000  0.0000  0.0000
                                            0.0000  0.0000  0.0000  0.0000 -0.0000
                                            0.0000  0.0000  0.0000  0.0000 -0.0000
                                            0.0000  0.0000  0.0000  0.0000  1.0000
                                            0.0000 -0.0000 -0.0000 -0.0000  0.0000
                                           -0.0000 -0.0000  0.0000  0.0000  0.0000
                                            0.0000  0.0000  0.0000  0.0000  0.0000
                                           -0.0000 -0.0000  0.0000  0.0000  0.0000
                                            0.0000 -0.0000 -0.0000  0.0000  0.0000
                                            0.0000  0.0000  0.0000  0.0000
    20. (1.99766) CR (12)Br   3           s(  0.00%)p 0.00(  0.00%)d 1.00(100.00%)
                                            0.0000  0.0000  0.0000  0.0000  0.0000
                                            0.0000  0.0000  0.0000  0.0000  0.0000
                                            0.0000  0.0000  0.0000  0.0000  0.0000
                                            0.0000  0.0000  0.0000  0.0000 -0.0000
                                            0.0000  0.0000  0.0000  0.0000 -0.0000
                                            0.0000  0.0000  0.0000  0.0000 -0.0000
                                            0.0000 -0.0000 -0.0000  1.0000  0.0000
                                           -0.0000 -0.0000  0.0000  0.0000  0.0000
                                            0.0000  0.0000  0.0000  0.0000  0.0000
                                           -0.0000 -0.0000  0.0000  0.0000  0.0000
                                            0.0000 -0.0000 -0.0000  0.0000  0.0000
                                            0.0000  0.0000  0.0000  0.0000
    21. (1.99763) CR (13)Br   3           s(  0.00%)p 0.00(  0.00%)d 1.00(100.00%)
                                            0.0000  0.0000 -0.0000 -0.0000  0.0000
                                           -0.0000 -0.0000 -0.0000  0.0000  0.0000
                                            0.0000  0.0000  0.0000 -0.0000  0.0000
                                            0.0000 -0.0000  0.0000 -0.0000  0.0000
                                            0.0000  0.0000  0.0000  0.0000  0.0000
                                            0.0000  0.0000 -0.0000  0.0000  0.0000
                                            0.0000  0.0000  0.0000  0.0000  0.0000
                                            0.0000  0.0000  1.0000  0.0000 -0.0000
                                           -0.0000 -0.0000 -0.0000 -0.0000 -0.0000
                                            0.0000  0.0000 -0.0000 -0.0000  0.0000
                                            0.0000  0.0000  0.0000  0.0000  0.0000
                                           -0.0000 -0.0000  0.0000  0.0000
    22. (1.99767) CR (14)Br   3           s(  0.00%)p 0.00(  0.00%)d 1.00(100.00%)
                                            0.0000  0.0000 -0.0000 -0.0000  0.0000
                                           -0.0000 -0.0000 -0.0000  0.0000  0.0000
                                           -0.0000  0.0000  0.0000 -0.0000  0.0000
                                            0.0000 -0.0000  0.0000 -0.0000  0.0000
                                            0.0000  0.0000  0.0000  0.0000  0.0000
                                            0.0000 -0.0000  0.0000  0.0000  0.0000
                                            0.0000  0.0000  0.0000  0.0000  0.0000
                                            0.0000  0.0000 -0.0000 -0.0000 -0.0000
                                           -0.0000  1.0000 -0.0000 -0.0000 -0.0000
                                            0.0000  0.0000  0.0000  0.0000  0.0000
                                            0.0000  0.0000  0.0000  0.0000  0.0000
                                            0.0000  0.0000  0.0000  0.0000
    23. (1.96637) LP ( 1) O   1           s( 57.93%)p 0.72( 41.96%)d 0.00(  0.11%)
                                                  f 0.00(  0.00%)
                                            0.0002  0.7609  0.0138  0.0083 -0.0014
                                           -0.2467 -0.0040 -0.0040 -0.0022  0.5988
                                            0.0089  0.0058  0.0017  0.0000  0.0000
                                            0.0000  0.0000  0.0231  0.0023 -0.0035
                                            0.0000  0.0000  0.0000  0.0000  0.0000
                                            0.0000  0.0176 -0.0002 -0.0045  0.0131
                                            0.0004  0.0004  0.0000  0.0000  0.0000
                                            0.0005 -0.0030  0.0002  0.0000  0.0000
                                            0.0000  0.0000  0.0036 -0.0023  0.0037
                                           -0.0019
    24. (1.95291) LP ( 2) O   1           s(  0.00%)p 1.00( 99.80%)d 0.00(  0.19%)
                                                  f 0.00(  0.01%)
                                            0.0000  0.0000  0.0000  0.0000  0.0000
                                            0.0000  0.0000  0.0000  0.0000  0.0000
                                            0.0000  0.0000  0.0000  0.9987  0.0210
                                            0.0061  0.0064  0.0000  0.0000  0.0000
                                            0.0297  0.0053 -0.0004 -0.0284  0.0041
                                            0.0121  0.0000  0.0000  0.0000  0.0000
                                            0.0000  0.0000 -0.0105  0.0006  0.0000
                                            0.0000  0.0000  0.0000  0.0043 -0.0023
                                            0.0011  0.0013  0.0000  0.0000  0.0000
                                            0.0000
    25. (1.97408) LP ( 1)Cl   2           s( 91.75%)p 0.09(  8.23%)d 0.00(  0.02%)
                                                  f 0.00(  0.00%)
                                            0.0000  0.0003  0.9578  0.0063  0.0011
                                           -0.0003  0.0000  0.2853 -0.0062 -0.0030
                                            0.0012  0.0000 -0.0295  0.0014  0.0001
                                           -0.0005  0.0000  0.0000  0.0000  0.0000
                                            0.0000  0.0000 -0.0004 -0.0005  0.0000
                                            0.0000  0.0000  0.0000  0.0000  0.0000
                                           -0.0120  0.0005  0.0000  0.0076  0.0005
                                            0.0004  0.0000  0.0000 -0.0020 -0.0004
                                            0.0001 -0.0000  0.0000  0.0000  0.0000
                                            0.0000  0.0034 -0.0000 -0.0006  0.0003
    26. (1.95619) LP ( 2)Cl   2           s(  0.00%)p 1.00( 99.95%)d 0.00(  0.04%)
                                                  f 0.00(  0.01%)
                                            0.0000  0.0000  0.0000  0.0000  0.0000
                                            0.0000  0.0000  0.0000  0.0000  0.0000
                                            0.0000  0.0000  0.0000  0.0000  0.0000
                                            0.0000 -0.0002  0.9996  0.0153  0.0051
                                           -0.0023  0.0000  0.0000  0.0000  0.0075
                                            0.0171  0.0087  0.0036  0.0030  0.0009
                                            0.0000  0.0000  0.0000  0.0000  0.0000
                                            0.0000 -0.0055  0.0009  0.0000  0.0000
                                            0.0000  0.0000  0.0066 -0.0010  0.0009
                                           -0.0008  0.0000  0.0000  0.0000  0.0000
    27. (1.95482) LP ( 3)Cl   2           s(  0.10%)p99.99( 99.85%)d 0.36(  0.04%)
                                                  f 0.08(  0.01%)
                                            0.0000 -0.0000  0.0315  0.0060  0.0039
                                            0.0018  0.0000 -0.0028 -0.0004 -0.0003
                                           -0.0008 -0.0002  0.9992  0.0130  0.0015
                                            0.0002  0.0000  0.0000  0.0000  0.0000
                                            0.0000 -0.0017  0.0143  0.0080  0.0000
                                            0.0000  0.0000  0.0000  0.0000  0.0000
                                           -0.0079 -0.0048 -0.0030 -0.0008 -0.0027
                                           -0.0005  0.0000  0.0000  0.0001  0.0003
                                           -0.0024  0.0001  0.0000  0.0000  0.0000
                                            0.0000 -0.0013  0.0003  0.0087 -0.0014
    28. (1.97848) LP ( 1)Br   3           s( 92.84%)p 0.08(  7.16%)d 0.00(  0.00%)
                                                  f 0.00(  0.00%)
                                           -0.0000 -0.0000  0.0002  0.9635 -0.0002
                                            0.0006  0.0004  0.0000 -0.0000 -0.0687
                                            0.0002 -0.0002 -0.0001  0.0000 -0.0001
                                           -0.2586  0.0012 -0.0007  0.0001  0.0000
                                            0.0000  0.0000  0.0000  0.0000  0.0000
                                           -0.0000 -0.0001 -0.0000 -0.0002  0.0000
                                            0.0000  0.0000  0.0000  0.0000  0.0000
                                            0.0000  0.0000  0.0000  0.0001  0.0002
                                            0.0002  0.0000  0.0002  0.0001  0.0003
                                            0.0000  0.0000 -0.0000 -0.0000 -0.0002
                                           -0.0001  0.0000  0.0000  0.0000  0.0000
                                           -0.0002 -0.0001 -0.0002 -0.0002
    29. (1.95403) LP ( 2)Br   3           s(  0.00%)p 1.00( 99.99%)d 0.00(  0.01%)
                                                  f 0.00(  0.00%)
                                            0.0000  0.0000  0.0000  0.0000  0.0000
                                            0.0000  0.0000  0.0000  0.0000  0.0000
                                            0.0000  0.0000  0.0000  0.0000  0.0000
                                            0.0000  0.0000  0.0000  0.0000 -0.0000
                                            0.0002  0.9999  0.0028  0.0016 -0.0003
                                            0.0000  0.0000  0.0000  0.0000 -0.0000
                                            0.0021 -0.0004 -0.0002 -0.0000  0.0091
                                           -0.0021 -0.0009  0.0000  0.0000  0.0000
                                            0.0000  0.0000  0.0000  0.0000  0.0000
                                           -0.0022 -0.0013  0.0000  0.0000  0.0000
                                            0.0000 -0.0024 -0.0012  0.0012  0.0008
                                            0.0000  0.0000  0.0000  0.0000
    30. (1.95368) LP ( 3)Br   3           s(  0.01%)p 1.00( 99.98%)d 0.00(  0.01%)
                                                  f 0.00(  0.00%)
                                            0.0000 -0.0000 -0.0000  0.0071  0.0004
                                           -0.0000 -0.0006 -0.0000  0.0002  0.9726
                                            0.0028  0.0014 -0.0003  0.0000 -0.0000
                                           -0.2320 -0.0006 -0.0005  0.0001  0.0000
                                            0.0000  0.0000  0.0000  0.0000  0.0000
                                           -0.0000  0.0092 -0.0018 -0.0009  0.0000
                                            0.0000  0.0000  0.0000  0.0000  0.0000
                                            0.0000  0.0000 -0.0000  0.0037 -0.0003
                                           -0.0011  0.0000  0.0001  0.0000  0.0000
                                            0.0000  0.0000 -0.0009 -0.0005  0.0001
                                            0.0000  0.0000  0.0000  0.0000  0.0000
                                           -0.0025 -0.0012  0.0019  0.0009
    31. (1.86924) LP ( 4)Br   3           s(  7.15%)p12.98( 92.80%)d 0.01(  0.05%)
                                                  f 0.00(  0.01%)
                                            0.0000 -0.0000  0.0000  0.2674  0.0009
                                           -0.0022 -0.0016 -0.0000  0.0000  0.2216
                                           -0.0013 -0.0005  0.0005 -0.0000 -0.0000
                                            0.9374 -0.0057 -0.0035  0.0006  0.0000
                                            0.0000  0.0000  0.0000  0.0000  0.0000
                                           -0.0000  0.0084 -0.0018  0.0001  0.0000
                                            0.0000  0.0000  0.0000  0.0000  0.0000
                                            0.0000  0.0000 -0.0000 -0.0165  0.0031
                                            0.0009 -0.0000 -0.0115  0.0025 -0.0003
                                            0.0000  0.0000 -0.0010 -0.0006 -0.0041
                                           -0.0020  0.0000  0.0000  0.0000  0.0000
                                           -0.0032 -0.0015 -0.0038 -0.0013
    32. (0.01909) RY*( 1) O   1           s(  0.00%)p 1.00( 98.71%)d 0.01(  1.23%)
                                                  f 0.00(  0.05%)
                                            0.0000  0.0000  0.0000  0.0000  0.0000
                                            0.0000  0.0000  0.0000  0.0000  0.0000
                                            0.0000  0.0000  0.0000 -0.0255  0.9923
                                           -0.0409 -0.0136  0.0000  0.0000  0.0000
                                            0.0844  0.0281  0.0100 -0.0628  0.0033
                                            0.0190  0.0000  0.0000  0.0000  0.0000
                                            0.0000  0.0000 -0.0106  0.0102  0.0000
                                            0.0000  0.0000  0.0000  0.0131 -0.0111
                                           -0.0036  0.0016  0.0000  0.0000  0.0000
                                            0.0000
    33. (0.01576) RY*( 2) O   1           s( 30.50%)p 2.21( 67.38%)d 0.06(  1.91%)
                                                  f 0.01(  0.21%)
                                           -0.0000  0.0010  0.5505 -0.0446 -0.0047
                                            0.0392 -0.3419 -0.0006  0.0207 -0.0172
                                            0.7429 -0.0025 -0.0521  0.0000  0.0000
                                            0.0000  0.0000  0.1237  0.0253  0.0062
                                            0.0000  0.0000  0.0000  0.0000  0.0000
                                            0.0000  0.0247  0.0029  0.0005  0.0495
                                            0.0010 -0.0076  0.0000  0.0000 -0.0041
                                            0.0010  0.0052  0.0012  0.0000  0.0000
                                            0.0000  0.0000  0.0329 -0.0146  0.0237
                                           -0.0120
    34. (0.00782) RY*( 3) O   1           s( 15.86%)p 0.50(  7.94%)d 4.72( 74.89%)
                                                  f 0.08(  1.31%)
                                           -0.0000  0.0179  0.3927 -0.0621  0.0152
                                           -0.0208 -0.1361  0.0081  0.0285 -0.0107
                                           -0.2317  0.0292 -0.0702 -0.0000 -0.0000
                                           -0.0000 -0.0000 -0.8375 -0.0148 -0.0266
                                           -0.0000 -0.0000 -0.0000 -0.0000 -0.0000
                                           -0.0000  0.1197  0.0108  0.0292  0.1768
                                           -0.0075  0.0045 -0.0000 -0.0000 -0.0254
                                            0.0153  0.0048  0.0007 -0.0000 -0.0000
                                           -0.0000 -0.0000 -0.0533  0.0191 -0.0866
                                            0.0379
    35. (0.00703) RY*( 4) O   1           s(  0.00%)p 1.00(  0.40%)d99.99( 97.94%)
                                                  f 4.15(  1.66%)
                                            0.0000  0.0000  0.0000  0.0000  0.0000
                                            0.0000  0.0000  0.0000  0.0000  0.0000
                                            0.0000  0.0000  0.0000 -0.0170 -0.0596
                                           -0.0117 -0.0044  0.0000  0.0000  0.0000
                                            0.9254 -0.0336  0.0181  0.3481 -0.0194
                                            0.0061  0.0000  0.0000  0.0000  0.0000
                                            0.0000  0.0000 -0.0372  0.0169  0.0000
                                            0.0000  0.0000  0.0000  0.1095 -0.0478
                                           -0.0240  0.0106  0.0000  0.0000  0.0000
                                            0.0000
    36. (0.00616) RY*( 5) O   1           s(  0.00%)p 1.00(  0.95%)d99.99( 97.80%)
                                                  f 1.30(  1.24%)
                                            0.0000  0.0000  0.0000  0.0000  0.0000
                                            0.0000  0.0000  0.0000  0.0000  0.0000
                                            0.0000  0.0000  0.0000  0.0352  0.0875
                                           -0.0055 -0.0247  0.0000  0.0000  0.0000
                                           -0.3414  0.0300  0.0036  0.9250 -0.0626
                                            0.0310  0.0000  0.0000  0.0000  0.0000
                                            0.0000  0.0000  0.0838 -0.0393  0.0000
                                            0.0000  0.0000  0.0000  0.0324 -0.0148
                                            0.0467 -0.0201  0.0000  0.0000  0.0000
[...]
                                           -0.0049 -0.0415  0.5273 -0.0571 -0.0468
                                            0.5736  0.2129  0.1017  0.0108 -0.2368
                                           -0.0000 -0.0000 -0.0000 -0.4621  0.1483
                                           -0.0000 -0.0000 -0.0000 -0.0000  0.1158
                                           -0.0631  0.1305 -0.0627
   163. (0.00032) RY*( 9) H   4           s(  0.00%)p 1.00( 92.43%)d 0.08(  7.57%)
                                            0.0000  0.0000  0.0000  0.0000  0.0000
                                            0.0000  0.0000  0.0000  0.0000  0.0000
                                           -0.1253  0.9532  0.0085  0.0000  0.0000
                                           -0.0696  0.0768 -0.1592  0.1990  0.0000
                                            0.0000  0.0000  0.0000
   164. (0.00025) RY*(10) H   4           s(  2.32%)p12.70( 29.48%)d29.38( 68.20%)
                                            0.0139  0.0602 -0.0305  0.1359 -0.1029
                                           -0.1475  0.1622 -0.0315 -0.3246  0.3603
                                           -0.0000 -0.0000 -0.0000 -0.4258 -0.0109
                                           -0.0000 -0.0000 -0.0000 -0.0000  0.4366
                                            0.0852 -0.5419  0.0949
   165. (0.00023) RY*(11) H   4           s(  0.00%)p 1.00(  0.38%)d99.99( 99.62%)
                                            0.0000  0.0000  0.0000  0.0000  0.0000
                                            0.0000  0.0000  0.0000  0.0000  0.0000
                                           -0.0181  0.0592  0.0021  0.0000  0.0000
                                            0.9885 -0.0965 -0.0984  0.0088  0.0000
                                            0.0000  0.0000  0.0000
   166. (0.00022) RY*(12) H   4           s(  8.65%)p 4.19( 36.23%)d 6.37( 55.13%)
                                            0.0161  0.0212  0.2579  0.1388  0.0597
                                           -0.0471 -0.0556 -0.0443 -0.4851  0.3407
                                            0.0000  0.0000  0.0000  0.2331 -0.0355
                                            0.0000  0.0000  0.0000  0.0000  0.3345
                                            0.0437  0.6176 -0.0224
   167. (0.00018) RY*(13) H   4           s(  9.00%)p 1.64( 14.79%)d 8.47( 76.21%)
                                           -0.0064 -0.0355  0.2838 -0.0903  0.0587
                                            0.0003 -0.2473  0.0155  0.1887 -0.2179
                                            0.0000  0.0000  0.0000  0.4765  0.1461
                                            0.0000  0.0000  0.0000  0.0000  0.5859
                                           -0.1040 -0.3440 -0.2030
   168. (0.00014) RY*(14) H   4           s(  0.00%)p 1.00( 45.00%)d 1.22( 55.00%)
                                            0.0000  0.0000  0.0000  0.0000  0.0000
                                            0.0000  0.0000  0.0000  0.0000  0.0000
                                            0.0109  0.2031  0.6393  0.0000  0.0000
                                            0.0178 -0.1577  0.4143 -0.5943  0.0000
                                            0.0000  0.0000  0.0000
   169. (0.00012) RY*(15) H   4           s( 33.86%)p 0.65( 21.91%)d 1.31( 44.23%)
                                           -0.0037 -0.0100  0.1793  0.5535  0.0395
                                            0.1574  0.4349  0.0107  0.0206 -0.0555
                                           -0.0000 -0.0000 -0.0000  0.3277 -0.5150
                                           -0.0000 -0.0000 -0.0000 -0.0000 -0.1055
                                           -0.1432 -0.1879  0.0532
   170. (0.00010) RY*(16) H   4           s( 39.34%)p 0.47( 18.33%)d 1.08( 42.33%)
                                            0.0006  0.0005  0.3126  0.5438  0.0047
                                            0.0366 -0.3871 -0.0051  0.0700  0.1649
                                           -0.0000 -0.0000 -0.0000  0.0210  0.4043
                                           -0.0000 -0.0000 -0.0000 -0.0000 -0.3201
                                            0.3601 -0.1565  0.0530
   171. (0.00007) RY*(17) H   4           s(  0.00%)p 1.00(  0.17%)d99.99( 99.83%)
   172. (0.00005) RY*(18) H   4           s( 10.71%)p 2.59( 27.78%)d 5.74( 61.51%)
   173. (0.00005) RY*(19) H   4           s(  0.00%)p 1.00( 31.97%)d 2.13( 68.03%)
   174. (0.00006) RY*(20) H   4           s(  3.43%)p 2.14(  7.36%)d26.00( 89.21%)
   175. (0.00004) RY*(21) H   4           s( 39.53%)p 0.38( 14.83%)d 1.15( 45.63%)
   176. (0.00004) RY*(22) H   4           s(  2.34%)p17.09( 40.04%)d24.58( 57.61%)
   177. (0.05768) BD*( 1) O   1 -Cl   2  
                ( 40.90%)   0.6395* O   1 s( 10.62%)p 8.37( 88.86%)d 0.05(  0.51%)
                                                  f 0.00(  0.02%)
                                           -0.0003 -0.3230  0.0407  0.0141  0.0005
                                           -0.9414  0.0288  0.0104  0.0104  0.0209
                                            0.0295  0.0050  0.0001 -0.0000 -0.0000
                                           -0.0000 -0.0000  0.0233  0.0016 -0.0026
                                           -0.0000 -0.0000 -0.0000 -0.0000 -0.0000
                                           -0.0000 -0.0522 -0.0047 -0.0025  0.0422
                                            0.0035 -0.0007 -0.0000 -0.0000  0.0115
                                           -0.0012  0.0003 -0.0002 -0.0000 -0.0000
                                           -0.0000 -0.0000 -0.0054 -0.0007  0.0004
                                           -0.0023
                ( 59.10%)  -0.7688*Cl   2 s(  8.41%)p10.74( 90.31%)d 0.14(  1.17%)
                                                  f 0.01(  0.11%)
                                            0.0000 -0.0005 -0.2846  0.0549  0.0100
                                           -0.0025  0.0004  0.9479 -0.0655 -0.0139
                                            0.0043  0.0000  0.0106  0.0016 -0.0026
                                            0.0008 -0.0000 -0.0000 -0.0000 -0.0000
                                           -0.0000 -0.0128 -0.0000 -0.0009 -0.0000
                                           -0.0000 -0.0000 -0.0000 -0.0000 -0.0000
                                           -0.0903  0.0103  0.0001  0.0572 -0.0058
                                           -0.0008 -0.0000 -0.0000 -0.0209  0.0032
                                           -0.0005  0.0002 -0.0000 -0.0000 -0.0000
                                           -0.0000  0.0253 -0.0028  0.0012 -0.0001
   178. (0.09908) BD*( 1) O   1 - H   4  
                ( 21.23%)   0.4608* O   1 s( 31.59%)p 2.15( 67.92%)d 0.02(  0.49%)
                                                  f 0.00(  0.01%)
                                            0.0003  0.5619 -0.0091 -0.0077  0.0019
                                           -0.2083  0.0181  0.0027  0.0028 -0.7970
                                            0.0109  0.0070  0.0040 -0.0000 -0.0000
                                           -0.0000 -0.0000  0.0016 -0.0028 -0.0000
                                           -0.0000 -0.0000 -0.0000 -0.0000 -0.0000
                                           -0.0000 -0.0589 -0.0048 -0.0024 -0.0370
                                           -0.0010  0.0027 -0.0000 -0.0000  0.0016
                                            0.0007  0.0083  0.0006 -0.0000 -0.0000
                                           -0.0000 -0.0000  0.0018  0.0026 -0.0005
                                            0.0026
                ( 78.77%)  -0.8875* H   4 s( 99.85%)p 0.00(  0.15%)d 0.00(  0.00%)
                                            0.9984  0.0410  0.0019 -0.0010  0.0110
                                            0.0079  0.0014 -0.0166  0.0300 -0.0107
                                           -0.0000 -0.0000 -0.0000 -0.0004 -0.0021
                                           -0.0000 -0.0000 -0.0000 -0.0000 -0.0013
                                           -0.0006  0.0005 -0.0031


 NHO Directionality and "Bond Bending" (deviations from line of nuclear centers)

         [Thresholds for printing:  angular deviation  >  1.0 degree]
                                    hybrid p-character > 25.0%
                                    orbital occupancy  >  0.10e

                                Line of Centers        Hybrid 1              Hybrid 2
                                ---------------  -------------------   ------------------
                NBO               Theta   Phi    Theta   Phi    Dev    Theta   Phi    Dev
 ========================================================================================
     1. BD (   1) O   1 -Cl   2    90.0    0.0    90.0  356.4   3.6      --     --    --
    23. LP (   1) O   1             --     --     90.0  112.7   --       --     --    --
    24. LP (   2) O   1             --     --      0.0    0.0   --       --     --    --
    26. LP (   2)Cl   2             --     --      0.0    0.0   --       --     --    --
    27. LP (   3)Cl   2             --     --     90.0   90.2   --       --     --    --
    29. LP (   2)Br   3             --     --      0.0    0.0   --       --     --    --
    30. LP (   3)Br   3             --     --     90.0  346.6   --       --     --    --
    31. LP (   4)Br   3             --     --     90.0   76.7   --       --     --    --


 Natural Bond Orbitals (Summary):

           NBO                  Occupancy  
 -----------------------------------------------
 Molecular unit  1  (HOCl)
     1. BD (   1) O   1 -Cl   2          1.94012
     2. BD (   1) O   1 - H   4          1.96754
     3. CR (   1) O   1                  1.99964
     4. CR (   1)Cl   2                  2.00000
     5. CR (   2)Cl   2                  1.99980
     6. CR (   3)Cl   2                  1.99996
     7. CR (   4)Cl   2                  2.00003
     8. CR (   5)Cl   2                  2.00003
    23. LP (   1) O   1                  1.96637
    24. LP (   2) O   1                  1.95291
    25. LP (   1)Cl   2                  1.97408
    26. LP (   2)Cl   2                  1.95619
    27. LP (   3)Cl   2                  1.95482
    32. RY*(   1) O   1                  0.01909
    33. RY*(   2) O   1                  0.01576
    34. RY*(   3) O   1                  0.00782
    35. RY*(   4) O   1                  0.00703
    36. RY*(   5) O   1                  0.00616
    37. RY*(   6) O   1                  0.00616
    38. RY*(   7) O   1                  0.00573
    39. RY*(   8) O   1                  0.00301
    40. RY*(   9) O   1                  0.00247
    41. RY*(  10) O   1                  0.00083
    42. RY*(  11) O   1                  0.00065
    43. RY*(  12) O   1                  0.00059
    44. RY*(  13) O   1                  0.00058
    45. RY*(  14) O   1                  0.00050
    46. RY*(  15) O   1                  0.00049
    47. RY*(  16) O   1                  0.00047
    48. RY*(  17) O   1                  0.00047
    49. RY*(  18) O   1                  0.00046
    50. RY*(  19) O   1                  0.00043
    51. RY*(  20) O   1                  0.00044
    52. RY*(  21) O   1                  0.00044
    53. RY*(  22) O   1                  0.00041
    54. RY*(  23) O   1                  0.00034
    55. RY*(  24) O   1                  0.00029
    56. RY*(  25) O   1                  0.00024
    57. RY*(  26) O   1                  0.00021
    58. RY*(  27) O   1                  0.00012
    59. RY*(  28) O   1                  0.00013
    60. RY*(  29) O   1                  0.00013
    61. RY*(  30) O   1                  0.00009
    62. RY*(  31) O   1                  0.00008
    63. RY*(  32) O   1                  0.00008
    64. RY*(  33) O   1                  0.00009
    65. RY*(  34) O   1                  0.00007
    66. RY*(  35) O   1                  0.00008
    67. RY*(  36) O   1                  0.00006
    68. RY*(  37) O   1                  0.00006
    69. RY*(  38) O   1                  0.00006
    70. RY*(  39) O   1                  0.00003
    71. RY*(  40) O   1                  0.00003
    72. RY*(  41) O   1                  0.00002
    73. RY*(   1)Cl   2                  0.02250
    74. RY*(   2)Cl   2                  0.01732
    75. RY*(   3)Cl   2                  0.01673
    76. RY*(   4)Cl   2                  0.01651
    77. RY*(   5)Cl   2                  0.01152
    78. RY*(   6)Cl   2                  0.00920
    79. RY*(   7)Cl   2                  0.00899
    80. RY*(   8)Cl   2                  0.00624
    81. RY*(   9)Cl   2                  0.00165
    82. RY*(  10)Cl   2                  0.00126
    83. RY*(  11)Cl   2                  0.00126
    84. RY*(  12)Cl   2                  0.00119
    85. RY*(  13)Cl   2                  0.00120
    86. RY*(  14)Cl   2                  0.00116
    87. RY*(  15)Cl   2                  0.00110
    88. RY*(  16)Cl   2                  0.00093
    89. RY*(  17)Cl   2                  0.00076
    90. RY*(  18)Cl   2                  0.00075
    91. RY*(  19)Cl   2                  0.00063
    92. RY*(  20)Cl   2                  0.00055
    93. RY*(  21)Cl   2                  0.00043
    94. RY*(  22)Cl   2                  0.00035
    95. RY*(  23)Cl   2                  0.00036
    96. RY*(  24)Cl   2                  0.00031
    97. RY*(  25)Cl   2                  0.00018
    98. RY*(  26)Cl   2                  0.00015
    99. RY*(  27)Cl   2                  0.00013
   100. RY*(  28)Cl   2                  0.00014
   101. RY*(  29)Cl   2                  0.00013
   102. RY*(  30)Cl   2                  0.00012
   103. RY*(  31)Cl   2                  0.00011
   104. RY*(  32)Cl   2                  0.00010
   105. RY*(  33)Cl   2                  0.00010
   106. RY*(  34)Cl   2                  0.00010
   107. RY*(  35)Cl   2                  0.00008
   108. RY*(  36)Cl   2                  0.00008
   109. RY*(  37)Cl   2                  0.00007
   110. RY*(  38)Cl   2                  0.00005
   111. RY*(  39)Cl   2                  0.00004
   112. RY*(  40)Cl   2                  0.00003
   113. RY*(  41)Cl   2                  0.00000
   155. RY*(   1) H   4                  0.01095
   156. RY*(   2) H   4                  0.00558
   157. RY*(   3) H   4                  0.00503
   158. RY*(   4) H   4                  0.00373
   159. RY*(   5) H   4                  0.00060
   160. RY*(   6) H   4                  0.00054
   161. RY*(   7) H   4                  0.00046
   162. RY*(   8) H   4                  0.00034
   163. RY*(   9) H   4                  0.00032
   164. RY*(  10) H   4                  0.00025
   165. RY*(  11) H   4                  0.00023
   166. RY*(  12) H   4                  0.00022
   167. RY*(  13) H   4                  0.00018
   168. RY*(  14) H   4                  0.00014
   169. RY*(  15) H   4                  0.00012
   170. RY*(  16) H   4                  0.00010
   171. RY*(  17) H   4                  0.00007
   172. RY*(  18) H   4                  0.00005
   173. RY*(  19) H   4                  0.00005
   174. RY*(  20) H   4                  0.00006
   175. RY*(  21) H   4                  0.00004
   176. RY*(  22) H   4                  0.00004
   177. BD*(   1) O   1 -Cl   2          0.05768
   178. BD*(   1) O   1 - H   4          0.09908
       -------------------------------
              Total Lewis   25.71151  ( 98.4962%)
        Valence non-Lewis    0.15676  (  0.6005%)
        Rydberg non-Lewis    0.23580  (  0.9033%)
       -------------------------------
            Total unit  1   26.10407  (100.0000%)
           Charge unit  1   -0.10407

 Molecular unit  2  (Br)
     9. CR (   1)Br   3                  2.00000
    10. CR (   2)Br   3                  2.00000
    11. CR (   3)Br   3                  1.99990
    12. CR (   4)Br   3                  2.00000
    13. CR (   5)Br   3                  2.00001
    14. CR (   6)Br   3                  2.00000
    15. CR (   7)Br   3                  1.99994
    16. CR (   8)Br   3                  2.00000
    17. CR (   9)Br   3                  2.00001
    18. CR (  10)Br   3                  1.99765
    19. CR (  11)Br   3                  1.99768
    20. CR (  12)Br   3                  1.99766
    21. CR (  13)Br   3                  1.99763
    22. CR (  14)Br   3                  1.99767
    28. LP (   1)Br   3                  1.97848
    29. LP (   2)Br   3                  1.95403
    30. LP (   3)Br   3                  1.95368
    31. LP (   4)Br   3                  1.86924
   114. RY*(   1)Br   3                  0.01882
   115. RY*(   2)Br   3                  0.01875
   116. RY*(   3)Br   3                  0.01866
   117. RY*(   4)Br   3                  0.01865
   118. RY*(   5)Br   3                  0.01782
   119. RY*(   6)Br   3                  0.01128
   120. RY*(   7)Br   3                  0.01121
   121. RY*(   8)Br   3                  0.00935
   122. RY*(   9)Br   3                  0.00226
   123. RY*(  10)Br   3                  0.00180
   124. RY*(  11)Br   3                  0.00179
   125. RY*(  12)Br   3                  0.00175
   126. RY*(  13)Br   3                  0.00175
   127. RY*(  14)Br   3                  0.00175
   128. RY*(  15)Br   3                  0.00175
   129. RY*(  16)Br   3                  0.00175
   130. RY*(  17)Br   3                  0.00175
   131. RY*(  18)Br   3                  0.00175
   132. RY*(  19)Br   3                  0.00143
   133. RY*(  20)Br   3                  0.00139
   134. RY*(  21)Br   3                  0.00120
   135. RY*(  22)Br   3                  0.00079
   136. RY*(  23)Br   3                  0.00079
   137. RY*(  24)Br   3                  0.00073
   138. RY*(  25)Br   3                  0.00038
   139. RY*(  26)Br   3                  0.00028
   140. RY*(  27)Br   3                  0.00025
   141. RY*(  28)Br   3                  0.00026
   142. RY*(  29)Br   3                  0.00025
   143. RY*(  30)Br   3                  0.00026
   144. RY*(  31)Br   3                  0.00024
   145. RY*(  32)Br   3                  0.00024
   146. RY*(  33)Br   3                  0.00023
   147. RY*(  34)Br   3                  0.00022
   148. RY*(  35)Br   3                  0.00017
   149. RY*(  36)Br   3                  0.00016
   150. RY*(  37)Br   3                  0.00016
   151. RY*(  38)Br   3                  0.00010
   152. RY*(  39)Br   3                  0.00007
   153. RY*(  40)Br   3                  0.00007
   154. RY*(  41)Br   3                  0.00003
       -------------------------------
              Total Lewis   35.74360  ( 99.5756%)
        Valence non-Lewis    0.00000  (  0.0000%)
        Rydberg non-Lewis    0.15233  (  0.4244%)
       -------------------------------
            Total unit  2   35.89593  (100.0000%)
           Charge unit  2   -0.89593
 Leave Link  607 at Tue Oct 12 14:24:00 2021, MaxMem=  1048576000 cpu:         8.8
 (Enter /usr/local/gaussian/g09/l9999.exe)
 1\1\GINC-KRYPTON\SP\RMP2-FC\Aug-CC-pVTZ\Br1Cl1H1O1(1-)\CGAVINH\12-Oct-
 2021\0\\#p pop=NBO SP NoSymm mp2/aug-cc-pvtz density=current\\title\\-
 1,1\O\X,1,10.\Cl,1,1.68432554,2,90.\Br,1,3.07381752,2,90.,3,103.420351
 85,0\H,1,0.95,2,90.,3,103.42035185,0\\Version=ES64L-G09RevE.01\HF=-310
 7.4795057\MP2=-3108.1797858\RMSD=3.933e-09\Dipole=0.8917572,0.9684767,
 0.\Quadrupole=7.6452842,-16.8708904,9.2256062,-6.5241276,0.,0.\PG=CS [
 SG(Br1Cl1H1O1)]\\@


 AN AIRPLANE IS A COLLECTION OF SPARE PARTS
 FLYING IN CLOSE FORMATION.
 Job cpu time:       0 days  0 hours  2 minutes 33.5 seconds.
 File lengths (MBytes):  RWF=     14 Int=      0 D2E=      0 Chk=      4 Scr=      1
 Normal termination of Gaussian 09 at Tue Oct 12 14:24:00 2021.
