 Entering Gaussian System, Link 0=g09
 Input=brhocl_rOH_140_sp.gjf
 Output=brhocl_rOH_140_sp.log
 Initial command:
 /usr/local/gaussian/g09/l1.exe "/scratch/Gau-18807.inp" -scrdir="/scratch/"
 Entering Link 1 = /usr/local/gaussian/g09/l1.exe PID=     18808.
  
 Copyright (c) 1988,1990,1992,1993,1995,1998,2003,2009,2015,
            Gaussian, Inc.  All Rights Reserved.
  
 This is part of the Gaussian(R) 09 program.  It is based on
 the Gaussian(R) 03 system (copyright 2003, Gaussian, Inc.),
 the Gaussian(R) 98 system (copyright 1998, Gaussian, Inc.),
 the Gaussian(R) 94 system (copyright 1995, Gaussian, Inc.),
 the Gaussian 92(TM) system (copyright 1992, Gaussian, Inc.),
 the Gaussian 90(TM) system (copyright 1990, Gaussian, Inc.),
 the Gaussian 88(TM) system (copyright 1988, Gaussian, Inc.),
 the Gaussian 86(TM) system (copyright 1986, Carnegie Mellon
 University), and the Gaussian 82(TM) system (copyright 1983,
 Carnegie Mellon University). Gaussian is a federally registered
 trademark of Gaussian, Inc.
  
 This software contains proprietary and confidential information,
 including trade secrets, belonging to Gaussian, Inc.
  
 This software is provided under written license and may be
 used, copied, transmitted, or stored only in accord with that
 written license.
  
 The following legend is applicable only to US Government
 contracts under FAR:
  
                    RESTRICTED RIGHTS LEGEND
  
 Use, reproduction and disclosure by the US Government is
 subject to restrictions as set forth in subparagraphs (a)
 and (c) of the Commercial Computer Software - Restricted
 Rights clause in FAR 52.227-19.
  
 Gaussian, Inc.
 340 Quinnipiac St., Bldg. 40, Wallingford CT 06492
  
  
 ---------------------------------------------------------------
 Warning -- This program may not be used in any manner that
 competes with the business of Gaussian, Inc. or will provide
 assistance to any competitor of Gaussian, Inc.  The licensee
 of this program is prohibited from giving any competitor of
 Gaussian, Inc. access to this program.  By using this program,
 the user acknowledges that Gaussian, Inc. is engaged in the
 business of creating and licensing software in the field of
 computational chemistry and represents and warrants to the
 licensee that it is not a competitor of Gaussian, Inc. and that
 it will not use this program in any manner prohibited above.
 ---------------------------------------------------------------
  

 Cite this work as:
 Gaussian 09, Revision E.01,
 M. J. Frisch, G. W. Trucks, H. B. Schlegel, G. E. Scuseria, 
 M. A. Robb, J. R. Cheeseman, G. Scalmani, V. Barone, B. Mennucci, 
 G. A. Petersson, H. Nakatsuji, M. Caricato, X. Li, H. P. Hratchian, 
 A. F. Izmaylov, J. Bloino, G. Zheng, J. L. Sonnenberg, M. Hada, 
 M. Ehara, K. Toyota, R. Fukuda, J. Hasegawa, M. Ishida, T. Nakajima, 
 Y. Honda, O. Kitao, H. Nakai, T. Vreven, J. A. Montgomery, Jr., 
 J. E. Peralta, F. Ogliaro, M. Bearpark, J. J. Heyd, E. Brothers, 
 K. N. Kudin, V. N. Staroverov, T. Keith, R. Kobayashi, J. Normand, 
 K. Raghavachari, A. Rendell, J. C. Burant, S. S. Iyengar, J. Tomasi, 
 M. Cossi, N. Rega, J. M. Millam, M. Klene, J. E. Knox, J. B. Cross, 
 V. Bakken, C. Adamo, J. Jaramillo, R. Gomperts, R. E. Stratmann, 
 O. Yazyev, A. J. Austin, R. Cammi, C. Pomelli, J. W. Ochterski, 
 R. L. Martin, K. Morokuma, V. G. Zakrzewski, G. A. Voth, 
 P. Salvador, J. J. Dannenberg, S. Dapprich, A. D. Daniels, 
 O. Farkas, J. B. Foresman, J. V. Ortiz, J. Cioslowski, 
 and D. J. Fox, Gaussian, Inc., Wallingford CT, 2013.
 
 ******************************************
 Gaussian 09:  ES64L-G09RevE.01 30-Nov-2015
                12-Oct-2021 
 ******************************************
 %nproc=12
 Will use up to   12 processors via shared memory.
 %mem=8000MB
 %chk=/home/netid.washington.edu/cgavinh/mccoy_hocl/rOH_s_oop_0/brhocl/brhocl_rOH
 _140_sp.chk
 ----------------------------------------------------
 #p pop=NBO SP NoSymm mp2/aug-cc-pvtz density=current
 ----------------------------------------------------
 1/30=1,38=1/1;
 2/12=2,15=1,17=6,18=5,40=1/2;
 3/5=16,6=1,7=10,11=9,16=1,25=1,30=1,71=1/1,2,3;
 4//1;
 5/5=2,38=5/2;
 8/6=4,10=1/1;
 9/15=1,16=-3/6;
 10/5=1,13=10,31=1/2;
 6/7=2,8=2,9=2,10=2,22=-1,40=1/1,7;
 99/5=1,9=1/99;
 Leave Link    1 at Tue Oct 12 14:26:16 2021, MaxMem=  1048576000 cpu:         0.2
 (Enter /usr/local/gaussian/g09/l101.exe)
 -----
 title
 -----
 Symbolic Z-matrix:
 Charge = -1 Multiplicity = 1
 O
 X                    1     10. 
 Cl                   1    r1       2     90. 
 Br                   1    r2       2     90.      3    a1       0
 H                    1    r3       2    oop      3    a1       0
       Variables:
  r1                    1.68433                  
  r2                    3.07382                  
  r3                    1.4                      
  a1                  103.42035                  
  OOP                  90.                       
 
 NAtoms=      4 NQM=        4 NQMF=       0 NMMI=      0 NMMIF=      0
                NMic=       0 NMicF=      0.
                    Isotopes and Nuclear Properties:
 (Nuclear quadrupole moments (NQMom) in fm**2, nuclear magnetic moments (NMagM)
  in nuclear magnetons)

  Atom         1           2           3           4
 IAtWgt=          16          35          79           1
 AtmWgt=  15.9949146  34.9688527  78.9183361   1.0078250
 NucSpn=           0           3           3           1
 AtZEff=   0.0000000   0.0000000   0.0000000   0.0000000
 NQMom=    0.0000000  -8.1650000  31.3000000   0.0000000
 NMagM=    0.0000000   0.8218740   2.1063990   2.7928460
 AtZNuc=   8.0000000  17.0000000  35.0000000   1.0000000
 Leave Link  101 at Tue Oct 12 14:26:16 2021, MaxMem=  1048576000 cpu:         0.4
 (Enter /usr/local/gaussian/g09/l202.exe)
                          Input orientation:                          
 ---------------------------------------------------------------------
 Center     Atomic      Atomic             Coordinates (Angstroms)
 Number     Number       Type             X           Y           Z
 ---------------------------------------------------------------------
      1          8           0        0.000000    0.000000    0.000000
      2         17           0        1.684326    0.000000    0.000000
      3         35           0       -0.713413   -2.989882    0.000000
      4          1           0       -0.324931   -1.361771    0.000000
 ---------------------------------------------------------------------
                    Distance matrix (angstroms):
                    1          2          3          4
     1  O    0.000000
     2  Cl   1.684326   0.000000
     3  Br   3.073818   3.832564   0.000000
     4  H    1.400000   2.427248   1.673818   0.000000
 Symmetry turned off by external request.
 Stoichiometry    BrClHO(1-)
 Framework group  CS[SG(BrClHO)]
 Deg. of freedom     5
 Full point group                 CS      NOp   2
 Rotational constants (GHZ):     22.8137122      1.2816690      1.2134951
 Leave Link  202 at Tue Oct 12 14:26:16 2021, MaxMem=  1048576000 cpu:         0.0
 (Enter /usr/local/gaussian/g09/l301.exe)
 Standard basis: Aug-CC-pVTZ (5D, 7F)
 Ernie: Thresh=  0.10000D-02 Tol=  0.10000D-05 Strict=F.
 Ernie:  48 primitive shells out of 228 were deleted.
   178 basis functions,   430 primitive gaussians,   208 cartesian basis functions
    31 alpha electrons       31 beta electrons
       nuclear repulsion energy       190.8812935803 Hartrees.
 IExCor=    0 DFT=F Ex=HF Corr=None ExCW=0 ScaHFX=  1.000000
 ScaDFX=  1.000000  1.000000  1.000000  1.000000 ScalE2=  1.000000  1.000000
 IRadAn=      0 IRanWt=     -1 IRanGd=            0 ICorTp=0 IEmpDi=  4
 NAtoms=    4 NActive=    4 NUniq=    4 SFac= 1.00D+00 NAtFMM=   60 NAOKFM=F Big=F
 Integral buffers will be    131072 words long.
 Raffenetti 1 integral format.
 Two-electron integral symmetry is turned off.
 Leave Link  301 at Tue Oct 12 14:26:16 2021, MaxMem=  1048576000 cpu:         0.3
 (Enter /usr/local/gaussian/g09/l302.exe)
 NPDir=0 NMtPBC=     1 NCelOv=     1 NCel=       1 NClECP=     1 NCelD=      1
         NCelK=      1 NCelE2=     1 NClLst=     1 CellRange=     0.0.
 One-electron integrals computed using PRISM.
 NBasis=   178 RedAO= T EigKep=  2.85D-04  NBF=   178
 NBsUse=   178 1.00D-06 EigRej= -1.00D+00 NBFU=   178
 Leave Link  302 at Tue Oct 12 14:26:17 2021, MaxMem=  1048576000 cpu:         1.6
 (Enter /usr/local/gaussian/g09/l303.exe)
 DipDrv:  MaxL=1.
 Leave Link  303 at Tue Oct 12 14:26:17 2021, MaxMem=  1048576000 cpu:         0.2
 (Enter /usr/local/gaussian/g09/l401.exe)
 ExpMin= 2.53D-02 ExpMax= 1.06D+07 ExpMxC= 1.21D+04 IAcc=3 IRadAn=         5 AccDes= 0.00D+00
 Harris functional with IExCor=  205 and IRadAn=       5 diagonalized for initial guess.
 HarFok:  IExCor=  205 AccDes= 0.00D+00 IRadAn=         5 IDoV= 1 UseB2=F ITyADJ=14
 ICtDFT=  3500011 ScaDFX=  1.000000  1.000000  1.000000  1.000000
 FoFCou: FMM=F IPFlag=           0 FMFlag=      100000 FMFlg1=           0
         NFxFlg=           0 DoJE=T BraDBF=F KetDBF=T FulRan=T
         wScrn=  0.000000 ICntrl=     500 IOpCl=  0 I1Cent=   200000004 NGrid=           0
         NMat0=    1 NMatS0=      1 NMatT0=    0 NMatD0=    1 NMtDS0=    0 NMtDT0=    0
 Symmetry not used in FoFCou.
 Harris En= -3106.34184170138    
 JPrj=0 DoOrth=F DoCkMO=F.
 Leave Link  401 at Tue Oct 12 14:26:17 2021, MaxMem=  1048576000 cpu:         3.0
 (Enter /usr/local/gaussian/g09/l502.exe)
 Closed shell SCF:
 Using DIIS extrapolation, IDIIS=  1040.
 Two-electron integral symmetry not used.
 Keep R1 ints in memory in canonical form, NReq=131623000.
 IVT=      152094 IEndB=      152094 NGot=  1048576000 MDV=   921517561
 LenX=   921517561 LenY=   921473856
 Requested convergence on RMS density matrix=1.00D-08 within 128 cycles.
 Requested convergence on MAX density matrix=1.00D-06.
 Requested convergence on             energy=1.00D-06.
 No special actions if energy rises.
 FoFCou: FMM=F IPFlag=           0 FMFlag=           0 FMFlg1=           0
         NFxFlg=           0 DoJE=F BraDBF=F KetDBF=F FulRan=T
         wScrn=  0.000000 ICntrl=     600 IOpCl=  0 I1Cent=           0 NGrid=           0
         NMat0=    1 NMatS0=  15931 NMatT0=    0 NMatD0=    1 NMtDS0=    0 NMtDT0=    0
 Symmetry not used in FoFCou.

 Cycle   1  Pass 1  IDiag  1:
 E= -3107.27904769792    
 DIIS: error= 5.98D-02 at cycle   1 NSaved=   1.
 NSaved= 1 IEnMin= 1 EnMin= -3107.27904769792     IErMin= 1 ErrMin= 5.98D-02
 ErrMax= 5.98D-02  0.00D+00 EMaxC= 1.00D-01 BMatC= 6.62D-01 BMatP= 6.62D-01
 IDIUse=3 WtCom= 4.02D-01 WtEn= 5.98D-01
 Coeff-Com:  0.100D+01
 Coeff-En:   0.100D+01
 Coeff:      0.100D+01
 Gap=     0.540 Goal=   None    Shift=    0.000
 GapD=    0.540 DampG=2.000 DampE=0.500 DampFc=1.0000 IDamp=-1.
 RMSDP=3.24D-03 MaxDP=1.11D-01              OVMax= 1.40D-01

 Cycle   2  Pass 1  IDiag  1:
 E= -3107.39509826088     Delta-E=       -0.116050562958 Rises=F Damp=F
 DIIS: error= 1.62D-02 at cycle   2 NSaved=   2.
 NSaved= 2 IEnMin= 2 EnMin= -3107.39509826088     IErMin= 2 ErrMin= 1.62D-02
 ErrMax= 1.62D-02  0.00D+00 EMaxC= 1.00D-01 BMatC= 6.26D-02 BMatP= 6.62D-01
 IDIUse=3 WtCom= 8.38D-01 WtEn= 1.62D-01
 Coeff-Com:  0.166D+00 0.834D+00
 Coeff-En:   0.000D+00 0.100D+01
 Coeff:      0.139D+00 0.861D+00
 Gap=     0.411 Goal=   None    Shift=    0.000
 RMSDP=1.31D-03 MaxDP=4.46D-02 DE=-1.16D-01 OVMax= 8.84D-02

 Cycle   3  Pass 1  IDiag  1:
 E= -3107.42018982571     Delta-E=       -0.025091564828 Rises=F Damp=F
 DIIS: error= 9.63D-03 at cycle   3 NSaved=   3.
 NSaved= 3 IEnMin= 3 EnMin= -3107.42018982571     IErMin= 3 ErrMin= 9.63D-03
 ErrMax= 9.63D-03  0.00D+00 EMaxC= 1.00D-01 BMatC= 2.41D-02 BMatP= 6.26D-02
 IDIUse=3 WtCom= 9.04D-01 WtEn= 9.63D-02
 Coeff-Com:  0.857D-02 0.382D+00 0.610D+00
 Coeff-En:   0.000D+00 0.250D+00 0.750D+00
 Coeff:      0.774D-02 0.369D+00 0.623D+00
 Gap=     0.376 Goal=   None    Shift=    0.000
 RMSDP=4.36D-04 MaxDP=1.76D-02 DE=-2.51D-02 OVMax= 4.56D-02

 Cycle   4  Pass 1  IDiag  1:
 E= -3107.43720763329     Delta-E=       -0.017017807589 Rises=F Damp=F
 DIIS: error= 1.00D-03 at cycle   4 NSaved=   4.
 NSaved= 4 IEnMin= 4 EnMin= -3107.43720763329     IErMin= 4 ErrMin= 1.00D-03
 ErrMax= 1.00D-03  0.00D+00 EMaxC= 1.00D-01 BMatC= 2.28D-04 BMatP= 2.41D-02
 IDIUse=3 WtCom= 9.90D-01 WtEn= 1.00D-02
 Coeff-Com: -0.662D-02-0.233D-01 0.384D-01 0.991D+00
 Coeff-En:   0.000D+00 0.000D+00 0.000D+00 0.100D+01
 Coeff:     -0.655D-02-0.230D-01 0.380D-01 0.992D+00
 Gap=     0.364 Goal=   None    Shift=    0.000
 RMSDP=8.32D-05 MaxDP=2.22D-03 DE=-1.70D-02 OVMax= 6.68D-03

 Cycle   5  Pass 1  IDiag  1:
 E= -3107.43756648969     Delta-E=       -0.000358856391 Rises=F Damp=F
 DIIS: error= 3.30D-04 at cycle   5 NSaved=   5.
 NSaved= 5 IEnMin= 5 EnMin= -3107.43756648969     IErMin= 5 ErrMin= 3.30D-04
 ErrMax= 3.30D-04  0.00D+00 EMaxC= 1.00D-01 BMatC= 2.75D-05 BMatP= 2.28D-04
 IDIUse=3 WtCom= 9.97D-01 WtEn= 3.30D-03
 Coeff-Com:  0.157D-02-0.298D-01-0.589D-01-0.170D+00 0.126D+01
 Coeff-En:   0.000D+00 0.000D+00 0.000D+00 0.000D+00 0.100D+01
 Coeff:      0.157D-02-0.297D-01-0.587D-01-0.169D+00 0.126D+01
 Gap=     0.364 Goal=   None    Shift=    0.000
 RMSDP=5.09D-05 MaxDP=1.85D-03 DE=-3.59D-04 OVMax= 4.97D-03

 Cycle   6  Pass 1  IDiag  1:
 E= -3107.43765707383     Delta-E=       -0.000090584145 Rises=F Damp=F
 DIIS: error= 1.49D-04 at cycle   6 NSaved=   6.
 NSaved= 6 IEnMin= 6 EnMin= -3107.43765707383     IErMin= 6 ErrMin= 1.49D-04
 ErrMax= 1.49D-04  0.00D+00 EMaxC= 1.00D-01 BMatC= 4.28D-06 BMatP= 2.75D-05
 IDIUse=3 WtCom= 9.99D-01 WtEn= 1.49D-03
 Coeff-Com:  0.506D-03 0.987D-02 0.691D-02-0.155D+00-0.129D+00 0.127D+01
 Coeff-En:   0.000D+00 0.000D+00 0.000D+00 0.000D+00 0.000D+00 0.100D+01
 Coeff:      0.505D-03 0.986D-02 0.690D-02-0.155D+00-0.129D+00 0.127D+01
 Gap=     0.364 Goal=   None    Shift=    0.000
 RMSDP=2.49D-05 MaxDP=9.08D-04 DE=-9.06D-05 OVMax= 2.53D-03

 Cycle   7  Pass 1  IDiag  1:
 E= -3107.43767321761     Delta-E=       -0.000016143784 Rises=F Damp=F
 DIIS: error= 5.11D-05 at cycle   7 NSaved=   7.
 NSaved= 7 IEnMin= 7 EnMin= -3107.43767321761     IErMin= 7 ErrMin= 5.11D-05
 ErrMax= 5.11D-05  0.00D+00 EMaxC= 1.00D-01 BMatC= 3.37D-07 BMatP= 4.28D-06
 IDIUse=1 WtCom= 1.00D+00 WtEn= 0.00D+00
 Coeff-Com: -0.261D-03 0.221D-03 0.535D-02 0.638D-01-0.138D+00-0.245D+00
 Coeff-Com:  0.131D+01
 Coeff:     -0.261D-03 0.221D-03 0.535D-02 0.638D-01-0.138D+00-0.245D+00
 Coeff:      0.131D+01
 Gap=     0.364 Goal=   None    Shift=    0.000
 RMSDP=7.49D-06 MaxDP=2.54D-04 DE=-1.61D-05 OVMax= 7.95D-04

 Cycle   8  Pass 1  IDiag  1:
 E= -3107.43767448178     Delta-E=       -0.000001264169 Rises=F Damp=F
 DIIS: error= 8.03D-06 at cycle   8 NSaved=   8.
 NSaved= 8 IEnMin= 8 EnMin= -3107.43767448178     IErMin= 8 ErrMin= 8.03D-06
 ErrMax= 8.03D-06  0.00D+00 EMaxC= 1.00D-01 BMatC= 1.70D-08 BMatP= 3.37D-07
 IDIUse=1 WtCom= 1.00D+00 WtEn= 0.00D+00
 Coeff-Com: -0.526D-04-0.355D-03 0.424D-03 0.117D-01-0.600D-02-0.862D-01
 Coeff-Com:  0.110D+00 0.970D+00
 Coeff:     -0.526D-04-0.355D-03 0.424D-03 0.117D-01-0.600D-02-0.862D-01
 Coeff:      0.110D+00 0.970D+00
 Gap=     0.364 Goal=   None    Shift=    0.000
 RMSDP=1.08D-06 MaxDP=2.80D-05 DE=-1.26D-06 OVMax= 1.09D-04

 Cycle   9  Pass 1  IDiag  1:
 E= -3107.43767451699     Delta-E=       -0.000000035204 Rises=F Damp=F
 DIIS: error= 2.11D-06 at cycle   9 NSaved=   9.
 NSaved= 9 IEnMin= 9 EnMin= -3107.43767451699     IErMin= 9 ErrMin= 2.11D-06
 ErrMax= 2.11D-06  0.00D+00 EMaxC= 1.00D-01 BMatC= 1.27D-09 BMatP= 1.70D-08
 IDIUse=1 WtCom= 1.00D+00 WtEn= 0.00D+00
 Coeff-Com:  0.169D-04-0.178D-03-0.521D-03-0.410D-02 0.140D-01 0.739D-02
 Coeff-Com: -0.104D+00 0.102D+00 0.986D+00
 Coeff:      0.169D-04-0.178D-03-0.521D-03-0.410D-02 0.140D-01 0.739D-02
 Coeff:     -0.104D+00 0.102D+00 0.986D+00
 Gap=     0.364 Goal=   None    Shift=    0.000
 RMSDP=2.83D-07 MaxDP=6.91D-06 DE=-3.52D-08 OVMax= 2.20D-05

 Cycle  10  Pass 1  IDiag  1:
 E= -3107.43767451936     Delta-E=       -0.000000002378 Rises=F Damp=F
 DIIS: error= 4.47D-07 at cycle  10 NSaved=  10.
 NSaved=10 IEnMin=10 EnMin= -3107.43767451936     IErMin=10 ErrMin= 4.47D-07
 ErrMax= 4.47D-07  0.00D+00 EMaxC= 1.00D-01 BMatC= 4.20D-11 BMatP= 1.27D-09
 IDIUse=1 WtCom= 1.00D+00 WtEn= 0.00D+00
 Coeff-Com:  0.419D-06 0.411D-04 0.577D-04-0.221D-03-0.128D-02 0.380D-02
 Coeff-Com:  0.380D-02-0.433D-01-0.142D+00 0.118D+01
 Coeff:      0.419D-06 0.411D-04 0.577D-04-0.221D-03-0.128D-02 0.380D-02
 Coeff:      0.380D-02-0.433D-01-0.142D+00 0.118D+01
 Gap=     0.364 Goal=   None    Shift=    0.000
 RMSDP=8.14D-08 MaxDP=2.00D-06 DE=-2.38D-09 OVMax= 5.17D-06

 Cycle  11  Pass 1  IDiag  1:
 E= -3107.43767451949     Delta-E=       -0.000000000122 Rises=F Damp=F
 DIIS: error= 1.56D-07 at cycle  11 NSaved=  11.
 NSaved=11 IEnMin=11 EnMin= -3107.43767451949     IErMin=11 ErrMin= 1.56D-07
 ErrMax= 1.56D-07  0.00D+00 EMaxC= 1.00D-01 BMatC= 3.69D-12 BMatP= 4.20D-11
 IDIUse=1 WtCom= 1.00D+00 WtEn= 0.00D+00
 Coeff-Com: -0.567D-06 0.243D-05 0.125D-04 0.154D-03-0.376D-03-0.438D-03
 Coeff-Com:  0.308D-02-0.711D-03-0.157D-01-0.127D+00 0.114D+01
 Coeff:     -0.567D-06 0.243D-05 0.125D-04 0.154D-03-0.376D-03-0.438D-03
 Coeff:      0.308D-02-0.711D-03-0.157D-01-0.127D+00 0.114D+01
 Gap=     0.364 Goal=   None    Shift=    0.000
 RMSDP=2.42D-08 MaxDP=5.02D-07 DE=-1.22D-10 OVMax= 2.42D-06

 Cycle  12  Pass 1  IDiag  1:
 E= -3107.43767451950     Delta-E=       -0.000000000014 Rises=F Damp=F
 DIIS: error= 1.06D-07 at cycle  12 NSaved=  12.
 NSaved=12 IEnMin=12 EnMin= -3107.43767451950     IErMin=12 ErrMin= 1.06D-07
 ErrMax= 1.06D-07  0.00D+00 EMaxC= 1.00D-01 BMatC= 1.08D-12 BMatP= 3.69D-12
 IDIUse=1 WtCom= 1.00D+00 WtEn= 0.00D+00
 Coeff-Com: -0.926D-08-0.775D-05-0.123D-04 0.261D-05 0.317D-03-0.552D-03
 Coeff-Com: -0.150D-02 0.725D-02 0.312D-01-0.168D+00-0.422D+00 0.155D+01
 Coeff:     -0.926D-08-0.775D-05-0.123D-04 0.261D-05 0.317D-03-0.552D-03
 Coeff:     -0.150D-02 0.725D-02 0.312D-01-0.168D+00-0.422D+00 0.155D+01
 Gap=     0.364 Goal=   None    Shift=    0.000
 RMSDP=1.94D-08 MaxDP=4.74D-07 DE=-1.36D-11 OVMax= 2.31D-06

 Cycle  13  Pass 1  IDiag  1:
 E= -3107.43767451951     Delta-E=       -0.000000000008 Rises=F Damp=F
 DIIS: error= 4.16D-08 at cycle  13 NSaved=  13.
 NSaved=13 IEnMin=13 EnMin= -3107.43767451951     IErMin=13 ErrMin= 4.16D-08
 ErrMax= 4.16D-08  0.00D+00 EMaxC= 1.00D-01 BMatC= 1.77D-13 BMatP= 1.08D-12
 IDIUse=1 WtCom= 1.00D+00 WtEn= 0.00D+00
 Coeff-Com:  0.127D-06 0.209D-05 0.165D-05-0.351D-04-0.349D-04 0.287D-03
 Coeff-Com: -0.120D-03-0.205D-02-0.842D-02 0.886D-01-0.118D+00-0.534D+00
 Coeff-Com:  0.157D+01
 Coeff:      0.127D-06 0.209D-05 0.165D-05-0.351D-04-0.349D-04 0.287D-03
 Coeff:     -0.120D-03-0.205D-02-0.842D-02 0.886D-01-0.118D+00-0.534D+00
 Coeff:      0.157D+01
 Gap=     0.364 Goal=   None    Shift=    0.000
 RMSDP=1.03D-08 MaxDP=2.55D-07 DE=-7.73D-12 OVMax= 1.27D-06

 Cycle  14  Pass 1  IDiag  1:
 E= -3107.43767451951     Delta-E=       -0.000000000001 Rises=F Damp=F
 DIIS: error= 9.31D-09 at cycle  14 NSaved=  14.
 NSaved=14 IEnMin=14 EnMin= -3107.43767451951     IErMin=14 ErrMin= 9.31D-09
 ErrMax= 9.31D-09  0.00D+00 EMaxC= 1.00D-01 BMatC= 8.25D-15 BMatP= 1.77D-13
 IDIUse=1 WtCom= 1.00D+00 WtEn= 0.00D+00
 Coeff-Com: -0.132D-07 0.103D-06 0.151D-06 0.371D-05-0.105D-04 0.292D-05
 Coeff-Com:  0.505D-04-0.166D-03 0.144D-03-0.607D-02 0.511D-01-0.253D-02
 Coeff-Com: -0.324D+00 0.128D+01
 Coeff:     -0.132D-07 0.103D-06 0.151D-06 0.371D-05-0.105D-04 0.292D-05
 Coeff:      0.505D-04-0.166D-03 0.144D-03-0.607D-02 0.511D-01-0.253D-02
 Coeff:     -0.324D+00 0.128D+01
 Gap=     0.364 Goal=   None    Shift=    0.000
 RMSDP=2.16D-09 MaxDP=4.94D-08 DE=-1.36D-12 OVMax= 2.14D-07

 SCF Done:  E(RHF) =  -3107.43767452     A.U. after   14 cycles
            NFock= 14  Conv=0.22D-08     -V/T= 2.0001
 KE= 3.107189618993D+03 PE=-7.823819894831D+03 EE= 1.418311307738D+03
 Leave Link  502 at Tue Oct 12 14:26:20 2021, MaxMem=  1048576000 cpu:        19.7
 (Enter /usr/local/gaussian/g09/l801.exe)
 ExpMin= 2.53D-02 ExpMax= 1.06D+07 ExpMxC= 1.21D+04 IAcc=3 IRadAn=         5 AccDes= 0.00D+00
 HarFok:  IExCor=  205 AccDes= 0.00D+00 IRadAn=         5 IDoV=-2 UseB2=F ITyADJ=14
 ICtDFT= 12500011 ScaDFX=  1.000000  1.000000  1.000000  1.000000
 Largest valence mixing into a core orbital is  4.46D-04
 Largest core mixing into a valence orbital is  1.48D-04
 Range of M.O.s used for correlation:    16   178
 NBasis=   178 NAE=    31 NBE=    31 NFC=    15 NFV=     0
 NROrb=    163 NOA=    16 NOB=    16 NVA=   147 NVB=   147

 **** Warning!!: The largest alpha MO coefficient is  0.16580936D+02

 Leave Link  801 at Tue Oct 12 14:26:20 2021, MaxMem=  1048576000 cpu:         0.7
 (Enter /usr/local/gaussian/g09/l906.exe)
 Frozen-core derivative calculation, NFC=  15 NFV=   0.
 FulOut=F Deriv=T AODrv=F NAtomX=     4
   MMem=         227  MDisk=          16 MDiskD=          16
  W3Min=     1147744 MinDsk=     1765480 NBas6D=         208
 NBas2D=       22240    NTT=       21736    LW2=     9911920
    MDV=  1048101931 MDiskM=       25146 NBas2p=       22041
 Fully in-core method, ICMem=   526646768.
 IMap=   1   2   3   4   5   6   7   8   9  10  11  12  13  14  15  16  17  18  19  20
 IMap=  21  22  23  24  25  26  27  28  29  30  31
 JobTyp=1 Pass  1 fully in-core, NPsUse= 12.
 Compute canonical integrals.
 FoFCou: FMM=F IPFlag=           0 FMFlag=           0 FMFlg1=           0
         NFxFlg=           0 DoJE=F BraDBF=F KetDBF=F FulRan=T
         wScrn=  0.000000 ICntrl=     600 IOpCl=  1 I1Cent=           0 NGrid=           0
         NMat0=    1 NMatS0=  22240 NMatT0=    0 NMatD0=    1 NMtDS0=    0 NMtDT0=    0
 Symmetry not used in FoFCou.
 Spin components of T(2) and E(2):
     alpha-alpha T2 =       0.3221439110D-01 E2=     -0.9710543296D-01
     alpha-beta  T2 =       0.1690396568D+00 E2=     -0.5255026593D+00
     beta-beta   T2 =       0.3221439110D-01 E2=     -0.9710543296D-01
 The integrals were generated   1 times.
 ANorm=    0.1110616243D+01
 E2 =    -0.7197135252D+00 EUMP2 =    -0.31081573880448D+04
 Leave Link  906 at Tue Oct 12 14:26:29 2021, MaxMem=  1048576000 cpu:        97.9
 (Enter /usr/local/gaussian/g09/l1002.exe)
 Minotr:  Closed shell wavefunction.
          Computing MP2/KS-MP2 derivatives.
          Using Z-Vector for PSCF gradient.
          Skipping F1 and S1 gradient terms here.
          Frozen-core window.
          Direct CPHF calculation.
          Differentiating once with respect to electric field.
                with respect to dipole field.
          Electric field/nuclear overlap derivatives assumed to be zero.
          Requested convergence is 1.0D-10 RMS, and 1.0D-09 maximum.
          NewPWx=F KeepS1=T KeepF1=T KeepIn=T MapXYZ=F SortEE=F KeepMc=T.
          MDV=    1048575801 using IRadAn=       0.
 Keep R1 ints in memory in canonical form, NReq=131472178.
 FoFCou: FMM=F IPFlag=           0 FMFlag=           0 FMFlg1=           0
         NFxFlg=           0 DoJE=F BraDBF=F KetDBF=F FulRan=T
         wScrn=  0.000000 ICntrl=     600 IOpCl=  0 I1Cent=           0 NGrid=           0
         NMat0=    1 NMatS0=  15931 NMatT0=    0 NMatD0=    1 NMtDS0=    0 NMtDT0=    0
 Symmetry not used in FoFCou.
          Solving linear equations separately, MaxMat=       0.
          There are     1 degrees of freedom in the 1st order CPHF.  IDoFFX=0 NUNeed=     1.
 LinEq1:  Iter=  0 NonCon=     1 RMS=3.25D-03 Max=5.89D-02 NDo=     1
 AX will form     1 AO Fock derivatives at one time.
 LinEq1:  Iter=  1 NonCon=     1 RMS=5.52D-04 Max=1.00D-02 NDo=     1
 LinEq1:  Iter=  2 NonCon=     1 RMS=2.19D-04 Max=2.39D-03 NDo=     1
 LinEq1:  Iter=  3 NonCon=     1 RMS=7.91D-05 Max=1.26D-03 NDo=     1
 LinEq1:  Iter=  4 NonCon=     1 RMS=2.61D-05 Max=3.77D-04 NDo=     1
 LinEq1:  Iter=  5 NonCon=     1 RMS=1.38D-05 Max=2.88D-04 NDo=     1
 LinEq1:  Iter=  6 NonCon=     1 RMS=2.52D-06 Max=3.24D-05 NDo=     1
 LinEq1:  Iter=  7 NonCon=     1 RMS=6.99D-07 Max=1.63D-05 NDo=     1
 LinEq1:  Iter=  8 NonCon=     1 RMS=2.11D-07 Max=3.17D-06 NDo=     1
 LinEq1:  Iter=  9 NonCon=     1 RMS=6.44D-08 Max=9.71D-07 NDo=     1
 LinEq1:  Iter= 10 NonCon=     1 RMS=1.66D-08 Max=3.57D-07 NDo=     1
 LinEq1:  Iter= 11 NonCon=     1 RMS=4.63D-09 Max=6.40D-08 NDo=     1
 LinEq1:  Iter= 12 NonCon=     1 RMS=7.89D-10 Max=9.27D-09 NDo=     1
 LinEq1:  Iter= 13 NonCon=     1 RMS=1.57D-10 Max=2.33D-09 NDo=     1
 LinEq1:  Iter= 14 NonCon=     0 RMS=4.01D-11 Max=6.30D-10 NDo=     1
 Linear equations converged to 1.000D-10 1.000D-09 after    14 iterations.
 End of Minotr F.D. properties file   721 does not exist.
 End of Minotr F.D. properties file   722 does not exist.
 End of Minotr F.D. properties file   788 does not exist.
 Leave Link 1002 at Tue Oct 12 14:26:32 2021, MaxMem=  1048576000 cpu:        18.6
 (Enter /usr/local/gaussian/g09/l601.exe)
 Copying SCF densities to generalized density rwf, IOpCl= 0 IROHF=0.

 **********************************************************************

            Population analysis using the MP2 density.

 **********************************************************************

 Alpha  occ. eigenvalues -- -489.80864-104.68155 -64.94903 -58.30375 -58.30336
 Alpha  occ. eigenvalues --  -58.30335 -20.39205 -10.40134  -9.62175  -7.86843
 Alpha  occ. eigenvalues --   -7.86626  -7.86621  -7.23083  -7.22836  -7.22834
 Alpha  occ. eigenvalues --   -2.97311  -2.97176  -2.97174  -2.96873  -2.96873
 Alpha  occ. eigenvalues --   -1.13008  -0.82988  -0.79070  -0.43757  -0.37792
 Alpha  occ. eigenvalues --   -0.36900  -0.28639  -0.22697  -0.22265  -0.21883
 Alpha  occ. eigenvalues --   -0.20652
 Alpha virt. eigenvalues --    0.15784   0.19170   0.21268   0.22549   0.23380
 Alpha virt. eigenvalues --    0.25114   0.25460   0.29492   0.31878   0.33153
 Alpha virt. eigenvalues --    0.34034   0.34326   0.37188   0.42188   0.43502
 Alpha virt. eigenvalues --    0.44731   0.45318   0.47686   0.50704   0.54943
 Alpha virt. eigenvalues --    0.55623   0.57766   0.59583   0.59935   0.61559
 Alpha virt. eigenvalues --    0.63095   0.64279   0.68510   0.71315   0.71364
 Alpha virt. eigenvalues --    0.72153   0.80296   0.80436   0.86220   0.91830
 Alpha virt. eigenvalues --    0.93850   0.94651   0.94916   0.96429   0.97497
 Alpha virt. eigenvalues --    1.00407   1.02516   1.03711   1.04922   1.06240
 Alpha virt. eigenvalues --    1.10423   1.11396   1.12690   1.14307   1.14955
 Alpha virt. eigenvalues --    1.14998   1.19127   1.20749   1.23525   1.24134
 Alpha virt. eigenvalues --    1.26727   1.29952   1.32784   1.34817   1.35285
 Alpha virt. eigenvalues --    1.36535   1.42023   1.45369   1.50251   1.53305
 Alpha virt. eigenvalues --    1.58450   1.61670   1.62953   1.68906   1.73464
 Alpha virt. eigenvalues --    1.73652   1.76652   1.78166   1.85621   1.89380
 Alpha virt. eigenvalues --    2.00413   2.05812   2.31394   2.41010   2.41801
 Alpha virt. eigenvalues --    2.43882   2.44180   2.49215   2.49834   2.50506
 Alpha virt. eigenvalues --    2.50681   2.51788   2.52330   2.53110   2.55027
 Alpha virt. eigenvalues --    2.55737   2.56905   2.58961   2.61779   2.62856
 Alpha virt. eigenvalues --    2.66874   2.67716   2.70620   2.73944   2.74816
 Alpha virt. eigenvalues --    2.76022   2.76987   2.82265   2.83476   2.88951
 Alpha virt. eigenvalues --    3.06702   3.12418   3.16063   3.17608   3.20616
 Alpha virt. eigenvalues --    3.28935   3.29084   3.30778   3.33772   3.36134
 Alpha virt. eigenvalues --    3.47181   3.56533   3.58382   3.67321   3.96277
 Alpha virt. eigenvalues --    3.99879   4.16170   4.27401   4.41973   4.52620
 Alpha virt. eigenvalues --    4.56791   4.64279   4.68908   4.71677   5.17942
 Alpha virt. eigenvalues --    5.39353   5.49788   6.13396   6.56071   6.86937
 Alpha virt. eigenvalues --    6.93452   6.97457   7.00325   7.09800   7.19992
 Alpha virt. eigenvalues --    7.32175   7.39955   7.49630   7.52074   7.78637
 Alpha virt. eigenvalues --    8.18474  12.91327
          Condensed to atoms (all electrons):
               1          2          3          4
     1  O    8.747147  -0.156282  -0.142535   0.171615
     2  Cl  -0.156282  17.187017   0.019871  -0.032476
     3  Br  -0.142535   0.019871  35.629701   0.036009
     4  H    0.171615  -0.032476   0.036009   0.643728
 Mulliken charges:
               1
     1  O   -0.619946
     2  Cl  -0.018131
     3  Br  -0.543047
     4  H    0.181124
 Sum of Mulliken charges =  -1.00000
 Mulliken charges with hydrogens summed into heavy atoms:
               1
     1  O   -0.438823
     2  Cl  -0.018131
     3  Br  -0.543047
 Electronic spatial extent (au):  <R**2>=           1474.9501
 Charge=             -1.0000 electrons
 Dipole moment (field-independent basis, Debye):
    X=              0.1508    Y=              6.8534    Z=              0.0000  Tot=              6.8550
 Quadrupole moment (field-independent basis, Debye-Ang):
   XX=            -46.1966   YY=            -65.4473   ZZ=            -42.7672
   XY=             -5.7437   XZ=             -0.0000   YZ=             -0.0000
 Traceless Quadrupole moment (field-independent basis, Debye-Ang):
   XX=              5.2737   YY=            -13.9769   ZZ=              8.7032
   XY=             -5.7437   XZ=             -0.0000   YZ=             -0.0000
 Octapole moment (field-independent basis, Debye-Ang**2):
  XXX=            -23.8074  YYY=            262.7647  ZZZ=              0.0000  XYY=              8.4363
  XXY=             69.2189  XXZ=              0.0000  XZZ=             -8.1819  YZZ=             65.2934
  YYZ=              0.0000  XYZ=              0.0000
 Hexadecapole moment (field-independent basis, Debye-Ang**3):
 XXXX=           -351.2629 YYYY=          -1398.2555 ZZZZ=            -58.5979 XXXY=           -142.4525
 XXXZ=              0.0000 YYYX=           -183.2464 YYYZ=             -0.0000 ZZZX=              0.0000
 ZZZY=             -0.0000 XXYY=           -276.3429 XXZZ=            -72.0648 YYZZ=           -213.6182
 XXYZ=             -0.0000 YYXZ=             -0.0000 ZZXY=            -46.6107
 N-N= 1.908812935803D+02 E-N=-7.822388658877D+03  KE= 3.107207723085D+03
 No NMR shielding tensors so no spin-rotation constants.
 Leave Link  601 at Tue Oct 12 14:26:33 2021, MaxMem=  1048576000 cpu:         2.1
 (Enter /usr/local/gaussian/g09/l607.exe)
 ******************************Gaussian NBO Version 3.1******************************
             N A T U R A L   A T O M I C   O R B I T A L   A N D
          N A T U R A L   B O N D   O R B I T A L   A N A L Y S I S
 ******************************Gaussian NBO Version 3.1******************************
       /RESON  / : Allow strongly delocalized NBO set

 Analyzing the MP2 density

 Job title: title                                                           

 Storage needed:     95974 in NPA,    127345 in NBO (1048575904 available)


 NATURAL POPULATIONS:  Natural atomic orbital occupancies 
                                                          
   NAO  Atom  No  lang   Type(AO)    Occupancy
 --------------------------------------------
     1    O    1  S      Cor( 1S)     1.99985
     2    O    1  S      Val( 2S)     1.85669
     3    O    1  S      Ryd( 3S)     0.01295
     4    O    1  S      Ryd( 4S)     0.00130
     5    O    1  S      Ryd( 5S)     0.00018
     6    O    1  px     Val( 2p)     1.16570
     7    O    1  px     Ryd( 3p)     0.00831
     8    O    1  px     Ryd( 5p)     0.00071
     9    O    1  px     Ryd( 4p)     0.00077
    10    O    1  py     Val( 2p)     1.76821
    11    O    1  py     Ryd( 3p)     0.01601
    12    O    1  py     Ryd( 4p)     0.00064
    13    O    1  py     Ryd( 5p)     0.00026
    14    O    1  pz     Val( 2p)     1.94303
    15    O    1  pz     Ryd( 3p)     0.02361
    16    O    1  pz     Ryd( 4p)     0.00060
    17    O    1  pz     Ryd( 5p)     0.00017
    18    O    1  dxy    Ryd( 3d)     0.00847
    19    O    1  dxy    Ryd( 4d)     0.00056
    20    O    1  dxy    Ryd( 5d)     0.00013
    21    O    1  dxz    Ryd( 3d)     0.00873
    22    O    1  dxz    Ryd( 4d)     0.00059
    23    O    1  dxz    Ryd( 5d)     0.00012
    24    O    1  dyz    Ryd( 3d)     0.00664
    25    O    1  dyz    Ryd( 4d)     0.00068
    26    O    1  dyz    Ryd( 5d)     0.00025
    27    O    1  dx2y2  Ryd( 3d)     0.00973
    28    O    1  dx2y2  Ryd( 4d)     0.00043
    29    O    1  dx2y2  Ryd( 5d)     0.00014
    30    O    1  dz2    Ryd( 3d)     0.00775
    31    O    1  dz2    Ryd( 4d)     0.00065
    32    O    1  dz2    Ryd( 5d)     0.00015
    33    O    1  f(0)   Ryd( 4f)     0.00064
    34    O    1  f(0)   Ryd( 5f)     0.00011
    35    O    1  f(C1)  Ryd( 4f)     0.00065
    36    O    1  f(C1)  Ryd( 5f)     0.00012
    37    O    1  f(S1)  Ryd( 4f)     0.00061
    38    O    1  f(S1)  Ryd( 5f)     0.00013
    39    O    1  f(C2)  Ryd( 4f)     0.00068
    40    O    1  f(C2)  Ryd( 5f)     0.00014
    41    O    1  f(S2)  Ryd( 4f)     0.00056
    42    O    1  f(S2)  Ryd( 5f)     0.00012
    43    O    1  f(C3)  Ryd( 4f)     0.00066
    44    O    1  f(C3)  Ryd( 5f)     0.00014
    45    O    1  f(S3)  Ryd( 4f)     0.00064
    46    O    1  f(S3)  Ryd( 5f)     0.00013

    47   Cl    2  S      Cor( 1S)     2.00000
    48   Cl    2  S      Cor( 2S)     1.99974
    49   Cl    2  S      Val( 3S)     1.87432
    50   Cl    2  S      Ryd( 4S)     0.00921
    51   Cl    2  S      Ryd( 5S)     0.00061
    52   Cl    2  S      Ryd( 6S)     0.00018
    53   Cl    2  px     Cor( 2p)     1.99995
    54   Cl    2  px     Val( 3p)     0.95683
    55   Cl    2  px     Ryd( 4p)     0.00746
    56   Cl    2  px     Ryd( 5p)     0.00058
    57   Cl    2  px     Ryd( 6p)     0.00021
    58   Cl    2  py     Cor( 2p)     2.00003
    59   Cl    2  py     Val( 3p)     1.95137
    60   Cl    2  py     Ryd( 4p)     0.01141
    61   Cl    2  py     Ryd( 5p)     0.00061
    62   Cl    2  py     Ryd( 6p)     0.00006
    63   Cl    2  pz     Cor( 2p)     2.00003
    64   Cl    2  pz     Val( 3p)     1.95270
    65   Cl    2  pz     Ryd( 4p)     0.01199
    66   Cl    2  pz     Ryd( 5p)     0.00076
    67   Cl    2  pz     Ryd( 6p)     0.00003
    68   Cl    2  dxy    Ryd( 3d)     0.02104
    69   Cl    2  dxy    Ryd( 4d)     0.00125
    70   Cl    2  dxy    Ryd( 5d)     0.00038
    71   Cl    2  dxz    Ryd( 3d)     0.02420
    72   Cl    2  dxz    Ryd( 4d)     0.00147
    73   Cl    2  dxz    Ryd( 5d)     0.00039
    74   Cl    2  dyz    Ryd( 3d)     0.01707
    75   Cl    2  dyz    Ryd( 4d)     0.00071
    76   Cl    2  dyz    Ryd( 5d)     0.00025
    77   Cl    2  dx2y2  Ryd( 3d)     0.01914
    78   Cl    2  dx2y2  Ryd( 4d)     0.00053
    79   Cl    2  dx2y2  Ryd( 5d)     0.00020
    80   Cl    2  dz2    Ryd( 3d)     0.01795
    81   Cl    2  dz2    Ryd( 4d)     0.00062
    82   Cl    2  dz2    Ryd( 5d)     0.00023
    83   Cl    2  f(0)   Ryd( 4f)     0.00133
    84   Cl    2  f(0)   Ryd( 5f)     0.00015
    85   Cl    2  f(C1)  Ryd( 4f)     0.00154
    86   Cl    2  f(C1)  Ryd( 5f)     0.00015
    87   Cl    2  f(S1)  Ryd( 4f)     0.00128
    88   Cl    2  f(S1)  Ryd( 5f)     0.00013
    89   Cl    2  f(C2)  Ryd( 4f)     0.00137
    90   Cl    2  f(C2)  Ryd( 5f)     0.00015
    91   Cl    2  f(S2)  Ryd( 4f)     0.00123
    92   Cl    2  f(S2)  Ryd( 5f)     0.00014
    93   Cl    2  f(C3)  Ryd( 4f)     0.00171
    94   Cl    2  f(C3)  Ryd( 5f)     0.00015
    95   Cl    2  f(S3)  Ryd( 4f)     0.00135
    96   Cl    2  f(S3)  Ryd( 5f)     0.00016

    97   Br    3  S      Cor( 1S)     2.00000
    98   Br    3  S      Cor( 2S)     2.00000
    99   Br    3  S      Cor( 3S)     1.99936
   100   Br    3  S      Val( 4S)     1.91621
   101   Br    3  S      Ryd( 5S)     0.00124
   102   Br    3  S      Ryd( 6S)     0.00054
   103   Br    3  S      Ryd( 7S)     0.00023
   104   Br    3  px     Cor( 2p)     2.00000
   105   Br    3  px     Cor( 3p)     1.99994
   106   Br    3  px     Val( 4p)     1.93617
   107   Br    3  px     Ryd( 5p)     0.00970
   108   Br    3  px     Ryd( 6p)     0.00077
   109   Br    3  px     Ryd( 7p)     0.00014
   110   Br    3  py     Cor( 2p)     2.00000
   111   Br    3  py     Cor( 3p)     1.99977
   112   Br    3  py     Val( 4p)     1.64116
   113   Br    3  py     Ryd( 5p)     0.00811
   114   Br    3  py     Ryd( 6p)     0.00068
   115   Br    3  py     Ryd( 7p)     0.00014
   116   Br    3  pz     Cor( 2p)     2.00000
   117   Br    3  pz     Cor( 3p)     1.99995
   118   Br    3  pz     Val( 4p)     1.95462
   119   Br    3  pz     Ryd( 5p)     0.00977
   120   Br    3  pz     Ryd( 6p)     0.00075
   121   Br    3  pz     Ryd( 7p)     0.00011
   122   Br    3  dxy    Cor( 3d)     1.99762
   123   Br    3  dxy    Ryd( 4d)     0.01802
   124   Br    3  dxy    Ryd( 5d)     0.00124
   125   Br    3  dxy    Ryd( 6d)     0.00024
   126   Br    3  dxz    Cor( 3d)     1.99769
   127   Br    3  dxz    Ryd( 4d)     0.01800
   128   Br    3  dxz    Ryd( 5d)     0.00162
   129   Br    3  dxz    Ryd( 6d)     0.00025
   130   Br    3  dyz    Cor( 3d)     1.99765
   131   Br    3  dyz    Ryd( 4d)     0.01790
   132   Br    3  dyz    Ryd( 5d)     0.00125
   133   Br    3  dyz    Ryd( 6d)     0.00026
   134   Br    3  dx2y2  Cor( 3d)     1.99753
   135   Br    3  dx2y2  Ryd( 4d)     0.01884
   136   Br    3  dx2y2  Ryd( 5d)     0.00138
   137   Br    3  dx2y2  Ryd( 6d)     0.00025
   138   Br    3  dz2    Cor( 3d)     1.99763
   139   Br    3  dz2    Ryd( 4d)     0.01839
   140   Br    3  dz2    Ryd( 5d)     0.00157
   141   Br    3  dz2    Ryd( 6d)     0.00019
   142   Br    3  f(0)   Ryd( 4f)     0.00168
   143   Br    3  f(0)   Ryd( 5f)     0.00025
   144   Br    3  f(C1)  Ryd( 4f)     0.00172
   145   Br    3  f(C1)  Ryd( 5f)     0.00023
   146   Br    3  f(S1)  Ryd( 4f)     0.00177
   147   Br    3  f(S1)  Ryd( 5f)     0.00027
   148   Br    3  f(C2)  Ryd( 4f)     0.00166
   149   Br    3  f(C2)  Ryd( 5f)     0.00024
   150   Br    3  f(S2)  Ryd( 4f)     0.00168
   151   Br    3  f(S2)  Ryd( 5f)     0.00024
   152   Br    3  f(C3)  Ryd( 4f)     0.00170
   153   Br    3  f(C3)  Ryd( 5f)     0.00025
   154   Br    3  f(S3)  Ryd( 4f)     0.00173
   155   Br    3  f(S3)  Ryd( 5f)     0.00027

   156    H    4  S      Val( 1S)     0.64762
   157    H    4  S      Ryd( 2S)     0.00601
   158    H    4  S      Ryd( 3S)     0.00081
   159    H    4  S      Ryd( 4S)     0.00017
   160    H    4  px     Ryd( 2p)     0.00493
   161    H    4  px     Ryd( 3p)     0.00044
   162    H    4  px     Ryd( 4p)     0.00011
   163    H    4  py     Ryd( 2p)     0.00481
   164    H    4  py     Ryd( 3p)     0.00129
   165    H    4  py     Ryd( 4p)     0.00021
   166    H    4  pz     Ryd( 2p)     0.00640
   167    H    4  pz     Ryd( 3p)     0.00057
   168    H    4  pz     Ryd( 4p)     0.00027
   169    H    4  dxy    Ryd( 3d)     0.00030
   170    H    4  dxy    Ryd( 4d)     0.00011
   171    H    4  dxz    Ryd( 3d)     0.00027
   172    H    4  dxz    Ryd( 4d)     0.00008
   173    H    4  dyz    Ryd( 3d)     0.00031
   174    H    4  dyz    Ryd( 4d)     0.00008
   175    H    4  dx2y2  Ryd( 3d)     0.00034
   176    H    4  dx2y2  Ryd( 4d)     0.00019
   177    H    4  dz2    Ryd( 3d)     0.00028
   178    H    4  dz2    Ryd( 4d)     0.00016

 WARNING:  5 low occupancy (<1.9990e) core orbitals found on Br    3


 Summary of Natural Population Analysis:                  
                                                          
                                       Natural Population 
                Natural  -----------------------------------------------
    Atom  No    Charge         Core      Valence    Rydberg      Total
 -----------------------------------------------------------------------
      O    1   -0.84932      1.99985     6.73363    0.11584     8.84932
     Cl    2    0.10561      9.99976     6.73523    0.15940    16.89439
     Br    3   -0.58053     27.98713     7.44816    0.14524    35.58053
      H    4    0.32423      0.00000     0.64762    0.02815     0.67577
 =======================================================================
   * Total *   -1.00000     39.98673    21.56464    0.44863    62.00000

                                 Natural Population      
 --------------------------------------------------------
   Core                      39.98673 ( 99.9668% of  40)
   Valence                   21.56464 ( 98.0211% of  22)
   Natural Minimal Basis     61.55137 ( 99.2764% of  62)
   Natural Rydberg Basis      0.44863 (  0.7236% of  62)
 --------------------------------------------------------

    Atom  No          Natural Electron Configuration
 ----------------------------------------------------------------------------
      O    1      [core]2S( 1.86)2p( 4.88)3S( 0.01)3p( 0.05)3d( 0.04)
     Cl    2      [core]3S( 1.87)3p( 4.86)4S( 0.01)3d( 0.10)4p( 0.03)4f( 0.01)
     Br    3      [core]4S( 1.92)4p( 5.53)4d( 0.09)5p( 0.03)4f( 0.01)5d( 0.01)
      H    4            1S( 0.65)2S( 0.01)2p( 0.02)


 NATURAL BOND ORBITAL ANALYSIS:
 Warning:  a bond orbital has occupanc of -0.00001
 Warning:  a bond orbital has occupanc of -0.00025

                       Occupancies       Lewis Structure    Low   High
           Occ.    -------------------  -----------------   occ   occ
  Cycle   Thresh.   Lewis   Non-Lewis     CR  BD  3C  LP    (L)   (NL)   Dev
 =============================================================================
   1(1)    1.90    61.12192   0.87808     20   2   0   9     1      1    0.51
 Warning:  a bond orbital has occupanc of -0.00001
 Warning:  a bond orbital has occupanc of -0.00025
   2(2)    1.90    61.26940   0.73060     20   2   0   9     1      1    0.31
 Warning:  a bond orbital has occupanc of -0.00001
 Warning:  a bond orbital has occupanc of -0.00025
   3(3)    1.90    61.12192   0.87808     20   2   0   9     1      1    0.51
 Warning:  a bond orbital has occupanc of -0.00001
 Warning:  a bond orbital has occupanc of -0.00025
   4(4)    1.90    61.26940   0.73060     20   2   0   9     1      1    0.31
 Warning:  a bond orbital has occupanc of -0.00001
 Warning:  a bond orbital has occupanc of -0.00025
   5(1)    1.80    61.26940   0.73060     20   2   0   9     1      1    0.31
 Warning:  a bond orbital has occupanc of -0.00001
 Warning:  a bond orbital has occupanc of -0.00025
   6(2)    1.80    61.12192   0.87808     20   2   0   9     1      1    0.51
 Warning:  a bond orbital has occupanc of -0.00001
 Warning:  a bond orbital has occupanc of -0.00025
   7(3)    1.80    61.26940   0.73060     20   2   0   9     1      1    0.31
 Warning:  a bond orbital has occupanc of -0.00001
 Warning:  a bond orbital has occupanc of -0.00025
   8(1)    1.70    61.28162   0.71838     20   2   0   9     0      1    0.31
 Warning:  a bond orbital has occupanc of -0.00001
 Warning:  a bond orbital has occupanc of -0.00025
   9(2)    1.70    61.28162   0.71838     20   2   0   9     0      1    0.31
 Warning:  a bond orbital has occupanc of -0.00001
 Warning:  a bond orbital has occupanc of -0.00025
  10(1)    1.60    61.28162   0.71838     20   2   0   9     0      1    0.31
 Warning:  a bond orbital has occupanc of -0.00001
 Warning:  a bond orbital has occupanc of -0.00025
  11(2)    1.60    61.28162   0.71838     20   2   0   9     0      1    0.31
 Warning:  a bond orbital has occupanc of -0.00001
 Warning:  a bond orbital has occupanc of -0.00025
  12(1)    1.50    60.89595   1.10405     20   1   0  10     0      1    0.51
 Warning:  a bond orbital has occupanc of -0.00001
 Warning:  a bond orbital has occupanc of -0.00025
  13(2)    1.50    60.89595   1.10405     20   1   0  10     0      1    0.51
 Warning:  a bond orbital has occupanc of -0.00001
 Warning:  a bond orbital has occupanc of -0.00025
  14(1)    1.70    61.28162   0.71838     20   2   0   9     0      1    0.31
 -----------------------------------------------------------------------------

 Structure accepted: RESONANCE keyword permits strongly delocalized structure

 WARNING:  5 low occupancy (<1.9990e) core orbitals found on Br    3

 --------------------------------------------------------
   Core                     39.98674 ( 99.967% of  40)
   Valence Lewis            21.29489 ( 96.795% of  22)
  ==================       ============================
   Total Lewis              61.28162 ( 98.841% of  62)
  -----------------------------------------------------
   Valence non-Lewis         0.31733 (  0.512% of  62)
   Rydberg non-Lewis         0.40104 (  0.647% of  62)
  ==================       ============================
   Total non-Lewis           0.71838 (  1.159% of  62)
 --------------------------------------------------------


       (Occupancy)   Bond orbital/ Coefficients/ Hybrids
 ---------------------------------------------------------------------------------
     1. (1.93507) BD ( 1) O   1 -Cl   2  
                ( 56.49%)   0.7516* O   1 s(  8.40%)p10.85( 91.11%)d 0.06(  0.48%)
                                                  f 0.00(  0.02%)
                                            0.0003  0.2820 -0.0645  0.0161 -0.0016
                                            0.9527 -0.0486 -0.0122 -0.0191  0.0134
                                           -0.0193 -0.0031  0.0030  0.0000  0.0000
                                            0.0000  0.0000 -0.0101 -0.0013  0.0007
                                            0.0000  0.0000  0.0000  0.0000  0.0000
                                            0.0000  0.0559  0.0035  0.0010 -0.0388
                                           -0.0031 -0.0000  0.0000  0.0000 -0.0104
                                            0.0007 -0.0005  0.0001  0.0000  0.0000
                                            0.0000  0.0000  0.0087  0.0007 -0.0005
                                            0.0010
                ( 43.51%)   0.6596*Cl   2 s(  9.71%)p 9.18( 89.12%)d 0.11(  1.05%)
                                                  f 0.01(  0.12%)
                                           -0.0000  0.0007  0.3048 -0.0640 -0.0113
                                           -0.0021 -0.0004 -0.9415  0.0668  0.0129
                                           -0.0023  0.0000 -0.0079 -0.0043  0.0027
                                           -0.0020  0.0000  0.0000  0.0000  0.0000
                                            0.0000  0.0070 -0.0014 -0.0008  0.0000
                                            0.0000  0.0000  0.0000  0.0000  0.0000
                                            0.0853 -0.0136 -0.0022 -0.0537  0.0087
                                            0.0023  0.0000  0.0000  0.0217 -0.0027
                                            0.0003 -0.0001  0.0000  0.0000  0.0000
                                            0.0000 -0.0268  0.0028 -0.0009  0.0006
     2. (1.95480) BD ( 1)Br   3 - H   4  
                ( 77.22%)   0.8787*Br   3 s( 14.59%)p 5.83( 85.10%)d 0.02(  0.29%)
                                                  f 0.00(  0.02%)
                                           -0.0000  0.0000  0.0004  0.3820 -0.0019
                                           -0.0034  0.0003 -0.0000  0.0001  0.2155
                                           -0.0032 -0.0013 -0.0006 -0.0000  0.0006
                                            0.8968 -0.0174 -0.0069 -0.0026  0.0000
                                            0.0000  0.0000  0.0000  0.0000  0.0000
                                            0.0000  0.0206 -0.0022  0.0005  0.0000
                                            0.0000  0.0000  0.0000  0.0000  0.0000
                                            0.0000  0.0000 -0.0000 -0.0409  0.0033
                                           -0.0008 -0.0000 -0.0273  0.0026 -0.0009
                                            0.0000  0.0000 -0.0022 -0.0001 -0.0090
                                           -0.0006  0.0000  0.0000  0.0000  0.0000
                                           -0.0077 -0.0004 -0.0088 -0.0011
                ( 22.78%)   0.4773* H   4 s( 99.79%)p 0.00(  0.18%)d 0.00(  0.03%)
                                            0.9987 -0.0147 -0.0176 -0.0001 -0.0073
                                           -0.0027 -0.0048 -0.0312 -0.0266 -0.0077
                                            0.0000  0.0000  0.0000 -0.0001  0.0076
                                            0.0000  0.0000  0.0000  0.0000 -0.0001
                                           -0.0128 -0.0005 -0.0097
     3. (1.99985) CR ( 1) O   1           s(100.00%)p 0.00(  0.00%)
                                            1.0000 -0.0001  0.0000 -0.0000  0.0000
                                           -0.0003  0.0000  0.0000  0.0000 -0.0004
                                            0.0000  0.0000 -0.0000  0.0000  0.0000
                                            0.0000  0.0000 -0.0000 -0.0000  0.0000
                                            0.0000  0.0000  0.0000  0.0000  0.0000
                                            0.0000 -0.0000 -0.0000  0.0000  0.0000
                                            0.0000  0.0000  0.0000  0.0000  0.0000
                                           -0.0000  0.0000 -0.0000  0.0000  0.0000
                                            0.0000  0.0000 -0.0000  0.0000 -0.0000
                                           -0.0000
     4. (2.00000) CR ( 1)Cl   2           s(100.00%)
                                            1.0000  0.0000  0.0000 -0.0000 -0.0000
                                           -0.0000 -0.0000 -0.0000  0.0000  0.0000
                                           -0.0000  0.0000 -0.0000 -0.0000  0.0000
                                           -0.0000  0.0000  0.0000  0.0000  0.0000
                                            0.0000  0.0000 -0.0000 -0.0000  0.0000
                                            0.0000  0.0000  0.0000  0.0000  0.0000
                                            0.0000 -0.0000 -0.0000 -0.0000  0.0000
                                            0.0000  0.0000  0.0000  0.0000 -0.0000
                                            0.0000 -0.0000  0.0000  0.0000  0.0000
                                            0.0000 -0.0000  0.0000 -0.0000  0.0000
     5. (1.99975) CR ( 2)Cl   2           s(100.00%)p 0.00(  0.00%)
                                            0.0000  1.0000 -0.0005  0.0000  0.0000
                                            0.0000  0.0000  0.0006 -0.0000 -0.0000
                                            0.0000 -0.0000  0.0000  0.0000 -0.0000
                                            0.0000  0.0000  0.0000  0.0000  0.0000
                                            0.0000 -0.0000  0.0000  0.0000  0.0000
                                            0.0000  0.0000  0.0000  0.0000  0.0000
                                           -0.0001  0.0000  0.0000  0.0000 -0.0000
                                           -0.0000  0.0000  0.0000 -0.0000  0.0000
                                           -0.0000  0.0000  0.0000  0.0000  0.0000
                                            0.0000  0.0000 -0.0000  0.0000 -0.0000
     6. (1.99995) CR ( 3)Cl   2           s(  0.00%)p 1.00(100.00%)
                                           -0.0000  0.0000  0.0001 -0.0000 -0.0000
                                           -0.0000  1.0000 -0.0004  0.0000  0.0000
                                           -0.0000  0.0000 -0.0000 -0.0000  0.0000
                                           -0.0000  0.0000  0.0000  0.0000  0.0000
                                            0.0000  0.0000 -0.0000 -0.0000  0.0000
                                            0.0000  0.0000  0.0000  0.0000  0.0000
                                            0.0000 -0.0000 -0.0000 -0.0000  0.0000
                                            0.0000  0.0000  0.0000  0.0000 -0.0000
                                            0.0000 -0.0000  0.0000  0.0000  0.0000
                                            0.0000 -0.0000  0.0000 -0.0000  0.0000
     7. (2.00003) CR ( 4)Cl   2           s(  0.00%)p 1.00(100.00%)
                                            0.0000 -0.0000  0.0000  0.0000  0.0000
                                           -0.0000  0.0000 -0.0000  0.0000  0.0000
                                           -0.0000  1.0000  0.0001  0.0000  0.0000
                                            0.0000  0.0000  0.0000  0.0000  0.0000
                                            0.0000  0.0000  0.0000  0.0000  0.0000
                                            0.0000  0.0000  0.0000  0.0000  0.0000
                                           -0.0000 -0.0000 -0.0000  0.0000 -0.0000
                                            0.0000  0.0000  0.0000  0.0000  0.0000
                                           -0.0000  0.0000  0.0000  0.0000  0.0000
                                            0.0000 -0.0000  0.0000  0.0000 -0.0000
     8. (2.00003) CR ( 5)Cl   2           s(  0.00%)p 1.00(100.00%)
                                            0.0000  0.0000  0.0000  0.0000  0.0000
                                            0.0000  0.0000  0.0000  0.0000  0.0000
                                            0.0000  0.0000  0.0000  0.0000  0.0000
                                            0.0000  1.0000  0.0001  0.0000  0.0000
                                           -0.0000  0.0000  0.0000  0.0000  0.0000
                                            0.0000  0.0000  0.0000  0.0000 -0.0000
                                            0.0000  0.0000  0.0000  0.0000  0.0000
                                            0.0000 -0.0000  0.0000  0.0000  0.0000
                                            0.0000  0.0000  0.0000 -0.0000  0.0000
                                           -0.0000  0.0000  0.0000  0.0000  0.0000
     9. (2.00000) CR ( 1)Br   3           s(100.00%)
                                            1.0000  0.0000  0.0000  0.0000 -0.0000
                                           -0.0000 -0.0000 -0.0000  0.0000  0.0000
                                           -0.0000 -0.0000 -0.0000 -0.0000  0.0000
                                            0.0000 -0.0000 -0.0000 -0.0000  0.0000
                                            0.0000  0.0000  0.0000  0.0000  0.0000
                                           -0.0000  0.0000 -0.0000 -0.0000  0.0000
                                            0.0000  0.0000  0.0000  0.0000  0.0000
                                            0.0000  0.0000  0.0000 -0.0000  0.0000
                                            0.0000  0.0000 -0.0000  0.0000  0.0000
                                            0.0000  0.0000 -0.0000 -0.0000 -0.0000
                                           -0.0000  0.0000  0.0000  0.0000  0.0000
                                           -0.0000 -0.0000 -0.0000 -0.0000
    10. (2.00000) CR ( 2)Br   3           s(100.00%)
                                            0.0000  1.0000 -0.0000 -0.0000  0.0000
                                            0.0000 -0.0000  0.0000 -0.0000 -0.0000
                                            0.0000  0.0000  0.0000  0.0000 -0.0000
                                           -0.0000  0.0000  0.0000  0.0000  0.0000
                                            0.0000  0.0000  0.0000  0.0000  0.0000
                                            0.0000 -0.0000  0.0000 -0.0000  0.0000
                                            0.0000  0.0000  0.0000  0.0000  0.0000
                                            0.0000  0.0000 -0.0000  0.0000 -0.0000
                                            0.0000 -0.0000  0.0000 -0.0000  0.0000
                                            0.0000  0.0000  0.0000  0.0000  0.0000
                                            0.0000  0.0000  0.0000  0.0000  0.0000
                                            0.0000  0.0000  0.0000  0.0000
    11. (1.99936) CR ( 3)Br   3           s(100.00%)p 0.00(  0.00%)
                                            0.0000 -0.0000  1.0000 -0.0006  0.0000
                                            0.0000  0.0000  0.0000 -0.0000 -0.0000
                                            0.0000  0.0000  0.0000  0.0000 -0.0000
                                           -0.0002  0.0000  0.0000  0.0000  0.0000
                                            0.0000  0.0000  0.0000  0.0000  0.0000
                                            0.0000 -0.0000  0.0000  0.0000  0.0000
                                            0.0000  0.0000  0.0000  0.0000  0.0000
                                            0.0000  0.0000 -0.0000  0.0000 -0.0000
                                            0.0000 -0.0000  0.0000 -0.0000 -0.0000
                                            0.0000  0.0000  0.0000  0.0000  0.0000
                                            0.0000  0.0000  0.0000  0.0000  0.0000
                                            0.0000  0.0000  0.0000  0.0000
    12. (2.00000) CR ( 4)Br   3           s(  0.00%)p 1.00(100.00%)
                                           -0.0000  0.0000  0.0000  0.0000 -0.0000
                                           -0.0000  0.0000  1.0000  0.0000  0.0000
                                            0.0000  0.0000  0.0000 -0.0000  0.0000
                                            0.0000 -0.0000 -0.0000 -0.0000  0.0000
                                            0.0000  0.0000  0.0000  0.0000  0.0000
                                           -0.0000  0.0000 -0.0000 -0.0000  0.0000
                                            0.0000  0.0000  0.0000  0.0000  0.0000
                                            0.0000  0.0000 -0.0000 -0.0000  0.0000
                                           -0.0000 -0.0000 -0.0000  0.0000  0.0000
                                            0.0000  0.0000 -0.0000  0.0000 -0.0000
                                           -0.0000  0.0000  0.0000  0.0000  0.0000
                                           -0.0000  0.0000  0.0000 -0.0000
    13. (1.99993) CR ( 5)Br   3           s(  0.00%)p 1.00(100.00%)
                                            0.0000 -0.0000 -0.0000  0.0000  0.0000
                                            0.0000 -0.0000  0.0000  1.0000 -0.0005
                                           -0.0000 -0.0000 -0.0000  0.0000 -0.0000
                                           -0.0000  0.0000  0.0000  0.0000  0.0000
                                            0.0000  0.0000  0.0000  0.0000  0.0000
                                            0.0000 -0.0000  0.0000  0.0000  0.0000
                                            0.0000  0.0000  0.0000  0.0000  0.0000
                                            0.0000  0.0000  0.0000  0.0000 -0.0000
                                            0.0000  0.0000  0.0000 -0.0000 -0.0000
                                            0.0000  0.0000  0.0000 -0.0000  0.0000
                                            0.0000  0.0000  0.0000  0.0000  0.0000
                                            0.0000 -0.0000 -0.0000  0.0000
    14. (2.00000) CR ( 6)Br   3           s(  0.00%)p 1.00(100.00%)
                                           -0.0000  0.0000  0.0000  0.0000 -0.0000
                                           -0.0000  0.0000 -0.0000  0.0000  0.0000
                                           -0.0000 -0.0000 -0.0000  1.0000  0.0000
                                            0.0000 -0.0000 -0.0000 -0.0000  0.0000
                                            0.0000  0.0000  0.0000  0.0000  0.0000
                                            0.0000  0.0000 -0.0000  0.0000  0.0000
                                            0.0000  0.0000  0.0000  0.0000  0.0000
                                            0.0000  0.0000 -0.0000 -0.0000  0.0000
                                           -0.0000 -0.0000 -0.0000  0.0000 -0.0000
                                            0.0000  0.0000 -0.0000 -0.0000 -0.0000
                                           -0.0000  0.0000  0.0000  0.0000  0.0000
                                           -0.0000 -0.0000 -0.0000 -0.0000
    15. (1.99977) CR ( 7)Br   3           s(  0.00%)p 1.00(100.00%)
                                            0.0000 -0.0000 -0.0000  0.0001  0.0000
                                            0.0000 -0.0000  0.0000 -0.0000 -0.0000
                                            0.0000  0.0000  0.0000  0.0000  1.0000
                                           -0.0007  0.0000  0.0000  0.0000  0.0000
                                            0.0000  0.0000  0.0000  0.0000  0.0000
                                           -0.0000 -0.0000  0.0000 -0.0000  0.0000
                                            0.0000  0.0000  0.0000  0.0000  0.0000
                                            0.0000  0.0000  0.0000  0.0000 -0.0000
                                            0.0000  0.0000  0.0000 -0.0000  0.0000
                                            0.0000  0.0000  0.0000  0.0000  0.0000
                                            0.0000  0.0000  0.0000  0.0000  0.0000
                                            0.0000  0.0000  0.0000  0.0000
    16. (2.00000) CR ( 8)Br   3           s(  0.00%)p 1.00(100.00%)
                                            0.0000  0.0000  0.0000  0.0000  0.0000
                                            0.0000  0.0000  0.0000  0.0000  0.0000
                                            0.0000  0.0000  0.0000  0.0000  0.0000
                                            0.0000  0.0000  0.0000  0.0000  1.0000
                                            0.0000  0.0000  0.0000  0.0000  0.0000
                                            0.0000  0.0000  0.0000  0.0000 -0.0000
                                            0.0000  0.0000 -0.0000 -0.0000  0.0000
                                            0.0000 -0.0000  0.0000  0.0000  0.0000
                                            0.0000  0.0000  0.0000  0.0000  0.0000
                                           -0.0000  0.0000  0.0000  0.0000  0.0000
                                            0.0000 -0.0000  0.0000  0.0000 -0.0000
                                            0.0000  0.0000  0.0000  0.0000
    17. (1.99994) CR ( 9)Br   3           s(  0.00%)p 1.00(100.00%)
                                            0.0000  0.0000  0.0000  0.0000  0.0000
                                            0.0000  0.0000  0.0000  0.0000  0.0000
                                            0.0000  0.0000  0.0000  0.0000  0.0000
                                            0.0000  0.0000  0.0000  0.0000  0.0000
                                            1.0000 -0.0005 -0.0000 -0.0000 -0.0000
                                            0.0000  0.0000  0.0000  0.0000  0.0000
                                           -0.0000 -0.0000  0.0000  0.0000 -0.0000
                                           -0.0000  0.0000  0.0000  0.0000  0.0000
                                            0.0000  0.0000  0.0000  0.0000  0.0000
                                            0.0000 -0.0000  0.0000  0.0000  0.0000
                                            0.0000  0.0000 -0.0000 -0.0000  0.0000
                                            0.0000  0.0000  0.0000  0.0000
    18. (1.99762) CR (10)Br   3           s(  0.00%)p 0.00(  0.00%)d 1.00(100.00%)
                                           -0.0000  0.0000  0.0000  0.0000  0.0000
                                            0.0000 -0.0000 -0.0000  0.0000  0.0000
                                            0.0000  0.0000  0.0000  0.0000 -0.0000
                                           -0.0000  0.0000  0.0000  0.0000  0.0000
                                            0.0000  0.0000  0.0000  0.0000  0.0000
                                            1.0000  0.0000  0.0000 -0.0000  0.0000
                                            0.0000  0.0000  0.0000  0.0000  0.0000
                                            0.0000  0.0000  0.0000  0.0000  0.0000
                                           -0.0000  0.0000  0.0000 -0.0000  0.0000
                                            0.0000  0.0000 -0.0000  0.0000  0.0000
                                            0.0000  0.0000  0.0000  0.0000  0.0000
                                           -0.0000  0.0000  0.0000 -0.0000
    19. (1.99769) CR (11)Br   3           s(  0.00%)p 0.00(  0.00%)d 1.00(100.00%)
                                            0.0000  0.0000  0.0000  0.0000  0.0000
                                            0.0000  0.0000  0.0000  0.0000  0.0000
                                            0.0000  0.0000  0.0000  0.0000  0.0000
                                            0.0000  0.0000  0.0000  0.0000 -0.0000
                                            0.0000  0.0000  0.0000  0.0000  0.0000
                                            0.0000  0.0000  0.0000  0.0000  1.0000
                                            0.0000  0.0000 -0.0000 -0.0000  0.0000
                                            0.0000 -0.0000  0.0000  0.0000  0.0000
                                            0.0000  0.0000  0.0000  0.0000  0.0000
                                           -0.0000  0.0000  0.0000  0.0000  0.0000
                                            0.0000 -0.0000  0.0000  0.0000 -0.0000
                                            0.0000  0.0000  0.0000  0.0000
    20. (1.99765) CR (12)Br   3           s(  0.00%)p 0.00(  0.00%)d 1.00(100.00%)
                                            0.0000  0.0000  0.0000  0.0000  0.0000
                                            0.0000  0.0000  0.0000  0.0000  0.0000
                                            0.0000  0.0000  0.0000  0.0000  0.0000
                                            0.0000  0.0000  0.0000  0.0000 -0.0000
                                            0.0000  0.0000  0.0000  0.0000  0.0000
                                            0.0000  0.0000  0.0000  0.0000 -0.0000
                                            0.0000  0.0000 -0.0000  1.0000  0.0000
                                            0.0000 -0.0000  0.0000  0.0000  0.0000
                                            0.0000  0.0000  0.0000  0.0000  0.0000
                                           -0.0000  0.0000  0.0000  0.0000  0.0000
                                            0.0000 -0.0000  0.0000  0.0000 -0.0000
                                            0.0000  0.0000  0.0000  0.0000
    21. (1.99753) CR (13)Br   3           s(  0.00%)p 0.00(  0.00%)d 1.00(100.00%)
                                            0.0000 -0.0000 -0.0000 -0.0001 -0.0000
                                           -0.0000  0.0000 -0.0000  0.0000  0.0000
                                            0.0000  0.0000  0.0000 -0.0000  0.0000
                                            0.0000 -0.0000 -0.0000 -0.0000  0.0000
                                            0.0000  0.0000  0.0000  0.0000  0.0000
                                            0.0000  0.0000 -0.0000 -0.0000  0.0000
                                            0.0000  0.0000  0.0000  0.0000  0.0000
                                            0.0000  0.0000  1.0000 -0.0000  0.0000
                                           -0.0000 -0.0000 -0.0000  0.0000 -0.0000
                                            0.0000  0.0000 -0.0000  0.0000 -0.0000
                                           -0.0000  0.0000  0.0000  0.0000  0.0000
                                           -0.0000 -0.0000 -0.0000 -0.0000
    22. (1.99763) CR (14)Br   3           s(  0.00%)p 0.00(  0.00%)d 1.00(100.00%)
                                            0.0000 -0.0000 -0.0000 -0.0000 -0.0000
                                           -0.0000  0.0000 -0.0000  0.0000  0.0000
                                           -0.0000  0.0000 -0.0000 -0.0000  0.0000
                                            0.0000 -0.0000 -0.0000 -0.0000  0.0000
                                            0.0000  0.0000  0.0000  0.0000  0.0000
                                            0.0000  0.0000 -0.0000  0.0000  0.0000
                                            0.0000  0.0000  0.0000  0.0000  0.0000
                                            0.0000  0.0000 -0.0000 -0.0000  0.0000
                                           -0.0000  1.0000 -0.0000  0.0000 -0.0000
                                            0.0000  0.0000 -0.0000 -0.0000 -0.0000
                                           -0.0000  0.0000  0.0000  0.0000  0.0000
                                           -0.0000 -0.0000 -0.0000 -0.0000
    23. (1.96699) LP ( 1) O   1           s( 73.56%)p 0.36( 26.39%)d 0.00(  0.04%)
                                                  f 0.00(  0.00%)
                                            0.0002  0.8576  0.0106 -0.0073 -0.0012
                                           -0.2590  0.0034 -0.0039  0.0006  0.4436
                                            0.0062  0.0038  0.0011  0.0000  0.0000
                                            0.0000  0.0000  0.0187  0.0029 -0.0018
                                            0.0000  0.0000  0.0000  0.0000  0.0000
                                            0.0000  0.0044 -0.0004 -0.0028  0.0035
                                           -0.0005  0.0009  0.0000  0.0000 -0.0004
                                            0.0006 -0.0008 -0.0003  0.0000  0.0000
                                            0.0000  0.0000  0.0034 -0.0021  0.0048
                                           -0.0010
    24. (1.94674) LP ( 2) O   1           s(  0.00%)p 1.00( 99.86%)d 0.00(  0.13%)
                                                  f 0.00(  0.01%)
                                            0.0000  0.0000  0.0000  0.0000  0.0000
                                            0.0000  0.0000  0.0000  0.0000  0.0000
                                            0.0000  0.0000  0.0000  0.9990  0.0167
                                            0.0045  0.0131  0.0000  0.0000  0.0000
                                            0.0320  0.0040 -0.0031 -0.0128  0.0040
                                            0.0087  0.0000  0.0000  0.0000  0.0000
                                            0.0000  0.0000 -0.0080 -0.0002  0.0000
                                            0.0000  0.0000  0.0000  0.0082 -0.0025
                                           -0.0002  0.0011  0.0000  0.0000  0.0000
                                            0.0000
    25. (1.72483) LP ( 3) O   1           s( 18.45%)p 4.41( 81.38%)d 0.01(  0.16%)
                                                  f 0.00(  0.01%)
                                           -0.0003  0.4294  0.0017  0.0100  0.0034
                                           -0.1137  0.0055  0.0012  0.0065 -0.8948
                                           -0.0137  0.0001  0.0032 -0.0000 -0.0000
                                           -0.0000 -0.0000 -0.0203 -0.0039 -0.0001
                                           -0.0000 -0.0000 -0.0000 -0.0000 -0.0000
                                           -0.0000 -0.0289 -0.0044  0.0016 -0.0177
                                           -0.0008  0.0041 -0.0000 -0.0000  0.0004
                                            0.0003  0.0074 -0.0017 -0.0000 -0.0000
                                           -0.0000 -0.0000  0.0021 -0.0000 -0.0041
                                           -0.0006
    26. (1.97413) LP ( 1)Cl   2           s( 90.60%)p 0.10(  9.37%)d 0.00(  0.03%)
                                                  f 0.00(  0.00%)
                                            0.0000  0.0003  0.9518  0.0086  0.0015
                                            0.0003  0.0001  0.3052 -0.0064 -0.0033
                                            0.0014  0.0000 -0.0214  0.0009  0.0001
                                           -0.0006  0.0000  0.0000  0.0000  0.0000
                                            0.0000 -0.0003 -0.0001 -0.0001  0.0000
                                            0.0000  0.0000  0.0000  0.0000  0.0000
                                           -0.0143 -0.0001  0.0005  0.0086  0.0005
                                           -0.0001  0.0000  0.0000 -0.0025 -0.0002
                                            0.0001 -0.0000  0.0000  0.0000  0.0000
                                            0.0000  0.0037 -0.0001 -0.0001  0.0000
    27. (1.95465) LP ( 2)Cl   2           s(  0.00%)p 1.00( 99.93%)d 0.00(  0.07%)
                                                  f 0.00(  0.01%)
                                            0.0000  0.0000  0.0000  0.0000  0.0000
                                            0.0000  0.0000  0.0000  0.0000  0.0000
                                            0.0000  0.0000  0.0000  0.0000  0.0000
                                            0.0000 -0.0001  0.9995  0.0155  0.0049
                                           -0.0020  0.0000  0.0000  0.0000  0.0132
                                            0.0207  0.0072  0.0016  0.0011 -0.0001
                                            0.0000  0.0000  0.0000  0.0000  0.0000
                                            0.0000 -0.0054  0.0017  0.0000  0.0000
                                            0.0000  0.0000  0.0063 -0.0014  0.0005
                                           -0.0004  0.0000  0.0000  0.0000  0.0000
    28. (1.95307) LP ( 3)Cl   2           s(  0.06%)p99.99( 99.89%)d 0.89(  0.05%)
                                                  f 0.14(  0.01%)
                                            0.0000 -0.0000  0.0229  0.0033  0.0037
                                           -0.0027  0.0000 -0.0016  0.0009  0.0002
                                           -0.0006 -0.0001  0.9993  0.0148  0.0017
                                            0.0005  0.0000  0.0000  0.0000  0.0000
                                            0.0000  0.0070  0.0191  0.0071  0.0000
                                            0.0000  0.0000  0.0000  0.0000  0.0000
                                           -0.0040 -0.0033 -0.0021  0.0003 -0.0013
                                            0.0002  0.0000  0.0000  0.0002  0.0000
                                           -0.0024  0.0006  0.0000  0.0000  0.0000
                                            0.0000 -0.0010  0.0003  0.0082 -0.0020
    29. (1.97472) LP ( 1)Br   3           s( 85.38%)p 0.17( 14.61%)d 0.00(  0.00%)
                                                  f 0.00(  0.00%)
                                           -0.0000  0.0000  0.0005  0.9240  0.0009
                                            0.0019 -0.0004  0.0000 -0.0001 -0.0967
                                            0.0007 -0.0001  0.0001  0.0000 -0.0003
                                           -0.3698  0.0054  0.0005  0.0006  0.0000
                                            0.0000  0.0000  0.0000  0.0000  0.0000
                                           -0.0000 -0.0027  0.0003 -0.0004  0.0000
                                            0.0000  0.0000  0.0000  0.0000  0.0000
                                            0.0000  0.0000  0.0001  0.0051 -0.0004
                                            0.0006  0.0001  0.0037 -0.0004  0.0007
                                            0.0000  0.0000  0.0002  0.0000  0.0006
                                            0.0002  0.0000  0.0000  0.0000  0.0000
                                            0.0005  0.0002  0.0006  0.0003
    30. (1.95510) LP ( 2)Br   3           s(  0.00%)p 1.00( 99.98%)d 0.00(  0.02%)
                                                  f 0.00(  0.00%)
                                            0.0000  0.0000  0.0000  0.0000  0.0000
                                            0.0000  0.0000  0.0000  0.0000  0.0000
                                            0.0000  0.0000  0.0000  0.0000  0.0000
                                            0.0000  0.0000  0.0000  0.0000 -0.0000
                                            0.0005  0.9999  0.0063  0.0025  0.0006
                                            0.0000  0.0000  0.0000  0.0000 -0.0000
                                            0.0017  0.0006 -0.0019 -0.0000  0.0109
                                            0.0001 -0.0054  0.0000  0.0000  0.0000
                                            0.0000  0.0000  0.0000  0.0000  0.0000
                                           -0.0041  0.0013  0.0000  0.0000  0.0000
                                            0.0000 -0.0047  0.0015  0.0023 -0.0007
                                            0.0000  0.0000  0.0000  0.0000
    31. (1.95480) LP ( 3)Br   3           s(  0.01%)p 1.00( 99.97%)d 0.00(  0.02%)
                                                  f 0.00(  0.00%)
                                            0.0000 -0.0000  0.0000  0.0070 -0.0006
                                           -0.0009  0.0005 -0.0000  0.0005  0.9715
                                            0.0060  0.0023  0.0008  0.0000 -0.0001
                                           -0.2365 -0.0015 -0.0009 -0.0002  0.0000
                                            0.0000  0.0000  0.0000  0.0000  0.0000
                                           -0.0000  0.0110  0.0002 -0.0049  0.0000
                                            0.0000  0.0000  0.0000  0.0000  0.0000
                                            0.0000  0.0000 -0.0000  0.0037  0.0010
                                           -0.0036  0.0000  0.0005 -0.0004  0.0004
                                            0.0000  0.0000 -0.0016  0.0005  0.0003
                                           -0.0001  0.0000  0.0000  0.0000  0.0000
                                           -0.0049  0.0015  0.0038 -0.0011
    32. (0.02320) RY*( 1) O   1           s(  0.00%)p 1.00( 99.40%)d 0.01(  0.56%)
                                                  f 0.00(  0.04%)
                                            0.0000  0.0000  0.0000  0.0000  0.0000
                                            0.0000  0.0000  0.0000  0.0000  0.0000
                                            0.0000  0.0000  0.0000 -0.0191  0.9963
                                           -0.0275 -0.0144  0.0000  0.0000  0.0000
                                            0.0595  0.0243  0.0034 -0.0367 -0.0005
                                            0.0103  0.0000  0.0000  0.0000  0.0000
                                            0.0000  0.0000 -0.0109  0.0082  0.0000
                                            0.0000  0.0000  0.0000  0.0108 -0.0097
                                           -0.0010  0.0010  0.0000  0.0000  0.0000
                                            0.0000
    33. (0.01888) RY*( 2) O   1           s( 22.03%)p 3.47( 76.46%)d 0.06(  1.42%)
                                                  f 0.00(  0.09%)
                                            0.0000  0.0064  0.4689  0.0074 -0.0196
                                            0.0354 -0.2753 -0.0159  0.0263 -0.0173
                                            0.8264 -0.0206 -0.0537  0.0000  0.0000
                                            0.0000  0.0000  0.1100  0.0363  0.0153
                                            0.0000  0.0000  0.0000  0.0000  0.0000
                                            0.0000 -0.0183  0.0038  0.0034  0.0083
                                           -0.0029 -0.0091  0.0000  0.0000 -0.0035
                                            0.0004 -0.0005  0.0047  0.0000  0.0000
                                            0.0000  0.0000  0.0180 -0.0065  0.0205
                                           -0.0092
    34. (0.00907) RY*( 3) O   1           s( 39.76%)p 0.88( 34.90%)d 0.63( 24.88%)
                                                  f 0.01(  0.46%)
                                            0.0000  0.0026  0.6142  0.1423  0.0080
                                            0.0039 -0.3878  0.0064  0.1064  0.0091
[...]
                                            0.0126 -0.0980 -0.4428 -0.0573  0.0000
                                            0.0000  0.0000  0.0000
   161. (0.00035) RY*( 7) H   4           s(  0.18%)p99.99( 77.51%)d99.99( 22.30%)
                                           -0.0059  0.0301 -0.0293  0.0066 -0.0615
                                            0.8112 -0.0425  0.0415 -0.3152  0.1020
                                            0.0000  0.0000  0.0000 -0.1089 -0.1178
                                            0.0000  0.0000  0.0000  0.0000 -0.3520
                                           -0.0422  0.2204 -0.1518
   162. (0.00031) RY*( 8) H   4           s(  0.00%)p 1.00(  1.43%)d69.10( 98.57%)
                                            0.0000  0.0000  0.0000  0.0000  0.0000
                                            0.0000  0.0000  0.0000  0.0000  0.0000
                                            0.0171 -0.1180  0.0065  0.0000  0.0000
                                            0.9023 -0.3837 -0.1095  0.1113  0.0000
                                            0.0000  0.0000  0.0000
   163. (0.00032) RY*( 9) H   4           s(  1.74%)p 8.29( 14.42%)d48.22( 83.84%)
                                            0.0031 -0.0090  0.0952 -0.0907 -0.0702
                                            0.3558 -0.0554  0.0380 -0.0574  0.0697
                                            0.0000  0.0000  0.0000 -0.3598  0.0079
                                            0.0000  0.0000  0.0000  0.0000  0.5690
                                           -0.1332 -0.5160  0.3179
   164. (0.00029) RY*(10) H   4           s( 17.38%)p 0.55(  9.52%)d 4.21( 73.11%)
                                           -0.0069  0.0163 -0.2144  0.3571  0.0179
                                            0.1521  0.0607 -0.0286 -0.0036 -0.2592
                                           -0.0000 -0.0000 -0.0000  0.4599  0.0952
                                           -0.0000 -0.0000 -0.0000 -0.0000 -0.3054
                                           -0.0675 -0.6385  0.0706
   165. (0.00022) RY*(11) H   4           s(  3.03%)p 6.26( 18.96%)d25.78( 78.02%)
                                           -0.0057  0.0244  0.1720 -0.0079 -0.1187
                                           -0.3245 -0.2269  0.0078 -0.1310  0.0382
                                           -0.0000 -0.0000 -0.0000 -0.5728 -0.0050
                                           -0.0000 -0.0000 -0.0000 -0.0000 -0.5556
                                           -0.2194 -0.3068 -0.0321
   166. (0.00021) RY*(12) H   4           s(  0.00%)p 1.00( 34.69%)d 1.88( 65.31%)
                                            0.0000  0.0000  0.0000  0.0000  0.0000
                                            0.0000  0.0000  0.0000  0.0000  0.0000
                                            0.0308  0.5657  0.1608  0.0000  0.0000
                                            0.1753  0.0327  0.7865  0.0518  0.0000
                                            0.0000  0.0000  0.0000
   167. (0.00021) RY*(13) H   4           s( 38.14%)p 0.66( 25.01%)d 0.97( 36.85%)
                                            0.0078 -0.0802 -0.4278  0.4381 -0.0144
                                            0.0824  0.0458 -0.0181  0.4436 -0.2095
                                           -0.0000 -0.0000 -0.0000 -0.4538 -0.2185
                                           -0.0000 -0.0000 -0.0000 -0.0000 -0.0401
                                            0.2290  0.1504  0.1952
   168. (0.00017) RY*(14) H   4           s( 58.72%)p 0.53( 31.02%)d 0.17( 10.26%)
                                            0.0034  0.0354  0.5902  0.4875 -0.0190
                                           -0.0266 -0.1955  0.0144 -0.3015 -0.4241
                                            0.0000  0.0000  0.0000  0.0224 -0.1085
                                            0.0000  0.0000  0.0000  0.0000  0.1299
                                            0.1905  0.1536  0.1163
   169. (0.00010) RY*(15) H   4           s(  0.00%)p 1.00( 71.35%)d 0.40( 28.65%)
   170. (0.00010) RY*(16) H   4           s( 32.11%)p 2.07( 66.55%)d 0.04(  1.34%)
   171. (0.00007) RY*(17) H   4           s(  0.25%)p23.57(  5.79%)d99.99( 93.97%)
   172. (0.00007) RY*(18) H   4           s(  0.00%)p 1.00( 12.98%)d 6.71( 87.02%)
   173. (0.00005) RY*(19) H   4           s(  3.46%)p24.71( 85.41%)d 3.22( 11.13%)
   174. (0.00004) RY*(20) H   4           s(  9.47%)p 0.44(  4.19%)d 9.12( 86.34%)
   175. (0.00003) RY*(21) H   4           s(  0.00%)p 1.00(  0.57%)d99.99( 99.43%)
   176. (0.00003) RY*(22) H   4           s(  1.83%)p 1.15(  2.11%)d52.62( 96.07%)
   177. (0.05573) BD*( 1) O   1 -Cl   2  
                ( 43.51%)   0.6596* O   1 s(  8.40%)p10.85( 91.11%)d 0.06(  0.48%)
                                                  f 0.00(  0.02%)
                                           -0.0003 -0.2820  0.0645 -0.0161  0.0016
                                           -0.9527  0.0486  0.0122  0.0191 -0.0134
                                            0.0193  0.0031 -0.0030 -0.0000 -0.0000
                                           -0.0000 -0.0000  0.0101  0.0013 -0.0007
                                           -0.0000 -0.0000 -0.0000 -0.0000 -0.0000
                                           -0.0000 -0.0559 -0.0035 -0.0010  0.0388
                                            0.0031  0.0000 -0.0000 -0.0000  0.0104
                                           -0.0007  0.0005 -0.0001 -0.0000 -0.0000
                                           -0.0000 -0.0000 -0.0087 -0.0007  0.0005
                                           -0.0010
                ( 56.49%)  -0.7516*Cl   2 s(  9.71%)p 9.18( 89.12%)d 0.11(  1.05%)
                                                  f 0.01(  0.12%)
                                            0.0000 -0.0007 -0.3048  0.0640  0.0113
                                            0.0021  0.0004  0.9415 -0.0668 -0.0129
                                            0.0023 -0.0000  0.0079  0.0043 -0.0027
                                            0.0020 -0.0000 -0.0000 -0.0000 -0.0000
                                           -0.0000 -0.0070  0.0014  0.0008 -0.0000
                                           -0.0000 -0.0000 -0.0000 -0.0000 -0.0000
                                           -0.0853  0.0136  0.0022  0.0537 -0.0087
                                           -0.0023 -0.0000 -0.0000 -0.0217  0.0027
                                           -0.0003  0.0001 -0.0000 -0.0000 -0.0000
                                           -0.0000  0.0268 -0.0028  0.0009 -0.0006
   178. (0.26160) BD*( 1)Br   3 - H   4  
                ( 22.78%)   0.4773*Br   3 s( 14.59%)p 5.83( 85.10%)d 0.02(  0.29%)
                                                  f 0.00(  0.02%)
                                            0.0000 -0.0000 -0.0004 -0.3820  0.0019
                                            0.0034 -0.0003  0.0000 -0.0001 -0.2155
                                            0.0032  0.0013  0.0006  0.0000 -0.0006
                                           -0.8968  0.0174  0.0069  0.0026 -0.0000
                                           -0.0000 -0.0000 -0.0000 -0.0000 -0.0000
                                           -0.0000 -0.0206  0.0022 -0.0005 -0.0000
                                           -0.0000 -0.0000 -0.0000 -0.0000 -0.0000
                                           -0.0000 -0.0000  0.0000  0.0409 -0.0033
                                            0.0008  0.0000  0.0273 -0.0026  0.0009
                                           -0.0000 -0.0000  0.0022  0.0001  0.0090
                                            0.0006 -0.0000 -0.0000 -0.0000 -0.0000
                                            0.0077  0.0004  0.0088  0.0011
                ( 77.22%)  -0.8787* H   4 s( 99.79%)p 0.00(  0.18%)d 0.00(  0.03%)
                                           -0.9987  0.0147  0.0176  0.0001  0.0073
                                            0.0027  0.0048  0.0312  0.0266  0.0077
                                           -0.0000 -0.0000 -0.0000  0.0001 -0.0076
                                           -0.0000 -0.0000 -0.0000 -0.0000  0.0001
                                            0.0128  0.0005  0.0097


 NHO Directionality and "Bond Bending" (deviations from line of nuclear centers)

         [Thresholds for printing:  angular deviation  >  1.0 degree]
                                    hybrid p-character > 25.0%
                                    orbital occupancy  >  0.10e

                                Line of Centers        Hybrid 1              Hybrid 2
                                ---------------  -------------------   ------------------
                NBO               Theta   Phi    Theta   Phi    Dev    Theta   Phi    Dev
 ========================================================================================
    23. LP (   1) O   1             --     --     90.0  119.7   --       --     --    --
    24. LP (   2) O   1             --     --      0.0    0.0   --       --     --    --
    25. LP (   3) O   1             --     --     90.0  263.7   --       --     --    --
    27. LP (   2)Cl   2             --     --      0.0    0.0   --       --     --    --
    28. LP (   3)Cl   2             --     --     90.0   90.1   --       --     --    --
    30. LP (   2)Br   3             --     --      0.0    0.0   --       --     --    --
    31. LP (   3)Br   3             --     --     90.0  346.3   --       --     --    --


 Natural Bond Orbitals (Summary):

           NBO                  Occupancy  
 -----------------------------------------------
 Molecular unit  1  (OCl)
     1. BD (   1) O   1 -Cl   2          1.93507
     3. CR (   1) O   1                  1.99985
     4. CR (   1)Cl   2                  2.00000
     5. CR (   2)Cl   2                  1.99975
     6. CR (   3)Cl   2                  1.99995
     7. CR (   4)Cl   2                  2.00003
     8. CR (   5)Cl   2                  2.00003
    23. LP (   1) O   1                  1.96699
    24. LP (   2) O   1                  1.94674
    25. LP (   3) O   1                  1.72483
    26. LP (   1)Cl   2                  1.97413
    27. LP (   2)Cl   2                  1.95465
    28. LP (   3)Cl   2                  1.95307
    32. RY*(   1) O   1                  0.02320
    33. RY*(   2) O   1                  0.01888
    34. RY*(   3) O   1                  0.00907
    35. RY*(   4) O   1                  0.00687
    36. RY*(   5) O   1                  0.00678
    37. RY*(   6) O   1                  0.00634
    38. RY*(   7) O   1                  0.00577
    39. RY*(   8) O   1                  0.00516
    40. RY*(   9) O   1                  0.00218
    41. RY*(  10) O   1                  0.00071
    42. RY*(  11) O   1                  0.00070
    43. RY*(  12) O   1                  0.00070
    44. RY*(  13) O   1                  0.00061
    45. RY*(  14) O   1                  0.00058
    46. RY*(  15) O   1                  0.00054
    47. RY*(  16) O   1                  0.00052
    48. RY*(  17) O   1                  0.00049
    49. RY*(  18) O   1                  0.00049
    50. RY*(  19) O   1                  0.00048
    51. RY*(  20) O   1                  0.00048
    52. RY*(  21) O   1                  0.00047
    53. RY*(  22) O   1                  0.00047
    54. RY*(  23) O   1                  0.00043
    55. RY*(  24) O   1                  0.00038
    56. RY*(  25) O   1                  0.00029
    57. RY*(  26) O   1                  0.00014
    58. RY*(  27) O   1                  0.00013
    59. RY*(  28) O   1                  0.00012
    60. RY*(  29) O   1                  0.00009
    61. RY*(  30) O   1                  0.00009
    62. RY*(  31) O   1                  0.00009
    63. RY*(  32) O   1                  0.00010
    64. RY*(  33) O   1                  0.00009
    65. RY*(  34) O   1                  0.00009
    66. RY*(  35) O   1                  0.00009
    67. RY*(  36) O   1                  0.00007
    68. RY*(  37) O   1                  0.00008
    69. RY*(  38) O   1                  0.00006
    70. RY*(  39) O   1                  0.00003
    71. RY*(  40) O   1                 -0.00001
    72. RY*(  41) O   1                 -0.00025
    73. RY*(   1)Cl   2                  0.02582
    74. RY*(   2)Cl   2                  0.02246
    75. RY*(   3)Cl   2                  0.01710
    76. RY*(   4)Cl   2                  0.01708
    77. RY*(   5)Cl   2                  0.01308
    78. RY*(   6)Cl   2                  0.01012
    79. RY*(   7)Cl   2                  0.00983
    80. RY*(   8)Cl   2                  0.00699
    81. RY*(   9)Cl   2                  0.00197
    82. RY*(  10)Cl   2                  0.00127
    83. RY*(  11)Cl   2                  0.00127
    84. RY*(  12)Cl   2                  0.00123
    85. RY*(  13)Cl   2                  0.00123
    86. RY*(  14)Cl   2                  0.00119
    87. RY*(  15)Cl   2                  0.00115
    88. RY*(  16)Cl   2                  0.00101
    89. RY*(  17)Cl   2                  0.00082
    90. RY*(  18)Cl   2                  0.00080
    91. RY*(  19)Cl   2                  0.00074
    92. RY*(  20)Cl   2                  0.00070
    93. RY*(  21)Cl   2                  0.00049
    94. RY*(  22)Cl   2                  0.00038
    95. RY*(  23)Cl   2                  0.00037
    96. RY*(  24)Cl   2                  0.00034
    97. RY*(  25)Cl   2                  0.00019
    98. RY*(  26)Cl   2                  0.00017
    99. RY*(  27)Cl   2                  0.00018
   100. RY*(  28)Cl   2                  0.00015
   101. RY*(  29)Cl   2                  0.00013
   102. RY*(  30)Cl   2                  0.00013
   103. RY*(  31)Cl   2                  0.00013
   104. RY*(  32)Cl   2                  0.00012
   105. RY*(  33)Cl   2                  0.00011
   106. RY*(  34)Cl   2                  0.00011
   107. RY*(  35)Cl   2                  0.00010
   108. RY*(  36)Cl   2                  0.00009
   109. RY*(  37)Cl   2                  0.00009
   110. RY*(  38)Cl   2                  0.00005
   111. RY*(  39)Cl   2                  0.00003
   112. RY*(  40)Cl   2                  0.00003
   113. RY*(  41)Cl   2                  0.00001
   177. BD*(   1) O   1 -Cl   2          0.05573
       -------------------------------
              Total Lewis   25.45507  ( 98.8788%)
        Valence non-Lewis    0.05573  (  0.2165%)
        Rydberg non-Lewis    0.23290  (  0.9047%)
       -------------------------------
            Total unit  1   25.74370  (100.0000%)
           Charge unit  1   -0.74370

 Molecular unit  2  (HBr)
     2. BD (   1)Br   3 - H   4          1.95480
     9. CR (   1)Br   3                  2.00000
    10. CR (   2)Br   3                  2.00000
    11. CR (   3)Br   3                  1.99936
    12. CR (   4)Br   3                  2.00000
    13. CR (   5)Br   3                  1.99993
    14. CR (   6)Br   3                  2.00000
    15. CR (   7)Br   3                  1.99977
    16. CR (   8)Br   3                  2.00000
    17. CR (   9)Br   3                  1.99994
    18. CR (  10)Br   3                  1.99762
    19. CR (  11)Br   3                  1.99769
    20. CR (  12)Br   3                  1.99765
    21. CR (  13)Br   3                  1.99753
    22. CR (  14)Br   3                  1.99763
    29. LP (   1)Br   3                  1.97472
    30. LP (   2)Br   3                  1.95510
    31. LP (   3)Br   3                  1.95480
   114. RY*(   1)Br   3                  0.01805
   115. RY*(   2)Br   3                  0.01805
   116. RY*(   3)Br   3                  0.01765
   117. RY*(   4)Br   3                  0.01751
   118. RY*(   5)Br   3                  0.01643
   119. RY*(   6)Br   3                  0.00970
   120. RY*(   7)Br   3                  0.00966
   121. RY*(   8)Br   3                  0.00749
   122. RY*(   9)Br   3                  0.00172
   123. RY*(  10)Br   3                  0.00172
   124. RY*(  11)Br   3                  0.00169
   125. RY*(  12)Br   3                  0.00169
   126. RY*(  13)Br   3                  0.00165
   127. RY*(  14)Br   3                  0.00165
   128. RY*(  15)Br   3                  0.00165
   129. RY*(  16)Br   3                  0.00165
   130. RY*(  17)Br   3                  0.00160
   131. RY*(  18)Br   3                  0.00147
   132. RY*(  19)Br   3                  0.00120
   133. RY*(  20)Br   3                  0.00119
   134. RY*(  21)Br   3                  0.00113
   135. RY*(  22)Br   3                  0.00072
   136. RY*(  23)Br   3                  0.00073
   137. RY*(  24)Br   3                  0.00056
   138. RY*(  25)Br   3                  0.00044
   139. RY*(  26)Br   3                  0.00029
   140. RY*(  27)Br   3                  0.00025
   141. RY*(  28)Br   3                  0.00022
   142. RY*(  29)Br   3                  0.00023
   143. RY*(  30)Br   3                  0.00022
   144. RY*(  31)Br   3                  0.00022
   145. RY*(  32)Br   3                  0.00021
   146. RY*(  33)Br   3                  0.00020
   147. RY*(  34)Br   3                  0.00018
   148. RY*(  35)Br   3                  0.00015
   149. RY*(  36)Br   3                  0.00012
   150. RY*(  37)Br   3                  0.00013
   151. RY*(  38)Br   3                  0.00011
   152. RY*(  39)Br   3                  0.00008
   153. RY*(  40)Br   3                  0.00008
   154. RY*(  41)Br   3                  0.00004
   155. RY*(   1) H   4                  0.00651
   156. RY*(   2) H   4                  0.00642
   157. RY*(   3) H   4                  0.00532
   158. RY*(   4) H   4                  0.00430
   159. RY*(   5) H   4                  0.00246
   160. RY*(   6) H   4                  0.00084
   161. RY*(   7) H   4                  0.00035
   162. RY*(   8) H   4                  0.00031
   163. RY*(   9) H   4                  0.00032
   164. RY*(  10) H   4                  0.00029
   165. RY*(  11) H   4                  0.00022
   166. RY*(  12) H   4                  0.00021
   167. RY*(  13) H   4                  0.00021
   168. RY*(  14) H   4                  0.00017
   169. RY*(  15) H   4                  0.00010
   170. RY*(  16) H   4                  0.00010
   171. RY*(  17) H   4                  0.00007
   172. RY*(  18) H   4                  0.00007
   173. RY*(  19) H   4                  0.00005
   174. RY*(  20) H   4                  0.00004
   175. RY*(  21) H   4                  0.00003
   176. RY*(  22) H   4                  0.00003
   178. BD*(   1)Br   3 - H   4          0.26160
       -------------------------------
              Total Lewis   35.82655  ( 98.8147%)
        Valence non-Lewis    0.26160  (  0.7215%)
        Rydberg non-Lewis    0.16814  (  0.4638%)
       -------------------------------
            Total unit  2   36.25630  (100.0000%)
           Charge unit  2   -0.25630
 Leave Link  607 at Tue Oct 12 14:26:33 2021, MaxMem=  1048576000 cpu:        10.4
 (Enter /usr/local/gaussian/g09/l9999.exe)
 1\1\GINC-KRYPTON\SP\RMP2-FC\Aug-CC-pVTZ\Br1Cl1H1O1(1-)\CGAVINH\12-Oct-
 2021\0\\#p pop=NBO SP NoSymm mp2/aug-cc-pvtz density=current\\title\\-
 1,1\O\X,1,10.\Cl,1,1.68432554,2,90.\Br,1,3.07381752,2,90.,3,103.420351
 85,0\H,1,1.4,2,90.,3,103.42035185,0\\Version=ES64L-G09RevE.01\HF=-3107
 .4376745\MP2=-3108.157388\RMSD=2.164e-09\Dipole=0.1627604,-0.5876999,0
 .\Quadrupole=3.9208901,-10.3915039,6.4706137,-4.2703374,0.,0.\PG=CS [S
 G(Br1Cl1H1O1)]\\@


 YOU CAN WIPE THE SLATE CLEAN, BUT YOU'LL STILL
 HAVE TO EAT A LITTLE CHALK DUST.
 Job cpu time:       0 days  0 hours  2 minutes 35.5 seconds.
 File lengths (MBytes):  RWF=     14 Int=      0 D2E=      0 Chk=      4 Scr=      1
 Normal termination of Gaussian 09 at Tue Oct 12 14:26:34 2021.
