 Entering Gaussian System, Link 0=g09
 Input=brhocl_rOH_150_sp.gjf
 Output=brhocl_rOH_150_sp.log
 Initial command:
 /usr/local/gaussian/g09/l1.exe "/scratch/Gau-19172.inp" -scrdir="/scratch/"
 Entering Link 1 = /usr/local/gaussian/g09/l1.exe PID=     19173.
  
 Copyright (c) 1988,1990,1992,1993,1995,1998,2003,2009,2015,
            Gaussian, Inc.  All Rights Reserved.
  
 This is part of the Gaussian(R) 09 program.  It is based on
 the Gaussian(R) 03 system (copyright 2003, Gaussian, Inc.),
 the Gaussian(R) 98 system (copyright 1998, Gaussian, Inc.),
 the Gaussian(R) 94 system (copyright 1995, Gaussian, Inc.),
 the Gaussian 92(TM) system (copyright 1992, Gaussian, Inc.),
 the Gaussian 90(TM) system (copyright 1990, Gaussian, Inc.),
 the Gaussian 88(TM) system (copyright 1988, Gaussian, Inc.),
 the Gaussian 86(TM) system (copyright 1986, Carnegie Mellon
 University), and the Gaussian 82(TM) system (copyright 1983,
 Carnegie Mellon University). Gaussian is a federally registered
 trademark of Gaussian, Inc.
  
 This software contains proprietary and confidential information,
 including trade secrets, belonging to Gaussian, Inc.
  
 This software is provided under written license and may be
 used, copied, transmitted, or stored only in accord with that
 written license.
  
 The following legend is applicable only to US Government
 contracts under FAR:
  
                    RESTRICTED RIGHTS LEGEND
  
 Use, reproduction and disclosure by the US Government is
 subject to restrictions as set forth in subparagraphs (a)
 and (c) of the Commercial Computer Software - Restricted
 Rights clause in FAR 52.227-19.
  
 Gaussian, Inc.
 340 Quinnipiac St., Bldg. 40, Wallingford CT 06492
  
  
 ---------------------------------------------------------------
 Warning -- This program may not be used in any manner that
 competes with the business of Gaussian, Inc. or will provide
 assistance to any competitor of Gaussian, Inc.  The licensee
 of this program is prohibited from giving any competitor of
 Gaussian, Inc. access to this program.  By using this program,
 the user acknowledges that Gaussian, Inc. is engaged in the
 business of creating and licensing software in the field of
 computational chemistry and represents and warrants to the
 licensee that it is not a competitor of Gaussian, Inc. and that
 it will not use this program in any manner prohibited above.
 ---------------------------------------------------------------
  

 Cite this work as:
 Gaussian 09, Revision E.01,
 M. J. Frisch, G. W. Trucks, H. B. Schlegel, G. E. Scuseria, 
 M. A. Robb, J. R. Cheeseman, G. Scalmani, V. Barone, B. Mennucci, 
 G. A. Petersson, H. Nakatsuji, M. Caricato, X. Li, H. P. Hratchian, 
 A. F. Izmaylov, J. Bloino, G. Zheng, J. L. Sonnenberg, M. Hada, 
 M. Ehara, K. Toyota, R. Fukuda, J. Hasegawa, M. Ishida, T. Nakajima, 
 Y. Honda, O. Kitao, H. Nakai, T. Vreven, J. A. Montgomery, Jr., 
 J. E. Peralta, F. Ogliaro, M. Bearpark, J. J. Heyd, E. Brothers, 
 K. N. Kudin, V. N. Staroverov, T. Keith, R. Kobayashi, J. Normand, 
 K. Raghavachari, A. Rendell, J. C. Burant, S. S. Iyengar, J. Tomasi, 
 M. Cossi, N. Rega, J. M. Millam, M. Klene, J. E. Knox, J. B. Cross, 
 V. Bakken, C. Adamo, J. Jaramillo, R. Gomperts, R. E. Stratmann, 
 O. Yazyev, A. J. Austin, R. Cammi, C. Pomelli, J. W. Ochterski, 
 R. L. Martin, K. Morokuma, V. G. Zakrzewski, G. A. Voth, 
 P. Salvador, J. J. Dannenberg, S. Dapprich, A. D. Daniels, 
 O. Farkas, J. B. Foresman, J. V. Ortiz, J. Cioslowski, 
 and D. J. Fox, Gaussian, Inc., Wallingford CT, 2013.
 
 ******************************************
 Gaussian 09:  ES64L-G09RevE.01 30-Nov-2015
                12-Oct-2021 
 ******************************************
 %nproc=12
 Will use up to   12 processors via shared memory.
 %mem=8000MB
 %chk=/home/netid.washington.edu/cgavinh/mccoy_hocl/rOH_s_oop_0/brhocl/brhocl_rOH
 _150_sp.chk
 ----------------------------------------------------
 #p pop=NBO SP NoSymm mp2/aug-cc-pvtz density=current
 ----------------------------------------------------
 1/30=1,38=1/1;
 2/12=2,15=1,17=6,18=5,40=1/2;
 3/5=16,6=1,7=10,11=9,16=1,25=1,30=1,71=1/1,2,3;
 4//1;
 5/5=2,38=5/2;
 8/6=4,10=1/1;
 9/15=1,16=-3/6;
 10/5=1,13=10,31=1/2;
 6/7=2,8=2,9=2,10=2,22=-1,40=1/1,7;
 99/5=1,9=1/99;
 Leave Link    1 at Tue Oct 12 14:26:50 2021, MaxMem=  1048576000 cpu:         0.2
 (Enter /usr/local/gaussian/g09/l101.exe)
 -----
 title
 -----
 Symbolic Z-matrix:
 Charge = -1 Multiplicity = 1
 O
 X                    1     10. 
 Cl                   1    r1       2     90. 
 Br                   1    r2       2     90.      3    a1       0
 H                    1    r3       2    oop      3    a1       0
       Variables:
  r1                    1.68433                  
  r2                    3.07382                  
  r3                    1.5                      
  a1                  103.42035                  
  OOP                  90.                       
 
 NAtoms=      4 NQM=        4 NQMF=       0 NMMI=      0 NMMIF=      0
                NMic=       0 NMicF=      0.
                    Isotopes and Nuclear Properties:
 (Nuclear quadrupole moments (NQMom) in fm**2, nuclear magnetic moments (NMagM)
  in nuclear magnetons)

  Atom         1           2           3           4
 IAtWgt=          16          35          79           1
 AtmWgt=  15.9949146  34.9688527  78.9183361   1.0078250
 NucSpn=           0           3           3           1
 AtZEff=   0.0000000   0.0000000   0.0000000   0.0000000
 NQMom=    0.0000000  -8.1650000  31.3000000   0.0000000
 NMagM=    0.0000000   0.8218740   2.1063990   2.7928460
 AtZNuc=   8.0000000  17.0000000  35.0000000   1.0000000
 Leave Link  101 at Tue Oct 12 14:26:51 2021, MaxMem=  1048576000 cpu:         0.5
 (Enter /usr/local/gaussian/g09/l202.exe)
                          Input orientation:                          
 ---------------------------------------------------------------------
 Center     Atomic      Atomic             Coordinates (Angstroms)
 Number     Number       Type             X           Y           Z
 ---------------------------------------------------------------------
      1          8           0        0.000000    0.000000    0.000000
      2         17           0        1.684326    0.000000    0.000000
      3         35           0       -0.713413   -2.989882    0.000000
      4          1           0       -0.348140   -1.459040    0.000000
 ---------------------------------------------------------------------
                    Distance matrix (angstroms):
                    1          2          3          4
     1  O    0.000000
     2  Cl   1.684326   0.000000
     3  Br   3.073818   3.832564   0.000000
     4  H    1.500000   2.501942   1.573818   0.000000
 Symmetry turned off by external request.
 Stoichiometry    BrClHO(1-)
 Framework group  CS[SG(BrClHO)]
 Deg. of freedom     5
 Full point group                 CS      NOp   2
 Rotational constants (GHZ):     22.8519283      1.2817517      1.2136772
 Leave Link  202 at Tue Oct 12 14:26:51 2021, MaxMem=  1048576000 cpu:         0.0
 (Enter /usr/local/gaussian/g09/l301.exe)
 Standard basis: Aug-CC-pVTZ (5D, 7F)
 Ernie: Thresh=  0.10000D-02 Tol=  0.10000D-05 Strict=F.
 Ernie:  48 primitive shells out of 228 were deleted.
   178 basis functions,   430 primitive gaussians,   208 cartesian basis functions
    31 alpha electrons       31 beta electrons
       nuclear repulsion energy       191.2721362203 Hartrees.
 IExCor=    0 DFT=F Ex=HF Corr=None ExCW=0 ScaHFX=  1.000000
 ScaDFX=  1.000000  1.000000  1.000000  1.000000 ScalE2=  1.000000  1.000000
 IRadAn=      0 IRanWt=     -1 IRanGd=            0 ICorTp=0 IEmpDi=  4
 NAtoms=    4 NActive=    4 NUniq=    4 SFac= 1.00D+00 NAtFMM=   60 NAOKFM=F Big=F
 Integral buffers will be    131072 words long.
 Raffenetti 1 integral format.
 Two-electron integral symmetry is turned off.
 Leave Link  301 at Tue Oct 12 14:26:51 2021, MaxMem=  1048576000 cpu:         0.3
 (Enter /usr/local/gaussian/g09/l302.exe)
 NPDir=0 NMtPBC=     1 NCelOv=     1 NCel=       1 NClECP=     1 NCelD=      1
         NCelK=      1 NCelE2=     1 NClLst=     1 CellRange=     0.0.
 One-electron integrals computed using PRISM.
 NBasis=   178 RedAO= T EigKep=  2.42D-04  NBF=   178
 NBsUse=   178 1.00D-06 EigRej= -1.00D+00 NBFU=   178
 Leave Link  302 at Tue Oct 12 14:26:51 2021, MaxMem=  1048576000 cpu:         1.6
 (Enter /usr/local/gaussian/g09/l303.exe)
 DipDrv:  MaxL=1.
 Leave Link  303 at Tue Oct 12 14:26:51 2021, MaxMem=  1048576000 cpu:         0.2
 (Enter /usr/local/gaussian/g09/l401.exe)
 ExpMin= 2.53D-02 ExpMax= 1.06D+07 ExpMxC= 1.21D+04 IAcc=3 IRadAn=         5 AccDes= 0.00D+00
 Harris functional with IExCor=  205 and IRadAn=       5 diagonalized for initial guess.
 HarFok:  IExCor=  205 AccDes= 0.00D+00 IRadAn=         5 IDoV= 1 UseB2=F ITyADJ=14
 ICtDFT=  3500011 ScaDFX=  1.000000  1.000000  1.000000  1.000000
 FoFCou: FMM=F IPFlag=           0 FMFlag=      100000 FMFlg1=           0
         NFxFlg=           0 DoJE=T BraDBF=F KetDBF=T FulRan=T
         wScrn=  0.000000 ICntrl=     500 IOpCl=  0 I1Cent=   200000004 NGrid=           0
         NMat0=    1 NMatS0=      1 NMatT0=    0 NMatD0=    1 NMtDS0=    0 NMtDT0=    0
 Symmetry not used in FoFCou.
 Harris En= -3106.33224664187    
 JPrj=0 DoOrth=F DoCkMO=F.
 Leave Link  401 at Tue Oct 12 14:26:51 2021, MaxMem=  1048576000 cpu:         3.0
 (Enter /usr/local/gaussian/g09/l502.exe)
 Closed shell SCF:
 Using DIIS extrapolation, IDIIS=  1040.
 Two-electron integral symmetry not used.
 Keep R1 ints in memory in canonical form, NReq=131623000.
 IVT=      152094 IEndB=      152094 NGot=  1048576000 MDV=   921517561
 LenX=   921517561 LenY=   921473856
 Requested convergence on RMS density matrix=1.00D-08 within 128 cycles.
 Requested convergence on MAX density matrix=1.00D-06.
 Requested convergence on             energy=1.00D-06.
 No special actions if energy rises.
 FoFCou: FMM=F IPFlag=           0 FMFlag=           0 FMFlg1=           0
         NFxFlg=           0 DoJE=F BraDBF=F KetDBF=F FulRan=T
         wScrn=  0.000000 ICntrl=     600 IOpCl=  0 I1Cent=           0 NGrid=           0
         NMat0=    1 NMatS0=  15931 NMatT0=    0 NMatD0=    1 NMtDS0=    0 NMtDT0=    0
 Symmetry not used in FoFCou.

 Cycle   1  Pass 1  IDiag  1:
 E= -3107.26549623307    
 DIIS: error= 7.10D-02 at cycle   1 NSaved=   1.
 NSaved= 1 IEnMin= 1 EnMin= -3107.26549623307     IErMin= 1 ErrMin= 7.10D-02
 ErrMax= 7.10D-02  0.00D+00 EMaxC= 1.00D-01 BMatC= 6.83D-01 BMatP= 6.83D-01
 IDIUse=3 WtCom= 2.90D-01 WtEn= 7.10D-01
 Coeff-Com:  0.100D+01
 Coeff-En:   0.100D+01
 Coeff:      0.100D+01
 Gap=     0.536 Goal=   None    Shift=    0.000
 GapD=    0.536 DampG=2.000 DampE=0.500 DampFc=1.0000 IDamp=-1.
 RMSDP=3.38D-03 MaxDP=1.14D-01              OVMax= 1.32D-01

 Cycle   2  Pass 1  IDiag  1:
 E= -3107.37621828641     Delta-E=       -0.110722053342 Rises=F Damp=F
 DIIS: error= 1.78D-02 at cycle   2 NSaved=   2.
 NSaved= 2 IEnMin= 2 EnMin= -3107.37621828641     IErMin= 2 ErrMin= 1.78D-02
 ErrMax= 1.78D-02  0.00D+00 EMaxC= 1.00D-01 BMatC= 8.00D-02 BMatP= 6.83D-01
 IDIUse=3 WtCom= 8.22D-01 WtEn= 1.78D-01
 Coeff-Com:  0.189D+00 0.811D+00
 Coeff-En:   0.000D+00 0.100D+01
 Coeff:      0.156D+00 0.844D+00
 Gap=     0.426 Goal=   None    Shift=    0.000
 RMSDP=1.43D-03 MaxDP=4.61D-02 DE=-1.11D-01 OVMax= 1.00D-01

 Cycle   3  Pass 1  IDiag  1:
 E= -3107.41013400644     Delta-E=       -0.033915720031 Rises=F Damp=F
 DIIS: error= 1.21D-02 at cycle   3 NSaved=   3.
 NSaved= 3 IEnMin= 3 EnMin= -3107.41013400644     IErMin= 3 ErrMin= 1.21D-02
 ErrMax= 1.21D-02  0.00D+00 EMaxC= 1.00D-01 BMatC= 2.97D-02 BMatP= 8.00D-02
 IDIUse=3 WtCom= 8.79D-01 WtEn= 1.21D-01
 Coeff-Com:  0.856D-02 0.377D+00 0.614D+00
 Coeff-En:   0.000D+00 0.240D+00 0.760D+00
 Coeff:      0.752D-02 0.361D+00 0.632D+00
 Gap=     0.373 Goal=   None    Shift=    0.000
 RMSDP=4.83D-04 MaxDP=1.97D-02 DE=-3.39D-02 OVMax= 5.08D-02

 Cycle   4  Pass 1  IDiag  1:
 E= -3107.43119220304     Delta-E=       -0.021058196599 Rises=F Damp=F
 DIIS: error= 1.12D-03 at cycle   4 NSaved=   4.
 NSaved= 4 IEnMin= 4 EnMin= -3107.43119220304     IErMin= 4 ErrMin= 1.12D-03
 ErrMax= 1.12D-03  0.00D+00 EMaxC= 1.00D-01 BMatC= 2.82D-04 BMatP= 2.97D-02
 IDIUse=3 WtCom= 9.89D-01 WtEn= 1.12D-02
 Coeff-Com: -0.720D-02-0.205D-01 0.423D-01 0.985D+00
 Coeff-En:   0.000D+00 0.000D+00 0.000D+00 0.100D+01
 Coeff:     -0.712D-02-0.203D-01 0.418D-01 0.986D+00
 Gap=     0.354 Goal=   None    Shift=    0.000
 RMSDP=9.32D-05 MaxDP=2.42D-03 DE=-2.11D-02 OVMax= 7.71D-03

 Cycle   5  Pass 1  IDiag  1:
 E= -3107.43163029598     Delta-E=       -0.000438092939 Rises=F Damp=F
 DIIS: error= 3.37D-04 at cycle   5 NSaved=   5.
 NSaved= 5 IEnMin= 5 EnMin= -3107.43163029598     IErMin= 5 ErrMin= 3.37D-04
 ErrMax= 3.37D-04  0.00D+00 EMaxC= 1.00D-01 BMatC= 3.46D-05 BMatP= 2.82D-04
 IDIUse=3 WtCom= 9.97D-01 WtEn= 3.37D-03
 Coeff-Com:  0.163D-02-0.330D-01-0.631D-01-0.135D+00 0.123D+01
 Coeff-En:   0.000D+00 0.000D+00 0.000D+00 0.000D+00 0.100D+01
 Coeff:      0.163D-02-0.329D-01-0.629D-01-0.134D+00 0.123D+01
 Gap=     0.354 Goal=   None    Shift=    0.000
 RMSDP=5.67D-05 MaxDP=2.09D-03 DE=-4.38D-04 OVMax= 5.55D-03

 Cycle   6  Pass 1  IDiag  1:
 E= -3107.43174317669     Delta-E=       -0.000112880710 Rises=F Damp=F
 DIIS: error= 1.64D-04 at cycle   6 NSaved=   6.
 NSaved= 6 IEnMin= 6 EnMin= -3107.43174317669     IErMin= 6 ErrMin= 1.64D-04
 ErrMax= 1.64D-04  0.00D+00 EMaxC= 1.00D-01 BMatC= 5.66D-06 BMatP= 3.46D-05
 IDIUse=3 WtCom= 9.98D-01 WtEn= 1.64D-03
 Coeff-Com:  0.533D-03 0.112D-01 0.944D-02-0.165D+00-0.163D+00 0.131D+01
 Coeff-En:   0.000D+00 0.000D+00 0.000D+00 0.000D+00 0.000D+00 0.100D+01
 Coeff:      0.533D-03 0.112D-01 0.943D-02-0.165D+00-0.163D+00 0.131D+01
 Gap=     0.355 Goal=   None    Shift=    0.000
 RMSDP=2.92D-05 MaxDP=1.05D-03 DE=-1.13D-04 OVMax= 2.92D-03

 Cycle   7  Pass 1  IDiag  1:
 E= -3107.43176450059     Delta-E=       -0.000021323904 Rises=F Damp=F
 DIIS: error= 5.28D-05 at cycle   7 NSaved=   7.
 NSaved= 7 IEnMin= 7 EnMin= -3107.43176450059     IErMin= 7 ErrMin= 5.28D-05
 ErrMax= 5.28D-05  0.00D+00 EMaxC= 1.00D-01 BMatC= 3.76D-07 BMatP= 5.66D-06
 IDIUse=1 WtCom= 1.00D+00 WtEn= 0.00D+00
 Coeff-Com: -0.274D-03-0.153D-04 0.457D-02 0.637D-01-0.113D+00-0.278D+00
 Coeff-Com:  0.132D+01
 Coeff:     -0.274D-03-0.153D-04 0.457D-02 0.637D-01-0.113D+00-0.278D+00
 Coeff:      0.132D+01
 Gap=     0.355 Goal=   None    Shift=    0.000
 RMSDP=7.90D-06 MaxDP=2.74D-04 DE=-2.13D-05 OVMax= 8.62D-04

 Cycle   8  Pass 1  IDiag  1:
 E= -3107.43176593533     Delta-E=       -0.000001434733 Rises=F Damp=F
 DIIS: error= 8.88D-06 at cycle   8 NSaved=   8.
 NSaved= 8 IEnMin= 8 EnMin= -3107.43176593533     IErMin= 8 ErrMin= 8.88D-06
 ErrMax= 8.88D-06  0.00D+00 EMaxC= 1.00D-01 BMatC= 1.91D-08 BMatP= 3.76D-07
 IDIUse=1 WtCom= 1.00D+00 WtEn= 0.00D+00
 Coeff-Com: -0.394D-04-0.583D-03-0.714D-04 0.104D-01 0.432D-02-0.876D-01
 Coeff-Com:  0.718D-01 0.100D+01
 Coeff:     -0.394D-04-0.583D-03-0.714D-04 0.104D-01 0.432D-02-0.876D-01
 Coeff:      0.718D-01 0.100D+01
 Gap=     0.355 Goal=   None    Shift=    0.000
 RMSDP=1.10D-06 MaxDP=3.00D-05 DE=-1.43D-06 OVMax= 1.17D-04

 Cycle   9  Pass 1  IDiag  1:
 E= -3107.43176597427     Delta-E=       -0.000000038945 Rises=F Damp=F
 DIIS: error= 2.72D-06 at cycle   9 NSaved=   9.
 NSaved= 9 IEnMin= 9 EnMin= -3107.43176597427     IErMin= 9 ErrMin= 2.72D-06
 ErrMax= 2.72D-06  0.00D+00 EMaxC= 1.00D-01 BMatC= 1.42D-09 BMatP= 1.91D-08
 IDIUse=1 WtCom= 1.00D+00 WtEn= 0.00D+00
 Coeff-Com:  0.169D-04-0.123D-03-0.402D-03-0.438D-02 0.117D-01 0.112D-01
 Coeff-Com: -0.102D+00 0.107D+00 0.977D+00
 Coeff:      0.169D-04-0.123D-03-0.402D-03-0.438D-02 0.117D-01 0.112D-01
 Coeff:     -0.102D+00 0.107D+00 0.977D+00
 Gap=     0.355 Goal=   None    Shift=    0.000
 RMSDP=2.64D-07 MaxDP=7.48D-06 DE=-3.89D-08 OVMax= 2.12D-05

 Cycle  10  Pass 1  IDiag  1:
 E= -3107.43176597666     Delta-E=       -0.000000002392 Rises=F Damp=F
 DIIS: error= 4.52D-07 at cycle  10 NSaved=  10.
 NSaved=10 IEnMin=10 EnMin= -3107.43176597666     IErMin=10 ErrMin= 4.52D-07
 ErrMax= 4.52D-07  0.00D+00 EMaxC= 1.00D-01 BMatC= 4.80D-11 BMatP= 1.42D-09
 IDIUse=1 WtCom= 1.00D+00 WtEn= 0.00D+00
 Coeff-Com:  0.363D-06 0.383D-04 0.565D-04-0.137D-03-0.146D-02 0.370D-02
 Coeff-Com:  0.459D-02-0.490D-01-0.130D+00 0.117D+01
 Coeff:      0.363D-06 0.383D-04 0.565D-04-0.137D-03-0.146D-02 0.370D-02
 Coeff:      0.459D-02-0.490D-01-0.130D+00 0.117D+01
 Gap=     0.355 Goal=   None    Shift=    0.000
 RMSDP=7.01D-08 MaxDP=1.52D-06 DE=-2.39D-09 OVMax= 4.88D-06

 Cycle  11  Pass 1  IDiag  1:
 E= -3107.43176597678     Delta-E=       -0.000000000116 Rises=F Damp=F
 DIIS: error= 1.95D-07 at cycle  11 NSaved=  11.
 NSaved=11 IEnMin=11 EnMin= -3107.43176597678     IErMin=11 ErrMin= 1.95D-07
 ErrMax= 1.95D-07  0.00D+00 EMaxC= 1.00D-01 BMatC= 3.03D-12 BMatP= 4.80D-11
 IDIUse=1 WtCom= 1.00D+00 WtEn= 0.00D+00
 Coeff-Com: -0.578D-06-0.480D-05-0.151D-06 0.158D-03-0.858D-05-0.110D-02
 Coeff-Com:  0.204D-02 0.602D-02 0.624D-02-0.288D+00 0.127D+01
 Coeff:     -0.578D-06-0.480D-05-0.151D-06 0.158D-03-0.858D-05-0.110D-02
 Coeff:      0.204D-02 0.602D-02 0.624D-02-0.288D+00 0.127D+01
 Gap=     0.355 Goal=   None    Shift=    0.000
 RMSDP=1.99D-08 MaxDP=3.84D-07 DE=-1.16D-10 OVMax= 2.29D-06

 Cycle  12  Pass 1  IDiag  1:
 E= -3107.43176597680     Delta-E=       -0.000000000021 Rises=F Damp=F
 DIIS: error= 7.35D-08 at cycle  12 NSaved=  12.
 NSaved=12 IEnMin=12 EnMin= -3107.43176597680     IErMin=12 ErrMin= 7.35D-08
 ErrMax= 7.35D-08  0.00D+00 EMaxC= 1.00D-01 BMatC= 6.42D-13 BMatP= 3.03D-12
 IDIUse=1 WtCom= 1.00D+00 WtEn= 0.00D+00
 Coeff-Com: -0.638D-08-0.433D-05-0.595D-05 0.289D-05 0.180D-03-0.377D-03
 Coeff-Com: -0.701D-03 0.542D-02 0.143D-01-0.104D+00-0.183D+00 0.127D+01
 Coeff:     -0.638D-08-0.433D-05-0.595D-05 0.289D-05 0.180D-03-0.377D-03
 Coeff:     -0.701D-03 0.542D-02 0.143D-01-0.104D+00-0.183D+00 0.127D+01
 Gap=     0.355 Goal=   None    Shift=    0.000
 RMSDP=1.09D-08 MaxDP=2.55D-07 DE=-2.09D-11 OVMax= 1.28D-06

 Cycle  13  Pass 1  IDiag  1:
 E= -3107.43176597680     Delta-E=        0.000000000005 Rises=F Damp=F
 DIIS: error= 3.80D-08 at cycle  13 NSaved=  13.
 NSaved=13 IEnMin=12 EnMin= -3107.43176597680     IErMin=13 ErrMin= 3.80D-08
 ErrMax= 3.80D-08  0.00D+00 EMaxC= 1.00D-01 BMatC= 1.22D-13 BMatP= 6.42D-13
 IDIUse=1 WtCom= 1.00D+00 WtEn= 0.00D+00
 Coeff-Com:  0.117D-06 0.147D-05 0.768D-06-0.273D-04-0.289D-04 0.239D-03
 Coeff-Com: -0.182D-03-0.167D-02-0.491D-02 0.683D-01-0.162D+00-0.367D+00
 Coeff-Com:  0.147D+01
 Coeff:      0.117D-06 0.147D-05 0.768D-06-0.273D-04-0.289D-04 0.239D-03
 Coeff:     -0.182D-03-0.167D-02-0.491D-02 0.683D-01-0.162D+00-0.367D+00
 Coeff:      0.147D+01
 Gap=     0.355 Goal=   None    Shift=    0.000
 RMSDP=6.95D-09 MaxDP=1.74D-07 DE= 4.55D-12 OVMax= 8.62D-07

 SCF Done:  E(RHF) =  -3107.43176598     A.U. after   13 cycles
            NFock= 13  Conv=0.70D-08     -V/T= 2.0001
 KE= 3.107243506457D+03 PE=-7.824476589094D+03 EE= 1.418529180440D+03
 Leave Link  502 at Tue Oct 12 14:26:54 2021, MaxMem=  1048576000 cpu:        19.4
 (Enter /usr/local/gaussian/g09/l801.exe)
 ExpMin= 2.53D-02 ExpMax= 1.06D+07 ExpMxC= 1.21D+04 IAcc=3 IRadAn=         5 AccDes= 0.00D+00
 HarFok:  IExCor=  205 AccDes= 0.00D+00 IRadAn=         5 IDoV=-2 UseB2=F ITyADJ=14
 ICtDFT= 12500011 ScaDFX=  1.000000  1.000000  1.000000  1.000000
 Largest valence mixing into a core orbital is  4.45D-04
 Largest core mixing into a valence orbital is  9.59D-05
 Range of M.O.s used for correlation:    16   178
 NBasis=   178 NAE=    31 NBE=    31 NFC=    15 NFV=     0
 NROrb=    163 NOA=    16 NOB=    16 NVA=   147 NVB=   147

 **** Warning!!: The largest alpha MO coefficient is  0.18260528D+02

 Leave Link  801 at Tue Oct 12 14:26:54 2021, MaxMem=  1048576000 cpu:         0.7
 (Enter /usr/local/gaussian/g09/l906.exe)
 Frozen-core derivative calculation, NFC=  15 NFV=   0.
 FulOut=F Deriv=T AODrv=F NAtomX=     4
   MMem=         227  MDisk=          16 MDiskD=          16
  W3Min=     1147744 MinDsk=     1765480 NBas6D=         208
 NBas2D=       22240    NTT=       21736    LW2=     9911920
    MDV=  1048101959 MDiskM=       25146 NBas2p=       22041
 Fully in-core method, ICMem=   526646768.
 IMap=   1   2   3   4   5   6   7   8   9  10  11  12  13  14  15  16  17  18  19  20
 IMap=  21  22  23  24  25  26  27  28  29  30  31
 JobTyp=1 Pass  1 fully in-core, NPsUse= 12.
 Compute canonical integrals.
 FoFCou: FMM=F IPFlag=           0 FMFlag=           0 FMFlg1=           0
         NFxFlg=           0 DoJE=F BraDBF=F KetDBF=F FulRan=T
         wScrn=  0.000000 ICntrl=     600 IOpCl=  1 I1Cent=           0 NGrid=           0
         NMat0=    1 NMatS0=  22240 NMatT0=    0 NMatD0=    1 NMtDS0=    0 NMtDT0=    0
 Symmetry not used in FoFCou.
 Spin components of T(2) and E(2):
     alpha-alpha T2 =       0.3210873025D-01 E2=     -0.9695967813D-01
     alpha-beta  T2 =       0.1684726515D+00 E2=     -0.5252729457D+00
     beta-beta   T2 =       0.3210873025D-01 E2=     -0.9695967813D-01
 The integrals were generated   1 times.
 ANorm=    0.1110265784D+01
 E2 =    -0.7191923019D+00 EUMP2 =    -0.31081509582787D+04
 Leave Link  906 at Tue Oct 12 14:27:03 2021, MaxMem=  1048576000 cpu:        98.5
 (Enter /usr/local/gaussian/g09/l1002.exe)
 Minotr:  Closed shell wavefunction.
          Computing MP2/KS-MP2 derivatives.
          Using Z-Vector for PSCF gradient.
          Skipping F1 and S1 gradient terms here.
          Frozen-core window.
          Direct CPHF calculation.
          Differentiating once with respect to electric field.
                with respect to dipole field.
          Electric field/nuclear overlap derivatives assumed to be zero.
          Requested convergence is 1.0D-10 RMS, and 1.0D-09 maximum.
          NewPWx=F KeepS1=T KeepF1=T KeepIn=T MapXYZ=F SortEE=F KeepMc=T.
          MDV=    1048575801 using IRadAn=       0.
 Keep R1 ints in memory in canonical form, NReq=131472178.
 FoFCou: FMM=F IPFlag=           0 FMFlag=           0 FMFlg1=           0
         NFxFlg=           0 DoJE=F BraDBF=F KetDBF=F FulRan=T
         wScrn=  0.000000 ICntrl=     600 IOpCl=  0 I1Cent=           0 NGrid=           0
         NMat0=    1 NMatS0=  15931 NMatT0=    0 NMatD0=    1 NMtDS0=    0 NMtDT0=    0
 Symmetry not used in FoFCou.
          Solving linear equations separately, MaxMat=       0.
          There are     1 degrees of freedom in the 1st order CPHF.  IDoFFX=0 NUNeed=     1.
 LinEq1:  Iter=  0 NonCon=     1 RMS=3.39D-03 Max=6.01D-02 NDo=     1
 AX will form     1 AO Fock derivatives at one time.
 LinEq1:  Iter=  1 NonCon=     1 RMS=5.97D-04 Max=1.45D-02 NDo=     1
 LinEq1:  Iter=  2 NonCon=     1 RMS=2.33D-04 Max=3.00D-03 NDo=     1
 LinEq1:  Iter=  3 NonCon=     1 RMS=9.18D-05 Max=1.97D-03 NDo=     1
 LinEq1:  Iter=  4 NonCon=     1 RMS=4.25D-05 Max=6.23D-04 NDo=     1
 LinEq1:  Iter=  5 NonCon=     1 RMS=1.47D-05 Max=2.63D-04 NDo=     1
 LinEq1:  Iter=  6 NonCon=     1 RMS=2.40D-06 Max=3.27D-05 NDo=     1
 LinEq1:  Iter=  7 NonCon=     1 RMS=6.77D-07 Max=2.06D-05 NDo=     1
 LinEq1:  Iter=  8 NonCon=     1 RMS=2.13D-07 Max=3.76D-06 NDo=     1
 LinEq1:  Iter=  9 NonCon=     1 RMS=6.03D-08 Max=1.25D-06 NDo=     1
 LinEq1:  Iter= 10 NonCon=     1 RMS=1.24D-08 Max=1.54D-07 NDo=     1
 LinEq1:  Iter= 11 NonCon=     1 RMS=3.32D-09 Max=4.25D-08 NDo=     1
 LinEq1:  Iter= 12 NonCon=     1 RMS=6.49D-10 Max=7.89D-09 NDo=     1
 LinEq1:  Iter= 13 NonCon=     1 RMS=1.53D-10 Max=2.71D-09 NDo=     1
 LinEq1:  Iter= 14 NonCon=     0 RMS=3.80D-11 Max=6.49D-10 NDo=     1
 Linear equations converged to 1.000D-10 1.000D-09 after    14 iterations.
 End of Minotr F.D. properties file   721 does not exist.
 End of Minotr F.D. properties file   722 does not exist.
 End of Minotr F.D. properties file   788 does not exist.
 Leave Link 1002 at Tue Oct 12 14:27:07 2021, MaxMem=  1048576000 cpu:        18.6
 (Enter /usr/local/gaussian/g09/l601.exe)
 Copying SCF densities to generalized density rwf, IOpCl= 0 IROHF=0.

 **********************************************************************

            Population analysis using the MP2 density.

 **********************************************************************

 Alpha  occ. eigenvalues -- -489.82429-104.66804 -64.96483 -58.31959 -58.31912
 Alpha  occ. eigenvalues --  -58.31911 -20.36920 -10.38789  -9.63782  -7.85495
 Alpha  occ. eigenvalues --   -7.85291  -7.85287  -7.24733  -7.24425  -7.24422
 Alpha  occ. eigenvalues --   -2.98981  -2.98805  -2.98802  -2.98434  -2.98433
 Alpha  occ. eigenvalues --   -1.10859  -0.82149  -0.80409  -0.42453  -0.36088
 Alpha  occ. eigenvalues --   -0.35168  -0.29663  -0.23695  -0.23637  -0.20659
 Alpha  occ. eigenvalues --   -0.19859
 Alpha virt. eigenvalues --    0.15626   0.19301   0.21212   0.22300   0.23206
 Alpha virt. eigenvalues --    0.25359   0.25761   0.29205   0.32135   0.33778
 Alpha virt. eigenvalues --    0.34541   0.35114   0.37690   0.41607   0.43147
 Alpha virt. eigenvalues --    0.44172   0.44885   0.47424   0.51446   0.55123
 Alpha virt. eigenvalues --    0.55952   0.57553   0.59502   0.60741   0.61588
 Alpha virt. eigenvalues --    0.62969   0.64225   0.68943   0.70577   0.70663
 Alpha virt. eigenvalues --    0.71419   0.81241   0.81524   0.87052   0.91999
 Alpha virt. eigenvalues --    0.93642   0.94190   0.94970   0.96062   0.97822
 Alpha virt. eigenvalues --    1.00585   1.03726   1.04072   1.05790   1.06095
 Alpha virt. eigenvalues --    1.10824   1.12039   1.12799   1.14137   1.15075
 Alpha virt. eigenvalues --    1.15926   1.19377   1.22260   1.22813   1.23781
 Alpha virt. eigenvalues --    1.27287   1.29845   1.33095   1.33652   1.35624
 Alpha virt. eigenvalues --    1.37600   1.42812   1.44341   1.50813   1.52933
 Alpha virt. eigenvalues --    1.58669   1.62959   1.63032   1.68730   1.73820
 Alpha virt. eigenvalues --    1.76660   1.79023   1.79809   1.85774   1.92031
 Alpha virt. eigenvalues --    1.98160   2.05560   2.32112   2.40486   2.41855
 Alpha virt. eigenvalues --    2.44637   2.45160   2.48114   2.48524   2.49308
 Alpha virt. eigenvalues --    2.49338   2.50310   2.51105   2.51538   2.55110
 Alpha virt. eigenvalues --    2.56161   2.56380   2.57522   2.61851   2.63160
 Alpha virt. eigenvalues --    2.67190   2.67933   2.71288   2.74712   2.75569
 Alpha virt. eigenvalues --    2.76936   2.77805   2.83140   2.84268   2.90991
 Alpha virt. eigenvalues --    3.05979   3.12436   3.15569   3.17028   3.22445
 Alpha virt. eigenvalues --    3.30186   3.30403   3.32008   3.34422   3.37999
 Alpha virt. eigenvalues --    3.50093   3.58250   3.59802   3.70068   3.96942
 Alpha virt. eigenvalues --    3.99443   4.15135   4.24361   4.45619   4.53589
 Alpha virt. eigenvalues --    4.54432   4.62714   4.65257   4.74556   5.19734
 Alpha virt. eigenvalues --    5.40181   5.51250   6.10361   6.56582   6.87847
 Alpha virt. eigenvalues --    6.95080   6.99290   7.00357   7.13225   7.23335
 Alpha virt. eigenvalues --    7.26310   7.41340   7.46380   7.49257   7.73210
 Alpha virt. eigenvalues --    8.15910  12.93818
          Condensed to atoms (all electrons):
               1          2          3          4
     1  O    8.834277  -0.176647  -0.144458   0.159080
     2  Cl  -0.176647  17.225708   0.020697  -0.031005
     3  Br  -0.144458   0.020697  35.533261   0.034880
     4  H    0.159080  -0.031005   0.034880   0.681661
 Mulliken charges:
               1
     1  O   -0.672252
     2  Cl  -0.038753
     3  Br  -0.444380
     4  H    0.155385
 Sum of Mulliken charges =  -1.00000
 Mulliken charges with hydrogens summed into heavy atoms:
               1
     1  O   -0.516867
     2  Cl  -0.038753
     3  Br  -0.444380
 Electronic spatial extent (au):  <R**2>=           1473.5173
 Charge=             -1.0000 electrons
 Dipole moment (field-independent basis, Debye):
    X=             -0.3208    Y=              5.8116    Z=             -0.0000  Tot=              5.8204
 Quadrupole moment (field-independent basis, Debye-Ang):
   XX=            -46.3889   YY=            -62.0666   ZZ=            -42.6354
   XY=             -4.9354   XZ=             -0.0000   YZ=              0.0000
 Traceless Quadrupole moment (field-independent basis, Debye-Ang):
   XX=              3.9747   YY=            -11.7029   ZZ=              7.7282
   XY=             -4.9354   XZ=             -0.0000   YZ=              0.0000
 Octapole moment (field-independent basis, Debye-Ang**2):
  XXX=            -26.6681  YYY=            249.0701  ZZZ=             -0.0000  XYY=              5.4806
  XXY=             67.5768  XXZ=             -0.0000  XZZ=             -8.6990  YZZ=             64.1654
  YYZ=             -0.0000  XYZ=              0.0000
 Hexadecapole moment (field-independent basis, Debye-Ang**3):
 XXXX=           -354.5819 YYYY=          -1343.6317 ZZZZ=            -57.9433 XXXY=           -139.5250
 XXXZ=             -0.0000 YYYX=           -172.7757 YYYZ=              0.0000 ZZZX=             -0.0000
 ZZZY=             -0.0000 XXYY=           -271.3848 XXZZ=            -72.2370 YYZZ=           -210.0701
 XXYZ=              0.0000 YYXZ=              0.0000 ZZXY=            -45.7853
 N-N= 1.912721362203D+02 E-N=-7.823039594238D+03  KE= 3.107241077356D+03
 No NMR shielding tensors so no spin-rotation constants.
 Leave Link  601 at Tue Oct 12 14:27:07 2021, MaxMem=  1048576000 cpu:         2.1
 (Enter /usr/local/gaussian/g09/l607.exe)
 ******************************Gaussian NBO Version 3.1******************************
             N A T U R A L   A T O M I C   O R B I T A L   A N D
          N A T U R A L   B O N D   O R B I T A L   A N A L Y S I S
 ******************************Gaussian NBO Version 3.1******************************
       /RESON  / : Allow strongly delocalized NBO set

 Analyzing the MP2 density

 Job title: title                                                           

 Storage needed:     95974 in NPA,    127345 in NBO (1048575904 available)


 NATURAL POPULATIONS:  Natural atomic orbital occupancies 
                                                          
   NAO  Atom  No  lang   Type(AO)    Occupancy
 --------------------------------------------
     1    O    1  S      Cor( 1S)     1.99987
     2    O    1  S      Val( 2S)     1.86793
     3    O    1  S      Ryd( 3S)     0.01398
     4    O    1  S      Ryd( 4S)     0.00145
     5    O    1  S      Ryd( 5S)     0.00017
     6    O    1  px     Val( 2p)     1.15427
     7    O    1  px     Ryd( 3p)     0.00854
     8    O    1  px     Ryd( 5p)     0.00080
     9    O    1  px     Ryd( 4p)     0.00080
    10    O    1  py     Val( 2p)     1.79634
    11    O    1  py     Ryd( 3p)     0.01683
    12    O    1  py     Ryd( 4p)     0.00057
    13    O    1  py     Ryd( 5p)     0.00024
    14    O    1  pz     Val( 2p)     1.94168
    15    O    1  pz     Ryd( 3p)     0.02429
    16    O    1  pz     Ryd( 4p)     0.00057
    17    O    1  pz     Ryd( 5p)     0.00029
    18    O    1  dxy    Ryd( 3d)     0.00851
    19    O    1  dxy    Ryd( 4d)     0.00057
    20    O    1  dxy    Ryd( 5d)     0.00013
    21    O    1  dxz    Ryd( 3d)     0.00863
    22    O    1  dxz    Ryd( 4d)     0.00057
    23    O    1  dxz    Ryd( 5d)     0.00014
    24    O    1  dyz    Ryd( 3d)     0.00652
    25    O    1  dyz    Ryd( 4d)     0.00068
    26    O    1  dyz    Ryd( 5d)     0.00022
    27    O    1  dx2y2  Ryd( 3d)     0.00905
    28    O    1  dx2y2  Ryd( 4d)     0.00039
    29    O    1  dx2y2  Ryd( 5d)     0.00013
    30    O    1  dz2    Ryd( 3d)     0.00747
    31    O    1  dz2    Ryd( 4d)     0.00065
    32    O    1  dz2    Ryd( 5d)     0.00014
    33    O    1  f(0)   Ryd( 4f)     0.00063
    34    O    1  f(0)   Ryd( 5f)     0.00011
    35    O    1  f(C1)  Ryd( 4f)     0.00065
    36    O    1  f(C1)  Ryd( 5f)     0.00012
    37    O    1  f(S1)  Ryd( 4f)     0.00053
    38    O    1  f(S1)  Ryd( 5f)     0.00013
    39    O    1  f(C2)  Ryd( 4f)     0.00069
    40    O    1  f(C2)  Ryd( 5f)     0.00014
    41    O    1  f(S2)  Ryd( 4f)     0.00057
    42    O    1  f(S2)  Ryd( 5f)     0.00012
    43    O    1  f(C3)  Ryd( 4f)     0.00066
    44    O    1  f(C3)  Ryd( 5f)     0.00014
    45    O    1  f(S3)  Ryd( 4f)     0.00070
    46    O    1  f(S3)  Ryd( 5f)     0.00013

    47   Cl    2  S      Cor( 1S)     2.00000
    48   Cl    2  S      Cor( 2S)     1.99974
    49   Cl    2  S      Val( 3S)     1.87277
    50   Cl    2  S      Ryd( 4S)     0.00977
    51   Cl    2  S      Ryd( 5S)     0.00062
    52   Cl    2  S      Ryd( 6S)     0.00017
    53   Cl    2  px     Cor( 2p)     1.99996
    54   Cl    2  px     Val( 3p)     0.97044
    55   Cl    2  px     Ryd( 4p)     0.00776
    56   Cl    2  px     Ryd( 5p)     0.00061
    57   Cl    2  px     Ryd( 6p)     0.00021
    58   Cl    2  py     Cor( 2p)     2.00003
    59   Cl    2  py     Val( 3p)     1.95084
    60   Cl    2  py     Ryd( 4p)     0.01203
    61   Cl    2  py     Ryd( 5p)     0.00070
    62   Cl    2  py     Ryd( 6p)     0.00006
    63   Cl    2  pz     Cor( 2p)     2.00003
    64   Cl    2  pz     Val( 3p)     1.95214
    65   Cl    2  pz     Ryd( 4p)     0.01234
    66   Cl    2  pz     Ryd( 5p)     0.00079
    67   Cl    2  pz     Ryd( 6p)     0.00004
    68   Cl    2  dxy    Ryd( 3d)     0.02261
    69   Cl    2  dxy    Ryd( 4d)     0.00133
    70   Cl    2  dxy    Ryd( 5d)     0.00038
    71   Cl    2  dxz    Ryd( 3d)     0.02519
    72   Cl    2  dxz    Ryd( 4d)     0.00158
    73   Cl    2  dxz    Ryd( 5d)     0.00041
    74   Cl    2  dyz    Ryd( 3d)     0.01714
    75   Cl    2  dyz    Ryd( 4d)     0.00072
    76   Cl    2  dyz    Ryd( 5d)     0.00026
    77   Cl    2  dx2y2  Ryd( 3d)     0.01930
    78   Cl    2  dx2y2  Ryd( 4d)     0.00056
    79   Cl    2  dx2y2  Ryd( 5d)     0.00021
    80   Cl    2  dz2    Ryd( 3d)     0.01805
    81   Cl    2  dz2    Ryd( 4d)     0.00063
    82   Cl    2  dz2    Ryd( 5d)     0.00024
    83   Cl    2  f(0)   Ryd( 4f)     0.00133
    84   Cl    2  f(0)   Ryd( 5f)     0.00016
    85   Cl    2  f(C1)  Ryd( 4f)     0.00154
    86   Cl    2  f(C1)  Ryd( 5f)     0.00015
    87   Cl    2  f(S1)  Ryd( 4f)     0.00129
    88   Cl    2  f(S1)  Ryd( 5f)     0.00014
    89   Cl    2  f(C2)  Ryd( 4f)     0.00137
    90   Cl    2  f(C2)  Ryd( 5f)     0.00015
    91   Cl    2  f(S2)  Ryd( 4f)     0.00124
    92   Cl    2  f(S2)  Ryd( 5f)     0.00014
    93   Cl    2  f(C3)  Ryd( 4f)     0.00172
    94   Cl    2  f(C3)  Ryd( 5f)     0.00015
    95   Cl    2  f(S3)  Ryd( 4f)     0.00138
    96   Cl    2  f(S3)  Ryd( 5f)     0.00017

    97   Br    3  S      Cor( 1S)     2.00000
    98   Br    3  S      Cor( 2S)     2.00000
    99   Br    3  S      Cor( 3S)     1.99925
   100   Br    3  S      Val( 4S)     1.89899
   101   Br    3  S      Ryd( 5S)     0.00546
   102   Br    3  S      Ryd( 6S)     0.00095
   103   Br    3  S      Ryd( 7S)     0.00032
   104   Br    3  px     Cor( 2p)     2.00000
   105   Br    3  px     Cor( 3p)     1.99992
   106   Br    3  px     Val( 4p)     1.93336
   107   Br    3  px     Ryd( 5p)     0.00927
   108   Br    3  px     Ryd( 6p)     0.00077
   109   Br    3  px     Ryd( 7p)     0.00016
   110   Br    3  py     Cor( 2p)     2.00000
   111   Br    3  py     Cor( 3p)     1.99972
   112   Br    3  py     Val( 4p)     1.58726
   113   Br    3  py     Ryd( 5p)     0.00678
   114   Br    3  py     Ryd( 6p)     0.00067
   115   Br    3  py     Ryd( 7p)     0.00017
   116   Br    3  pz     Cor( 2p)     2.00000
   117   Br    3  pz     Cor( 3p)     1.99993
   118   Br    3  pz     Val( 4p)     1.95499
   119   Br    3  pz     Ryd( 5p)     0.00937
   120   Br    3  pz     Ryd( 6p)     0.00073
   121   Br    3  pz     Ryd( 7p)     0.00012
   122   Br    3  dxy    Cor( 3d)     1.99760
   123   Br    3  dxy    Ryd( 4d)     0.01765
   124   Br    3  dxy    Ryd( 5d)     0.00115
   125   Br    3  dxy    Ryd( 6d)     0.00026
   126   Br    3  dxz    Cor( 3d)     1.99769
   127   Br    3  dxz    Ryd( 4d)     0.01779
   128   Br    3  dxz    Ryd( 5d)     0.00159
   129   Br    3  dxz    Ryd( 6d)     0.00025
   130   Br    3  dyz    Cor( 3d)     1.99765
   131   Br    3  dyz    Ryd( 4d)     0.01750
   132   Br    3  dyz    Ryd( 5d)     0.00120
   133   Br    3  dyz    Ryd( 6d)     0.00029
   134   Br    3  dx2y2  Cor( 3d)     1.99748
   135   Br    3  dx2y2  Ryd( 4d)     0.01868
   136   Br    3  dx2y2  Ryd( 5d)     0.00112
   137   Br    3  dx2y2  Ryd( 6d)     0.00031
   138   Br    3  dz2    Cor( 3d)     1.99761
   139   Br    3  dz2    Ryd( 4d)     0.01822
   140   Br    3  dz2    Ryd( 5d)     0.00144
   141   Br    3  dz2    Ryd( 6d)     0.00019
   142   Br    3  f(0)   Ryd( 4f)     0.00166
   143   Br    3  f(0)   Ryd( 5f)     0.00024
   144   Br    3  f(C1)  Ryd( 4f)     0.00170
   145   Br    3  f(C1)  Ryd( 5f)     0.00023
   146   Br    3  f(S1)  Ryd( 4f)     0.00166
   147   Br    3  f(S1)  Ryd( 5f)     0.00025
   148   Br    3  f(C2)  Ryd( 4f)     0.00164
   149   Br    3  f(C2)  Ryd( 5f)     0.00023
   150   Br    3  f(S2)  Ryd( 4f)     0.00165
   151   Br    3  f(S2)  Ryd( 5f)     0.00023
   152   Br    3  f(C3)  Ryd( 4f)     0.00162
   153   Br    3  f(C3)  Ryd( 5f)     0.00024
   154   Br    3  f(S3)  Ryd( 4f)     0.00160
   155   Br    3  f(S3)  Ryd( 5f)     0.00025

   156    H    4  S      Val( 1S)     0.67742
   157    H    4  S      Ryd( 2S)     0.00713
   158    H    4  S      Ryd( 3S)     0.00034
   159    H    4  S      Ryd( 4S)     0.00016
   160    H    4  px     Ryd( 2p)     0.00501
   161    H    4  px     Ryd( 3p)     0.00033
   162    H    4  px     Ryd( 4p)     0.00013
   163    H    4  py     Ryd( 2p)     0.00364
   164    H    4  py     Ryd( 3p)     0.00052
   165    H    4  py     Ryd( 4p)     0.00034
   166    H    4  pz     Ryd( 2p)     0.00644
   167    H    4  pz     Ryd( 3p)     0.00082
   168    H    4  pz     Ryd( 4p)     0.00022
   169    H    4  dxy    Ryd( 3d)     0.00028
   170    H    4  dxy    Ryd( 4d)     0.00013
   171    H    4  dxz    Ryd( 3d)     0.00028
   172    H    4  dxz    Ryd( 4d)     0.00009
   173    H    4  dyz    Ryd( 3d)     0.00027
   174    H    4  dyz    Ryd( 4d)     0.00009
   175    H    4  dx2y2  Ryd( 3d)     0.00035
   176    H    4  dx2y2  Ryd( 4d)     0.00020
   177    H    4  dz2    Ryd( 3d)     0.00029
   178    H    4  dz2    Ryd( 4d)     0.00017

 WARNING:  5 low occupancy (<1.9990e) core orbitals found on Br    3


 Summary of Natural Population Analysis:                  
                                                          
                                       Natural Population 
                Natural  -----------------------------------------------
    Atom  No    Charge         Core      Valence    Rydberg      Total
 -----------------------------------------------------------------------
      O    1   -0.87771      1.99987     6.76021    0.11763     8.87771
     Cl    2    0.08940      9.99976     6.74619    0.16464    16.91060
     Br    3   -0.50707     27.98685     7.37459    0.14563    35.50707
      H    4    0.29537      0.00000     0.67742    0.02720     0.70463
 =======================================================================
   * Total *   -1.00000     39.98648    21.55842    0.45511    62.00000

                                 Natural Population      
 --------------------------------------------------------
   Core                      39.98648 ( 99.9662% of  40)
   Valence                   21.55842 ( 97.9928% of  22)
   Natural Minimal Basis     61.54489 ( 99.2660% of  62)
   Natural Rydberg Basis      0.45511 (  0.7340% of  62)
 --------------------------------------------------------

    Atom  No          Natural Electron Configuration
 ----------------------------------------------------------------------------
      O    1      [core]2S( 1.87)2p( 4.89)3S( 0.01)3p( 0.05)3d( 0.04)
     Cl    2      [core]3S( 1.87)3p( 4.87)4S( 0.01)3d( 0.10)4p( 0.03)4f( 0.01)
     Br    3      [core]4S( 1.90)4p( 5.48)5S( 0.01)4d( 0.09)5p( 0.03)4f( 0.01)5d( 0.01)
      H    4            1S( 0.68)2S( 0.01)2p( 0.02)


 NATURAL BOND ORBITAL ANALYSIS:
 Warning:  a bond orbital has occupanc of -0.00007
 Warning:  a bond orbital has occupanc of -0.00033

                       Occupancies       Lewis Structure    Low   High
           Occ.    -------------------  -----------------   occ   occ
  Cycle   Thresh.   Lewis   Non-Lewis     CR  BD  3C  LP    (L)   (NL)   Dev
 =============================================================================
   1(1)    1.90    61.04596   0.95404     20   2   0   9     1      1    0.60
 Warning:  a bond orbital has occupanc of -0.00007
 Warning:  a bond orbital has occupanc of -0.00033
   2(2)    1.90    61.30616   0.69384     20   2   0   9     1      1    0.25
 Warning:  a bond orbital has occupanc of -0.00007
 Warning:  a bond orbital has occupanc of -0.00033
   3(3)    1.90    61.04596   0.95404     20   2   0   9     1      1    0.60
 Warning:  a bond orbital has occupanc of -0.00007
 Warning:  a bond orbital has occupanc of -0.00033
   4(4)    1.90    61.30616   0.69384     20   2   0   9     1      1    0.25
 Warning:  a bond orbital has occupanc of -0.00007
 Warning:  a bond orbital has occupanc of -0.00033
   5(1)    1.80    61.30616   0.69384     20   2   0   9     1      1    0.25
 Warning:  a bond orbital has occupanc of -0.00007
 Warning:  a bond orbital has occupanc of -0.00033
   6(2)    1.80    61.04596   0.95404     20   2   0   9     1      1    0.60
 Warning:  a bond orbital has occupanc of -0.00007
 Warning:  a bond orbital has occupanc of -0.00033
   7(3)    1.80    61.30616   0.69384     20   2   0   9     1      1    0.25
 Warning:  a bond orbital has occupanc of -0.00007
 Warning:  a bond orbital has occupanc of -0.00033
   8(1)    1.70    61.32433   0.67567     20   2   0   9     0      1    0.25
 Warning:  a bond orbital has occupanc of -0.00007
 Warning:  a bond orbital has occupanc of -0.00033
   9(2)    1.70    61.32433   0.67567     20   2   0   9     0      1    0.25
 Warning:  a bond orbital has occupanc of -0.00007
 Warning:  a bond orbital has occupanc of -0.00033
  10(1)    1.60    61.32433   0.67567     20   2   0   9     0      1    0.25
 Warning:  a bond orbital has occupanc of -0.00007
 Warning:  a bond orbital has occupanc of -0.00033
  11(2)    1.60    61.32433   0.67567     20   2   0   9     0      1    0.25
 Warning:  a bond orbital has occupanc of -0.00007
 Warning:  a bond orbital has occupanc of -0.00033
  12(1)    1.50    61.32433   0.67567     20   2   0   9     0      1    0.25
 Warning:  a bond orbital has occupanc of -0.00007
 Warning:  a bond orbital has occupanc of -0.00033
  13(2)    1.50    61.32433   0.67567     20   2   0   9     0      1    0.25
 Warning:  a bond orbital has occupanc of -0.00007
 Warning:  a bond orbital has occupanc of -0.00033
  14(1)    1.70    61.32433   0.67567     20   2   0   9     0      1    0.25
 -----------------------------------------------------------------------------

 Structure accepted: RESONANCE keyword permits strongly delocalized structure

 WARNING:  5 low occupancy (<1.9990e) core orbitals found on Br    3

 --------------------------------------------------------
   Core                     39.98648 ( 99.966% of  40)
   Valence Lewis            21.33784 ( 96.990% of  22)
  ==================       ============================
   Total Lewis              61.32433 ( 98.910% of  62)
  -----------------------------------------------------
   Valence non-Lewis         0.27097 (  0.437% of  62)
   Rydberg non-Lewis         0.40470 (  0.653% of  62)
  ==================       ============================
   Total non-Lewis           0.67567 (  1.090% of  62)
 --------------------------------------------------------


       (Occupancy)   Bond orbital/ Coefficients/ Hybrids
 ---------------------------------------------------------------------------------
     1. (1.93555) BD ( 1) O   1 -Cl   2  
                ( 55.81%)   0.7470* O   1 s(  8.51%)p10.69( 91.01%)d 0.05(  0.46%)
                                                  f 0.00(  0.02%)
                                            0.0003  0.2830 -0.0692  0.0147 -0.0024
                                            0.9520 -0.0516 -0.0153 -0.0184  0.0121
                                           -0.0176 -0.0019  0.0032  0.0000  0.0000
                                            0.0000  0.0000 -0.0078 -0.0012  0.0004
                                            0.0000  0.0000  0.0000  0.0000  0.0000
                                            0.0000  0.0553  0.0030  0.0004 -0.0386
                                           -0.0028  0.0006  0.0000  0.0000 -0.0103
                                            0.0008 -0.0001  0.0000  0.0000  0.0000
                                            0.0000  0.0000  0.0097  0.0002 -0.0001
                                            0.0007
                ( 44.19%)   0.6648*Cl   2 s( 10.02%)p 8.87( 88.85%)d 0.10(  1.02%)
                                                  f 0.01(  0.12%)
                                           -0.0000  0.0007  0.3091 -0.0673  0.0116
                                           -0.0015 -0.0004 -0.9400  0.0676  0.0123
                                           -0.0012  0.0000 -0.0054 -0.0042  0.0024
                                           -0.0017  0.0000  0.0000  0.0000  0.0000
                                            0.0000  0.0060 -0.0013 -0.0008  0.0000
                                            0.0000  0.0000  0.0000  0.0000  0.0000
                                            0.0839 -0.0145 -0.0023 -0.0527  0.0094
                                            0.0024  0.0000  0.0000  0.0214 -0.0025
                                            0.0002 -0.0000  0.0000  0.0000  0.0000
                                            0.0000 -0.0266  0.0029 -0.0007  0.0006
     2. (1.95734) BD ( 1)Br   3 - H   4  
                ( 73.53%)   0.8575*Br   3 s( 15.91%)p 5.26( 83.68%)d 0.02(  0.38%)
                                                  f 0.00(  0.03%)
                                           -0.0000  0.0000  0.0004  0.3988 -0.0034
                                           -0.0034  0.0012 -0.0000  0.0002  0.2138
                                           -0.0045 -0.0013 -0.0005 -0.0000  0.0007
                                            0.8891 -0.0223 -0.0063 -0.0021  0.0000
                                            0.0000  0.0000  0.0000  0.0000  0.0000
                                            0.0000  0.0238 -0.0013  0.0001  0.0000
                                            0.0000  0.0000  0.0000  0.0000  0.0000
                                            0.0000  0.0000 -0.0000 -0.0476  0.0012
                                           -0.0005 -0.0000 -0.0315  0.0013 -0.0004
                                            0.0000  0.0000 -0.0024 -0.0004 -0.0097
                                           -0.0018  0.0000  0.0000  0.0000  0.0000
                                           -0.0084 -0.0012 -0.0094 -0.0021
                ( 26.47%)   0.5145* H   4 s( 99.77%)p 0.00(  0.20%)d 0.00(  0.03%)
                                            0.9986 -0.0214 -0.0079  0.0009 -0.0091
                                           -0.0004 -0.0058 -0.0349 -0.0214 -0.0128
                                            0.0000  0.0000  0.0000  0.0001  0.0075
                                            0.0000  0.0000  0.0000  0.0000  0.0002
                                           -0.0127  0.0005 -0.0101
     3. (1.99987) CR ( 1) O   1           s(100.00%)p 0.00(  0.00%)
                                            1.0000 -0.0002  0.0000 -0.0000  0.0000
                                           -0.0003  0.0000  0.0000  0.0000 -0.0003
                                            0.0000 -0.0000 -0.0000  0.0000  0.0000
                                            0.0000  0.0000 -0.0000 -0.0000  0.0000
                                            0.0000  0.0000  0.0000  0.0000  0.0000
                                            0.0000 -0.0000 -0.0000  0.0000  0.0000
                                            0.0000  0.0000  0.0000  0.0000  0.0000
                                           -0.0000  0.0000 -0.0000  0.0000  0.0000
                                            0.0000  0.0000 -0.0000  0.0000 -0.0000
                                            0.0000
     4. (2.00000) CR ( 1)Cl   2           s(100.00%)
                                            1.0000  0.0000  0.0000 -0.0000  0.0000
                                           -0.0000 -0.0000 -0.0000  0.0000  0.0000
                                           -0.0000  0.0000 -0.0000 -0.0000  0.0000
                                           -0.0000  0.0000  0.0000  0.0000  0.0000
                                            0.0000  0.0000 -0.0000 -0.0000  0.0000
                                            0.0000  0.0000  0.0000  0.0000  0.0000
                                            0.0000 -0.0000 -0.0000 -0.0000  0.0000
                                            0.0000  0.0000  0.0000  0.0000 -0.0000
                                            0.0000 -0.0000  0.0000  0.0000  0.0000
                                            0.0000 -0.0000  0.0000 -0.0000  0.0000
     5. (1.99975) CR ( 2)Cl   2           s(100.00%)p 0.00(  0.00%)
                                            0.0000  1.0000 -0.0005  0.0000 -0.0000
                                            0.0000  0.0000  0.0005 -0.0000 -0.0000
                                            0.0000 -0.0000  0.0000  0.0000 -0.0000
                                            0.0000  0.0000  0.0000  0.0000  0.0000
                                            0.0000 -0.0000  0.0000  0.0000  0.0000
                                            0.0000  0.0000  0.0000  0.0000  0.0000
                                           -0.0001  0.0000  0.0000  0.0000 -0.0000
                                           -0.0000  0.0000  0.0000 -0.0000  0.0000
                                           -0.0000  0.0000  0.0000  0.0000  0.0000
                                            0.0000  0.0000 -0.0000  0.0000 -0.0000
     6. (1.99996) CR ( 3)Cl   2           s(  0.00%)p 1.00(100.00%)
                                           -0.0000  0.0000  0.0001 -0.0000  0.0000
                                           -0.0000  1.0000 -0.0004  0.0000  0.0000
                                           -0.0000  0.0000 -0.0000 -0.0000  0.0000
                                           -0.0000  0.0000  0.0000  0.0000  0.0000
                                            0.0000  0.0000 -0.0000 -0.0000  0.0000
                                            0.0000  0.0000  0.0000  0.0000  0.0000
                                            0.0000 -0.0000 -0.0000 -0.0000  0.0000
                                            0.0000  0.0000  0.0000  0.0000 -0.0000
                                            0.0000 -0.0000  0.0000  0.0000  0.0000
                                            0.0000 -0.0000  0.0000 -0.0000  0.0000
     7. (2.00003) CR ( 4)Cl   2           s(  0.00%)p 1.00(100.00%)
                                            0.0000 -0.0000  0.0000  0.0000 -0.0000
                                           -0.0000  0.0000  0.0000 -0.0000 -0.0000
                                           -0.0000  1.0000  0.0001  0.0000  0.0000
                                            0.0000  0.0000  0.0000  0.0000  0.0000
                                            0.0000  0.0000  0.0000  0.0000  0.0000
                                            0.0000  0.0000  0.0000  0.0000  0.0000
                                           -0.0000 -0.0000 -0.0000  0.0000 -0.0000
                                            0.0000  0.0000  0.0000 -0.0000  0.0000
                                           -0.0000  0.0000  0.0000  0.0000  0.0000
                                            0.0000 -0.0000  0.0000  0.0000 -0.0000
     8. (2.00003) CR ( 5)Cl   2           s(  0.00%)p 1.00(100.00%)
                                            0.0000  0.0000  0.0000  0.0000  0.0000
                                            0.0000  0.0000  0.0000  0.0000  0.0000
                                            0.0000  0.0000  0.0000  0.0000  0.0000
                                            0.0000  1.0000  0.0001  0.0000  0.0000
                                           -0.0000  0.0000  0.0000  0.0000  0.0000
                                            0.0000  0.0000  0.0000  0.0000 -0.0000
                                            0.0000  0.0000  0.0000  0.0000  0.0000
                                            0.0000 -0.0000  0.0000  0.0000  0.0000
                                            0.0000  0.0000  0.0000 -0.0000  0.0000
                                           -0.0000  0.0000  0.0000  0.0000  0.0000
     9. (2.00000) CR ( 1)Br   3           s(100.00%)
                                            1.0000 -0.0000  0.0000  0.0000 -0.0000
                                           -0.0000 -0.0000 -0.0000  0.0000  0.0000
                                           -0.0000 -0.0000 -0.0000 -0.0000  0.0000
                                            0.0000 -0.0000 -0.0000 -0.0000  0.0000
                                            0.0000  0.0000  0.0000  0.0000  0.0000
                                           -0.0000  0.0000 -0.0000 -0.0000  0.0000
                                            0.0000  0.0000  0.0000  0.0000  0.0000
                                            0.0000  0.0000  0.0000 -0.0000 -0.0000
                                            0.0000  0.0000 -0.0000  0.0000  0.0000
                                            0.0000  0.0000 -0.0000 -0.0000 -0.0000
                                           -0.0000  0.0000  0.0000  0.0000  0.0000
                                           -0.0000 -0.0000 -0.0000 -0.0000
    10. (2.00000) CR ( 2)Br   3           s(100.00%)
                                           -0.0000  1.0000  0.0000  0.0000  0.0000
                                            0.0000 -0.0000  0.0000 -0.0000 -0.0000
                                            0.0000  0.0000  0.0000  0.0000 -0.0000
                                           -0.0000  0.0000  0.0000  0.0000  0.0000
                                            0.0000  0.0000  0.0000  0.0000  0.0000
                                           -0.0000 -0.0000  0.0000 -0.0000  0.0000
                                            0.0000  0.0000  0.0000  0.0000  0.0000
                                            0.0000  0.0000  0.0000  0.0000 -0.0000
                                            0.0000  0.0000  0.0000 -0.0000  0.0000
                                            0.0000  0.0000  0.0000  0.0000  0.0000
                                            0.0000  0.0000  0.0000  0.0000  0.0000
                                            0.0000  0.0000  0.0000  0.0000
    11. (1.99925) CR ( 3)Br   3           s(100.00%)p 0.00(  0.00%)
                                            0.0000  0.0000  1.0000 -0.0007  0.0000
                                            0.0000  0.0000  0.0000 -0.0000 -0.0000
                                            0.0000  0.0000  0.0000  0.0000 -0.0000
                                           -0.0002  0.0000  0.0000  0.0000  0.0000
                                            0.0000  0.0000  0.0000  0.0000  0.0000
                                            0.0000 -0.0000  0.0000  0.0000  0.0000
                                            0.0000  0.0000  0.0000  0.0000  0.0000
                                            0.0000  0.0000 -0.0000  0.0000  0.0000
                                           -0.0000 -0.0000  0.0000 -0.0000 -0.0000
                                            0.0000  0.0000  0.0000  0.0000  0.0000
                                            0.0000  0.0000  0.0000  0.0000  0.0000
                                            0.0000  0.0000  0.0000  0.0000
    12. (2.00000) CR ( 4)Br   3           s(  0.00%)p 1.00(100.00%)
                                           -0.0000  0.0000  0.0000  0.0000 -0.0000
                                           -0.0000  0.0000  1.0000  0.0000  0.0000
                                            0.0000  0.0000  0.0000 -0.0000  0.0000
                                            0.0000 -0.0000 -0.0000 -0.0000  0.0000
                                            0.0000  0.0000  0.0000  0.0000  0.0000
                                           -0.0000  0.0000  0.0000 -0.0000  0.0000
                                            0.0000  0.0000  0.0000  0.0000  0.0000
                                            0.0000  0.0000 -0.0000 -0.0000  0.0000
                                           -0.0000 -0.0000 -0.0000 -0.0000  0.0000
                                            0.0000  0.0000 -0.0000  0.0000 -0.0000
                                           -0.0000  0.0000  0.0000  0.0000  0.0000
                                           -0.0000  0.0000  0.0000 -0.0000
    13. (1.99992) CR ( 5)Br   3           s(  0.00%)p 1.00(100.00%)
                                            0.0000 -0.0000 -0.0000  0.0000  0.0000
                                            0.0000 -0.0000  0.0000  1.0000 -0.0005
                                           -0.0000 -0.0000 -0.0000  0.0000 -0.0000
                                           -0.0001  0.0000  0.0000  0.0000  0.0000
                                            0.0000  0.0000  0.0000  0.0000  0.0000
                                            0.0000 -0.0000 -0.0000  0.0000  0.0000
                                            0.0000  0.0000  0.0000  0.0000  0.0000
                                            0.0000  0.0000  0.0000  0.0000 -0.0000
                                            0.0000  0.0000  0.0000  0.0000 -0.0000
                                            0.0000  0.0000  0.0000 -0.0000  0.0000
                                            0.0000  0.0000  0.0000  0.0000  0.0000
                                            0.0000 -0.0000 -0.0000  0.0000
    14. (2.00000) CR ( 6)Br   3           s(  0.00%)p 1.00(100.00%)
                                           -0.0000  0.0000  0.0000  0.0000 -0.0000
                                           -0.0000  0.0000 -0.0000  0.0000  0.0000
                                           -0.0000 -0.0000 -0.0000  1.0000  0.0000
                                            0.0000 -0.0000 -0.0000 -0.0000  0.0000
                                            0.0000  0.0000  0.0000  0.0000  0.0000
                                            0.0000  0.0000 -0.0000  0.0000  0.0000
                                            0.0000  0.0000  0.0000  0.0000  0.0000
                                            0.0000  0.0000 -0.0000 -0.0000  0.0000
                                           -0.0000 -0.0000 -0.0000  0.0000 -0.0000
                                            0.0000  0.0000 -0.0000 -0.0000 -0.0000
                                           -0.0000  0.0000  0.0000  0.0000  0.0000
                                           -0.0000 -0.0000 -0.0000 -0.0000
    15. (1.99972) CR ( 7)Br   3           s(  0.00%)p 1.00(100.00%)
                                            0.0000 -0.0000 -0.0000  0.0001  0.0000
                                            0.0000 -0.0000  0.0000 -0.0000 -0.0001
                                            0.0000  0.0000  0.0000  0.0000  1.0000
                                           -0.0008  0.0000  0.0000  0.0000  0.0000
                                            0.0000  0.0000  0.0000  0.0000  0.0000
                                           -0.0000 -0.0000  0.0000 -0.0000  0.0000
                                            0.0000  0.0000  0.0000  0.0000  0.0000
                                            0.0000  0.0000  0.0000  0.0000 -0.0000
                                            0.0000  0.0000  0.0000 -0.0000  0.0000
                                            0.0000  0.0000  0.0000  0.0000  0.0000
                                            0.0000  0.0000  0.0000  0.0000  0.0000
                                            0.0000  0.0000  0.0000  0.0000
    16. (2.00000) CR ( 8)Br   3           s(  0.00%)p 1.00(100.00%)
                                            0.0000  0.0000  0.0000  0.0000  0.0000
                                            0.0000  0.0000  0.0000  0.0000  0.0000
                                            0.0000  0.0000  0.0000  0.0000  0.0000
                                            0.0000  0.0000  0.0000  0.0000  1.0000
                                            0.0000  0.0000  0.0000  0.0000  0.0000
                                            0.0000  0.0000  0.0000  0.0000 -0.0000
                                            0.0000  0.0000 -0.0000 -0.0000  0.0000
                                            0.0000 -0.0000  0.0000  0.0000  0.0000
                                            0.0000  0.0000  0.0000  0.0000  0.0000
                                           -0.0000  0.0000  0.0000  0.0000  0.0000
                                            0.0000 -0.0000  0.0000  0.0000 -0.0000
                                            0.0000  0.0000  0.0000  0.0000
    17. (1.99993) CR ( 9)Br   3           s(  0.00%)p 1.00(100.00%)
                                            0.0000  0.0000  0.0000  0.0000  0.0000
                                            0.0000  0.0000  0.0000  0.0000  0.0000
                                            0.0000  0.0000  0.0000  0.0000  0.0000
                                            0.0000  0.0000  0.0000  0.0000  0.0000
                                            1.0000 -0.0005 -0.0000 -0.0000 -0.0000
                                            0.0000  0.0000  0.0000  0.0000  0.0000
                                           -0.0000 -0.0000  0.0000  0.0000 -0.0000
                                           -0.0000  0.0000  0.0000  0.0000  0.0000
                                            0.0000  0.0000  0.0000  0.0000  0.0000
                                            0.0000 -0.0000  0.0000  0.0000  0.0000
                                            0.0000  0.0000 -0.0000 -0.0000  0.0000
                                            0.0000  0.0000  0.0000  0.0000
    18. (1.99760) CR (10)Br   3           s(  0.00%)p 0.00(  0.00%)d 1.00(100.00%)
                                           -0.0000 -0.0000  0.0000  0.0000  0.0000
                                            0.0000 -0.0000 -0.0000  0.0000  0.0000
                                            0.0000  0.0000  0.0000  0.0000 -0.0000
                                           -0.0000  0.0000  0.0000  0.0000  0.0000
                                            0.0000  0.0000  0.0000  0.0000  0.0000
                                            1.0000  0.0000  0.0000 -0.0000  0.0000
                                            0.0000  0.0000  0.0000  0.0000  0.0000
                                            0.0000  0.0000  0.0000  0.0000 -0.0000
                                           -0.0000  0.0000  0.0000 -0.0000  0.0000
                                            0.0000  0.0000 -0.0000  0.0000  0.0000
                                            0.0000  0.0000  0.0000  0.0000  0.0000
                                           -0.0000  0.0000  0.0000 -0.0000
    19. (1.99769) CR (11)Br   3           s(  0.00%)p 0.00(  0.00%)d 1.00(100.00%)
                                            0.0000  0.0000  0.0000  0.0000  0.0000
                                            0.0000  0.0000  0.0000  0.0000  0.0000
                                            0.0000  0.0000  0.0000  0.0000  0.0000
                                            0.0000  0.0000  0.0000  0.0000 -0.0000
                                            0.0000  0.0000  0.0000  0.0000  0.0000
                                            0.0000  0.0000  0.0000  0.0000  1.0000
                                            0.0000  0.0000 -0.0000 -0.0000  0.0000
                                            0.0000 -0.0000  0.0000  0.0000  0.0000
                                            0.0000  0.0000  0.0000  0.0000  0.0000
                                           -0.0000  0.0000  0.0000  0.0000  0.0000
                                            0.0000 -0.0000  0.0000  0.0000 -0.0000
                                            0.0000  0.0000  0.0000  0.0000
    20. (1.99765) CR (12)Br   3           s(  0.00%)p 0.00(  0.00%)d 1.00(100.00%)
                                            0.0000  0.0000  0.0000  0.0000  0.0000
                                            0.0000  0.0000  0.0000  0.0000  0.0000
                                            0.0000  0.0000  0.0000  0.0000  0.0000
                                            0.0000  0.0000  0.0000  0.0000 -0.0000
                                            0.0000  0.0000  0.0000  0.0000  0.0000
                                            0.0000  0.0000  0.0000  0.0000 -0.0000
                                            0.0000  0.0000 -0.0000  1.0000  0.0000
                                            0.0000 -0.0000  0.0000  0.0000  0.0000
                                            0.0000  0.0000  0.0000  0.0000  0.0000
                                           -0.0000  0.0000  0.0000  0.0000  0.0000
                                            0.0000 -0.0000  0.0000  0.0000 -0.0000
                                            0.0000  0.0000  0.0000  0.0000
    21. (1.99748) CR (13)Br   3           s(  0.00%)p 0.00(  0.00%)d 1.00(100.00%)
                                            0.0000  0.0000 -0.0000 -0.0001 -0.0000
                                           -0.0000  0.0000 -0.0000  0.0000  0.0000
                                            0.0000  0.0000 -0.0000 -0.0000  0.0000
                                            0.0000 -0.0000 -0.0000 -0.0000  0.0000
                                            0.0000  0.0000  0.0000  0.0000  0.0000
                                            0.0000  0.0000 -0.0000 -0.0000  0.0000
                                            0.0000  0.0000  0.0000  0.0000  0.0000
                                            0.0000  0.0000  1.0000 -0.0000  0.0000
                                           -0.0000 -0.0000 -0.0000  0.0000 -0.0000
                                            0.0000  0.0000 -0.0000  0.0000 -0.0000
                                           -0.0000  0.0000  0.0000  0.0000  0.0000
                                           -0.0000 -0.0000 -0.0000 -0.0000
    22. (1.99761) CR (14)Br   3           s(  0.00%)p 0.00(  0.00%)d 1.00(100.00%)
                                            0.0000  0.0000 -0.0000 -0.0001 -0.0000
                                           -0.0000  0.0000 -0.0000  0.0000  0.0000
                                           -0.0000 -0.0000 -0.0000 -0.0000  0.0000
                                            0.0000 -0.0000 -0.0000 -0.0000  0.0000
                                            0.0000  0.0000  0.0000  0.0000  0.0000
                                            0.0000  0.0000 -0.0000  0.0000  0.0000
                                            0.0000  0.0000  0.0000  0.0000  0.0000
                                            0.0000  0.0000 -0.0000 -0.0000  0.0000
                                           -0.0000  1.0000 -0.0000  0.0000 -0.0000
                                            0.0000  0.0000 -0.0000 -0.0000 -0.0000
                                           -0.0000  0.0000  0.0000  0.0000  0.0000
                                           -0.0000 -0.0000 -0.0000 -0.0000
    23. (1.96747) LP ( 1) O   1           s( 75.85%)p 0.32( 24.11%)d 0.00(  0.03%)
                                                  f 0.00(  0.00%)
                                            0.0002  0.8708  0.0120 -0.0083 -0.0007
                                           -0.2628  0.0045 -0.0035  0.0015  0.4147
                                            0.0061  0.0030  0.0014  0.0000  0.0000
                                            0.0000  0.0000  0.0174  0.0029 -0.0017
                                            0.0000  0.0000  0.0000  0.0000  0.0000
                                            0.0000  0.0027 -0.0006 -0.0029  0.0022
                                           -0.0010  0.0005  0.0000  0.0000 -0.0005
                                            0.0006 -0.0005 -0.0004  0.0000  0.0000
                                            0.0000  0.0000  0.0033 -0.0021  0.0049
                                           -0.0011
    24. (1.94548) LP ( 2) O   1           s(  0.00%)p 1.00( 99.86%)d 0.00(  0.12%)
                                                  f 0.00(  0.01%)
                                            0.0000  0.0000  0.0000  0.0000  0.0000
                                            0.0000  0.0000  0.0000  0.0000  0.0000
                                            0.0000  0.0000  0.0000  0.9990  0.0179
                                            0.0060  0.0155  0.0000  0.0000  0.0000
                                            0.0317  0.0034 -0.0041 -0.0105  0.0037
                                            0.0079  0.0000  0.0000  0.0000  0.0000
                                            0.0000  0.0000 -0.0077 -0.0002  0.0000
                                            0.0000  0.0000  0.0000  0.0087 -0.0026
                                           -0.0003  0.0011  0.0000  0.0000  0.0000
                                            0.0000
    25. (1.76569) LP ( 3) O   1           s( 16.12%)p 5.20( 83.75%)d 0.01(  0.13%)
                                                  f 0.00(  0.01%)
                                           -0.0002  0.4012 -0.0001  0.0137  0.0029
                                           -0.1071  0.0047  0.0021  0.0083 -0.9087
                                           -0.0137 -0.0007  0.0062 -0.0000 -0.0000
                                           -0.0000 -0.0000 -0.0240 -0.0051  0.0008
                                           -0.0000 -0.0000 -0.0000 -0.0000 -0.0000
                                           -0.0000 -0.0224 -0.0021  0.0009 -0.0126
                                            0.0008  0.0030 -0.0000 -0.0000 -0.0001
                                            0.0006  0.0042 -0.0005 -0.0000 -0.0000
                                           -0.0000 -0.0000 -0.0002  0.0006 -0.0078
                                            0.0007
    26. (1.97449) LP ( 1)Cl   2           s( 90.38%)p 0.11(  9.59%)d 0.00(  0.03%)
                                                  f 0.00(  0.00%)
                                            0.0000  0.0003  0.9506  0.0094 -0.0016
                                            0.0002  0.0001  0.3095 -0.0064 -0.0033
                                            0.0013  0.0000 -0.0101  0.0011  0.0003
                                           -0.0009  0.0000  0.0000  0.0000  0.0000
                                            0.0000 -0.0002  0.0001 -0.0001  0.0000
                                            0.0000  0.0000  0.0000  0.0000  0.0000
                                           -0.0149 -0.0003  0.0005  0.0088  0.0004
                                           -0.0001  0.0000  0.0000 -0.0025 -0.0003
                                            0.0001 -0.0000  0.0000  0.0000  0.0000
                                            0.0000  0.0036 -0.0000 -0.0000 -0.0000
    27. (1.95424) LP ( 2)Cl   2           s(  0.00%)p 1.00( 99.92%)d 0.00(  0.07%)
                                                  f 0.00(  0.01%)
                                            0.0000  0.0000  0.0000  0.0000  0.0000
                                            0.0000  0.0000  0.0000  0.0000  0.0000
                                            0.0000  0.0000  0.0000  0.0000  0.0000
                                            0.0000 -0.0001  0.9995  0.0158  0.0049
                                           -0.0020  0.0000  0.0000  0.0000  0.0150
                                            0.0213  0.0070  0.0010  0.0007 -0.0001
                                            0.0000  0.0000  0.0000  0.0000  0.0000
                                            0.0000 -0.0054  0.0018  0.0000  0.0000
                                            0.0000  0.0000  0.0062 -0.0016  0.0005
                                           -0.0004  0.0000  0.0000  0.0000  0.0000
    28. (1.95265) LP ( 3)Cl   2           s(  0.02%)p99.99( 99.92%)d 3.63(  0.06%)
                                                  f 0.50(  0.01%)
                                            0.0000 -0.0000  0.0113  0.0022 -0.0036
                                           -0.0030  0.0000 -0.0024  0.0014  0.0002
                                           -0.0005 -0.0001  0.9995  0.0154  0.0014
                                            0.0010  0.0000  0.0000  0.0000  0.0000
                                            0.0000  0.0097  0.0200  0.0071  0.0000
                                            0.0000  0.0000  0.0000  0.0000  0.0000
                                           -0.0026 -0.0026 -0.0017  0.0007 -0.0007
                                            0.0003  0.0000  0.0000  0.0001  0.0001
                                           -0.0024  0.0007  0.0000  0.0000  0.0000
                                            0.0000 -0.0009  0.0003  0.0081 -0.0022
    29. (1.97403) LP ( 1)Br   3           s( 84.06%)p 0.19( 15.93%)d 0.00(  0.01%)
                                                  f 0.00(  0.00%)
                                           -0.0000 -0.0000  0.0005  0.9169  0.0019
                                            0.0019 -0.0010  0.0000 -0.0001 -0.0996
                                            0.0006  0.0002  0.0001  0.0000 -0.0004
                                           -0.3864  0.0054  0.0019  0.0011  0.0000
                                            0.0000  0.0000  0.0000  0.0000  0.0000
                                           -0.0000 -0.0037  0.0006 -0.0006  0.0000
                                            0.0000  0.0000  0.0000  0.0000  0.0000
                                            0.0000  0.0000  0.0001  0.0072 -0.0012
                                            0.0011  0.0001  0.0050 -0.0010  0.0011
                                            0.0000  0.0000  0.0004  0.0000  0.0014
                                            0.0003  0.0000  0.0000  0.0000  0.0000
                                            0.0012  0.0003  0.0014  0.0003
    30. (1.95560) LP ( 2)Br   3           s(  0.00%)p 1.00( 99.98%)d 0.00(  0.02%)
                                                  f 0.00(  0.01%)
                                            0.0000  0.0000  0.0000  0.0000  0.0000
                                            0.0000  0.0000  0.0000  0.0000  0.0000
                                            0.0000  0.0000  0.0000  0.0000  0.0000
                                            0.0000  0.0000  0.0000  0.0000 -0.0000
                                            0.0005  0.9998  0.0079  0.0020  0.0004
                                            0.0000  0.0000  0.0000  0.0000 -0.0000
                                            0.0018  0.0008 -0.0023 -0.0000  0.0117
                                            0.0006 -0.0065  0.0000  0.0000  0.0000
                                            0.0000  0.0000  0.0000  0.0000  0.0000
                                           -0.0046  0.0013  0.0000  0.0000  0.0000
                                            0.0000 -0.0053  0.0014  0.0026 -0.0007
                                            0.0000  0.0000  0.0000  0.0000
    31. (1.95533) LP ( 3)Br   3           s(  0.00%)p 1.00( 99.97%)d 0.00(  0.02%)
                                                  f 0.00(  0.01%)
                                            0.0000 -0.0000  0.0000  0.0059 -0.0027
                                           -0.0015  0.0002 -0.0000  0.0005  0.9715
                                            0.0074  0.0019  0.0006  0.0000 -0.0001
                                           -0.2364 -0.0025 -0.0005  0.0000  0.0000
                                            0.0000  0.0000  0.0000  0.0000  0.0000
                                           -0.0000  0.0116  0.0008 -0.0058  0.0000
                                            0.0000  0.0000  0.0000  0.0000  0.0000
                                            0.0000  0.0000 -0.0000  0.0042  0.0009
                                           -0.0041  0.0000  0.0008 -0.0007  0.0006
                                            0.0000  0.0000 -0.0017  0.0005  0.0006
                                           -0.0002  0.0000  0.0000  0.0000  0.0000
                                           -0.0054  0.0015  0.0045 -0.0011
    32. (0.02378) RY*( 1) O   1           s(  0.00%)p 1.00( 99.54%)d 0.00(  0.42%)
                                                  f 0.00(  0.04%)
                                            0.0000  0.0000  0.0000  0.0000  0.0000
                                            0.0000  0.0000  0.0000  0.0000  0.0000
                                            0.0000  0.0000  0.0000 -0.0199  0.9970
                                           -0.0286 -0.0087  0.0000  0.0000  0.0000
                                            0.0533  0.0230  0.0015 -0.0278 -0.0004
                                            0.0090  0.0000  0.0000  0.0000  0.0000
                                            0.0000  0.0000 -0.0099  0.0075  0.0000
                                            0.0000  0.0000  0.0000  0.0111 -0.0101
                                           -0.0008  0.0009  0.0000  0.0000  0.0000
                                            0.0000
    33. (0.01941) RY*( 2) O   1           s( 20.40%)p 3.83( 78.12%)d 0.07(  1.37%)
                                                  f 0.01(  0.11%)
                                           -0.0000  0.0064  0.4512 -0.0056 -0.0187
                                            0.0359 -0.2489 -0.0134  0.0212 -0.0182
                                            0.8442 -0.0327 -0.0573  0.0000  0.0000
                                            0.0000  0.0000  0.1046  0.0387  0.0134
                                            0.0000  0.0000  0.0000  0.0000  0.0000
                                            0.0000 -0.0301 -0.0005  0.0053 -0.0035
                                           -0.0076 -0.0077  0.0000  0.0000 -0.0029
                                            0.0003  0.0034  0.0021  0.0000  0.0000
                                            0.0000  0.0000  0.0178 -0.0064  0.0248
                                           -0.0121
    34. (0.00959) RY*( 3) O   1           s( 46.41%)p 0.81( 37.43%)d 0.34( 15.83%)
                                                  f 0.01(  0.34%)
                                           -0.0000  0.0021  0.6630  0.1563 -0.0027
                                            0.0118 -0.4114  0.0176  0.1106  0.0103
                                           -0.4326  0.0166 -0.0695  0.0000  0.0000
                                            0.0000  0.0000 -0.3347 -0.0187 -0.0032
                                            0.0000  0.0000  0.0000  0.0000  0.0000
                                            0.0000  0.1490 -0.0114  0.0059  0.1527
                                           -0.0090 -0.0106  0.0000  0.0000 -0.0110
                                            0.0034  0.0121 -0.0139  0.0000  0.0000
                                            0.0000  0.0000  0.0235 -0.0145 -0.0448
                                            0.0121
    35. (0.00680) RY*( 4) O   1           s(  0.00%)p 1.00(  0.38%)d99.99( 97.77%)
                                                  f 4.87(  1.85%)
[...]
                                            0.0000  0.0000  0.0000 -0.1473 -0.2074
                                            0.0000  0.0000  0.0000  0.0000 -0.3355
                                           -0.0752  0.3816 -0.1845
   162. (0.00032) RY*( 8) H   4           s(  0.00%)p 1.00(  1.65%)d59.56( 98.35%)
                                            0.0000  0.0000  0.0000  0.0000  0.0000
                                            0.0000  0.0000  0.0000  0.0000  0.0000
                                            0.0137 -0.1273 -0.0108  0.0000  0.0000
                                            0.9059 -0.3640 -0.1205  0.1255  0.0000
                                            0.0000  0.0000  0.0000
   163. (0.00032) RY*( 9) H   4           s(  1.07%)p25.00( 26.86%)d67.08( 72.07%)
                                           -0.0025  0.0080 -0.0502  0.0903  0.0603
                                           -0.4903 -0.0242 -0.0255  0.0737 -0.1337
                                           -0.0000 -0.0000 -0.0000  0.3595  0.0847
                                           -0.0000 -0.0000 -0.0000 -0.0000 -0.4695
                                            0.1774  0.5050 -0.2782
   164. (0.00029) RY*(10) H   4           s(  8.66%)p 2.46( 21.33%)d 8.09( 70.01%)
                                           -0.0129  0.0498  0.1694  0.2351 -0.0249
                                           -0.0326 -0.1000 -0.0277 -0.2959 -0.3366
                                           -0.0000 -0.0000 -0.0000  0.3304  0.1308
                                           -0.0000 -0.0000 -0.0000 -0.0000 -0.3646
                                           -0.1650 -0.6432  0.0034
   165. (0.00023) RY*(11) H   4           s( 57.59%)p 0.59( 33.95%)d 0.15(  8.47%)
                                           -0.0069  0.0525  0.5884 -0.4763 -0.0407
                                           -0.3076 -0.1926 -0.0154 -0.4251  0.1586
                                           -0.0000 -0.0000 -0.0000 -0.0723  0.1557
                                           -0.0000 -0.0000 -0.0000 -0.0000  0.1485
                                           -0.1152  0.0848 -0.1127
   166. (0.00020) RY*(12) H   4           s(  0.38%)p33.94( 12.80%)d99.99( 86.82%)
                                            0.0001  0.0130  0.0579 -0.0157  0.1075
                                            0.2897  0.1250 -0.0067 -0.1291 -0.0133
                                            0.0000  0.0000  0.0000  0.7770  0.0319
                                            0.0000  0.0000  0.0000  0.0000  0.4817
                                            0.1003  0.1457 -0.0113
   167. (0.00019) RY*(13) H   4           s(  0.00%)p 1.00( 13.87%)d 6.21( 86.13%)
                                            0.0000  0.0000  0.0000  0.0000  0.0000
                                            0.0000  0.0000  0.0000  0.0000  0.0000
                                            0.0821  0.3539  0.0822  0.0000  0.0000
                                            0.1750  0.0381  0.9075  0.0757  0.0000
                                            0.0000  0.0000  0.0000
   168. (0.00017) RY*(14) H   4           s( 71.33%)p 0.04(  3.15%)d 0.36( 25.52%)
                                            0.0065  0.0110  0.5165  0.6681 -0.0293
                                           -0.0779 -0.1044 -0.0372 -0.0314 -0.1061
                                            0.0000  0.0000  0.0000 -0.1646 -0.1658
                                            0.0000  0.0000  0.0000  0.0000  0.1964
                                            0.2979  0.1689  0.2117
   169. (0.00012) RY*(15) H   4           s(  0.00%)p 1.00( 71.16%)d 0.41( 28.84%)
                                            0.0000  0.0000  0.0000  0.0000  0.0000
                                            0.0000  0.0000  0.0000  0.0000  0.0000
                                            0.0025  0.2204  0.8143  0.0000  0.0000
                                            0.0549 -0.0994 -0.1238 -0.5101  0.0000
                                            0.0000  0.0000  0.0000
   170. (0.00009) RY*(16) H   4           s( 21.54%)p 3.58( 77.03%)d 0.07(  1.43%)
   171. (0.00007) RY*(17) H   4           s(  0.58%)p12.03(  6.94%)d99.99( 92.48%)
   172. (0.00005) RY*(18) H   4           s(  0.29%)p99.99( 84.26%)d52.98( 15.45%)
   173. (0.00006) RY*(19) H   4           s(  0.00%)p 1.00( 24.77%)d 3.04( 75.23%)
   174. (0.00004) RY*(20) H   4           s( 11.37%)p 1.20( 13.67%)d 6.59( 74.96%)
   175. (0.00003) RY*(21) H   4           s(  0.00%)p 1.00(  0.82%)d99.99( 99.18%)
   176. (0.00003) RY*(22) H   4           s(  4.27%)p 0.07(  0.29%)d22.37( 95.44%)
   177. (0.05434) BD*( 1) O   1 -Cl   2  
                ( 44.19%)   0.6648* O   1 s(  8.51%)p10.69( 91.01%)d 0.05(  0.46%)
                                                  f 0.00(  0.02%)
                                           -0.0003 -0.2830  0.0692 -0.0147  0.0024
                                           -0.9520  0.0516  0.0153  0.0184 -0.0121
                                            0.0176  0.0019 -0.0032 -0.0000 -0.0000
                                           -0.0000 -0.0000  0.0078  0.0012 -0.0004
                                           -0.0000 -0.0000 -0.0000 -0.0000 -0.0000
                                           -0.0000 -0.0553 -0.0030 -0.0004  0.0386
                                            0.0028 -0.0006 -0.0000 -0.0000  0.0103
                                           -0.0008  0.0001 -0.0000 -0.0000 -0.0000
                                           -0.0000 -0.0000 -0.0097 -0.0002  0.0001
                                           -0.0007
                ( 55.81%)  -0.7470*Cl   2 s( 10.02%)p 8.87( 88.85%)d 0.10(  1.02%)
                                                  f 0.01(  0.12%)
                                            0.0000 -0.0007 -0.3091  0.0673 -0.0116
                                            0.0015  0.0004  0.9400 -0.0676 -0.0123
                                            0.0012 -0.0000  0.0054  0.0042 -0.0024
                                            0.0017 -0.0000 -0.0000 -0.0000 -0.0000
                                           -0.0000 -0.0060  0.0013  0.0008 -0.0000
                                           -0.0000 -0.0000 -0.0000 -0.0000 -0.0000
                                           -0.0839  0.0145  0.0023  0.0527 -0.0094
                                           -0.0024 -0.0000 -0.0000 -0.0214  0.0025
                                           -0.0002  0.0000 -0.0000 -0.0000 -0.0000
                                           -0.0000  0.0266 -0.0029  0.0007 -0.0006
   178. (0.21663) BD*( 1)Br   3 - H   4  
                ( 26.47%)   0.5145*Br   3 s( 15.91%)p 5.26( 83.68%)d 0.02(  0.38%)
                                                  f 0.00(  0.03%)
                                            0.0000 -0.0000 -0.0004 -0.3988  0.0034
                                            0.0034 -0.0012  0.0000 -0.0002 -0.2138
                                            0.0045  0.0013  0.0005  0.0000 -0.0007
                                           -0.8891  0.0223  0.0063  0.0021 -0.0000
                                           -0.0000 -0.0000 -0.0000 -0.0000 -0.0000
                                           -0.0000 -0.0238  0.0013 -0.0001 -0.0000
                                           -0.0000 -0.0000 -0.0000 -0.0000 -0.0000
                                           -0.0000 -0.0000  0.0000  0.0476 -0.0012
                                            0.0005  0.0000  0.0315 -0.0013  0.0004
                                           -0.0000 -0.0000  0.0024  0.0004  0.0097
                                            0.0018 -0.0000 -0.0000 -0.0000 -0.0000
                                            0.0084  0.0012  0.0094  0.0021
                ( 73.53%)  -0.8575* H   4 s( 99.77%)p 0.00(  0.20%)d 0.00(  0.03%)
                                           -0.9986  0.0214  0.0079 -0.0009  0.0091
                                            0.0004  0.0058  0.0349  0.0214  0.0128
                                           -0.0000 -0.0000 -0.0000 -0.0001 -0.0075
                                           -0.0000 -0.0000 -0.0000 -0.0000 -0.0002
                                            0.0127 -0.0005  0.0101


 NHO Directionality and "Bond Bending" (deviations from line of nuclear centers)

         [Thresholds for printing:  angular deviation  >  1.0 degree]
                                    hybrid p-character > 25.0%
                                    orbital occupancy  >  0.10e

                                Line of Centers        Hybrid 1              Hybrid 2
                                ---------------  -------------------   ------------------
                NBO               Theta   Phi    Theta   Phi    Dev    Theta   Phi    Dev
 ========================================================================================
    24. LP (   2) O   1             --     --      0.0    0.0   --       --     --    --
    25. LP (   3) O   1             --     --     90.0  264.3   --       --     --    --
    27. LP (   2)Cl   2             --     --      0.0    0.0   --       --     --    --
    28. LP (   3)Cl   2             --     --     90.0   90.1   --       --     --    --
    30. LP (   2)Br   3             --     --      0.0    0.0   --       --     --    --
    31. LP (   3)Br   3             --     --     90.0  346.3   --       --     --    --


 Natural Bond Orbitals (Summary):

           NBO                  Occupancy  
 -----------------------------------------------
 Molecular unit  1  (OCl)
     1. BD (   1) O   1 -Cl   2          1.93555
     3. CR (   1) O   1                  1.99987
     4. CR (   1)Cl   2                  2.00000
     5. CR (   2)Cl   2                  1.99975
     6. CR (   3)Cl   2                  1.99996
     7. CR (   4)Cl   2                  2.00003
     8. CR (   5)Cl   2                  2.00003
    23. LP (   1) O   1                  1.96747
    24. LP (   2) O   1                  1.94548
    25. LP (   3) O   1                  1.76569
    26. LP (   1)Cl   2                  1.97449
    27. LP (   2)Cl   2                  1.95424
    28. LP (   3)Cl   2                  1.95265
    32. RY*(   1) O   1                  0.02378
    33. RY*(   2) O   1                  0.01941
    34. RY*(   3) O   1                  0.00959
    35. RY*(   4) O   1                  0.00680
    36. RY*(   5) O   1                  0.00675
    37. RY*(   6) O   1                  0.00634
    38. RY*(   7) O   1                  0.00582
    39. RY*(   8) O   1                  0.00529
    40. RY*(   9) O   1                  0.00212
    41. RY*(  10) O   1                  0.00073
    42. RY*(  11) O   1                  0.00070
    43. RY*(  12) O   1                  0.00065
    44. RY*(  13) O   1                  0.00061
    45. RY*(  14) O   1                  0.00057
    46. RY*(  15) O   1                  0.00054
    47. RY*(  16) O   1                  0.00052
    48. RY*(  17) O   1                  0.00048
    49. RY*(  18) O   1                  0.00049
    50. RY*(  19) O   1                  0.00049
    51. RY*(  20) O   1                  0.00049
    52. RY*(  21) O   1                  0.00047
    53. RY*(  22) O   1                  0.00047
    54. RY*(  23) O   1                  0.00043
    55. RY*(  24) O   1                  0.00031
    56. RY*(  25) O   1                  0.00026
    57. RY*(  26) O   1                  0.00013
    58. RY*(  27) O   1                  0.00014
    59. RY*(  28) O   1                  0.00012
    60. RY*(  29) O   1                  0.00009
    61. RY*(  30) O   1                  0.00010
    62. RY*(  31) O   1                  0.00009
    63. RY*(  32) O   1                  0.00009
    64. RY*(  33) O   1                  0.00009
    65. RY*(  34) O   1                  0.00009
    66. RY*(  35) O   1                  0.00009
    67. RY*(  36) O   1                  0.00008
    68. RY*(  37) O   1                  0.00008
    69. RY*(  38) O   1                  0.00006
    70. RY*(  39) O   1                  0.00003
    71. RY*(  40) O   1                 -0.00007
    72. RY*(  41) O   1                 -0.00033
    73. RY*(   1)Cl   2                  0.02685
    74. RY*(   2)Cl   2                  0.02434
    75. RY*(   3)Cl   2                  0.01716
    76. RY*(   4)Cl   2                  0.01717
    77. RY*(   5)Cl   2                  0.01344
    78. RY*(   6)Cl   2                  0.01037
    79. RY*(   7)Cl   2                  0.01012
    80. RY*(   8)Cl   2                  0.00722
    81. RY*(   9)Cl   2                  0.00203
    82. RY*(  10)Cl   2                  0.00128
    83. RY*(  11)Cl   2                  0.00128
    84. RY*(  12)Cl   2                  0.00124
    85. RY*(  13)Cl   2                  0.00124
    86. RY*(  14)Cl   2                  0.00120
    87. RY*(  15)Cl   2                  0.00118
    88. RY*(  16)Cl   2                  0.00102
    89. RY*(  17)Cl   2                  0.00084
    90. RY*(  18)Cl   2                  0.00081
    91. RY*(  19)Cl   2                  0.00078
    92. RY*(  20)Cl   2                  0.00077
    93. RY*(  21)Cl   2                  0.00050
    94. RY*(  22)Cl   2                  0.00038
    95. RY*(  23)Cl   2                  0.00038
    96. RY*(  24)Cl   2                  0.00035
    97. RY*(  25)Cl   2                  0.00020
    98. RY*(  26)Cl   2                  0.00018
    99. RY*(  27)Cl   2                  0.00016
   100. RY*(  28)Cl   2                  0.00013
   101. RY*(  29)Cl   2                  0.00014
   102. RY*(  30)Cl   2                  0.00013
   103. RY*(  31)Cl   2                  0.00013
   104. RY*(  32)Cl   2                  0.00013
   105. RY*(  33)Cl   2                  0.00011
   106. RY*(  34)Cl   2                  0.00011
   107. RY*(  35)Cl   2                  0.00011
   108. RY*(  36)Cl   2                  0.00009
   109. RY*(  37)Cl   2                  0.00009
   110. RY*(  38)Cl   2                  0.00005
   111. RY*(  39)Cl   2                  0.00004
   112. RY*(  40)Cl   2                  0.00003
   113. RY*(  41)Cl   2                  0.00002
   177. BD*(   1) O   1 -Cl   2          0.05434
       -------------------------------
              Total Lewis   25.49518  ( 98.8633%)
        Valence non-Lewis    0.05434  (  0.2107%)
        Rydberg non-Lewis    0.23879  (  0.9260%)
       -------------------------------
            Total unit  1   25.78831  (100.0000%)
           Charge unit  1   -0.78831

 Molecular unit  2  (HBr)
     2. BD (   1)Br   3 - H   4          1.95734
     9. CR (   1)Br   3                  2.00000
    10. CR (   2)Br   3                  2.00000
    11. CR (   3)Br   3                  1.99925
    12. CR (   4)Br   3                  2.00000
    13. CR (   5)Br   3                  1.99992
    14. CR (   6)Br   3                  2.00000
    15. CR (   7)Br   3                  1.99972
    16. CR (   8)Br   3                  2.00000
    17. CR (   9)Br   3                  1.99993
    18. CR (  10)Br   3                  1.99760
    19. CR (  11)Br   3                  1.99769
    20. CR (  12)Br   3                  1.99765
    21. CR (  13)Br   3                  1.99748
    22. CR (  14)Br   3                  1.99761
    29. LP (   1)Br   3                  1.97403
    30. LP (   2)Br   3                  1.95560
    31. LP (   3)Br   3                  1.95533
   114. RY*(   1)Br   3                  0.01786
   115. RY*(   2)Br   3                  0.01787
   116. RY*(   3)Br   3                  0.01720
   117. RY*(   4)Br   3                  0.01704
   118. RY*(   5)Br   3                  0.01569
   119. RY*(   6)Br   3                  0.00926
   120. RY*(   7)Br   3                  0.00924
   121. RY*(   8)Br   3                  0.00804
   122. RY*(   9)Br   3                  0.00293
   123. RY*(  10)Br   3                  0.00171
   124. RY*(  11)Br   3                  0.00171
   125. RY*(  12)Br   3                  0.00165
   126. RY*(  13)Br   3                  0.00165
   127. RY*(  14)Br   3                  0.00162
   128. RY*(  15)Br   3                  0.00162
   129. RY*(  16)Br   3                  0.00162
   130. RY*(  17)Br   3                  0.00162
   131. RY*(  18)Br   3                  0.00150
   132. RY*(  19)Br   3                  0.00123
   133. RY*(  20)Br   3                  0.00114
   134. RY*(  21)Br   3                  0.00108
   135. RY*(  22)Br   3                  0.00071
   136. RY*(  23)Br   3                  0.00071
   137. RY*(  24)Br   3                  0.00066
   138. RY*(  25)Br   3                  0.00053
   139. RY*(  26)Br   3                  0.00033
   140. RY*(  27)Br   3                  0.00029
   141. RY*(  28)Br   3                  0.00021
   142. RY*(  29)Br   3                  0.00022
   143. RY*(  30)Br   3                  0.00022
   144. RY*(  31)Br   3                  0.00021
   145. RY*(  32)Br   3                  0.00021
   146. RY*(  33)Br   3                  0.00019
   147. RY*(  34)Br   3                  0.00018
   148. RY*(  35)Br   3                  0.00015
   149. RY*(  36)Br   3                  0.00011
   150. RY*(  37)Br   3                  0.00011
   151. RY*(  38)Br   3                  0.00011
   152. RY*(  39)Br   3                  0.00009
   153. RY*(  40)Br   3                  0.00007
   154. RY*(  41)Br   3                  0.00004
   155. RY*(   1) H   4                  0.00871
   156. RY*(   2) H   4                  0.00654
   157. RY*(   3) H   4                  0.00500
   158. RY*(   4) H   4                  0.00280
   159. RY*(   5) H   4                  0.00094
   160. RY*(   6) H   4                  0.00073
   161. RY*(   7) H   4                  0.00034
   162. RY*(   8) H   4                  0.00032
   163. RY*(   9) H   4                  0.00032
   164. RY*(  10) H   4                  0.00029
   165. RY*(  11) H   4                  0.00023
   166. RY*(  12) H   4                  0.00020
   167. RY*(  13) H   4                  0.00019
   168. RY*(  14) H   4                  0.00017
   169. RY*(  15) H   4                  0.00012
   170. RY*(  16) H   4                  0.00009
   171. RY*(  17) H   4                  0.00007
   172. RY*(  18) H   4                  0.00005
   173. RY*(  19) H   4                  0.00006
   174. RY*(  20) H   4                  0.00004
   175. RY*(  21) H   4                  0.00003
   176. RY*(  22) H   4                  0.00003
   178. BD*(   1)Br   3 - H   4          0.21663
       -------------------------------
              Total Lewis   35.82914  ( 98.9436%)
        Valence non-Lewis    0.21663  (  0.5982%)
        Rydberg non-Lewis    0.16591  (  0.4582%)
       -------------------------------
            Total unit  2   36.21169  (100.0000%)
           Charge unit  2   -0.21169
 Leave Link  607 at Tue Oct 12 14:27:08 2021, MaxMem=  1048576000 cpu:        10.3
 (Enter /usr/local/gaussian/g09/l9999.exe)
 1\1\GINC-KRYPTON\SP\RMP2-FC\Aug-CC-pVTZ\Br1Cl1H1O1(1-)\CGAVINH\12-Oct-
 2021\0\\#p pop=NBO SP NoSymm mp2/aug-cc-pvtz density=current\\title\\-
 1,1\O\X,1,10.\Cl,1,1.68432554,2,90.\Br,1,3.07381752,2,90.,3,103.420351
 85,0\H,1,1.5,2,90.,3,103.42035185,0\\Version=ES64L-G09RevE.01\HF=-3107
 .431766\MP2=-3108.1509583\RMSD=6.952e-09\Dipole=-0.0234715,-1.0005775,
 0.\Quadrupole=2.9551189,-8.7008499,5.745731,-3.6693456,0.,0.\PG=CS [SG
 (Br1Cl1H1O1)]\\@


 LENDING MONEY TO FRIENDS CAUSES THEM TO LOSE THEIR MEMORIES.

    --  PETER'S THEORY OF RECIPROCAL INHIBITION OF FISCAL RECALL
 Job cpu time:       0 days  0 hours  2 minutes 35.9 seconds.
 File lengths (MBytes):  RWF=     14 Int=      0 D2E=      0 Chk=      4 Scr=      1
 Normal termination of Gaussian 09 at Tue Oct 12 14:27:08 2021.
