 Entering Gaussian System, Link 0=g09
 Input=brhocl_rOH_125_sp.gjf
 Output=brhocl_rOH_125_sp.log
 Initial command:
 /usr/local/gaussian/g09/l1.exe "/scratch/Gau-18289.inp" -scrdir="/scratch/"
 Entering Link 1 = /usr/local/gaussian/g09/l1.exe PID=     18290.
  
 Copyright (c) 1988,1990,1992,1993,1995,1998,2003,2009,2015,
            Gaussian, Inc.  All Rights Reserved.
  
 This is part of the Gaussian(R) 09 program.  It is based on
 the Gaussian(R) 03 system (copyright 2003, Gaussian, Inc.),
 the Gaussian(R) 98 system (copyright 1998, Gaussian, Inc.),
 the Gaussian(R) 94 system (copyright 1995, Gaussian, Inc.),
 the Gaussian 92(TM) system (copyright 1992, Gaussian, Inc.),
 the Gaussian 90(TM) system (copyright 1990, Gaussian, Inc.),
 the Gaussian 88(TM) system (copyright 1988, Gaussian, Inc.),
 the Gaussian 86(TM) system (copyright 1986, Carnegie Mellon
 University), and the Gaussian 82(TM) system (copyright 1983,
 Carnegie Mellon University). Gaussian is a federally registered
 trademark of Gaussian, Inc.
  
 This software contains proprietary and confidential information,
 including trade secrets, belonging to Gaussian, Inc.
  
 This software is provided under written license and may be
 used, copied, transmitted, or stored only in accord with that
 written license.
  
 The following legend is applicable only to US Government
 contracts under FAR:
  
                    RESTRICTED RIGHTS LEGEND
  
 Use, reproduction and disclosure by the US Government is
 subject to restrictions as set forth in subparagraphs (a)
 and (c) of the Commercial Computer Software - Restricted
 Rights clause in FAR 52.227-19.
  
 Gaussian, Inc.
 340 Quinnipiac St., Bldg. 40, Wallingford CT 06492
  
  
 ---------------------------------------------------------------
 Warning -- This program may not be used in any manner that
 competes with the business of Gaussian, Inc. or will provide
 assistance to any competitor of Gaussian, Inc.  The licensee
 of this program is prohibited from giving any competitor of
 Gaussian, Inc. access to this program.  By using this program,
 the user acknowledges that Gaussian, Inc. is engaged in the
 business of creating and licensing software in the field of
 computational chemistry and represents and warrants to the
 licensee that it is not a competitor of Gaussian, Inc. and that
 it will not use this program in any manner prohibited above.
 ---------------------------------------------------------------
  

 Cite this work as:
 Gaussian 09, Revision E.01,
 M. J. Frisch, G. W. Trucks, H. B. Schlegel, G. E. Scuseria, 
 M. A. Robb, J. R. Cheeseman, G. Scalmani, V. Barone, B. Mennucci, 
 G. A. Petersson, H. Nakatsuji, M. Caricato, X. Li, H. P. Hratchian, 
 A. F. Izmaylov, J. Bloino, G. Zheng, J. L. Sonnenberg, M. Hada, 
 M. Ehara, K. Toyota, R. Fukuda, J. Hasegawa, M. Ishida, T. Nakajima, 
 Y. Honda, O. Kitao, H. Nakai, T. Vreven, J. A. Montgomery, Jr., 
 J. E. Peralta, F. Ogliaro, M. Bearpark, J. J. Heyd, E. Brothers, 
 K. N. Kudin, V. N. Staroverov, T. Keith, R. Kobayashi, J. Normand, 
 K. Raghavachari, A. Rendell, J. C. Burant, S. S. Iyengar, J. Tomasi, 
 M. Cossi, N. Rega, J. M. Millam, M. Klene, J. E. Knox, J. B. Cross, 
 V. Bakken, C. Adamo, J. Jaramillo, R. Gomperts, R. E. Stratmann, 
 O. Yazyev, A. J. Austin, R. Cammi, C. Pomelli, J. W. Ochterski, 
 R. L. Martin, K. Morokuma, V. G. Zakrzewski, G. A. Voth, 
 P. Salvador, J. J. Dannenberg, S. Dapprich, A. D. Daniels, 
 O. Farkas, J. B. Foresman, J. V. Ortiz, J. Cioslowski, 
 and D. J. Fox, Gaussian, Inc., Wallingford CT, 2013.
 
 ******************************************
 Gaussian 09:  ES64L-G09RevE.01 30-Nov-2015
                12-Oct-2021 
 ******************************************
 %nproc=12
 Will use up to   12 processors via shared memory.
 %mem=8000MB
 %chk=/home/netid.washington.edu/cgavinh/mccoy_hocl/rOH_s_oop_0/brhocl/brhocl_rOH
 _125_sp.chk
 ----------------------------------------------------
 #p pop=NBO SP NoSymm mp2/aug-cc-pvtz density=current
 ----------------------------------------------------
 1/30=1,38=1/1;
 2/12=2,15=1,17=6,18=5,40=1/2;
 3/5=16,6=1,7=10,11=9,16=1,25=1,30=1,71=1/1,2,3;
 4//1;
 5/5=2,38=5/2;
 8/6=4,10=1/1;
 9/15=1,16=-3/6;
 10/5=1,13=10,31=1/2;
 6/7=2,8=2,9=2,10=2,22=-1,40=1/1,7;
 99/5=1,9=1/99;
 Leave Link    1 at Tue Oct 12 14:25:25 2021, MaxMem=  1048576000 cpu:         0.2
 (Enter /usr/local/gaussian/g09/l101.exe)
 -----
 title
 -----
 Symbolic Z-matrix:
 Charge = -1 Multiplicity = 1
 O
 X                    1     10. 
 Cl                   1    r1       2     90. 
 Br                   1    r2       2     90.      3    a1       0
 H                    1    r3       2    oop      3    a1       0
       Variables:
  r1                    1.68433                  
  r2                    3.07382                  
  r3                    1.25                     
  a1                  103.42035                  
  OOP                  90.                       
 
 NAtoms=      4 NQM=        4 NQMF=       0 NMMI=      0 NMMIF=      0
                NMic=       0 NMicF=      0.
                    Isotopes and Nuclear Properties:
 (Nuclear quadrupole moments (NQMom) in fm**2, nuclear magnetic moments (NMagM)
  in nuclear magnetons)

  Atom         1           2           3           4
 IAtWgt=          16          35          79           1
 AtmWgt=  15.9949146  34.9688527  78.9183361   1.0078250
 NucSpn=           0           3           3           1
 AtZEff=   0.0000000   0.0000000   0.0000000   0.0000000
 NQMom=    0.0000000  -8.1650000  31.3000000   0.0000000
 NMagM=    0.0000000   0.8218740   2.1063990   2.7928460
 AtZNuc=   8.0000000  17.0000000  35.0000000   1.0000000
 Leave Link  101 at Tue Oct 12 14:25:25 2021, MaxMem=  1048576000 cpu:         0.4
 (Enter /usr/local/gaussian/g09/l202.exe)
                          Input orientation:                          
 ---------------------------------------------------------------------
 Center     Atomic      Atomic             Coordinates (Angstroms)
 Number     Number       Type             X           Y           Z
 ---------------------------------------------------------------------
      1          8           0        0.000000    0.000000    0.000000
      2         17           0        1.684326    0.000000    0.000000
      3         35           0       -0.713413   -2.989882    0.000000
      4          1           0       -0.290117   -1.215867    0.000000
 ---------------------------------------------------------------------
                    Distance matrix (angstroms):
                    1          2          3          4
     1  O    0.000000
     2  Cl   1.684326   0.000000
     3  Br   3.073818   3.832564   0.000000
     4  H    1.250000   2.318783   1.823818   0.000000
 Symmetry turned off by external request.
 Stoichiometry    BrClHO(1-)
 Framework group  CS[SG(BrClHO)]
 Deg. of freedom     5
 Full point group                 CS      NOp   2
 Rotational constants (GHZ):     22.7518487      1.2814382      1.2131128
 Leave Link  202 at Tue Oct 12 14:25:25 2021, MaxMem=  1048576000 cpu:         0.0
 (Enter /usr/local/gaussian/g09/l301.exe)
 Standard basis: Aug-CC-pVTZ (5D, 7F)
 Ernie: Thresh=  0.10000D-02 Tol=  0.10000D-05 Strict=F.
 Ernie:  48 primitive shells out of 228 were deleted.
   178 basis functions,   430 primitive gaussians,   208 cartesian basis functions
    31 alpha electrons       31 beta electrons
       nuclear repulsion energy       190.5074619946 Hartrees.
 IExCor=    0 DFT=F Ex=HF Corr=None ExCW=0 ScaHFX=  1.000000
 ScaDFX=  1.000000  1.000000  1.000000  1.000000 ScalE2=  1.000000  1.000000
 IRadAn=      0 IRanWt=     -1 IRanGd=            0 ICorTp=0 IEmpDi=  4
 NAtoms=    4 NActive=    4 NUniq=    4 SFac= 1.00D+00 NAtFMM=   60 NAOKFM=F Big=F
 Integral buffers will be    131072 words long.
 Raffenetti 1 integral format.
 Two-electron integral symmetry is turned off.
 Leave Link  301 at Tue Oct 12 14:25:25 2021, MaxMem=  1048576000 cpu:         0.3
 (Enter /usr/local/gaussian/g09/l302.exe)
 NPDir=0 NMtPBC=     1 NCelOv=     1 NCel=       1 NClECP=     1 NCelD=      1
         NCelK=      1 NCelE2=     1 NClLst=     1 CellRange=     0.0.
 One-electron integrals computed using PRISM.
 NBasis=   178 RedAO= T EigKep=  3.32D-04  NBF=   178
 NBsUse=   178 1.00D-06 EigRej= -1.00D+00 NBFU=   178
 Leave Link  302 at Tue Oct 12 14:25:25 2021, MaxMem=  1048576000 cpu:         1.6
 (Enter /usr/local/gaussian/g09/l303.exe)
 DipDrv:  MaxL=1.
 Leave Link  303 at Tue Oct 12 14:25:25 2021, MaxMem=  1048576000 cpu:         0.2
 (Enter /usr/local/gaussian/g09/l401.exe)
 ExpMin= 2.53D-02 ExpMax= 1.06D+07 ExpMxC= 1.21D+04 IAcc=3 IRadAn=         5 AccDes= 0.00D+00
 Harris functional with IExCor=  205 and IRadAn=       5 diagonalized for initial guess.
 HarFok:  IExCor=  205 AccDes= 0.00D+00 IRadAn=         5 IDoV= 1 UseB2=F ITyADJ=14
 ICtDFT=  3500011 ScaDFX=  1.000000  1.000000  1.000000  1.000000
 FoFCou: FMM=F IPFlag=           0 FMFlag=      100000 FMFlg1=           0
         NFxFlg=           0 DoJE=T BraDBF=F KetDBF=T FulRan=T
         wScrn=  0.000000 ICntrl=     500 IOpCl=  0 I1Cent=   200000004 NGrid=           0
         NMat0=    1 NMatS0=      1 NMatT0=    0 NMatD0=    1 NMtDS0=    0 NMtDT0=    0
 Symmetry not used in FoFCou.
 Harris En= -3106.36039296920    
 JPrj=0 DoOrth=F DoCkMO=F.
 Leave Link  401 at Tue Oct 12 14:25:25 2021, MaxMem=  1048576000 cpu:         3.0
 (Enter /usr/local/gaussian/g09/l502.exe)
 Closed shell SCF:
 Using DIIS extrapolation, IDIIS=  1040.
 Two-electron integral symmetry not used.
 Keep R1 ints in memory in canonical form, NReq=131623000.
 IVT=      152094 IEndB=      152094 NGot=  1048576000 MDV=   921517561
 LenX=   921517561 LenY=   921473856
 Requested convergence on RMS density matrix=1.00D-08 within 128 cycles.
 Requested convergence on MAX density matrix=1.00D-06.
 Requested convergence on             energy=1.00D-06.
 No special actions if energy rises.
 FoFCou: FMM=F IPFlag=           0 FMFlag=           0 FMFlg1=           0
         NFxFlg=           0 DoJE=F BraDBF=F KetDBF=F FulRan=T
         wScrn=  0.000000 ICntrl=     600 IOpCl=  0 I1Cent=           0 NGrid=           0
         NMat0=    1 NMatS0=  15931 NMatT0=    0 NMatD0=    1 NMtDS0=    0 NMtDT0=    0
 Symmetry not used in FoFCou.

 Cycle   1  Pass 1  IDiag  1:
 E= -3107.29843173902    
 DIIS: error= 5.65D-02 at cycle   1 NSaved=   1.
 NSaved= 1 IEnMin= 1 EnMin= -3107.29843173902     IErMin= 1 ErrMin= 5.65D-02
 ErrMax= 5.65D-02  0.00D+00 EMaxC= 1.00D-01 BMatC= 6.42D-01 BMatP= 6.42D-01
 IDIUse=3 WtCom= 4.35D-01 WtEn= 5.65D-01
 Coeff-Com:  0.100D+01
 Coeff-En:   0.100D+01
 Coeff:      0.100D+01
 Gap=     0.546 Goal=   None    Shift=    0.000
 GapD=    0.546 DampG=2.000 DampE=0.500 DampFc=1.0000 IDamp=-1.
 RMSDP=3.11D-03 MaxDP=1.07D-01              OVMax= 1.27D-01

 Cycle   2  Pass 1  IDiag  1:
 E= -3107.42208254740     Delta-E=       -0.123650808378 Rises=F Damp=F
 DIIS: error= 1.62D-02 at cycle   2 NSaved=   2.
 NSaved= 2 IEnMin= 2 EnMin= -3107.42208254740     IErMin= 2 ErrMin= 1.62D-02
 ErrMax= 1.62D-02  0.00D+00 EMaxC= 1.00D-01 BMatC= 4.54D-02 BMatP= 6.42D-01
 IDIUse=3 WtCom= 8.38D-01 WtEn= 1.62D-01
 Coeff-Com:  0.139D+00 0.861D+00
 Coeff-En:   0.000D+00 0.100D+01
 Coeff:      0.116D+00 0.884D+00
 Gap=     0.379 Goal=   None    Shift=    0.000
 RMSDP=1.17D-03 MaxDP=4.10D-02 DE=-1.24D-01 OVMax= 7.47D-02

 Cycle   3  Pass 1  IDiag  1:
 E= -3107.43958900676     Delta-E=       -0.017506459357 Rises=F Damp=F
 DIIS: error= 9.13D-03 at cycle   3 NSaved=   3.
 NSaved= 3 IEnMin= 3 EnMin= -3107.43958900676     IErMin= 3 ErrMin= 9.13D-03
 ErrMax= 9.13D-03  0.00D+00 EMaxC= 1.00D-01 BMatC= 1.73D-02 BMatP= 4.54D-02
 IDIUse=3 WtCom= 9.09D-01 WtEn= 9.13D-02
 Coeff-Com:  0.816D-02 0.380D+00 0.612D+00
 Coeff-En:   0.000D+00 0.244D+00 0.756D+00
 Coeff:      0.742D-02 0.368D+00 0.625D+00
 Gap=     0.359 Goal=   None    Shift=    0.000
 RMSDP=3.79D-04 MaxDP=1.52D-02 DE=-1.75D-02 OVMax= 3.90D-02

 Cycle   4  Pass 1  IDiag  1:
 E= -3107.45168696645     Delta-E=       -0.012097959699 Rises=F Damp=F
 DIIS: error= 1.25D-03 at cycle   4 NSaved=   4.
 NSaved= 4 IEnMin= 4 EnMin= -3107.45168696645     IErMin= 4 ErrMin= 1.25D-03
 ErrMax= 1.25D-03  0.00D+00 EMaxC= 1.00D-01 BMatC= 1.99D-04 BMatP= 1.73D-02
 IDIUse=3 WtCom= 9.87D-01 WtEn= 1.25D-02
 Coeff-Com: -0.585D-02-0.250D-01 0.486D-01 0.982D+00
 Coeff-En:   0.000D+00 0.000D+00 0.000D+00 0.100D+01
 Coeff:     -0.577D-02-0.247D-01 0.480D-01 0.982D+00
 Gap=     0.359 Goal=   None    Shift=    0.000
 RMSDP=6.94D-05 MaxDP=1.87D-03 DE=-1.21D-02 OVMax= 4.57D-03

 Cycle   5  Pass 1  IDiag  1:
 E= -3107.45195611497     Delta-E=       -0.000269148520 Rises=F Damp=F
 DIIS: error= 2.79D-04 at cycle   5 NSaved=   5.
 NSaved= 5 IEnMin= 5 EnMin= -3107.45195611497     IErMin= 5 ErrMin= 2.79D-04
 ErrMax= 2.79D-04  0.00D+00 EMaxC= 1.00D-01 BMatC= 1.84D-05 BMatP= 1.99D-04
 IDIUse=3 WtCom= 9.97D-01 WtEn= 2.79D-03
 Coeff-Com:  0.121D-02-0.242D-01-0.513D-01-0.180D+00 0.125D+01
 Coeff-En:   0.000D+00 0.000D+00 0.000D+00 0.000D+00 0.100D+01
 Coeff:      0.121D-02-0.241D-01-0.512D-01-0.179D+00 0.125D+01
 Gap=     0.359 Goal=   None    Shift=    0.000
 RMSDP=3.97D-05 MaxDP=1.46D-03 DE=-2.69D-04 OVMax= 3.91D-03

 Cycle   6  Pass 1  IDiag  1:
 E= -3107.45201321800     Delta-E=       -0.000057103026 Rises=F Damp=F
 DIIS: error= 1.40D-04 at cycle   6 NSaved=   6.
 NSaved= 6 IEnMin= 6 EnMin= -3107.45201321800     IErMin= 6 ErrMin= 1.40D-04
 ErrMax= 1.40D-04  0.00D+00 EMaxC= 1.00D-01 BMatC= 2.65D-06 BMatP= 1.84D-05
 IDIUse=3 WtCom= 9.99D-01 WtEn= 1.40D-03
 Coeff-Com:  0.485D-03 0.682D-02 0.146D-02-0.136D+00-0.895D-01 0.122D+01
 Coeff-En:   0.000D+00 0.000D+00 0.000D+00 0.000D+00 0.000D+00 0.100D+01
 Coeff:      0.485D-03 0.681D-02 0.146D-02-0.136D+00-0.894D-01 0.122D+01
 Gap=     0.359 Goal=   None    Shift=    0.000
 RMSDP=1.81D-05 MaxDP=7.16D-04 DE=-5.71D-05 OVMax= 1.95D-03

 Cycle   7  Pass 1  IDiag  1:
 E= -3107.45202295879     Delta-E=       -0.000009740790 Rises=F Damp=F
 DIIS: error= 4.85D-05 at cycle   7 NSaved=   7.
 NSaved= 7 IEnMin= 7 EnMin= -3107.45202295879     IErMin= 7 ErrMin= 4.85D-05
 ErrMax= 4.85D-05  0.00D+00 EMaxC= 1.00D-01 BMatC= 2.48D-07 BMatP= 2.65D-06
 IDIUse=1 WtCom= 1.00D+00 WtEn= 0.00D+00
 Coeff-Com: -0.239D-03 0.491D-03 0.647D-02 0.606D-01-0.149D+00-0.264D+00
 Coeff-Com:  0.135D+01
 Coeff:     -0.239D-03 0.491D-03 0.647D-02 0.606D-01-0.149D+00-0.264D+00
 Coeff:      0.135D+01
 Gap=     0.359 Goal=   None    Shift=    0.000
 RMSDP=6.43D-06 MaxDP=2.27D-04 DE=-9.74D-06 OVMax= 6.92D-04

 Cycle   8  Pass 1  IDiag  1:
 E= -3107.45202390747     Delta-E=       -0.000000948678 Rises=F Damp=F
 DIIS: error= 6.75D-06 at cycle   8 NSaved=   8.
 NSaved= 8 IEnMin= 8 EnMin= -3107.45202390747     IErMin= 8 ErrMin= 6.75D-06
 ErrMax= 6.75D-06  0.00D+00 EMaxC= 1.00D-01 BMatC= 1.06D-08 BMatP= 2.48D-07
 IDIUse=1 WtCom= 1.00D+00 WtEn= 0.00D+00
 Coeff-Com: -0.369D-04-0.117D-03 0.416D-03 0.558D-02-0.217D-02-0.496D-01
 Coeff-Com:  0.325D-02 0.104D+01
 Coeff:     -0.369D-04-0.117D-03 0.416D-03 0.558D-02-0.217D-02-0.496D-01
 Coeff:      0.325D-02 0.104D+01
 Gap=     0.359 Goal=   None    Shift=    0.000
 RMSDP=9.60D-07 MaxDP=2.31D-05 DE=-9.49D-07 OVMax= 9.29D-05

 Cycle   9  Pass 1  IDiag  1:
 E= -3107.45202393468     Delta-E=       -0.000000027208 Rises=F Damp=F
 DIIS: error= 2.38D-06 at cycle   9 NSaved=   9.
 NSaved= 9 IEnMin= 9 EnMin= -3107.45202393468     IErMin= 9 ErrMin= 2.38D-06
 ErrMax= 2.38D-06  0.00D+00 EMaxC= 1.00D-01 BMatC= 1.41D-09 BMatP= 1.06D-08
 IDIUse=1 WtCom= 1.00D+00 WtEn= 0.00D+00
 Coeff-Com:  0.166D-04-0.221D-03-0.641D-03-0.373D-02 0.149D-01 0.106D-01
 Coeff-Com: -0.123D+00 0.166D+00 0.936D+00
 Coeff:      0.166D-04-0.221D-03-0.641D-03-0.373D-02 0.149D-01 0.106D-01
 Coeff:     -0.123D+00 0.166D+00 0.936D+00
 Gap=     0.359 Goal=   None    Shift=    0.000
 RMSDP=3.05D-07 MaxDP=6.47D-06 DE=-2.72D-08 OVMax= 2.46D-05

 Cycle  10  Pass 1  IDiag  1:
 E= -3107.45202393766     Delta-E=       -0.000000002984 Rises=F Damp=F
 DIIS: error= 1.03D-06 at cycle  10 NSaved=  10.
 NSaved=10 IEnMin=10 EnMin= -3107.45202393766     IErMin=10 ErrMin= 1.03D-06
 ErrMax= 1.03D-06  0.00D+00 EMaxC= 1.00D-01 BMatC= 1.48D-10 BMatP= 1.41D-09
 IDIUse=1 WtCom= 1.00D+00 WtEn= 0.00D+00
 Coeff-Com: -0.119D-05 0.848D-04 0.142D-03 0.548D-04-0.326D-02 0.360D-02
 Coeff-Com:  0.234D-01-0.115D+00-0.258D+00 0.135D+01
 Coeff:     -0.119D-05 0.848D-04 0.142D-03 0.548D-04-0.326D-02 0.360D-02
 Coeff:      0.234D-01-0.115D+00-0.258D+00 0.135D+01
 Gap=     0.359 Goal=   None    Shift=    0.000
 RMSDP=1.80D-07 MaxDP=3.77D-06 DE=-2.98D-09 OVMax= 1.45D-05

 Cycle  11  Pass 1  IDiag  1:
 E= -3107.45202393836     Delta-E=       -0.000000000695 Rises=F Damp=F
 DIIS: error= 6.30D-07 at cycle  11 NSaved=  11.
 NSaved=11 IEnMin=11 EnMin= -3107.45202393836     IErMin=11 ErrMin= 6.30D-07
 ErrMax= 6.30D-07  0.00D+00 EMaxC= 1.00D-01 BMatC= 3.03D-11 BMatP= 1.48D-10
 IDIUse=1 WtCom= 1.00D+00 WtEn= 0.00D+00
 Coeff-Com: -0.192D-05-0.667D-05 0.322D-04 0.593D-03-0.101D-02-0.280D-02
 Coeff-Com:  0.839D-02 0.235D-01-0.176D-01-0.606D+00 0.160D+01
 Coeff:     -0.192D-05-0.667D-05 0.322D-04 0.593D-03-0.101D-02-0.280D-02
 Coeff:      0.839D-02 0.235D-01-0.176D-01-0.606D+00 0.160D+01
 Gap=     0.359 Goal=   None    Shift=    0.000
 RMSDP=1.05D-07 MaxDP=2.41D-06 DE=-6.95D-10 OVMax= 9.36D-06

 Cycle  12  Pass 1  IDiag  1:
 E= -3107.45202393854     Delta-E=       -0.000000000187 Rises=F Damp=F
 DIIS: error= 2.36D-07 at cycle  12 NSaved=  12.
 NSaved=12 IEnMin=12 EnMin= -3107.45202393854     IErMin=12 ErrMin= 2.36D-07
 ErrMax= 2.36D-07  0.00D+00 EMaxC= 1.00D-01 BMatC= 3.46D-12 BMatP= 3.03D-11
 IDIUse=1 WtCom= 1.00D+00 WtEn= 0.00D+00
 Coeff-Com:  0.107D-06-0.157D-04-0.280D-04-0.219D-04 0.657D-03-0.564D-03
 Coeff-Com: -0.512D-02 0.207D-01 0.584D-01-0.243D+00-0.789D-01 0.125D+01
 Coeff:      0.107D-06-0.157D-04-0.280D-04-0.219D-04 0.657D-03-0.564D-03
 Coeff:     -0.512D-02 0.207D-01 0.584D-01-0.243D+00-0.789D-01 0.125D+01
 Gap=     0.359 Goal=   None    Shift=    0.000
 RMSDP=3.97D-08 MaxDP=8.79D-07 DE=-1.87D-10 OVMax= 3.83D-06

 Cycle  13  Pass 1  IDiag  1:
 E= -3107.45202393856     Delta-E=       -0.000000000015 Rises=F Damp=F
 DIIS: error= 4.78D-08 at cycle  13 NSaved=  13.
 NSaved=13 IEnMin=13 EnMin= -3107.45202393856     IErMin=13 ErrMin= 4.78D-08
 ErrMax= 4.78D-08  0.00D+00 EMaxC= 1.00D-01 BMatC= 1.64D-13 BMatP= 3.46D-12
 IDIUse=1 WtCom= 1.00D+00 WtEn= 0.00D+00
 Coeff-Com:  0.118D-06 0.310D-05 0.298D-05-0.360D-04-0.546D-04 0.269D-03
 Coeff-Com:  0.435D-03-0.504D-02-0.111D-01 0.886D-01-0.942D-01-0.246D+00
 Coeff-Com:  0.127D+01
 Coeff:      0.118D-06 0.310D-05 0.298D-05-0.360D-04-0.546D-04 0.269D-03
 Coeff:      0.435D-03-0.504D-02-0.111D-01 0.886D-01-0.942D-01-0.246D+00
 Coeff:      0.127D+01
 Gap=     0.359 Goal=   None    Shift=    0.000
 RMSDP=8.20D-09 MaxDP=1.56D-07 DE=-1.46D-11 OVMax= 7.14D-07

 SCF Done:  E(RHF) =  -3107.45202394     A.U. after   13 cycles
            NFock= 13  Conv=0.82D-08     -V/T= 2.0001
 KE= 3.107174696452D+03 PE=-7.823275845753D+03 EE= 1.418141663368D+03
 Leave Link  502 at Tue Oct 12 14:25:29 2021, MaxMem=  1048576000 cpu:        19.4
 (Enter /usr/local/gaussian/g09/l801.exe)
 ExpMin= 2.53D-02 ExpMax= 1.06D+07 ExpMxC= 1.21D+04 IAcc=3 IRadAn=         5 AccDes= 0.00D+00
 HarFok:  IExCor=  205 AccDes= 0.00D+00 IRadAn=         5 IDoV=-2 UseB2=F ITyADJ=14
 ICtDFT= 12500011 ScaDFX=  1.000000  1.000000  1.000000  1.000000
 Largest valence mixing into a core orbital is  4.46D-04
 Largest core mixing into a valence orbital is  1.54D-04
 Range of M.O.s used for correlation:    16   178
 NBasis=   178 NAE=    31 NBE=    31 NFC=    15 NFV=     0
 NROrb=    163 NOA=    16 NOB=    16 NVA=   147 NVB=   147

 **** Warning!!: The largest alpha MO coefficient is  0.16263616D+02

 Leave Link  801 at Tue Oct 12 14:25:29 2021, MaxMem=  1048576000 cpu:         0.7
 (Enter /usr/local/gaussian/g09/l906.exe)
 Frozen-core derivative calculation, NFC=  15 NFV=   0.
 FulOut=F Deriv=T AODrv=F NAtomX=     4
   MMem=         227  MDisk=          16 MDiskD=          16
  W3Min=     1147744 MinDsk=     1765480 NBas6D=         208
 NBas2D=       22240    NTT=       21736    LW2=     9911920
    MDV=  1048101791 MDiskM=       25146 NBas2p=       22041
 Fully in-core method, ICMem=   526646768.
 IMap=   1   2   3   4   5   6   7   8   9  10  11  12  13  14  15  16  17  18  19  20
 IMap=  21  22  23  24  25  26  27  28  29  30  31
 JobTyp=1 Pass  1 fully in-core, NPsUse= 12.
 Compute canonical integrals.
 FoFCou: FMM=F IPFlag=           0 FMFlag=           0 FMFlg1=           0
         NFxFlg=           0 DoJE=F BraDBF=F KetDBF=F FulRan=T
         wScrn=  0.000000 ICntrl=     600 IOpCl=  1 I1Cent=           0 NGrid=           0
         NMat0=    1 NMatS0=  22240 NMatT0=    0 NMatD0=    1 NMtDS0=    0 NMtDT0=    0
 Symmetry not used in FoFCou.
 Spin components of T(2) and E(2):
     alpha-alpha T2 =       0.3182728985D-01 E2=     -0.9653059522D-01
     alpha-beta  T2 =       0.1675408916D+00 E2=     -0.5234517869D+00
     beta-beta   T2 =       0.3182728985D-01 E2=     -0.9653059522D-01
 The integrals were generated   1 times.
 ANorm=    0.1109592480D+01
 E2 =    -0.7165129773D+00 EUMP2 =    -0.31081685369159D+04
 Leave Link  906 at Tue Oct 12 14:25:37 2021, MaxMem=  1048576000 cpu:        97.9
 (Enter /usr/local/gaussian/g09/l1002.exe)
 Minotr:  Closed shell wavefunction.
          Computing MP2/KS-MP2 derivatives.
          Using Z-Vector for PSCF gradient.
          Skipping F1 and S1 gradient terms here.
          Frozen-core window.
          Direct CPHF calculation.
          Differentiating once with respect to electric field.
                with respect to dipole field.
          Electric field/nuclear overlap derivatives assumed to be zero.
          Requested convergence is 1.0D-10 RMS, and 1.0D-09 maximum.
          NewPWx=F KeepS1=T KeepF1=T KeepIn=T MapXYZ=F SortEE=F KeepMc=T.
          MDV=    1048575801 using IRadAn=       0.
 Keep R1 ints in memory in canonical form, NReq=131472178.
 FoFCou: FMM=F IPFlag=           0 FMFlag=           0 FMFlg1=           0
         NFxFlg=           0 DoJE=F BraDBF=F KetDBF=F FulRan=T
         wScrn=  0.000000 ICntrl=     600 IOpCl=  0 I1Cent=           0 NGrid=           0
         NMat0=    1 NMatS0=  15931 NMatT0=    0 NMatD0=    1 NMtDS0=    0 NMtDT0=    0
 Symmetry not used in FoFCou.
          Solving linear equations separately, MaxMat=       0.
          There are     1 degrees of freedom in the 1st order CPHF.  IDoFFX=0 NUNeed=     1.
 LinEq1:  Iter=  0 NonCon=     1 RMS=3.00D-03 Max=5.49D-02 NDo=     1
 AX will form     1 AO Fock derivatives at one time.
 LinEq1:  Iter=  1 NonCon=     1 RMS=4.81D-04 Max=6.61D-03 NDo=     1
 LinEq1:  Iter=  2 NonCon=     1 RMS=2.11D-04 Max=2.88D-03 NDo=     1
 LinEq1:  Iter=  3 NonCon=     1 RMS=7.50D-05 Max=1.24D-03 NDo=     1
 LinEq1:  Iter=  4 NonCon=     1 RMS=2.69D-05 Max=5.31D-04 NDo=     1
 LinEq1:  Iter=  5 NonCon=     1 RMS=1.16D-05 Max=1.73D-04 NDo=     1
 LinEq1:  Iter=  6 NonCon=     1 RMS=2.52D-06 Max=2.92D-05 NDo=     1
 LinEq1:  Iter=  7 NonCon=     1 RMS=6.49D-07 Max=1.01D-05 NDo=     1
 LinEq1:  Iter=  8 NonCon=     1 RMS=1.95D-07 Max=2.42D-06 NDo=     1
 LinEq1:  Iter=  9 NonCon=     1 RMS=6.18D-08 Max=7.70D-07 NDo=     1
 LinEq1:  Iter= 10 NonCon=     1 RMS=1.71D-08 Max=3.21D-07 NDo=     1
 LinEq1:  Iter= 11 NonCon=     1 RMS=4.32D-09 Max=5.75D-08 NDo=     1
 LinEq1:  Iter= 12 NonCon=     1 RMS=6.87D-10 Max=9.31D-09 NDo=     1
 LinEq1:  Iter= 13 NonCon=     1 RMS=1.28D-10 Max=2.09D-09 NDo=     1
 LinEq1:  Iter= 14 NonCon=     0 RMS=3.37D-11 Max=4.12D-10 NDo=     1
 Linear equations converged to 1.000D-10 1.000D-09 after    14 iterations.
 End of Minotr F.D. properties file   721 does not exist.
 End of Minotr F.D. properties file   722 does not exist.
 End of Minotr F.D. properties file   788 does not exist.
 Leave Link 1002 at Tue Oct 12 14:25:41 2021, MaxMem=  1048576000 cpu:        18.6
 (Enter /usr/local/gaussian/g09/l601.exe)
 Copying SCF densities to generalized density rwf, IOpCl= 0 IROHF=0.

 **********************************************************************

            Population analysis using the MP2 density.

 **********************************************************************

 Alpha  occ. eigenvalues -- -489.78457-104.70294 -64.92492 -58.27955 -58.27931
 Alpha  occ. eigenvalues --  -58.27931 -20.42627 -10.42263  -9.59750  -7.88975
 Alpha  occ. eigenvalues --   -7.88739  -7.88731  -7.20599  -7.20441  -7.20439
 Alpha  occ. eigenvalues --   -2.94799  -2.94717  -2.94714  -2.94524  -2.94524
 Alpha  occ. eigenvalues --   -1.16640  -0.85502  -0.76351  -0.47035  -0.40523
 Alpha  occ. eigenvalues --   -0.39663  -0.28468  -0.24879  -0.20736  -0.20122
 Alpha  occ. eigenvalues --   -0.20073
 Alpha virt. eigenvalues --    0.15848   0.18820   0.21376   0.22815   0.23745
 Alpha virt. eigenvalues --    0.24775   0.25102   0.29735   0.31279   0.32316
 Alpha virt. eigenvalues --    0.33172   0.33389   0.36504   0.43445   0.43765
 Alpha virt. eigenvalues --    0.45862   0.46017   0.48004   0.49802   0.54649
 Alpha virt. eigenvalues --    0.54927   0.58469   0.58661   0.59637   0.61412
 Alpha virt. eigenvalues --    0.61865   0.66111   0.67538   0.72654   0.72669
 Alpha virt. eigenvalues --    0.73737   0.78983   0.79194   0.84903   0.91330
 Alpha virt. eigenvalues --    0.92171   0.92878   0.95208   0.97874   0.98326
 Alpha virt. eigenvalues --    1.00378   1.01061   1.02564   1.03837   1.06526
 Alpha virt. eigenvalues --    1.09845   1.10631   1.11273   1.12402   1.16009
 Alpha virt. eigenvalues --    1.16131   1.17496   1.18050   1.23199   1.24874
 Alpha virt. eigenvalues --    1.24954   1.29993   1.31456   1.33951   1.34765
 Alpha virt. eigenvalues --    1.37093   1.40626   1.48022   1.49422   1.52677
 Alpha virt. eigenvalues --    1.57595   1.60910   1.63088   1.68491   1.70438
 Alpha virt. eigenvalues --    1.73262   1.74507   1.77771   1.83245   1.87823
 Alpha virt. eigenvalues --    2.00259   2.10482   2.32182   2.40475   2.41992
 Alpha virt. eigenvalues --    2.42279   2.44084   2.50367   2.51025   2.51936
 Alpha virt. eigenvalues --    2.52169   2.53121   2.53422   2.53562   2.54572
 Alpha virt. eigenvalues --    2.56427   2.60206   2.60358   2.62814   2.63496
 Alpha virt. eigenvalues --    2.66608   2.68307   2.69424   2.73004   2.73598
 Alpha virt. eigenvalues --    2.75109   2.75699   2.80754   2.82285   2.85062
 Alpha virt. eigenvalues --    3.07045   3.10269   3.13993   3.14232   3.19168
 Alpha virt. eigenvalues --    3.25311   3.25722   3.28311   3.32467   3.33190
 Alpha virt. eigenvalues --    3.39346   3.54546   3.56650   3.61663   3.92547
 Alpha virt. eigenvalues --    4.05336   4.19390   4.35122   4.40474   4.53306
 Alpha virt. eigenvalues --    4.66556   4.73216   4.79358   4.85483   5.13712
 Alpha virt. eigenvalues --    5.40313   5.41815   6.39571   6.55177   6.85524
 Alpha virt. eigenvalues --    6.90857   6.94751   7.00266   7.07475   7.16305
 Alpha virt. eigenvalues --    7.37461   7.40387   7.55743   7.61665   7.93484
 Alpha virt. eigenvalues --    8.12250  12.82022
          Condensed to atoms (all electrons):
               1          2          3          4
     1  O    8.671517  -0.131618  -0.125740   0.145025
     2  Cl  -0.131618  17.133859   0.014632  -0.026253
     3  Br  -0.125740   0.014632  35.764280   0.031144
     4  H    0.145025  -0.026253   0.031144   0.615966
 Mulliken charges:
               1
     1  O   -0.559183
     2  Cl   0.009381
     3  Br  -0.684315
     4  H    0.234118
 Sum of Mulliken charges =  -1.00000
 Mulliken charges with hydrogens summed into heavy atoms:
               1
     1  O   -0.325065
     2  Cl   0.009381
     3  Br  -0.684315
 Electronic spatial extent (au):  <R**2>=           1477.1899
 Charge=             -1.0000 electrons
 Dipole moment (field-independent basis, Debye):
    X=              0.8470    Y=              8.3836    Z=              0.0000  Tot=              8.4263
 Quadrupole moment (field-independent basis, Debye-Ang):
   XX=            -45.9156   YY=            -70.4575   ZZ=            -42.9599
   XY=             -6.9323   XZ=             -0.0000   YZ=             -0.0000
 Traceless Quadrupole moment (field-independent basis, Debye-Ang):
   XX=              7.1954   YY=            -17.3465   ZZ=             10.1511
   XY=             -6.9323   XZ=             -0.0000   YZ=             -0.0000
 Octapole moment (field-independent basis, Debye-Ang**2):
  XXX=            -19.6105  YYY=            283.0308  ZZZ=              0.0000  XYY=             12.7914
  XXY=             71.6534  XXZ=             -0.0000  XZZ=             -7.4237  YZZ=             66.9760
  YYZ=              0.0000  XYZ=              0.0000
 Hexadecapole moment (field-independent basis, Debye-Ang**3):
 XXXX=           -346.7777 YYYY=          -1479.9290 ZZZZ=            -59.8281 XXXY=           -146.8528
 XXXZ=             -0.0000 YYYX=           -198.7856 YYYZ=             -0.0000 ZZZX=             -0.0000
 ZZZY=             -0.0000 XXYY=           -283.9242 XXZZ=            -71.9334 YYZZ=           -219.0607
 XXYZ=             -0.0000 YYXZ=             -0.0000 ZZXY=            -47.8489
 N-N= 1.905074619946D+02 E-N=-7.821843587771D+03  KE= 3.107210111990D+03
 No NMR shielding tensors so no spin-rotation constants.
 Leave Link  601 at Tue Oct 12 14:25:41 2021, MaxMem=  1048576000 cpu:         2.1
 (Enter /usr/local/gaussian/g09/l607.exe)
 ******************************Gaussian NBO Version 3.1******************************
             N A T U R A L   A T O M I C   O R B I T A L   A N D
          N A T U R A L   B O N D   O R B I T A L   A N A L Y S I S
 ******************************Gaussian NBO Version 3.1******************************
       /RESON  / : Allow strongly delocalized NBO set

 Analyzing the MP2 density

 Job title: title                                                           

 Storage needed:     95974 in NPA,    127345 in NBO (1048575904 available)


 NATURAL POPULATIONS:  Natural atomic orbital occupancies 
                                                          
   NAO  Atom  No  lang   Type(AO)    Occupancy
 --------------------------------------------
     1    O    1  S      Cor( 1S)     1.99981
     2    O    1  S      Val( 2S)     1.83645
     3    O    1  S      Ryd( 3S)     0.01160
     4    O    1  S      Ryd( 4S)     0.00120
     5    O    1  S      Ryd( 5S)     0.00017
     6    O    1  px     Val( 2p)     1.18234
     7    O    1  px     Ryd( 3p)     0.00781
     8    O    1  px     Ryd( 4p)     0.00067
     9    O    1  px     Ryd( 5p)     0.00062
    10    O    1  py     Val( 2p)     1.73987
    11    O    1  py     Ryd( 3p)     0.01438
    12    O    1  py     Ryd( 4p)     0.00067
    13    O    1  py     Ryd( 5p)     0.00041
    14    O    1  pz     Val( 2p)     1.94515
    15    O    1  pz     Ryd( 3p)     0.02232
    16    O    1  pz     Ryd( 4p)     0.00061
    17    O    1  pz     Ryd( 5p)     0.00015
    18    O    1  dxy    Ryd( 3d)     0.00849
    19    O    1  dxy    Ryd( 4d)     0.00053
    20    O    1  dxy    Ryd( 5d)     0.00013
    21    O    1  dxz    Ryd( 3d)     0.00884
    22    O    1  dxz    Ryd( 4d)     0.00061
    23    O    1  dxz    Ryd( 5d)     0.00010
    24    O    1  dyz    Ryd( 3d)     0.00692
    25    O    1  dyz    Ryd( 4d)     0.00067
    26    O    1  dyz    Ryd( 5d)     0.00028
    27    O    1  dx2y2  Ryd( 3d)     0.01131
    28    O    1  dx2y2  Ryd( 4d)     0.00042
    29    O    1  dx2y2  Ryd( 5d)     0.00015
    30    O    1  dz2    Ryd( 3d)     0.00841
    31    O    1  dz2    Ryd( 4d)     0.00064
    32    O    1  dz2    Ryd( 5d)     0.00016
    33    O    1  f(0)   Ryd( 4f)     0.00066
    34    O    1  f(0)   Ryd( 5f)     0.00011
    35    O    1  f(C1)  Ryd( 4f)     0.00066
    36    O    1  f(C1)  Ryd( 5f)     0.00012
    37    O    1  f(S1)  Ryd( 4f)     0.00063
    38    O    1  f(S1)  Ryd( 5f)     0.00012
    39    O    1  f(C2)  Ryd( 4f)     0.00065
    40    O    1  f(C2)  Ryd( 5f)     0.00013
    41    O    1  f(S2)  Ryd( 4f)     0.00055
    42    O    1  f(S2)  Ryd( 5f)     0.00012
    43    O    1  f(C3)  Ryd( 4f)     0.00064
    44    O    1  f(C3)  Ryd( 5f)     0.00014
    45    O    1  f(S3)  Ryd( 4f)     0.00060
    46    O    1  f(S3)  Ryd( 5f)     0.00012

    47   Cl    2  S      Cor( 1S)     2.00000
    48   Cl    2  S      Cor( 2S)     1.99975
    49   Cl    2  S      Val( 3S)     1.87671
    50   Cl    2  S      Ryd( 4S)     0.00847
    51   Cl    2  S      Ryd( 5S)     0.00056
    52   Cl    2  S      Ryd( 6S)     0.00018
    53   Cl    2  px     Cor( 2p)     1.99995
    54   Cl    2  px     Val( 3p)     0.93725
    55   Cl    2  px     Ryd( 4p)     0.00701
    56   Cl    2  px     Ryd( 5p)     0.00055
    57   Cl    2  px     Ryd( 6p)     0.00022
    58   Cl    2  py     Cor( 2p)     2.00003
    59   Cl    2  py     Val( 3p)     1.95209
    60   Cl    2  py     Ryd( 4p)     0.01063
    61   Cl    2  py     Ryd( 5p)     0.00055
    62   Cl    2  py     Ryd( 6p)     0.00007
    63   Cl    2  pz     Cor( 2p)     2.00003
    64   Cl    2  pz     Val( 3p)     1.95351
    65   Cl    2  pz     Ryd( 4p)     0.01143
    66   Cl    2  pz     Ryd( 5p)     0.00072
    67   Cl    2  pz     Ryd( 6p)     0.00003
    68   Cl    2  dxy    Ryd( 3d)     0.01893
    69   Cl    2  dxy    Ryd( 4d)     0.00112
    70   Cl    2  dxy    Ryd( 5d)     0.00037
    71   Cl    2  dxz    Ryd( 3d)     0.02280
    72   Cl    2  dxz    Ryd( 4d)     0.00131
    73   Cl    2  dxz    Ryd( 5d)     0.00038
    74   Cl    2  dyz    Ryd( 3d)     0.01696
    75   Cl    2  dyz    Ryd( 4d)     0.00071
    76   Cl    2  dyz    Ryd( 5d)     0.00023
    77   Cl    2  dx2y2  Ryd( 3d)     0.01884
    78   Cl    2  dx2y2  Ryd( 4d)     0.00049
    79   Cl    2  dx2y2  Ryd( 5d)     0.00019
    80   Cl    2  dz2    Ryd( 3d)     0.01776
    81   Cl    2  dz2    Ryd( 4d)     0.00059
    82   Cl    2  dz2    Ryd( 5d)     0.00020
    83   Cl    2  f(0)   Ryd( 4f)     0.00132
    84   Cl    2  f(0)   Ryd( 5f)     0.00015
    85   Cl    2  f(C1)  Ryd( 4f)     0.00152
    86   Cl    2  f(C1)  Ryd( 5f)     0.00015
    87   Cl    2  f(S1)  Ryd( 4f)     0.00128
    88   Cl    2  f(S1)  Ryd( 5f)     0.00013
    89   Cl    2  f(C2)  Ryd( 4f)     0.00136
    90   Cl    2  f(C2)  Ryd( 5f)     0.00014
    91   Cl    2  f(S2)  Ryd( 4f)     0.00121
    92   Cl    2  f(S2)  Ryd( 5f)     0.00014
    93   Cl    2  f(C3)  Ryd( 4f)     0.00167
    94   Cl    2  f(C3)  Ryd( 5f)     0.00014
    95   Cl    2  f(S3)  Ryd( 4f)     0.00132
    96   Cl    2  f(S3)  Ryd( 5f)     0.00015

    97   Br    3  S      Cor( 1S)     2.00000
    98   Br    3  S      Cor( 2S)     2.00000
    99   Br    3  S      Cor( 3S)     1.99953
   100   Br    3  S      Val( 4S)     1.93817
   101   Br    3  S      Ryd( 5S)     0.00140
   102   Br    3  S      Ryd( 6S)     0.00050
   103   Br    3  S      Ryd( 7S)     0.00021
   104   Br    3  px     Cor( 2p)     2.00000
   105   Br    3  px     Cor( 3p)     1.99996
   106   Br    3  px     Val( 4p)     1.94080
   107   Br    3  px     Ryd( 5p)     0.01026
   108   Br    3  px     Ryd( 6p)     0.00078
   109   Br    3  px     Ryd( 7p)     0.00012
   110   Br    3  py     Cor( 2p)     2.00000
   111   Br    3  py     Cor( 3p)     1.99983
   112   Br    3  py     Val( 4p)     1.72785
   113   Br    3  py     Ryd( 5p)     0.00854
   114   Br    3  py     Ryd( 6p)     0.00072
   115   Br    3  py     Ryd( 7p)     0.00013
   116   Br    3  pz     Cor( 2p)     2.00000
   117   Br    3  pz     Cor( 3p)     1.99997
   118   Br    3  pz     Val( 4p)     1.95413
   119   Br    3  pz     Ryd( 5p)     0.01039
   120   Br    3  pz     Ryd( 6p)     0.00078
   121   Br    3  pz     Ryd( 7p)     0.00010
   122   Br    3  dxy    Cor( 3d)     1.99763
   123   Br    3  dxy    Ryd( 4d)     0.01845
   124   Br    3  dxy    Ryd( 5d)     0.00131
   125   Br    3  dxy    Ryd( 6d)     0.00022
   126   Br    3  dxz    Cor( 3d)     1.99768
   127   Br    3  dxz    Ryd( 4d)     0.01830
   128   Br    3  dxz    Ryd( 5d)     0.00167
   129   Br    3  dxz    Ryd( 6d)     0.00025
   130   Br    3  dyz    Cor( 3d)     1.99765
   131   Br    3  dyz    Ryd( 4d)     0.01841
   132   Br    3  dyz    Ryd( 5d)     0.00133
   133   Br    3  dyz    Ryd( 6d)     0.00022
   134   Br    3  dx2y2  Cor( 3d)     1.99758
   135   Br    3  dx2y2  Ryd( 4d)     0.01886
   136   Br    3  dx2y2  Ryd( 5d)     0.00148
   137   Br    3  dx2y2  Ryd( 6d)     0.00025
   138   Br    3  dz2    Cor( 3d)     1.99764
   139   Br    3  dz2    Ryd( 4d)     0.01855
   140   Br    3  dz2    Ryd( 5d)     0.00164
   141   Br    3  dz2    Ryd( 6d)     0.00020
   142   Br    3  f(0)   Ryd( 4f)     0.00170
   143   Br    3  f(0)   Ryd( 5f)     0.00025
   144   Br    3  f(C1)  Ryd( 4f)     0.00173
   145   Br    3  f(C1)  Ryd( 5f)     0.00024
   146   Br    3  f(S1)  Ryd( 4f)     0.00179
   147   Br    3  f(S1)  Ryd( 5f)     0.00028
   148   Br    3  f(C2)  Ryd( 4f)     0.00169
   149   Br    3  f(C2)  Ryd( 5f)     0.00025
   150   Br    3  f(S2)  Ryd( 4f)     0.00171
   151   Br    3  f(S2)  Ryd( 5f)     0.00025
   152   Br    3  f(C3)  Ryd( 4f)     0.00171
   153   Br    3  f(C3)  Ryd( 5f)     0.00027
   154   Br    3  f(S3)  Ryd( 4f)     0.00175
   155   Br    3  f(S3)  Ryd( 5f)     0.00028

   156    H    4  S      Val( 1S)     0.58676
   157    H    4  S      Ryd( 2S)     0.00569
   158    H    4  S      Ryd( 3S)     0.00082
   159    H    4  S      Ryd( 4S)     0.00019
   160    H    4  px     Ryd( 2p)     0.00473
   161    H    4  px     Ryd( 3p)     0.00050
   162    H    4  px     Ryd( 4p)     0.00012
   163    H    4  py     Ryd( 2p)     0.00486
   164    H    4  py     Ryd( 3p)     0.00149
   165    H    4  py     Ryd( 4p)     0.00021
   166    H    4  pz     Ryd( 2p)     0.00608
   167    H    4  pz     Ryd( 3p)     0.00038
   168    H    4  pz     Ryd( 4p)     0.00028
   169    H    4  dxy    Ryd( 3d)     0.00031
   170    H    4  dxy    Ryd( 4d)     0.00010
   171    H    4  dxz    Ryd( 3d)     0.00026
   172    H    4  dxz    Ryd( 4d)     0.00007
   173    H    4  dyz    Ryd( 3d)     0.00040
   174    H    4  dyz    Ryd( 4d)     0.00009
   175    H    4  dx2y2  Ryd( 3d)     0.00027
   176    H    4  dx2y2  Ryd( 4d)     0.00016
   177    H    4  dz2    Ryd( 3d)     0.00026
   178    H    4  dz2    Ryd( 4d)     0.00012

 WARNING:  5 low occupancy (<1.9990e) core orbitals found on Br    3


 Summary of Natural Population Analysis:                  
                                                          
                                       Natural Population 
                Natural  -----------------------------------------------
    Atom  No    Charge         Core      Valence    Rydberg      Total
 -----------------------------------------------------------------------
      O    1   -0.81715      1.99981     6.70382    0.11352     8.81715
     Cl    2    0.12871      9.99976     6.71956    0.15197    16.87129
     Br    3   -0.69740     27.98747     7.56095    0.14898    35.69740
      H    4    0.38583      0.00000     0.58676    0.02740     0.61417
 =======================================================================
   * Total *   -1.00000     39.98704    21.57108    0.44188    62.00000

                                 Natural Population      
 --------------------------------------------------------
   Core                      39.98704 ( 99.9676% of  40)
   Valence                   21.57108 ( 98.0504% of  22)
   Natural Minimal Basis     61.55812 ( 99.2873% of  62)
   Natural Rydberg Basis      0.44188 (  0.7127% of  62)
 --------------------------------------------------------

    Atom  No          Natural Electron Configuration
 ----------------------------------------------------------------------------
      O    1      [core]2S( 1.84)2p( 4.87)3S( 0.01)3p( 0.04)3d( 0.04)
     Cl    2      [core]3S( 1.88)3p( 4.84)4S( 0.01)3d( 0.10)4p( 0.03)4f( 0.01)
     Br    3      [core]4S( 1.94)4p( 5.62)4d( 0.09)5p( 0.03)4f( 0.01)5d( 0.01)
      H    4            1S( 0.59)2S( 0.01)2p( 0.02)


 NATURAL BOND ORBITAL ANALYSIS:
 Warning:  a bond orbital has occupanc of -0.00014

                       Occupancies       Lewis Structure    Low   High
           Occ.    -------------------  -----------------   occ   occ
  Cycle   Thresh.   Lewis   Non-Lewis     CR  BD  3C  LP    (L)   (NL)   Dev
 =============================================================================
   1(1)    1.90    61.24034   0.75966     20   2   0   9     1      1    0.38
 Warning:  a bond orbital has occupanc of -0.00014
   2(2)    1.90    61.22442   0.77558     20   2   0   9     1      1    0.40
 Warning:  a bond orbital has occupanc of -0.00014
   3(3)    1.90    61.24034   0.75966     20   2   0   9     1      1    0.38
 Warning:  a bond orbital has occupanc of -0.00014
   4(1)    1.80    61.24034   0.75966     20   2   0   9     1      1    0.38
 Warning:  a bond orbital has occupanc of -0.00014
   5(2)    1.80    61.22442   0.77558     20   2   0   9     1      1    0.40
 Warning:  a bond orbital has occupanc of -0.00014
   6(3)    1.80    61.24034   0.75966     20   2   0   9     1      1    0.38
 Warning:  a bond orbital has occupanc of -0.00014
   7(1)    1.70    61.24034   0.75966     20   2   0   9     1      1    0.38
 Warning:  a bond orbital has occupanc of -0.00014
   8(2)    1.70    61.22442   0.77558     20   2   0   9     1      1    0.40
 Warning:  a bond orbital has occupanc of -0.00014
   9(3)    1.70    61.24034   0.75966     20   2   0   9     1      1    0.38
 Warning:  a bond orbital has occupanc of -0.00014
  10(1)    1.60    60.96020   1.03980     20   1   0  10     0      1    0.40
 Warning:  a bond orbital has occupanc of -0.00014
  11(2)    1.60    60.96020   1.03980     20   1   0  10     0      1    0.40
 Warning:  a bond orbital has occupanc of -0.00014
  12(1)    1.50    60.96020   1.03980     20   1   0  10     0      1    0.40
 Warning:  a bond orbital has occupanc of -0.00014
  13(2)    1.50    60.96020   1.03980     20   1   0  10     0      1    0.40
 Warning:  a bond orbital has occupanc of -0.00014
  14(1)    1.90    61.24034   0.75966     20   2   0   9     1      1    0.38
 -----------------------------------------------------------------------------

 Structure accepted: RESONANCE keyword permits strongly delocalized structure

 WARNING:  5 low occupancy (<1.9990e) core orbitals found on Br    3

 --------------------------------------------------------
   Core                     39.98703 ( 99.968% of  40)
   Valence Lewis            21.25330 ( 96.606% of  22)
  ==================       ============================
   Total Lewis              61.24034 ( 98.775% of  62)
  -----------------------------------------------------
   Valence non-Lewis         0.36281 (  0.585% of  62)
   Rydberg non-Lewis         0.39685 (  0.640% of  62)
  ==================       ============================
   Total non-Lewis           0.75966 (  1.225% of  62)
 --------------------------------------------------------


       (Occupancy)   Bond orbital/ Coefficients/ Hybrids
 ---------------------------------------------------------------------------------
     1. (1.93724) BD ( 1) O   1 -Cl   2  
                ( 57.56%)   0.7587* O   1 s( 10.36%)p 8.60( 89.13%)d 0.05(  0.49%)
                                                  f 0.00(  0.02%)
                                            0.0003  0.3167 -0.0555  0.0168 -0.0007
                                            0.9413 -0.0425 -0.0108 -0.0162 -0.0498
                                           -0.0230 -0.0039  0.0020  0.0000  0.0000
                                            0.0000  0.0000 -0.0154 -0.0017  0.0012
                                            0.0000  0.0000  0.0000  0.0000  0.0000
                                            0.0000  0.0543  0.0038  0.0020 -0.0409
                                           -0.0035  0.0001  0.0000  0.0000 -0.0107
                                            0.0009  0.0000  0.0000  0.0000  0.0000
                                            0.0000  0.0000  0.0078  0.0009 -0.0009
                                            0.0012
                ( 42.44%)   0.6514*Cl   2 s(  9.22%)p 9.71( 89.56%)d 0.12(  1.10%)
                                                  f 0.01(  0.12%)
                                           -0.0000  0.0006  0.2977 -0.0587 -0.0103
                                           -0.0027 -0.0004 -0.9439  0.0655  0.0137
                                           -0.0035 -0.0000 -0.0116 -0.0016  0.0032
                                           -0.0016  0.0000  0.0000  0.0000  0.0000
                                            0.0000  0.0133 -0.0003  0.0001  0.0000
                                            0.0000  0.0000  0.0000  0.0000  0.0000
                                            0.0870 -0.0124 -0.0017 -0.0552  0.0078
                                            0.0021  0.0000  0.0000  0.0219 -0.0029
                                            0.0006 -0.0001  0.0000  0.0000  0.0000
                                            0.0000 -0.0268  0.0028 -0.0022  0.0004
     2. (1.95321) BD ( 1) O   1 - H   4  
                ( 82.90%)   0.9105* O   1 s( 20.81%)p 3.79( 78.91%)d 0.01(  0.28%)
                                                  f 0.00(  0.01%)
                                           -0.0002 -0.4561 -0.0010 -0.0075 -0.0024
                                            0.1975 -0.0122 -0.0023 -0.0060  0.8659
                                            0.0092 -0.0020 -0.0041  0.0000  0.0000
                                            0.0000  0.0000  0.0117  0.0030  0.0006
                                            0.0000  0.0000  0.0000  0.0000  0.0000
                                            0.0000  0.0448  0.0057 -0.0012  0.0241
                                            0.0014 -0.0043  0.0000  0.0000 -0.0016
                                           -0.0004 -0.0087  0.0011  0.0000  0.0000
                                            0.0000  0.0000 -0.0021 -0.0008  0.0013
                                            0.0003
                ( 17.10%)   0.4135* H   4 s( 99.75%)p 0.00(  0.22%)d 0.00(  0.03%)
                                           -0.9982  0.0222 -0.0243  0.0010 -0.0080
                                           -0.0153  0.0022  0.0112 -0.0398 -0.0138
                                            0.0000  0.0000  0.0000 -0.0026 -0.0044
                                            0.0000  0.0000  0.0000  0.0000  0.0100
                                            0.0086  0.0037  0.0096
     3. (1.99981) CR ( 1) O   1           s(100.00%)p 0.00(  0.00%)
                                            1.0000 -0.0003  0.0000 -0.0000 -0.0000
                                           -0.0002  0.0000  0.0000  0.0000  0.0001
                                            0.0000 -0.0000 -0.0000  0.0000  0.0000
                                            0.0000  0.0000  0.0000  0.0000  0.0000
                                            0.0000  0.0000  0.0000  0.0000  0.0000
                                            0.0000 -0.0000  0.0000 -0.0000  0.0000
                                            0.0000 -0.0000  0.0000  0.0000  0.0000
                                           -0.0000 -0.0000  0.0000  0.0000  0.0000
                                            0.0000  0.0000 -0.0000 -0.0000 -0.0000
                                           -0.0000
     4. (2.00000) CR ( 1)Cl   2           s(100.00%)
                                            1.0000  0.0000 -0.0000 -0.0000 -0.0000
                                           -0.0000 -0.0000 -0.0000  0.0000  0.0000
                                           -0.0000 -0.0000 -0.0000 -0.0000  0.0000
                                           -0.0000  0.0000  0.0000  0.0000  0.0000
                                            0.0000  0.0000 -0.0000 -0.0000  0.0000
                                            0.0000  0.0000  0.0000  0.0000  0.0000
                                            0.0000 -0.0000 -0.0000 -0.0000  0.0000
                                            0.0000  0.0000  0.0000  0.0000 -0.0000
                                            0.0000 -0.0000  0.0000  0.0000  0.0000
                                            0.0000 -0.0000  0.0000 -0.0000  0.0000
     5. (1.99975) CR ( 2)Cl   2           s(100.00%)p 0.00(  0.00%)
                                            0.0000  1.0000 -0.0004  0.0000  0.0000
                                            0.0000  0.0000  0.0005 -0.0000 -0.0000
                                            0.0000 -0.0000  0.0000  0.0000 -0.0000
                                            0.0000  0.0000  0.0000  0.0000  0.0000
                                            0.0000 -0.0000  0.0000  0.0000  0.0000
                                            0.0000  0.0000  0.0000  0.0000  0.0000
                                           -0.0000  0.0000  0.0000  0.0000 -0.0000
                                           -0.0000  0.0000  0.0000 -0.0000  0.0000
                                           -0.0000  0.0000  0.0000  0.0000  0.0000
                                            0.0000  0.0000 -0.0000  0.0000 -0.0000
     6. (1.99995) CR ( 3)Cl   2           s(  0.00%)p 1.00(100.00%)
                                           -0.0000  0.0000  0.0001 -0.0000 -0.0000
                                           -0.0000  1.0000 -0.0004  0.0000  0.0000
                                           -0.0000  0.0000 -0.0000 -0.0000  0.0000
                                           -0.0000  0.0000  0.0000  0.0000  0.0000
                                            0.0000  0.0000 -0.0000 -0.0000  0.0000
                                            0.0000  0.0000  0.0000  0.0000  0.0000
                                            0.0000 -0.0000 -0.0000 -0.0000  0.0000
                                            0.0000  0.0000  0.0000  0.0000 -0.0000
                                            0.0000 -0.0000  0.0000  0.0000  0.0000
                                            0.0000 -0.0000  0.0000 -0.0000  0.0000
     7. (2.00003) CR ( 4)Cl   2           s(  0.00%)p 1.00(100.00%)
                                           -0.0000 -0.0000  0.0000  0.0000  0.0000
                                           -0.0000  0.0000 -0.0000  0.0000  0.0000
                                           -0.0000  1.0000  0.0002  0.0000  0.0000
                                            0.0000  0.0000  0.0000  0.0000  0.0000
                                            0.0000  0.0000  0.0000  0.0000  0.0000
                                            0.0000  0.0000  0.0000  0.0000  0.0000
                                           -0.0000 -0.0000 -0.0000 -0.0000 -0.0000
                                            0.0000  0.0000  0.0000  0.0000  0.0000
                                           -0.0000  0.0000  0.0000  0.0000  0.0000
                                            0.0000 -0.0000  0.0000  0.0000 -0.0000
     8. (2.00003) CR ( 5)Cl   2           s(  0.00%)p 1.00(100.00%)
                                            0.0000  0.0000  0.0000  0.0000  0.0000
                                            0.0000  0.0000  0.0000  0.0000  0.0000
                                            0.0000  0.0000  0.0000  0.0000  0.0000
                                            0.0000  1.0000  0.0002  0.0000  0.0000
                                           -0.0000  0.0000  0.0000  0.0000  0.0000
                                            0.0000  0.0000  0.0000  0.0000  0.0000
                                            0.0000  0.0000  0.0000  0.0000  0.0000
                                            0.0000 -0.0000  0.0000  0.0000  0.0000
                                            0.0000  0.0000  0.0000 -0.0000  0.0000
                                           -0.0000  0.0000  0.0000  0.0000  0.0000
     9. (2.00000) CR ( 1)Br   3           s(100.00%)
                                            1.0000 -0.0000  0.0000  0.0000  0.0000
                                            0.0000 -0.0000  0.0000 -0.0000 -0.0000
                                            0.0000 -0.0000 -0.0000  0.0000 -0.0000
                                           -0.0000  0.0000 -0.0000 -0.0000  0.0000
                                            0.0000  0.0000  0.0000  0.0000  0.0000
                                           -0.0000 -0.0000  0.0000 -0.0000  0.0000
                                            0.0000  0.0000  0.0000  0.0000  0.0000
                                            0.0000  0.0000  0.0000  0.0000 -0.0000
                                            0.0000  0.0000  0.0000 -0.0000  0.0000
                                            0.0000  0.0000  0.0000  0.0000  0.0000
                                           -0.0000  0.0000  0.0000  0.0000  0.0000
                                            0.0000 -0.0000  0.0000 -0.0000
    10. (2.00000) CR ( 2)Br   3           s(100.00%)
                                           -0.0000  1.0000  0.0000  0.0000  0.0000
                                            0.0000 -0.0000 -0.0000 -0.0000  0.0000
                                            0.0000  0.0000 -0.0000  0.0000 -0.0000
                                           -0.0000  0.0000 -0.0000 -0.0000  0.0000
                                            0.0000  0.0000  0.0000  0.0000  0.0000
                                           -0.0000 -0.0000  0.0000 -0.0000  0.0000
                                            0.0000  0.0000  0.0000  0.0000  0.0000
                                            0.0000  0.0000  0.0000  0.0000 -0.0000
                                            0.0000  0.0000  0.0000 -0.0000  0.0000
                                            0.0000  0.0000 -0.0000 -0.0000  0.0000
                                           -0.0000  0.0000  0.0000  0.0000  0.0000
                                           -0.0000 -0.0000  0.0000  0.0000
    11. (1.99953) CR ( 3)Br   3           s(100.00%)p 0.00(  0.00%)
                                            0.0000  0.0000  1.0000 -0.0004 -0.0000
                                           -0.0000  0.0000 -0.0000  0.0000  0.0000
                                           -0.0000  0.0000  0.0000 -0.0000  0.0000
                                            0.0002 -0.0000  0.0000  0.0000  0.0000
                                            0.0000  0.0000  0.0000  0.0000  0.0000
                                            0.0000  0.0000 -0.0000  0.0000  0.0000
                                            0.0000  0.0000  0.0000  0.0000  0.0000
                                            0.0000  0.0000 -0.0000 -0.0000  0.0000
                                           -0.0000 -0.0000 -0.0000  0.0000 -0.0000
                                            0.0000  0.0000 -0.0000 -0.0000 -0.0000
                                            0.0000  0.0000  0.0000  0.0000  0.0000
                                           -0.0000  0.0000 -0.0000  0.0000
    12. (2.00000) CR ( 4)Br   3           s(  0.00%)p 1.00(100.00%)
                                            0.0000 -0.0000 -0.0000 -0.0000 -0.0000
                                           -0.0000  0.0000  1.0000  0.0000  0.0000
                                            0.0000  0.0000 -0.0000  0.0000 -0.0000
                                           -0.0000 -0.0000 -0.0000  0.0000  0.0000
                                            0.0000  0.0000  0.0000  0.0000  0.0000
                                           -0.0000  0.0000 -0.0000 -0.0000  0.0000
                                            0.0000  0.0000  0.0000  0.0000  0.0000
                                            0.0000  0.0000 -0.0000  0.0000  0.0000
                                           -0.0000 -0.0000  0.0000 -0.0000  0.0000
                                            0.0000  0.0000 -0.0000 -0.0000  0.0000
                                            0.0000  0.0000  0.0000  0.0000  0.0000
                                           -0.0000 -0.0000  0.0000  0.0000
    13. (1.99996) CR ( 5)Br   3           s(  0.00%)p 1.00(100.00%)
                                           -0.0000 -0.0000  0.0000  0.0001  0.0000
                                            0.0000 -0.0000  0.0000  1.0000 -0.0004
                                           -0.0000 -0.0000  0.0000 -0.0000  0.0000
                                            0.0001  0.0000  0.0000 -0.0000  0.0000
                                            0.0000  0.0000  0.0000  0.0000  0.0000
                                            0.0000 -0.0000  0.0000  0.0000  0.0000
                                            0.0000  0.0000  0.0000  0.0000  0.0000
                                            0.0000  0.0000  0.0000 -0.0000 -0.0000
                                            0.0000  0.0000  0.0000  0.0000 -0.0000
                                            0.0000  0.0000  0.0000  0.0000 -0.0000
                                           -0.0000  0.0000  0.0000  0.0000  0.0000
                                            0.0000  0.0000 -0.0000 -0.0000
    14. (2.00000) CR ( 6)Br   3           s(  0.00%)p 1.00(100.00%)
                                            0.0000  0.0000 -0.0000 -0.0000 -0.0000
                                           -0.0000  0.0000  0.0000 -0.0000 -0.0000
                                           -0.0000 -0.0000  0.0000  1.0000  0.0000
                                            0.0000 -0.0000  0.0000  0.0000  0.0000
                                            0.0000  0.0000  0.0000  0.0000  0.0000
                                            0.0000 -0.0000  0.0000  0.0000  0.0000
                                            0.0000  0.0000  0.0000  0.0000  0.0000
                                            0.0000  0.0000 -0.0000 -0.0000 -0.0000
                                            0.0000 -0.0000 -0.0000  0.0000 -0.0000
                                            0.0000  0.0000  0.0000  0.0000 -0.0000
                                            0.0000  0.0000  0.0000  0.0000  0.0000
                                            0.0000  0.0000 -0.0000 -0.0000
    15. (1.99983) CR ( 7)Br   3           s(  0.00%)p 1.00(100.00%)
                                           -0.0000 -0.0000  0.0000  0.0002  0.0000
                                            0.0000 -0.0000 -0.0000  0.0000  0.0001
                                            0.0000  0.0000 -0.0000  0.0000  1.0000
                                           -0.0001  0.0000 -0.0000 -0.0000  0.0000
                                            0.0000  0.0000  0.0000  0.0000  0.0000
                                           -0.0000  0.0000  0.0000 -0.0000  0.0000
                                            0.0000  0.0000  0.0000  0.0000  0.0000
                                            0.0000  0.0000  0.0000  0.0000  0.0000
                                           -0.0000  0.0000  0.0000 -0.0000  0.0000
                                            0.0000  0.0000 -0.0000 -0.0000  0.0000
                                           -0.0000  0.0000  0.0000  0.0000  0.0000
                                           -0.0000 -0.0000  0.0000  0.0000
    16. (2.00000) CR ( 8)Br   3           s(  0.00%)p 1.00(100.00%)
                                            0.0000  0.0000  0.0000  0.0000  0.0000
                                            0.0000  0.0000  0.0000  0.0000  0.0000
                                            0.0000  0.0000  0.0000  0.0000  0.0000
                                            0.0000  0.0000  0.0000  0.0000  1.0000
                                            0.0000  0.0000  0.0000  0.0000 -0.0000
                                            0.0000  0.0000  0.0000  0.0000 -0.0000
                                            0.0000  0.0000 -0.0000 -0.0000  0.0000
                                           -0.0000 -0.0000  0.0000  0.0000  0.0000
                                            0.0000  0.0000  0.0000  0.0000  0.0000
                                           -0.0000 -0.0000  0.0000  0.0000  0.0000
                                            0.0000 -0.0000 -0.0000  0.0000  0.0000
                                            0.0000  0.0000  0.0000  0.0000
    17. (1.99997) CR ( 9)Br   3           s(  0.00%)p 1.00(100.00%)
                                            0.0000  0.0000  0.0000  0.0000  0.0000
                                            0.0000  0.0000  0.0000  0.0000  0.0000
                                            0.0000  0.0000  0.0000  0.0000  0.0000
                                            0.0000  0.0000  0.0000  0.0000  0.0000
                                            1.0000 -0.0004 -0.0000 -0.0000  0.0000
                                            0.0000  0.0000  0.0000  0.0000  0.0000
                                           -0.0000 -0.0000  0.0000  0.0000 -0.0000
                                            0.0000  0.0000  0.0000  0.0000  0.0000
                                            0.0000  0.0000  0.0000  0.0000  0.0000
                                            0.0000  0.0000  0.0000  0.0000  0.0000
                                            0.0000  0.0000  0.0000 -0.0000 -0.0000
                                            0.0000  0.0000  0.0000  0.0000
    18. (1.99763) CR (10)Br   3           s(  0.00%)p 0.00(  0.00%)d 1.00(100.00%)
                                           -0.0000 -0.0000  0.0000  0.0000  0.0000
                                            0.0000 -0.0000 -0.0000  0.0000  0.0000
                                            0.0000  0.0000 -0.0000  0.0000 -0.0000
                                           -0.0000  0.0000 -0.0000 -0.0000  0.0000
                                            0.0000  0.0000  0.0000  0.0000  0.0000
                                            1.0000  0.0000 -0.0000 -0.0000  0.0000
                                            0.0000  0.0000  0.0000  0.0000  0.0000
                                            0.0000  0.0000  0.0000  0.0000  0.0000
                                           -0.0000  0.0000  0.0000 -0.0000  0.0000
                                            0.0000  0.0000 -0.0000 -0.0000  0.0000
                                           -0.0000  0.0000  0.0000  0.0000  0.0000
                                           -0.0000 -0.0000  0.0000  0.0000
    19. (1.99768) CR (11)Br   3           s(  0.00%)p 0.00(  0.00%)d 1.00(100.00%)
                                            0.0000  0.0000  0.0000  0.0000  0.0000
                                            0.0000  0.0000  0.0000  0.0000  0.0000
                                            0.0000  0.0000  0.0000  0.0000  0.0000
                                            0.0000  0.0000  0.0000  0.0000 -0.0000
                                            0.0000  0.0000  0.0000  0.0000 -0.0000
                                            0.0000  0.0000  0.0000  0.0000  1.0000
                                            0.0000  0.0000 -0.0000 -0.0000  0.0000
                                           -0.0000 -0.0000  0.0000  0.0000  0.0000
                                            0.0000  0.0000  0.0000  0.0000  0.0000
                                           -0.0000 -0.0000  0.0000  0.0000  0.0000
                                            0.0000 -0.0000 -0.0000  0.0000  0.0000
                                            0.0000  0.0000  0.0000  0.0000
    20. (1.99765) CR (12)Br   3           s(  0.00%)p 0.00(  0.00%)d 1.00(100.00%)
                                            0.0000  0.0000  0.0000  0.0000  0.0000
                                            0.0000  0.0000  0.0000  0.0000  0.0000
                                            0.0000  0.0000  0.0000  0.0000  0.0000
                                            0.0000  0.0000  0.0000  0.0000 -0.0000
                                            0.0000  0.0000  0.0000  0.0000 -0.0000
                                            0.0000  0.0000  0.0000  0.0000 -0.0000
                                            0.0000  0.0000 -0.0000  1.0000  0.0000
                                           -0.0000 -0.0000  0.0000  0.0000  0.0000
                                            0.0000  0.0000  0.0000  0.0000  0.0000
                                           -0.0000 -0.0000  0.0000  0.0000  0.0000
                                            0.0000 -0.0000 -0.0000  0.0000  0.0000
                                            0.0000  0.0000  0.0000  0.0000
    21. (1.99758) CR (13)Br   3           s(  0.00%)p 0.00(  0.00%)d 1.00(100.00%)
                                            0.0000  0.0000 -0.0000 -0.0001 -0.0000
                                           -0.0000  0.0000 -0.0000  0.0000  0.0000
                                            0.0000  0.0000 -0.0000 -0.0000  0.0000
                                            0.0000 -0.0000  0.0000  0.0000  0.0000
                                            0.0000  0.0000  0.0000  0.0000  0.0000
                                            0.0000  0.0000 -0.0000 -0.0000  0.0000
                                            0.0000  0.0000  0.0000  0.0000  0.0000
                                            0.0000  0.0000  1.0000 -0.0000  0.0000
                                           -0.0000 -0.0000 -0.0000  0.0000 -0.0000
                                            0.0000  0.0000 -0.0000 -0.0000 -0.0000
                                            0.0000  0.0000  0.0000  0.0000  0.0000
                                           -0.0000 -0.0000  0.0000  0.0000
    22. (1.99764) CR (14)Br   3           s(  0.00%)p 0.00(  0.00%)d 1.00(100.00%)
                                            0.0000  0.0000 -0.0000 -0.0000 -0.0000
                                           -0.0000  0.0000 -0.0000  0.0000  0.0000
                                           -0.0000  0.0000  0.0000 -0.0000  0.0000
                                            0.0000 -0.0000  0.0000  0.0000  0.0000
                                            0.0000  0.0000  0.0000  0.0000  0.0000
                                            0.0000  0.0000 -0.0000  0.0000  0.0000
                                            0.0000  0.0000  0.0000  0.0000  0.0000
                                            0.0000  0.0000 -0.0000 -0.0000  0.0000
                                           -0.0000  1.0000 -0.0000  0.0000 -0.0000
                                            0.0000  0.0000 -0.0000 -0.0000 -0.0000
                                            0.0000  0.0000  0.0000  0.0000  0.0000
                                           -0.0000  0.0000 -0.0000  0.0000
    23. (1.96631) LP ( 1) O   1           s( 69.11%)p 0.45( 30.83%)d 0.00(  0.06%)
                                                  f 0.00(  0.00%)
                                            0.0002  0.8312  0.0098 -0.0077 -0.0014
                                           -0.2525  0.0013 -0.0041 -0.0009  0.4944
                                            0.0069  0.0048  0.0013  0.0000  0.0000
                                            0.0000  0.0000  0.0204  0.0026 -0.0023
                                            0.0000  0.0000  0.0000  0.0000  0.0000
                                            0.0000  0.0086  0.0002 -0.0030  0.0066
                                            0.0003  0.0011  0.0000  0.0000 -0.0003
                                            0.0005 -0.0016 -0.0001  0.0000  0.0000
                                            0.0000  0.0000  0.0034 -0.0022  0.0044
                                           -0.0011
    24. (1.94903) LP ( 2) O   1           s(  0.00%)p 1.00( 99.84%)d 0.00(  0.15%)
                                                  f 0.00(  0.01%)
                                            0.0000  0.0000  0.0000  0.0000  0.0000
                                            0.0000  0.0000  0.0000  0.0000  0.0000
                                            0.0000  0.0000  0.0000  0.9990  0.0160
                                            0.0044  0.0108  0.0000  0.0000  0.0000
                                            0.0321  0.0046 -0.0019 -0.0175  0.0039
                                            0.0098  0.0000  0.0000  0.0000  0.0000
                                            0.0000  0.0000 -0.0088  0.0002  0.0000
                                            0.0000  0.0000  0.0000  0.0071 -0.0023
                                            0.0002  0.0011  0.0000  0.0000  0.0000
                                            0.0000
    25. (1.97360) LP ( 1)Cl   2           s( 90.96%)p 0.10(  9.01%)d 0.00(  0.02%)
                                                  f 0.00(  0.00%)
                                            0.0000  0.0003  0.9537  0.0075  0.0013
                                            0.0004  0.0001  0.2983 -0.0064 -0.0032
                                            0.0014  0.0000 -0.0325  0.0009 -0.0000
                                           -0.0005  0.0000  0.0000  0.0000  0.0000
                                            0.0000 -0.0003 -0.0003 -0.0002  0.0000
                                            0.0000  0.0000  0.0000  0.0000  0.0000
                                           -0.0133  0.0002  0.0004  0.0082  0.0005
                                            0.0001  0.0000  0.0000 -0.0024 -0.0003
                                            0.0001 -0.0000  0.0000  0.0000  0.0000
                                            0.0000  0.0037 -0.0001 -0.0003  0.0001
    26. (1.95528) LP ( 2)Cl   2           s(  0.00%)p 1.00( 99.94%)d 0.00(  0.06%)
                                                  f 0.00(  0.01%)
                                            0.0000  0.0000  0.0000  0.0000  0.0000
                                            0.0000  0.0000  0.0000  0.0000  0.0000
                                            0.0000  0.0000  0.0000  0.0000  0.0000
                                            0.0000 -0.0002  0.9995  0.0153  0.0051
                                           -0.0022  0.0000  0.0000  0.0000  0.0108
                                            0.0197  0.0076  0.0024  0.0019  0.0002
                                            0.0000  0.0000  0.0000  0.0000  0.0000
                                            0.0000 -0.0055  0.0015  0.0000  0.0000
                                            0.0000  0.0000  0.0064 -0.0012  0.0007
                                           -0.0005  0.0000  0.0000  0.0000  0.0000
    27. (1.95371) LP ( 3)Cl   2           s(  0.12%)p99.99( 99.82%)d 0.36(  0.04%)
                                                  f 0.07(  0.01%)
                                            0.0000 -0.0000  0.0346  0.0046  0.0038
                                           -0.0025  0.0000 -0.0021  0.0004  0.0001
                                           -0.0005 -0.0002  0.9990  0.0139  0.0015
                                            0.0004  0.0000  0.0000  0.0000  0.0000
                                            0.0000  0.0033  0.0178  0.0074  0.0000
                                            0.0000  0.0000  0.0000  0.0000  0.0000
                                           -0.0056 -0.0039 -0.0024 -0.0001 -0.0019
                                            0.0001  0.0000  0.0000  0.0001  0.0002
                                           -0.0025  0.0005  0.0000  0.0000  0.0000
                                            0.0000 -0.0011  0.0003  0.0084 -0.0018
    28. (1.97602) LP ( 1)Br   3           s( 87.27%)p 0.15( 12.73%)d 0.00(  0.00%)
                                                  f 0.00(  0.00%)
                                           -0.0000 -0.0000  0.0005  0.9342  0.0006
                                            0.0018 -0.0006  0.0000 -0.0001 -0.0909
                                            0.0004 -0.0002 -0.0001  0.0000 -0.0003
                                           -0.3450  0.0038 -0.0001 -0.0003 -0.0000
                                           -0.0000 -0.0000 -0.0000 -0.0000 -0.0000
                                           -0.0000 -0.0017  0.0002 -0.0003 -0.0000
                                           -0.0000 -0.0000 -0.0000 -0.0000 -0.0000
                                           -0.0000 -0.0000  0.0001  0.0033 -0.0002
                                            0.0005  0.0000  0.0024 -0.0003  0.0006
                                           -0.0000 -0.0000  0.0001  0.0000  0.0003
                                           -0.0001 -0.0000 -0.0000 -0.0000 -0.0000
                                            0.0003 -0.0001  0.0003 -0.0001
    29. (1.95449) LP ( 2)Br   3           s(  0.00%)p 1.00( 99.98%)d 0.00(  0.01%)
                                                  f 0.00(  0.00%)
                                            0.0000  0.0000  0.0000  0.0000  0.0000
                                            0.0000  0.0000  0.0000  0.0000  0.0000
                                            0.0000  0.0000  0.0000  0.0000  0.0000
                                            0.0000  0.0000  0.0000  0.0000 -0.0000
                                            0.0004  0.9999  0.0050  0.0024 -0.0005
                                            0.0000  0.0000  0.0000  0.0000 -0.0000
                                            0.0018  0.0002 -0.0013 -0.0000  0.0101
                                           -0.0007 -0.0037  0.0000  0.0000  0.0000
                                            0.0000  0.0000  0.0000  0.0000  0.0000
                                           -0.0033 -0.0013  0.0000  0.0000  0.0000
                                            0.0000 -0.0037 -0.0014  0.0019  0.0007
                                            0.0000  0.0000  0.0000  0.0000
    30. (1.95416) LP ( 3)Br   3           s(  0.01%)p 1.00( 99.98%)d 0.00(  0.01%)
                                                  f 0.00(  0.00%)
                                           -0.0000 -0.0000  0.0000  0.0075 -0.0005
                                           -0.0007  0.0007 -0.0000  0.0004  0.9717
                                            0.0048  0.0022 -0.0007  0.0000 -0.0001
                                           -0.2357 -0.0012 -0.0008  0.0002  0.0000
                                            0.0000  0.0000  0.0000  0.0000  0.0000
                                           -0.0000  0.0103 -0.0005 -0.0034  0.0000
                                            0.0000  0.0000  0.0000  0.0000  0.0000
                                            0.0000  0.0000 -0.0000  0.0036  0.0005
                                           -0.0027  0.0000  0.0003 -0.0003  0.0003
                                            0.0000  0.0000 -0.0013 -0.0005  0.0002
                                            0.0001  0.0000  0.0000  0.0000  0.0000
                                           -0.0040 -0.0014  0.0030  0.0010
    31. (1.68024) LP ( 4)Br   3           s( 12.72%)p 6.85( 87.11%)d 0.01(  0.15%)
                                                  f 0.00(  0.02%)
                                            0.0000 -0.0000 -0.0000  0.3566 -0.0019
                                           -0.0055  0.0019 -0.0000 -0.0000  0.2173
                                           -0.0016 -0.0007 -0.0001  0.0000 -0.0000
                                            0.9076 -0.0106 -0.0059  0.0015  0.0000
                                            0.0000  0.0000  0.0000  0.0000  0.0000
                                            0.0000  0.0148 -0.0026  0.0004  0.0000
                                            0.0000  0.0000  0.0000  0.0000  0.0000
                                            0.0000  0.0000  0.0000 -0.0293  0.0046
                                            0.0006 -0.0000 -0.0202  0.0036 -0.0009
                                            0.0000  0.0000 -0.0019 -0.0006 -0.0077
                                           -0.0019  0.0000  0.0000  0.0000  0.0000
                                           -0.0064 -0.0014 -0.0074 -0.0013
    32. (0.02200) RY*( 1) O   1           s(  0.00%)p 1.00( 99.12%)d 0.01(  0.83%)
                                                  f 0.00(  0.04%)
                                            0.0000  0.0000  0.0000  0.0000  0.0000
                                            0.0000  0.0000  0.0000  0.0000  0.0000
                                            0.0000  0.0000  0.0000 -0.0193  0.9949
                                           -0.0304 -0.0129  0.0000  0.0000  0.0000
                                            0.0694  0.0262  0.0063 -0.0515 -0.0009
                                            0.0114  0.0000  0.0000  0.0000  0.0000
                                            0.0000  0.0000 -0.0126  0.0098  0.0000
                                            0.0000  0.0000  0.0000  0.0102 -0.0093
                                           -0.0013  0.0010  0.0000  0.0000  0.0000
                                            0.0000
    33. (0.01795) RY*( 2) O   1           s( 25.93%)p 2.79( 72.36%)d 0.06(  1.58%)
                                                  f 0.00(  0.13%)
                                           -0.0000  0.0068  0.5086  0.0167 -0.0157
                                            0.0345 -0.3140 -0.0143  0.0268 -0.0193
                                            0.7867 -0.0078 -0.0595  0.0000  0.0000
                                            0.0000  0.0000  0.1161  0.0335  0.0148
                                            0.0000  0.0000  0.0000  0.0000  0.0000
                                            0.0000  0.0043  0.0061  0.0059  0.0297
                                            0.0022 -0.0059  0.0000  0.0000 -0.0033
                                            0.0000  0.0012  0.0037  0.0000  0.0000
                                            0.0000  0.0000  0.0250 -0.0103  0.0204
                                           -0.0096
    34. (0.00861) RY*( 3) O   1           s( 28.89%)p 0.90( 25.88%)d 1.54( 44.53%)
                                                  f 0.02(  0.70%)
                                           -0.0000  0.0080  0.5249  0.1142  0.0169
                                           -0.0080 -0.3017  0.0069  0.0843 -0.0014
                                           -0.3904  0.0300 -0.0846 -0.0000 -0.0000
                                           -0.0000 -0.0000 -0.5881 -0.0136 -0.0152
                                           -0.0000 -0.0000 -0.0000 -0.0000 -0.0000
                                           -0.0000  0.2188 -0.0112  0.0191  0.2245
                                           -0.0147  0.0001 -0.0000 -0.0000 -0.0175
                                            0.0101  0.0086 -0.0054 -0.0000 -0.0000
                                           -0.0000 -0.0000  0.0034 -0.0029 -0.0754
                                            0.0286
    35. (0.00699) RY*( 4) O   1           s(  0.00%)p 1.00(  0.33%)d99.99( 97.83%)
                                                  f 5.66(  1.85%)
                                            0.0000  0.0000  0.0000  0.0000  0.0000
                                            0.0000  0.0000  0.0000  0.0000  0.0000
                                            0.0000  0.0000  0.0000 -0.0235 -0.0482
                                           -0.0114 -0.0160  0.0000  0.0000  0.0000
                                            0.9201 -0.0385  0.0128  0.3602 -0.0157
                                            0.0107  0.0000  0.0000  0.0000  0.0000
                                            0.0000  0.0000 -0.0441  0.0170  0.0000
                                            0.0000  0.0000  0.0000  0.1142 -0.0541
                                           -0.0134  0.0093  0.0000  0.0000  0.0000
[...]
                                           -0.0267  0.0785  0.0084
   162. (0.00031) RY*( 8) H   4           s( 26.31%)p 0.92( 24.16%)d 1.88( 49.53%)
                                           -0.0001 -0.0340  0.2721  0.4334 -0.1021
                                            0.1431 -0.2154  0.0505 -0.2327  0.3280
                                           -0.0000 -0.0000 -0.0000 -0.6308 -0.0364
                                           -0.0000 -0.0000 -0.0000 -0.0000  0.1835
                                           -0.1034  0.2266 -0.0213
   163. (0.00029) RY*( 9) H   4           s(  0.00%)p 1.00(  2.45%)d39.86( 97.55%)
                                            0.0000  0.0000  0.0000  0.0000  0.0000
                                            0.0000  0.0000  0.0000  0.0000  0.0000
                                            0.0150 -0.1557 -0.0011  0.0000  0.0000
                                            0.9179 -0.3315 -0.1369  0.0654  0.0000
                                            0.0000  0.0000  0.0000
   164. (0.00030) RY*(10) H   4           s(  0.29%)p12.90(  3.76%)d99.99( 95.95%)
                                            0.0050 -0.0247  0.0450 -0.0159 -0.0400
                                            0.0430 -0.0330  0.0127  0.0375 -0.1774
                                           -0.0000 -0.0000 -0.0000 -0.1613  0.0767
                                           -0.0000 -0.0000 -0.0000 -0.0000  0.5793
                                           -0.0326 -0.7028  0.3116
   165. (0.00025) RY*(11) H   4           s(  0.00%)p 1.00( 69.46%)d 0.44( 30.54%)
                                            0.0000  0.0000  0.0000  0.0000  0.0000
                                            0.0000  0.0000  0.0000  0.0000  0.0000
                                           -0.0301  0.8086  0.1997  0.0000  0.0000
                                            0.2097  0.0277  0.4872  0.1528  0.0000
                                            0.0000  0.0000  0.0000
   166. (0.00023) RY*(12) H   4           s( 10.17%)p 0.77(  7.87%)d 8.06( 81.97%)
                                            0.0077 -0.0135  0.0886  0.3059  0.1133
                                            0.1016  0.2079  0.0060 -0.0709 -0.0851
                                            0.0000  0.0000  0.0000  0.4637  0.0632
                                            0.0000  0.0000  0.0000  0.0000  0.6306
                                            0.1821  0.4119 -0.0157
   167. (0.00021) RY*(13) H   4           s( 13.50%)p 2.40( 32.35%)d 4.01( 54.15%)
                                           -0.0138  0.0650  0.0425  0.3589  0.0157
                                           -0.0641  0.1115  0.0021 -0.0409  0.5523
                                            0.0000  0.0000  0.0000  0.3902  0.2474
                                            0.0000  0.0000  0.0000  0.0000 -0.1021
                                           -0.3477 -0.3865 -0.2174
   168. (0.00014) RY*(14) H   4           s( 61.55%)p 0.51( 31.15%)d 0.12(  7.31%)
                                            0.0011 -0.0421  0.7092 -0.3327 -0.0203
                                           -0.0770 -0.2084  0.0195 -0.4892 -0.1483
                                            0.0000  0.0000  0.0000  0.2220  0.0908
                                            0.0000  0.0000  0.0000  0.0000 -0.0545
                                           -0.0814 -0.0391 -0.0662
   169. (0.00011) RY*(15) H   4           s( 39.34%)p 1.21( 47.78%)d 0.33( 12.88%)
                                            0.0010  0.0036  0.0574  0.6245 -0.0175
                                            0.0870 -0.1795  0.0699  0.0306 -0.6572
                                            0.0000  0.0000  0.0000  0.0799 -0.0093
                                            0.0000  0.0000  0.0000  0.0000 -0.2967
                                           -0.1058 -0.1247 -0.0872
   170. (0.00008) RY*(16) H   4           s(  0.00%)p 1.00(  1.63%)d60.23( 98.37%)
   171. (0.00008) RY*(17) H   4           s(  0.00%)p 1.00( 69.53%)d 0.44( 30.47%)
   172. (0.00008) RY*(18) H   4           s(  1.16%)p13.94( 16.21%)d71.10( 82.63%)
   173. (0.00005) RY*(19) H   4           s(  4.21%)p14.78( 62.27%)d 7.95( 33.51%)
   174. (0.00004) RY*(20) H   4           s(  3.62%)p 3.16( 11.45%)d23.45( 84.93%)
   175. (0.00003) RY*(21) H   4           s(  0.00%)p 1.00(  0.27%)d99.99( 99.73%)
   176. (0.00003) RY*(22) H   4           s(  3.70%)p 1.55(  5.75%)d24.46( 90.55%)
   177. (0.05902) BD*( 1) O   1 -Cl   2  
                ( 42.44%)   0.6514* O   1 s( 10.36%)p 8.60( 89.13%)d 0.05(  0.49%)
                                                  f 0.00(  0.02%)
                                           -0.0003 -0.3167  0.0555 -0.0168  0.0007
                                           -0.9413  0.0425  0.0108  0.0162  0.0498
                                            0.0230  0.0039 -0.0020 -0.0000 -0.0000
                                           -0.0000 -0.0000  0.0154  0.0017 -0.0012
                                           -0.0000 -0.0000 -0.0000 -0.0000 -0.0000
                                           -0.0000 -0.0543 -0.0038 -0.0020  0.0409
                                            0.0035 -0.0001 -0.0000 -0.0000  0.0107
                                           -0.0009 -0.0000 -0.0000 -0.0000 -0.0000
                                           -0.0000 -0.0000 -0.0078 -0.0009  0.0009
                                           -0.0012
                ( 57.56%)  -0.7587*Cl   2 s(  9.22%)p 9.71( 89.56%)d 0.12(  1.10%)
                                                  f 0.01(  0.12%)
                                            0.0000 -0.0006 -0.2977  0.0587  0.0103
                                            0.0027  0.0004  0.9439 -0.0655 -0.0137
                                            0.0035  0.0000  0.0116  0.0016 -0.0032
                                            0.0016 -0.0000 -0.0000 -0.0000 -0.0000
                                           -0.0000 -0.0133  0.0003 -0.0001 -0.0000
                                           -0.0000 -0.0000 -0.0000 -0.0000 -0.0000
                                           -0.0870  0.0124  0.0017  0.0552 -0.0078
                                           -0.0021 -0.0000 -0.0000 -0.0219  0.0029
                                           -0.0006  0.0001 -0.0000 -0.0000 -0.0000
                                           -0.0000  0.0268 -0.0028  0.0022 -0.0004
   178. (0.30379) BD*( 1) O   1 - H   4  
                ( 17.10%)   0.4135* O   1 s( 20.81%)p 3.79( 78.91%)d 0.01(  0.28%)
                                                  f 0.00(  0.01%)
                                            0.0002  0.4561  0.0010  0.0075  0.0024
                                           -0.1975  0.0122  0.0023  0.0060 -0.8659
                                           -0.0092  0.0020  0.0041 -0.0000 -0.0000
                                           -0.0000 -0.0000 -0.0117 -0.0030 -0.0006
                                           -0.0000 -0.0000 -0.0000 -0.0000 -0.0000
                                           -0.0000 -0.0448 -0.0057  0.0012 -0.0241
                                           -0.0014  0.0043 -0.0000 -0.0000  0.0016
                                            0.0004  0.0087 -0.0011 -0.0000 -0.0000
                                           -0.0000 -0.0000  0.0021  0.0008 -0.0013
                                           -0.0003
                ( 82.90%)  -0.9105* H   4 s( 99.75%)p 0.00(  0.22%)d 0.00(  0.03%)
                                            0.9982 -0.0222  0.0243 -0.0010  0.0080
                                            0.0153 -0.0022 -0.0112  0.0398  0.0138
                                           -0.0000 -0.0000 -0.0000  0.0026  0.0044
                                           -0.0000 -0.0000 -0.0000 -0.0000 -0.0100
                                           -0.0086 -0.0037 -0.0096


 NHO Directionality and "Bond Bending" (deviations from line of nuclear centers)

         [Thresholds for printing:  angular deviation  >  1.0 degree]
                                    hybrid p-character > 25.0%
                                    orbital occupancy  >  0.10e

                                Line of Centers        Hybrid 1              Hybrid 2
                                ---------------  -------------------   ------------------
                NBO               Theta   Phi    Theta   Phi    Dev    Theta   Phi    Dev
 ========================================================================================
     1. BD (   1) O   1 -Cl   2    90.0    0.0    90.0  355.1   4.9      --     --    --
     2. BD (   1) O   1 - H   4    90.0  256.6    90.0  258.5   1.9      --     --    --
    23. LP (   1) O   1             --     --     90.0  116.8   --       --     --    --
    24. LP (   2) O   1             --     --      0.0    0.0   --       --     --    --
    26. LP (   2)Cl   2             --     --      0.0    0.0   --       --     --    --
    27. LP (   3)Cl   2             --     --     90.0   90.1   --       --     --    --
    29. LP (   2)Br   3             --     --      0.0    0.0   --       --     --    --
    30. LP (   3)Br   3             --     --     90.0  346.4   --       --     --    --
    31. LP (   4)Br   3             --     --     90.0   76.5   --       --     --    --
   178. BD*(   1) O   1 - H   4    90.0  256.6    90.0  258.5   1.9      --     --    --


 Natural Bond Orbitals (Summary):

           NBO                  Occupancy  
 -----------------------------------------------
 Molecular unit  1  (HOCl)
     1. BD (   1) O   1 -Cl   2          1.93724
     2. BD (   1) O   1 - H   4          1.95321
     3. CR (   1) O   1                  1.99981
     4. CR (   1)Cl   2                  2.00000
     5. CR (   2)Cl   2                  1.99975
     6. CR (   3)Cl   2                  1.99995
     7. CR (   4)Cl   2                  2.00003
     8. CR (   5)Cl   2                  2.00003
    23. LP (   1) O   1                  1.96631
    24. LP (   2) O   1                  1.94903
    25. LP (   1)Cl   2                  1.97360
    26. LP (   2)Cl   2                  1.95528
    27. LP (   3)Cl   2                  1.95371
    32. RY*(   1) O   1                  0.02200
    33. RY*(   2) O   1                  0.01795
    34. RY*(   3) O   1                  0.00861
    35. RY*(   4) O   1                  0.00699
    36. RY*(   5) O   1                  0.00674
    37. RY*(   6) O   1                  0.00631
    38. RY*(   7) O   1                  0.00574
    39. RY*(   8) O   1                  0.00469
    40. RY*(   9) O   1                  0.00231
    41. RY*(  10) O   1                  0.00071
    42. RY*(  11) O   1                  0.00068
    43. RY*(  12) O   1                  0.00067
    44. RY*(  13) O   1                  0.00060
    45. RY*(  14) O   1                  0.00055
    46. RY*(  15) O   1                  0.00054
    47. RY*(  16) O   1                  0.00049
    48. RY*(  17) O   1                  0.00049
    49. RY*(  18) O   1                  0.00049
    50. RY*(  19) O   1                  0.00046
    51. RY*(  20) O   1                  0.00047
    52. RY*(  21) O   1                  0.00046
    53. RY*(  22) O   1                  0.00046
    54. RY*(  23) O   1                  0.00041
    55. RY*(  24) O   1                  0.00035
    56. RY*(  25) O   1                  0.00028
    57. RY*(  26) O   1                  0.00015
    58. RY*(  27) O   1                  0.00013
    59. RY*(  28) O   1                  0.00012
    60. RY*(  29) O   1                  0.00012
    61. RY*(  30) O   1                  0.00009
    62. RY*(  31) O   1                  0.00009
    63. RY*(  32) O   1                  0.00008
    64. RY*(  33) O   1                  0.00008
    65. RY*(  34) O   1                  0.00008
    66. RY*(  35) O   1                  0.00008
    67. RY*(  36) O   1                  0.00007
    68. RY*(  37) O   1                  0.00007
    69. RY*(  38) O   1                  0.00006
    70. RY*(  39) O   1                  0.00005
    71. RY*(  40) O   1                  0.00003
    72. RY*(  41) O   1                 -0.00014
    73. RY*(   1)Cl   2                  0.02429
    74. RY*(   2)Cl   2                  0.02002
    75. RY*(   3)Cl   2                  0.01698
    76. RY*(   4)Cl   2                  0.01695
    77. RY*(   5)Cl   2                  0.01246
    78. RY*(   6)Cl   2                  0.00974
    79. RY*(   7)Cl   2                  0.00944
    80. RY*(   8)Cl   2                  0.00666
    81. RY*(   9)Cl   2                  0.00185
    82. RY*(  10)Cl   2                  0.00127
    83. RY*(  11)Cl   2                  0.00127
    84. RY*(  12)Cl   2                  0.00121
    85. RY*(  13)Cl   2                  0.00122
    86. RY*(  14)Cl   2                  0.00118
    87. RY*(  15)Cl   2                  0.00113
    88. RY*(  16)Cl   2                  0.00099
    89. RY*(  17)Cl   2                  0.00080
    90. RY*(  18)Cl   2                  0.00078
    91. RY*(  19)Cl   2                  0.00069
    92. RY*(  20)Cl   2                  0.00063
    93. RY*(  21)Cl   2                  0.00047
    94. RY*(  22)Cl   2                  0.00038
    95. RY*(  23)Cl   2                  0.00036
    96. RY*(  24)Cl   2                  0.00032
    97. RY*(  25)Cl   2                  0.00018
    98. RY*(  26)Cl   2                  0.00018
    99. RY*(  27)Cl   2                  0.00017
   100. RY*(  28)Cl   2                  0.00014
   101. RY*(  29)Cl   2                  0.00013
   102. RY*(  30)Cl   2                  0.00012
   103. RY*(  31)Cl   2                  0.00013
   104. RY*(  32)Cl   2                  0.00012
   105. RY*(  33)Cl   2                  0.00011
   106. RY*(  34)Cl   2                  0.00010
   107. RY*(  35)Cl   2                  0.00009
   108. RY*(  36)Cl   2                  0.00010
   109. RY*(  37)Cl   2                  0.00008
   110. RY*(  38)Cl   2                  0.00004
   111. RY*(  39)Cl   2                  0.00004
   112. RY*(  40)Cl   2                  0.00003
   113. RY*(  41)Cl   2                  0.00000
   155. RY*(   1) H   4                  0.00713
   156. RY*(   2) H   4                  0.00611
   157. RY*(   3) H   4                  0.00467
   158. RY*(   4) H   4                  0.00418
   159. RY*(   5) H   4                  0.00294
   160. RY*(   6) H   4                  0.00072
   161. RY*(   7) H   4                  0.00037
   162. RY*(   8) H   4                  0.00031
   163. RY*(   9) H   4                  0.00029
   164. RY*(  10) H   4                  0.00030
   165. RY*(  11) H   4                  0.00025
   166. RY*(  12) H   4                  0.00023
   167. RY*(  13) H   4                  0.00021
   168. RY*(  14) H   4                  0.00014
   169. RY*(  15) H   4                  0.00011
   170. RY*(  16) H   4                  0.00008
   171. RY*(  17) H   4                  0.00008
   172. RY*(  18) H   4                  0.00008
   173. RY*(  19) H   4                  0.00005
   174. RY*(  20) H   4                  0.00004
   175. RY*(  21) H   4                  0.00003
   176. RY*(  22) H   4                  0.00003
   177. BD*(   1) O   1 -Cl   2          0.05902
   178. BD*(   1) O   1 - H   4          0.30379
       -------------------------------
              Total Lewis   25.68796  ( 97.6632%)
        Valence non-Lewis    0.36281  (  1.3794%)
        Rydberg non-Lewis    0.25183  (  0.9574%)
       -------------------------------
            Total unit  1   26.30260  (100.0000%)
           Charge unit  1   -0.30260

 Molecular unit  2  (Br)
     9. CR (   1)Br   3                  2.00000
    10. CR (   2)Br   3                  2.00000
    11. CR (   3)Br   3                  1.99953
    12. CR (   4)Br   3                  2.00000
    13. CR (   5)Br   3                  1.99996
    14. CR (   6)Br   3                  2.00000
    15. CR (   7)Br   3                  1.99983
    16. CR (   8)Br   3                  2.00000
    17. CR (   9)Br   3                  1.99997
    18. CR (  10)Br   3                  1.99763
    19. CR (  11)Br   3                  1.99768
    20. CR (  12)Br   3                  1.99765
    21. CR (  13)Br   3                  1.99758
    22. CR (  14)Br   3                  1.99764
    28. LP (   1)Br   3                  1.97602
    29. LP (   2)Br   3                  1.95449
    30. LP (   3)Br   3                  1.95416
    31. LP (   4)Br   3                  1.68024
   114. RY*(   1)Br   3                  0.01833
   115. RY*(   2)Br   3                  0.01832
   116. RY*(   3)Br   3                  0.01820
   117. RY*(   4)Br   3                  0.01809
   118. RY*(   5)Br   3                  0.01729
   119. RY*(   6)Br   3                  0.01034
   120. RY*(   7)Br   3                  0.01028
   121. RY*(   8)Br   3                  0.00801
   122. RY*(   9)Br   3                  0.00175
   123. RY*(  10)Br   3                  0.00173
   124. RY*(  11)Br   3                  0.00174
   125. RY*(  12)Br   3                  0.00173
   126. RY*(  13)Br   3                  0.00174
   127. RY*(  14)Br   3                  0.00170
   128. RY*(  15)Br   3                  0.00169
   129. RY*(  16)Br   3                  0.00170
   130. RY*(  17)Br   3                  0.00169
   131. RY*(  18)Br   3                  0.00164
   132. RY*(  19)Br   3                  0.00128
   133. RY*(  20)Br   3                  0.00124
   134. RY*(  21)Br   3                  0.00114
   135. RY*(  22)Br   3                  0.00075
   136. RY*(  23)Br   3                  0.00075
   137. RY*(  24)Br   3                  0.00062
   138. RY*(  25)Br   3                  0.00042
   139. RY*(  26)Br   3                  0.00028
   140. RY*(  27)Br   3                  0.00027
   141. RY*(  28)Br   3                  0.00023
   142. RY*(  29)Br   3                  0.00023
   143. RY*(  30)Br   3                  0.00023
   144. RY*(  31)Br   3                  0.00023
   145. RY*(  32)Br   3                  0.00023
   146. RY*(  33)Br   3                  0.00021
   147. RY*(  34)Br   3                  0.00019
   148. RY*(  35)Br   3                  0.00016
   149. RY*(  36)Br   3                  0.00014
   150. RY*(  37)Br   3                  0.00012
   151. RY*(  38)Br   3                  0.00013
   152. RY*(  39)Br   3                  0.00008
   153. RY*(  40)Br   3                  0.00008
   154. RY*(  41)Br   3                  0.00004
       -------------------------------
              Total Lewis   35.55238  ( 99.5937%)
        Valence non-Lewis    0.00000  (  0.0000%)
        Rydberg non-Lewis    0.14502  (  0.4063%)
       -------------------------------
            Total unit  2   35.69740  (100.0000%)
           Charge unit  2   -0.69740
 Leave Link  607 at Tue Oct 12 14:25:42 2021, MaxMem=  1048576000 cpu:        10.3
 (Enter /usr/local/gaussian/g09/l9999.exe)
 1\1\GINC-KRYPTON\SP\RMP2-FC\Aug-CC-pVTZ\Br1Cl1H1O1(1-)\CGAVINH\12-Oct-
 2021\0\\#p pop=NBO SP NoSymm mp2/aug-cc-pvtz density=current\\title\\-
 1,1\O\X,1,10.\Cl,1,1.68432554,2,90.\Br,1,3.07381752,2,90.,3,103.420351
 85,0\H,1,1.25,2,90.,3,103.42035185,0\\Version=ES64L-G09RevE.01\HF=-310
 7.4520239\MP2=-3108.1685369\RMSD=8.195e-09\Dipole=0.4377602,0.0188629,
 0.\Quadrupole=5.3495876,-12.8966784,7.5470908,-5.1539841,0.,0.\PG=CS [
 SG(Br1Cl1H1O1)]\\@


 NATURE GIVES TO EVERY TIME AND SEASON SOME BEAUTY OF ITS OWN.

                                                    --DICKENS
 Job cpu time:       0 days  0 hours  2 minutes 35.0 seconds.
 File lengths (MBytes):  RWF=     14 Int=      0 D2E=      0 Chk=      4 Scr=      1
 Normal termination of Gaussian 09 at Tue Oct 12 14:25:42 2021.
