 Entering Gaussian System, Link 0=g09
 Input=brhocl_rOH_105_sp.gjf
 Output=brhocl_rOH_105_sp.log
 Initial command:
 /usr/local/gaussian/g09/l1.exe "/scratch/Gau-17597.inp" -scrdir="/scratch/"
 Entering Link 1 = /usr/local/gaussian/g09/l1.exe PID=     17598.
  
 Copyright (c) 1988,1990,1992,1993,1995,1998,2003,2009,2015,
            Gaussian, Inc.  All Rights Reserved.
  
 This is part of the Gaussian(R) 09 program.  It is based on
 the Gaussian(R) 03 system (copyright 2003, Gaussian, Inc.),
 the Gaussian(R) 98 system (copyright 1998, Gaussian, Inc.),
 the Gaussian(R) 94 system (copyright 1995, Gaussian, Inc.),
 the Gaussian 92(TM) system (copyright 1992, Gaussian, Inc.),
 the Gaussian 90(TM) system (copyright 1990, Gaussian, Inc.),
 the Gaussian 88(TM) system (copyright 1988, Gaussian, Inc.),
 the Gaussian 86(TM) system (copyright 1986, Carnegie Mellon
 University), and the Gaussian 82(TM) system (copyright 1983,
 Carnegie Mellon University). Gaussian is a federally registered
 trademark of Gaussian, Inc.
  
 This software contains proprietary and confidential information,
 including trade secrets, belonging to Gaussian, Inc.
  
 This software is provided under written license and may be
 used, copied, transmitted, or stored only in accord with that
 written license.
  
 The following legend is applicable only to US Government
 contracts under FAR:
  
                    RESTRICTED RIGHTS LEGEND
  
 Use, reproduction and disclosure by the US Government is
 subject to restrictions as set forth in subparagraphs (a)
 and (c) of the Commercial Computer Software - Restricted
 Rights clause in FAR 52.227-19.
  
 Gaussian, Inc.
 340 Quinnipiac St., Bldg. 40, Wallingford CT 06492
  
  
 ---------------------------------------------------------------
 Warning -- This program may not be used in any manner that
 competes with the business of Gaussian, Inc. or will provide
 assistance to any competitor of Gaussian, Inc.  The licensee
 of this program is prohibited from giving any competitor of
 Gaussian, Inc. access to this program.  By using this program,
 the user acknowledges that Gaussian, Inc. is engaged in the
 business of creating and licensing software in the field of
 computational chemistry and represents and warrants to the
 licensee that it is not a competitor of Gaussian, Inc. and that
 it will not use this program in any manner prohibited above.
 ---------------------------------------------------------------
  

 Cite this work as:
 Gaussian 09, Revision E.01,
 M. J. Frisch, G. W. Trucks, H. B. Schlegel, G. E. Scuseria, 
 M. A. Robb, J. R. Cheeseman, G. Scalmani, V. Barone, B. Mennucci, 
 G. A. Petersson, H. Nakatsuji, M. Caricato, X. Li, H. P. Hratchian, 
 A. F. Izmaylov, J. Bloino, G. Zheng, J. L. Sonnenberg, M. Hada, 
 M. Ehara, K. Toyota, R. Fukuda, J. Hasegawa, M. Ishida, T. Nakajima, 
 Y. Honda, O. Kitao, H. Nakai, T. Vreven, J. A. Montgomery, Jr., 
 J. E. Peralta, F. Ogliaro, M. Bearpark, J. J. Heyd, E. Brothers, 
 K. N. Kudin, V. N. Staroverov, T. Keith, R. Kobayashi, J. Normand, 
 K. Raghavachari, A. Rendell, J. C. Burant, S. S. Iyengar, J. Tomasi, 
 M. Cossi, N. Rega, J. M. Millam, M. Klene, J. E. Knox, J. B. Cross, 
 V. Bakken, C. Adamo, J. Jaramillo, R. Gomperts, R. E. Stratmann, 
 O. Yazyev, A. J. Austin, R. Cammi, C. Pomelli, J. W. Ochterski, 
 R. L. Martin, K. Morokuma, V. G. Zakrzewski, G. A. Voth, 
 P. Salvador, J. J. Dannenberg, S. Dapprich, A. D. Daniels, 
 O. Farkas, J. B. Foresman, J. V. Ortiz, J. Cioslowski, 
 and D. J. Fox, Gaussian, Inc., Wallingford CT, 2013.
 
 ******************************************
 Gaussian 09:  ES64L-G09RevE.01 30-Nov-2015
                12-Oct-2021 
 ******************************************
 %nproc=12
 Will use up to   12 processors via shared memory.
 %mem=8000MB
 %chk=/home/netid.washington.edu/cgavinh/mccoy_hocl/rOH_s_oop_0/brhocl/brhocl_rOH
 _105_sp.chk
 ----------------------------------------------------
 #p pop=NBO SP NoSymm mp2/aug-cc-pvtz density=current
 ----------------------------------------------------
 1/30=1,38=1/1;
 2/12=2,15=1,17=6,18=5,40=1/2;
 3/5=16,6=1,7=10,11=9,16=1,25=1,30=1,71=1/1,2,3;
 4//1;
 5/5=2,38=5/2;
 8/6=4,10=1/1;
 9/15=1,16=-3/6;
 10/5=1,13=10,31=1/2;
 6/7=2,8=2,9=2,10=2,22=-1,40=1/1,7;
 99/5=1,9=1/99;
 Leave Link    1 at Tue Oct 12 14:24:17 2021, MaxMem=  1048576000 cpu:         0.2
 (Enter /usr/local/gaussian/g09/l101.exe)
 -----
 title
 -----
 Symbolic Z-matrix:
 Charge = -1 Multiplicity = 1
 O
 X                    1     10. 
 Cl                   1    r1       2     90. 
 Br                   1    r2       2     90.      3    a1       0
 H                    1    r3       2    oop      3    a1       0
       Variables:
  r1                    1.68433                  
  r2                    3.07382                  
  r3                    1.05                     
  a1                  103.42035                  
  OOP                  90.                       
 
 NAtoms=      4 NQM=        4 NQMF=       0 NMMI=      0 NMMIF=      0
                NMic=       0 NMicF=      0.
                    Isotopes and Nuclear Properties:
 (Nuclear quadrupole moments (NQMom) in fm**2, nuclear magnetic moments (NMagM)
  in nuclear magnetons)

  Atom         1           2           3           4
 IAtWgt=          16          35          79           1
 AtmWgt=  15.9949146  34.9688527  78.9183361   1.0078250
 NucSpn=           0           3           3           1
 AtZEff=   0.0000000   0.0000000   0.0000000   0.0000000
 NQMom=    0.0000000  -8.1650000  31.3000000   0.0000000
 NMagM=    0.0000000   0.8218740   2.1063990   2.7928460
 AtZNuc=   8.0000000  17.0000000  35.0000000   1.0000000
 Leave Link  101 at Tue Oct 12 14:24:17 2021, MaxMem=  1048576000 cpu:         0.4
 (Enter /usr/local/gaussian/g09/l202.exe)
                          Input orientation:                          
 ---------------------------------------------------------------------
 Center     Atomic      Atomic             Coordinates (Angstroms)
 Number     Number       Type             X           Y           Z
 ---------------------------------------------------------------------
      1          8           0        0.000000    0.000000    0.000000
      2         17           0        1.684326    0.000000    0.000000
      3         35           0       -0.713413   -2.989882    0.000000
      4          1           0       -0.243698   -1.021328    0.000000
 ---------------------------------------------------------------------
                    Distance matrix (angstroms):
                    1          2          3          4
     1  O    0.000000
     2  Cl   1.684326   0.000000
     3  Br   3.073818   3.832564   0.000000
     4  H    1.050000   2.181831   2.023818   0.000000
 Symmetry turned off by external request.
 Stoichiometry    BrClHO(1-)
 Framework group  CS[SG(BrClHO)]
 Deg. of freedom     5
 Full point group                 CS      NOp   2
 Rotational constants (GHZ):     22.6610700      1.2809315      1.2123998
 Leave Link  202 at Tue Oct 12 14:24:17 2021, MaxMem=  1048576000 cpu:         0.0
 (Enter /usr/local/gaussian/g09/l301.exe)
 Standard basis: Aug-CC-pVTZ (5D, 7F)
 Ernie: Thresh=  0.10000D-02 Tol=  0.10000D-05 Strict=F.
 Ernie:  48 primitive shells out of 228 were deleted.
   178 basis functions,   430 primitive gaussians,   208 cartesian basis functions
    31 alpha electrons       31 beta electrons
       nuclear repulsion energy       190.3925086140 Hartrees.
 IExCor=    0 DFT=F Ex=HF Corr=None ExCW=0 ScaHFX=  1.000000
 ScaDFX=  1.000000  1.000000  1.000000  1.000000 ScalE2=  1.000000  1.000000
 IRadAn=      0 IRanWt=     -1 IRanGd=            0 ICorTp=0 IEmpDi=  4
 NAtoms=    4 NActive=    4 NUniq=    4 SFac= 1.00D+00 NAtFMM=   60 NAOKFM=F Big=F
 Integral buffers will be    131072 words long.
 Raffenetti 1 integral format.
 Two-electron integral symmetry is turned off.
 Leave Link  301 at Tue Oct 12 14:24:17 2021, MaxMem=  1048576000 cpu:         0.3
 (Enter /usr/local/gaussian/g09/l302.exe)
 NPDir=0 NMtPBC=     1 NCelOv=     1 NCel=       1 NClECP=     1 NCelD=      1
         NCelK=      1 NCelE2=     1 NClLst=     1 CellRange=     0.0.
 One-electron integrals computed using PRISM.
 NBasis=   178 RedAO= T EigKep=  2.52D-04  NBF=   178
 NBsUse=   178 1.00D-06 EigRej= -1.00D+00 NBFU=   178
 Leave Link  302 at Tue Oct 12 14:24:17 2021, MaxMem=  1048576000 cpu:         1.6
 (Enter /usr/local/gaussian/g09/l303.exe)
 DipDrv:  MaxL=1.
 Leave Link  303 at Tue Oct 12 14:24:17 2021, MaxMem=  1048576000 cpu:         0.2
 (Enter /usr/local/gaussian/g09/l401.exe)
 ExpMin= 2.53D-02 ExpMax= 1.06D+07 ExpMxC= 1.21D+04 IAcc=3 IRadAn=         5 AccDes= 0.00D+00
 Harris functional with IExCor=  205 and IRadAn=       5 diagonalized for initial guess.
 HarFok:  IExCor=  205 AccDes= 0.00D+00 IRadAn=         5 IDoV= 1 UseB2=F ITyADJ=14
 ICtDFT=  3500011 ScaDFX=  1.000000  1.000000  1.000000  1.000000
 FoFCou: FMM=F IPFlag=           0 FMFlag=      100000 FMFlg1=           0
         NFxFlg=           0 DoJE=T BraDBF=F KetDBF=T FulRan=T
         wScrn=  0.000000 ICntrl=     500 IOpCl=  0 I1Cent=   200000004 NGrid=           0
         NMat0=    1 NMatS0=      1 NMatT0=    0 NMatD0=    1 NMtDS0=    0 NMtDT0=    0
 Symmetry not used in FoFCou.
 Harris En= -3106.38669005520    
 JPrj=0 DoOrth=F DoCkMO=F.
 Leave Link  401 at Tue Oct 12 14:24:17 2021, MaxMem=  1048576000 cpu:         3.0
 (Enter /usr/local/gaussian/g09/l502.exe)
 Closed shell SCF:
 Using DIIS extrapolation, IDIIS=  1040.
 Two-electron integral symmetry not used.
 Keep R1 ints in memory in canonical form, NReq=131623000.
 IVT=      152094 IEndB=      152094 NGot=  1048576000 MDV=   921517561
 LenX=   921517561 LenY=   921473856
 Requested convergence on RMS density matrix=1.00D-08 within 128 cycles.
 Requested convergence on MAX density matrix=1.00D-06.
 Requested convergence on             energy=1.00D-06.
 No special actions if energy rises.
 FoFCou: FMM=F IPFlag=           0 FMFlag=           0 FMFlg1=           0
         NFxFlg=           0 DoJE=F BraDBF=F KetDBF=F FulRan=T
         wScrn=  0.000000 ICntrl=     600 IOpCl=  0 I1Cent=           0 NGrid=           0
         NMat0=    1 NMatS0=  15931 NMatT0=    0 NMatD0=    1 NMtDS0=    0 NMtDT0=    0
 Symmetry not used in FoFCou.

 Cycle   1  Pass 1  IDiag  1:
 E= -3107.31693672154    
 DIIS: error= 6.04D-02 at cycle   1 NSaved=   1.
 NSaved= 1 IEnMin= 1 EnMin= -3107.31693672154     IErMin= 1 ErrMin= 6.04D-02
 ErrMax= 6.04D-02  0.00D+00 EMaxC= 1.00D-01 BMatC= 6.36D-01 BMatP= 6.36D-01
 IDIUse=3 WtCom= 3.96D-01 WtEn= 6.04D-01
 Coeff-Com:  0.100D+01
 Coeff-En:   0.100D+01
 Coeff:      0.100D+01
 Gap=     0.555 Goal=   None    Shift=    0.000
 GapD=    0.555 DampG=2.000 DampE=0.500 DampFc=1.0000 IDamp=-1.
 RMSDP=3.07D-03 MaxDP=1.02D-01              OVMax= 1.16D-01

 Cycle   2  Pass 1  IDiag  1:
 E= -3107.44955225452     Delta-E=       -0.132615532983 Rises=F Damp=F
 DIIS: error= 1.68D-02 at cycle   2 NSaved=   2.
 NSaved= 2 IEnMin= 2 EnMin= -3107.44955225452     IErMin= 2 ErrMin= 1.68D-02
 ErrMax= 1.68D-02  0.00D+00 EMaxC= 1.00D-01 BMatC= 4.08D-02 BMatP= 6.36D-01
 IDIUse=3 WtCom= 8.32D-01 WtEn= 1.68D-01
 Coeff-Com:  0.130D+00 0.870D+00
 Coeff-En:   0.000D+00 0.100D+01
 Coeff:      0.108D+00 0.892D+00
 Gap=     0.339 Goal=   None    Shift=    0.000
 RMSDP=1.12D-03 MaxDP=3.71D-02 DE=-1.33D-01 OVMax= 7.08D-02

 Cycle   3  Pass 1  IDiag  1:
 E= -3107.46642053319     Delta-E=       -0.016868278670 Rises=F Damp=F
 DIIS: error= 8.75D-03 at cycle   3 NSaved=   3.
 NSaved= 3 IEnMin= 3 EnMin= -3107.46642053319     IErMin= 3 ErrMin= 8.75D-03
 ErrMax= 8.75D-03  0.00D+00 EMaxC= 1.00D-01 BMatC= 1.36D-02 BMatP= 4.08D-02
 IDIUse=3 WtCom= 9.13D-01 WtEn= 8.75D-02
 Coeff-Com:  0.708D-02 0.364D+00 0.629D+00
 Coeff-En:   0.000D+00 0.193D+00 0.807D+00
 Coeff:      0.646D-02 0.349D+00 0.645D+00
 Gap=     0.337 Goal=   None    Shift=    0.000
 RMSDP=3.47D-04 MaxDP=1.38D-02 DE=-1.69D-02 OVMax= 3.51D-02

 Cycle   4  Pass 1  IDiag  1:
 E= -3107.47575965357     Delta-E=       -0.009339120374 Rises=F Damp=F
 DIIS: error= 1.39D-03 at cycle   4 NSaved=   4.
 NSaved= 4 IEnMin= 4 EnMin= -3107.47575965357     IErMin= 4 ErrMin= 1.39D-03
 ErrMax= 1.39D-03  0.00D+00 EMaxC= 1.00D-01 BMatC= 1.73D-04 BMatP= 1.36D-02
 IDIUse=3 WtCom= 9.86D-01 WtEn= 1.39D-02
 Coeff-Com: -0.519D-02-0.274D-01 0.513D-01 0.981D+00
 Coeff-En:   0.000D+00 0.000D+00 0.000D+00 0.100D+01
 Coeff:     -0.511D-02-0.270D-01 0.506D-01 0.982D+00
 Gap=     0.335 Goal=   None    Shift=    0.000
 RMSDP=6.07D-05 MaxDP=1.38D-03 DE=-9.34D-03 OVMax= 3.57D-03

 Cycle   5  Pass 1  IDiag  1:
 E= -3107.47596098952     Delta-E=       -0.000201335954 Rises=F Damp=F
 DIIS: error= 2.23D-04 at cycle   5 NSaved=   5.
 NSaved= 5 IEnMin= 5 EnMin= -3107.47596098952     IErMin= 5 ErrMin= 2.23D-04
 ErrMax= 2.23D-04  0.00D+00 EMaxC= 1.00D-01 BMatC= 1.23D-05 BMatP= 1.73D-04
 IDIUse=3 WtCom= 9.98D-01 WtEn= 2.23D-03
 Coeff-Com:  0.830D-03-0.183D-01-0.409D-01-0.168D+00 0.123D+01
 Coeff-En:   0.000D+00 0.000D+00 0.000D+00 0.000D+00 0.100D+01
 Coeff:      0.829D-03-0.182D-01-0.408D-01-0.168D+00 0.123D+01
 Gap=     0.336 Goal=   None    Shift=    0.000
 RMSDP=3.08D-05 MaxDP=1.11D-03 DE=-2.01D-04 OVMax= 2.94D-03

 Cycle   6  Pass 1  IDiag  1:
 E= -3107.47599564026     Delta-E=       -0.000034650739 Rises=F Damp=F
 DIIS: error= 1.22D-04 at cycle   6 NSaved=   6.
 NSaved= 6 IEnMin= 6 EnMin= -3107.47599564026     IErMin= 6 ErrMin= 1.22D-04
 ErrMax= 1.22D-04  0.00D+00 EMaxC= 1.00D-01 BMatC= 1.74D-06 BMatP= 1.23D-05
 IDIUse=3 WtCom= 9.99D-01 WtEn= 1.22D-03
 Coeff-Com:  0.471D-03 0.426D-02-0.155D-02-0.124D+00-0.543D-01 0.118D+01
 Coeff-En:   0.000D+00 0.000D+00 0.000D+00 0.000D+00 0.000D+00 0.100D+01
 Coeff:      0.471D-03 0.426D-02-0.154D-02-0.124D+00-0.542D-01 0.118D+01
 Gap=     0.336 Goal=   None    Shift=    0.000
 RMSDP=1.31D-05 MaxDP=5.48D-04 DE=-3.47D-05 OVMax= 1.47D-03

 Cycle   7  Pass 1  IDiag  1:
 E= -3107.47600153034     Delta-E=       -0.000005890082 Rises=F Damp=F
 DIIS: error= 4.53D-05 at cycle   7 NSaved=   7.
 NSaved= 7 IEnMin= 7 EnMin= -3107.47600153034     IErMin= 7 ErrMin= 4.53D-05
 ErrMax= 4.53D-05  0.00D+00 EMaxC= 1.00D-01 BMatC= 1.81D-07 BMatP= 1.74D-06
 IDIUse=1 WtCom= 1.00D+00 WtEn= 0.00D+00
 Coeff-Com: -0.227D-03 0.852D-03 0.668D-02 0.550D-01-0.152D+00-0.278D+00
 Coeff-Com:  0.137D+01
 Coeff:     -0.227D-03 0.852D-03 0.668D-02 0.550D-01-0.152D+00-0.278D+00
 Coeff:      0.137D+01
 Gap=     0.336 Goal=   None    Shift=    0.000
 RMSDP=5.28D-06 MaxDP=1.94D-04 DE=-5.89D-06 OVMax= 5.70D-04

 Cycle   8  Pass 1  IDiag  1:
 E= -3107.47600222554     Delta-E=       -0.000000695197 Rises=F Damp=F
 DIIS: error= 8.16D-06 at cycle   8 NSaved=   8.
 NSaved= 8 IEnMin= 8 EnMin= -3107.47600222554     IErMin= 8 ErrMin= 8.16D-06
 ErrMax= 8.16D-06  0.00D+00 EMaxC= 1.00D-01 BMatC= 8.34D-09 BMatP= 1.81D-07
 IDIUse=1 WtCom= 1.00D+00 WtEn= 0.00D+00
 Coeff-Com:  0.117D-04-0.416D-03-0.979D-03-0.427D-02 0.256D-01 0.117D-01
 Coeff-Com: -0.296D+00 0.126D+01
 Coeff:      0.117D-04-0.416D-03-0.979D-03-0.427D-02 0.256D-01 0.117D-01
 Coeff:     -0.296D+00 0.126D+01
 Gap=     0.336 Goal=   None    Shift=    0.000
 RMSDP=1.13D-06 MaxDP=2.22D-05 DE=-6.95D-07 OVMax= 1.17D-04

 Cycle   9  Pass 1  IDiag  1:
 E= -3107.47600225794     Delta-E=       -0.000000032400 Rises=F Damp=F
 DIIS: error= 3.31D-06 at cycle   9 NSaved=   9.
 NSaved= 9 IEnMin= 9 EnMin= -3107.47600225794     IErMin= 9 ErrMin= 3.31D-06
 ErrMax= 3.31D-06  0.00D+00 EMaxC= 1.00D-01 BMatC= 1.14D-09 BMatP= 8.34D-09
 IDIUse=1 WtCom= 1.00D+00 WtEn= 0.00D+00
 Coeff-Com:  0.138D-04-0.117D-03-0.425D-03-0.261D-02 0.913D-02 0.147D-01
 Coeff-Com: -0.758D-01-0.751D-01 0.113D+01
 Coeff:      0.138D-04-0.117D-03-0.425D-03-0.261D-02 0.913D-02 0.147D-01
 Coeff:     -0.758D-01-0.751D-01 0.113D+01
 Gap=     0.336 Goal=   None    Shift=    0.000
 RMSDP=3.96D-07 MaxDP=9.51D-06 DE=-3.24D-08 OVMax= 4.66D-05

 Cycle  10  Pass 1  IDiag  1:
 E= -3107.47600226247     Delta-E=       -0.000000004534 Rises=F Damp=F
 DIIS: error= 1.90D-06 at cycle  10 NSaved=  10.
 NSaved=10 IEnMin=10 EnMin= -3107.47600226247     IErMin=10 ErrMin= 1.90D-06
 ErrMax= 1.90D-06  0.00D+00 EMaxC= 1.00D-01 BMatC= 2.76D-10 BMatP= 1.14D-09
 IDIUse=1 WtCom= 1.00D+00 WtEn= 0.00D+00
 Coeff-Com: -0.313D-05 0.142D-03 0.247D-03 0.310D-03-0.591D-02 0.203D-02
 Coeff-Com:  0.575D-01-0.264D+00-0.103D+00 0.131D+01
 Coeff:     -0.313D-05 0.142D-03 0.247D-03 0.310D-03-0.591D-02 0.203D-02
 Coeff:      0.575D-01-0.264D+00-0.103D+00 0.131D+01
 Gap=     0.336 Goal=   None    Shift=    0.000
 RMSDP=2.74D-07 MaxDP=6.94D-06 DE=-4.53D-09 OVMax= 3.21D-05

 Cycle  11  Pass 1  IDiag  1:
 E= -3107.47600226384     Delta-E=       -0.000000001362 Rises=F Damp=F
 DIIS: error= 6.52D-07 at cycle  11 NSaved=  11.
 NSaved=11 IEnMin=11 EnMin= -3107.47600226384     IErMin=11 ErrMin= 6.52D-07
 ErrMax= 6.52D-07  0.00D+00 EMaxC= 1.00D-01 BMatC= 2.93D-11 BMatP= 2.76D-10
 IDIUse=1 WtCom= 1.00D+00 WtEn= 0.00D+00
 Coeff-Com: -0.180D-05-0.163D-04 0.249D-04 0.663D-03-0.912D-03-0.361D-02
 Coeff-Com:  0.644D-02 0.484D-01-0.144D+00-0.242D+00 0.133D+01
 Coeff:     -0.180D-05-0.163D-04 0.249D-04 0.663D-03-0.912D-03-0.361D-02
 Coeff:      0.644D-02 0.484D-01-0.144D+00-0.242D+00 0.133D+01
 Gap=     0.336 Goal=   None    Shift=    0.000
 RMSDP=9.87D-08 MaxDP=2.78D-06 DE=-1.36D-09 OVMax= 1.14D-05

 Cycle  12  Pass 1  IDiag  1:
 E= -3107.47600226398     Delta-E=       -0.000000000148 Rises=F Damp=F
 DIIS: error= 1.51D-07 at cycle  12 NSaved=  12.
 NSaved=12 IEnMin=12 EnMin= -3107.47600226398     IErMin=12 ErrMin= 1.51D-07
 ErrMax= 1.51D-07  0.00D+00 EMaxC= 1.00D-01 BMatC= 1.86D-12 BMatP= 2.93D-11
 IDIUse=1 WtCom= 1.00D+00 WtEn= 0.00D+00
 Coeff-Com:  0.112D-06-0.126D-04-0.233D-04-0.230D-04 0.554D-03-0.130D-03
 Coeff-Com: -0.609D-02 0.283D-01 0.107D-01-0.154D+00 0.895D-01 0.103D+01
 Coeff:      0.112D-06-0.126D-04-0.233D-04-0.230D-04 0.554D-03-0.130D-03
 Coeff:     -0.609D-02 0.283D-01 0.107D-01-0.154D+00 0.895D-01 0.103D+01
 Gap=     0.336 Goal=   None    Shift=    0.000
 RMSDP=1.87D-08 MaxDP=5.12D-07 DE=-1.48D-10 OVMax= 1.92D-06

 Cycle  13  Pass 1  IDiag  1:
 E= -3107.47600226400     Delta-E=       -0.000000000016 Rises=F Damp=F
 DIIS: error= 2.73D-08 at cycle  13 NSaved=  13.
 NSaved=13 IEnMin=13 EnMin= -3107.47600226400     IErMin=13 ErrMin= 2.73D-08
 ErrMax= 2.73D-08  0.00D+00 EMaxC= 1.00D-01 BMatC= 9.90D-14 BMatP= 1.86D-12
 IDIUse=1 WtCom= 1.00D+00 WtEn= 0.00D+00
 Coeff-Com:  0.846D-07 0.269D-05 0.233D-05-0.276D-04-0.426D-04 0.148D-03
 Coeff-Com:  0.883D-03-0.793D-02 0.650D-02 0.424D-01-0.103D+00-0.167D+00
 Coeff-Com:  0.123D+01
 Coeff:      0.846D-07 0.269D-05 0.233D-05-0.276D-04-0.426D-04 0.148D-03
 Coeff:      0.883D-03-0.793D-02 0.650D-02 0.424D-01-0.103D+00-0.167D+00
 Coeff:      0.123D+01
 Gap=     0.336 Goal=   None    Shift=    0.000
 RMSDP=5.19D-09 MaxDP=1.20D-07 DE=-1.64D-11 OVMax= 4.23D-07

 SCF Done:  E(RHF) =  -3107.47600226     A.U. after   13 cycles
            NFock= 13  Conv=0.52D-08     -V/T= 2.0001
 KE= 3.107292521199D+03 PE=-7.823277121801D+03 EE= 1.418116089724D+03
 Leave Link  502 at Tue Oct 12 14:24:21 2021, MaxMem=  1048576000 cpu:        19.4
 (Enter /usr/local/gaussian/g09/l801.exe)
 ExpMin= 2.53D-02 ExpMax= 1.06D+07 ExpMxC= 1.21D+04 IAcc=3 IRadAn=         5 AccDes= 0.00D+00
 HarFok:  IExCor=  205 AccDes= 0.00D+00 IRadAn=         5 IDoV=-2 UseB2=F ITyADJ=14
 ICtDFT= 12500011 ScaDFX=  1.000000  1.000000  1.000000  1.000000
 Largest valence mixing into a core orbital is  4.47D-04
 Largest core mixing into a valence orbital is  1.58D-04
 Range of M.O.s used for correlation:    16   178
 NBasis=   178 NAE=    31 NBE=    31 NFC=    15 NFV=     0
 NROrb=    163 NOA=    16 NOB=    16 NVA=   147 NVB=   147

 **** Warning!!: The largest alpha MO coefficient is  0.21199077D+02

 Leave Link  801 at Tue Oct 12 14:24:21 2021, MaxMem=  1048576000 cpu:         0.7
 (Enter /usr/local/gaussian/g09/l906.exe)
 Frozen-core derivative calculation, NFC=  15 NFV=   0.
 FulOut=F Deriv=T AODrv=F NAtomX=     4
   MMem=         227  MDisk=          16 MDiskD=          16
  W3Min=     1147744 MinDsk=     1765480 NBas6D=         208
 NBas2D=       22240    NTT=       21736    LW2=     9911920
    MDV=  1048101679 MDiskM=       25146 NBas2p=       22041
 Fully in-core method, ICMem=   526646768.
 IMap=   1   2   3   4   5   6   7   8   9  10  11  12  13  14  15  16  17  18  19  20
 IMap=  21  22  23  24  25  26  27  28  29  30  31
 JobTyp=1 Pass  1 fully in-core, NPsUse= 12.
 Compute canonical integrals.
 FoFCou: FMM=F IPFlag=           0 FMFlag=           0 FMFlg1=           0
         NFxFlg=           0 DoJE=F BraDBF=F KetDBF=F FulRan=T
         wScrn=  0.000000 ICntrl=     600 IOpCl=  1 I1Cent=           0 NGrid=           0
         NMat0=    1 NMatS0=  22240 NMatT0=    0 NMatD0=    1 NMtDS0=    0 NMtDT0=    0
 Symmetry not used in FoFCou.
 Spin components of T(2) and E(2):
     alpha-alpha T2 =       0.3058877968D-01 E2=     -0.9462805550D-01
     alpha-beta  T2 =       0.1624636433D+00 E2=     -0.5170082867D+00
     beta-beta   T2 =       0.3058877968D-01 E2=     -0.9462805550D-01
 The integrals were generated   1 times.
 ANorm=    0.1106183169D+01
 E2 =    -0.7062643977D+00 EUMP2 =    -0.31081822666617D+04
 Leave Link  906 at Tue Oct 12 14:24:29 2021, MaxMem=  1048576000 cpu:        97.8
 (Enter /usr/local/gaussian/g09/l1002.exe)
 Minotr:  Closed shell wavefunction.
          Computing MP2/KS-MP2 derivatives.
          Using Z-Vector for PSCF gradient.
          Skipping F1 and S1 gradient terms here.
          Frozen-core window.
          Direct CPHF calculation.
          Differentiating once with respect to electric field.
                with respect to dipole field.
          Electric field/nuclear overlap derivatives assumed to be zero.
          Requested convergence is 1.0D-10 RMS, and 1.0D-09 maximum.
          NewPWx=F KeepS1=T KeepF1=T KeepIn=T MapXYZ=F SortEE=F KeepMc=T.
          MDV=    1048575801 using IRadAn=       0.
 Keep R1 ints in memory in canonical form, NReq=131472178.
 FoFCou: FMM=F IPFlag=           0 FMFlag=           0 FMFlg1=           0
         NFxFlg=           0 DoJE=F BraDBF=F KetDBF=F FulRan=T
         wScrn=  0.000000 ICntrl=     600 IOpCl=  0 I1Cent=           0 NGrid=           0
         NMat0=    1 NMatS0=  15931 NMatT0=    0 NMatD0=    1 NMtDS0=    0 NMtDT0=    0
 Symmetry not used in FoFCou.
          Solving linear equations separately, MaxMat=       0.
          There are     1 degrees of freedom in the 1st order CPHF.  IDoFFX=0 NUNeed=     1.
 LinEq1:  Iter=  0 NonCon=     1 RMS=2.70D-03 Max=4.71D-02 NDo=     1
 AX will form     1 AO Fock derivatives at one time.
 LinEq1:  Iter=  1 NonCon=     1 RMS=4.25D-04 Max=5.23D-03 NDo=     1
 LinEq1:  Iter=  2 NonCon=     1 RMS=2.00D-04 Max=4.12D-03 NDo=     1
 LinEq1:  Iter=  3 NonCon=     1 RMS=6.63D-05 Max=1.12D-03 NDo=     1
 LinEq1:  Iter=  4 NonCon=     1 RMS=2.87D-05 Max=9.30D-04 NDo=     1
 LinEq1:  Iter=  5 NonCon=     1 RMS=1.02D-05 Max=1.71D-04 NDo=     1
 LinEq1:  Iter=  6 NonCon=     1 RMS=2.10D-06 Max=2.52D-05 NDo=     1
 LinEq1:  Iter=  7 NonCon=     1 RMS=5.17D-07 Max=8.89D-06 NDo=     1
 LinEq1:  Iter=  8 NonCon=     1 RMS=1.46D-07 Max=2.43D-06 NDo=     1
 LinEq1:  Iter=  9 NonCon=     1 RMS=3.71D-08 Max=9.16D-07 NDo=     1
 LinEq1:  Iter= 10 NonCon=     1 RMS=1.06D-08 Max=2.47D-07 NDo=     1
 LinEq1:  Iter= 11 NonCon=     1 RMS=2.62D-09 Max=3.55D-08 NDo=     1
 LinEq1:  Iter= 12 NonCon=     1 RMS=4.86D-10 Max=6.98D-09 NDo=     1
 LinEq1:  Iter= 13 NonCon=     1 RMS=1.32D-10 Max=1.72D-09 NDo=     1
 LinEq1:  Iter= 14 NonCon=     0 RMS=2.95D-11 Max=4.18D-10 NDo=     1
 Linear equations converged to 1.000D-10 1.000D-09 after    14 iterations.
 End of Minotr F.D. properties file   721 does not exist.
 End of Minotr F.D. properties file   722 does not exist.
 End of Minotr F.D. properties file   788 does not exist.
 Leave Link 1002 at Tue Oct 12 14:24:33 2021, MaxMem=  1048576000 cpu:        18.6
 (Enter /usr/local/gaussian/g09/l601.exe)
 Copying SCF densities to generalized density rwf, IOpCl= 0 IROHF=0.

 **********************************************************************

            Population analysis using the MP2 density.

 **********************************************************************

 Alpha  occ. eigenvalues -- -489.75950-104.72739 -64.89988 -58.25440 -58.25433
 Alpha  occ. eigenvalues --  -58.25432 -20.45778 -10.44691  -9.57243  -7.91408
 Alpha  occ. eigenvalues --   -7.91147  -7.91138  -7.18033  -7.17965  -7.17963
 Alpha  occ. eigenvalues --   -2.92207  -2.92173  -2.92171  -2.92095  -2.92095
 Alpha  occ. eigenvalues --   -1.21824  -0.88917  -0.73570  -0.52768  -0.43696
 Alpha  occ. eigenvalues --   -0.42873  -0.30390  -0.27629  -0.18962  -0.17956
 Alpha  occ. eigenvalues --   -0.17948
 Alpha virt. eigenvalues --    0.15665   0.18219   0.21545   0.22824   0.24103
 Alpha virt. eigenvalues --    0.24609   0.24993   0.28942   0.30437   0.32003
 Alpha virt. eigenvalues --    0.32348   0.32553   0.35930   0.43721   0.43727
 Alpha virt. eigenvalues --    0.46819   0.48093   0.48447   0.49943   0.54255
 Alpha virt. eigenvalues --    0.54318   0.57265   0.59415   0.60071   0.60363
 Alpha virt. eigenvalues --    0.60990   0.65804   0.69565   0.73645   0.74290
 Alpha virt. eigenvalues --    0.75233   0.77840   0.78762   0.84490   0.89356
 Alpha virt. eigenvalues --    0.89875   0.92070   0.94507   0.99544   0.99793
 Alpha virt. eigenvalues --    1.00277   1.00765   1.01688   1.03220   1.06830
 Alpha virt. eigenvalues --    1.08613   1.09554   1.10282   1.10968   1.13728
 Alpha virt. eigenvalues --    1.15584   1.17522   1.18019   1.21218   1.22384
 Alpha virt. eigenvalues --    1.24374   1.28757   1.29601   1.33425   1.33560
 Alpha virt. eigenvalues --    1.37530   1.39079   1.47874   1.50655   1.51740
 Alpha virt. eigenvalues --    1.57007   1.59394   1.63285   1.66940   1.69964
 Alpha virt. eigenvalues --    1.70997   1.77585   1.78948   1.79318   1.89421
 Alpha virt. eigenvalues --    1.97946   2.15239   2.38156   2.40386   2.41212
 Alpha virt. eigenvalues --    2.42135   2.46144   2.50267   2.50545   2.52676
 Alpha virt. eigenvalues --    2.53397   2.54757   2.54849   2.55061   2.55844
 Alpha virt. eigenvalues --    2.58610   2.59924   2.62921   2.64292   2.65600
 Alpha virt. eigenvalues --    2.67938   2.68199   2.69685   2.72196   2.72612
 Alpha virt. eigenvalues --    2.74188   2.75480   2.78713   2.81148   2.81346
 Alpha virt. eigenvalues --    2.90935   3.04411   3.07436   3.10033   3.18426
 Alpha virt. eigenvalues --    3.20321   3.22048   3.25837   3.29400   3.31295
 Alpha virt. eigenvalues --    3.34430   3.53240   3.55056   3.57572   3.92858
 Alpha virt. eigenvalues --    4.17049   4.28480   4.43944   4.50600   4.58040
 Alpha virt. eigenvalues --    4.76760   4.95434   5.01198   5.20458   5.28420
 Alpha virt. eigenvalues --    5.32161   5.60504   6.45742   6.60027   6.84745
 Alpha virt. eigenvalues --    6.90226   6.92023   6.99833   7.22004   7.28248
 Alpha virt. eigenvalues --    7.34918   7.44654   7.56307   7.74864   7.79991
 Alpha virt. eigenvalues --    8.30061  14.04766
          Condensed to atoms (all electrons):
               1          2          3          4
     1  O    8.675705  -0.116729  -0.097911   0.046608
     2  Cl  -0.116729  17.077357   0.005437  -0.008816
     3  Br  -0.097911   0.005437  35.880614   0.040545
     4  H    0.046608  -0.008816   0.040545   0.628057
 Mulliken charges:
               1
     1  O   -0.507673
     2  Cl   0.042751
     3  Br  -0.828684
     4  H    0.293606
 Sum of Mulliken charges =  -1.00000
 Mulliken charges with hydrogens summed into heavy atoms:
               1
     1  O   -0.214067
     2  Cl   0.042751
     3  Br  -0.828684
 Electronic spatial extent (au):  <R**2>=           1479.6560
 Charge=             -1.0000 electrons
 Dipole moment (field-independent basis, Debye):
    X=              1.6659    Y=             10.1193    Z=              0.0000  Tot=             10.2556
 Quadrupole moment (field-independent basis, Debye-Ang):
   XX=            -45.5306   YY=            -76.1759   ZZ=            -43.1529
   XY=             -8.2765   XZ=              0.0000   YZ=             -0.0000
 Traceless Quadrupole moment (field-independent basis, Debye-Ang):
   XX=              9.4225   YY=            -21.2228   ZZ=             11.8003
   XY=             -8.2765   XZ=              0.0000   YZ=             -0.0000
 Octapole moment (field-independent basis, Debye-Ang**2):
  XXX=            -14.7608  YYY=            306.1380  ZZZ=              0.0000  XYY=             17.7312
  XXY=             74.4029  XXZ=              0.0000  XZZ=             -6.5618  YZZ=             68.8965
  YYZ=              0.0000  XYZ=              0.0000
 Hexadecapole moment (field-independent basis, Debye-Ang**3):
 XXXX=           -341.8983 YYYY=          -1574.9139 ZZZZ=            -61.5876 XXXY=           -151.9850
 XXXZ=              0.0000 YYYX=           -216.6442 YYYZ=             -0.0000 ZZZX=             -0.0000
 ZZZY=             -0.0000 XXYY=           -292.9104 XXZZ=            -71.9301 YYZZ=           -225.5436
 XXYZ=             -0.0000 YYXZ=             -0.0000 ZZXY=            -49.2828
 N-N= 1.903925086140D+02 E-N=-7.821848217690D+03  KE= 3.107322290799D+03
 No NMR shielding tensors so no spin-rotation constants.
 Leave Link  601 at Tue Oct 12 14:24:33 2021, MaxMem=  1048576000 cpu:         2.2
 (Enter /usr/local/gaussian/g09/l607.exe)
 ******************************Gaussian NBO Version 3.1******************************
             N A T U R A L   A T O M I C   O R B I T A L   A N D
          N A T U R A L   B O N D   O R B I T A L   A N A L Y S I S
 ******************************Gaussian NBO Version 3.1******************************
       /RESON  / : Allow strongly delocalized NBO set

 Analyzing the MP2 density

 Job title: title                                                           

 Storage needed:     95974 in NPA,    127345 in NBO (1048575896 available)


 NATURAL POPULATIONS:  Natural atomic orbital occupancies 
                                                          
   NAO  Atom  No  lang   Type(AO)    Occupancy
 --------------------------------------------
     1    O    1  S      Cor( 1S)     1.99971
     2    O    1  S      Val( 2S)     1.79878
     3    O    1  S      Ryd( 3S)     0.01008
     4    O    1  S      Ryd( 4S)     0.00114
     5    O    1  S      Ryd( 5S)     0.00018
     6    O    1  px     Val( 2p)     1.20282
     7    O    1  px     Ryd( 3p)     0.00695
     8    O    1  px     Ryd( 4p)     0.00064
     9    O    1  px     Ryd( 5p)     0.00041
    10    O    1  py     Val( 2p)     1.71826
    11    O    1  py     Ryd( 3p)     0.01249
    12    O    1  py     Ryd( 4p)     0.00075
    13    O    1  py     Ryd( 5p)     0.00051
    14    O    1  pz     Val( 2p)     1.94735
    15    O    1  pz     Ryd( 3p)     0.02052
    16    O    1  pz     Ryd( 4p)     0.00066
    17    O    1  pz     Ryd( 5p)     0.00015
    18    O    1  dxy    Ryd( 3d)     0.00865
    19    O    1  dxy    Ryd( 4d)     0.00048
    20    O    1  dxy    Ryd( 5d)     0.00014
    21    O    1  dxz    Ryd( 3d)     0.00876
    22    O    1  dxz    Ryd( 4d)     0.00058
    23    O    1  dxz    Ryd( 5d)     0.00010
    24    O    1  dyz    Ryd( 3d)     0.00748
    25    O    1  dyz    Ryd( 4d)     0.00062
    26    O    1  dyz    Ryd( 5d)     0.00035
    27    O    1  dx2y2  Ryd( 3d)     0.01346
    28    O    1  dx2y2  Ryd( 4d)     0.00037
    29    O    1  dx2y2  Ryd( 5d)     0.00017
    30    O    1  dz2    Ryd( 3d)     0.00959
    31    O    1  dz2    Ryd( 4d)     0.00059
    32    O    1  dz2    Ryd( 5d)     0.00016
    33    O    1  f(0)   Ryd( 4f)     0.00070
    34    O    1  f(0)   Ryd( 5f)     0.00011
    35    O    1  f(C1)  Ryd( 4f)     0.00067
    36    O    1  f(C1)  Ryd( 5f)     0.00012
    37    O    1  f(S1)  Ryd( 4f)     0.00059
    38    O    1  f(S1)  Ryd( 5f)     0.00011
    39    O    1  f(C2)  Ryd( 4f)     0.00060
    40    O    1  f(C2)  Ryd( 5f)     0.00013
    41    O    1  f(S2)  Ryd( 4f)     0.00054
    42    O    1  f(S2)  Ryd( 5f)     0.00012
    43    O    1  f(C3)  Ryd( 4f)     0.00059
    44    O    1  f(C3)  Ryd( 5f)     0.00014
    45    O    1  f(S3)  Ryd( 4f)     0.00055
    46    O    1  f(S3)  Ryd( 5f)     0.00013

    47   Cl    2  S      Cor( 1S)     2.00000
    48   Cl    2  S      Cor( 2S)     1.99978
    49   Cl    2  S      Val( 3S)     1.88066
    50   Cl    2  S      Ryd( 4S)     0.00787
    51   Cl    2  S      Ryd( 5S)     0.00053
    52   Cl    2  S      Ryd( 6S)     0.00017
    53   Cl    2  px     Cor( 2p)     1.99996
    54   Cl    2  px     Val( 3p)     0.91291
    55   Cl    2  px     Ryd( 4p)     0.00656
    56   Cl    2  px     Ryd( 5p)     0.00052
    57   Cl    2  px     Ryd( 6p)     0.00021
    58   Cl    2  py     Cor( 2p)     2.00003
    59   Cl    2  py     Val( 3p)     1.95305
    60   Cl    2  py     Ryd( 4p)     0.00997
    61   Cl    2  py     Ryd( 5p)     0.00052
    62   Cl    2  py     Ryd( 6p)     0.00009
    63   Cl    2  pz     Cor( 2p)     2.00003
    64   Cl    2  pz     Val( 3p)     1.95436
    65   Cl    2  pz     Ryd( 4p)     0.01074
    66   Cl    2  pz     Ryd( 5p)     0.00068
    67   Cl    2  pz     Ryd( 6p)     0.00003
    68   Cl    2  dxy    Ryd( 3d)     0.01700
    69   Cl    2  dxy    Ryd( 4d)     0.00090
    70   Cl    2  dxy    Ryd( 5d)     0.00035
    71   Cl    2  dxz    Ryd( 3d)     0.02160
    72   Cl    2  dxz    Ryd( 4d)     0.00114
    73   Cl    2  dxz    Ryd( 5d)     0.00036
    74   Cl    2  dyz    Ryd( 3d)     0.01682
    75   Cl    2  dyz    Ryd( 4d)     0.00072
    76   Cl    2  dyz    Ryd( 5d)     0.00020
    77   Cl    2  dx2y2  Ryd( 3d)     0.01857
    78   Cl    2  dx2y2  Ryd( 4d)     0.00047
    79   Cl    2  dx2y2  Ryd( 5d)     0.00017
    80   Cl    2  dz2    Ryd( 3d)     0.01756
    81   Cl    2  dz2    Ryd( 4d)     0.00059
    82   Cl    2  dz2    Ryd( 5d)     0.00017
    83   Cl    2  f(0)   Ryd( 4f)     0.00131
    84   Cl    2  f(0)   Ryd( 5f)     0.00014
    85   Cl    2  f(C1)  Ryd( 4f)     0.00146
    86   Cl    2  f(C1)  Ryd( 5f)     0.00015
    87   Cl    2  f(S1)  Ryd( 4f)     0.00127
    88   Cl    2  f(S1)  Ryd( 5f)     0.00013
    89   Cl    2  f(C2)  Ryd( 4f)     0.00134
    90   Cl    2  f(C2)  Ryd( 5f)     0.00013
    91   Cl    2  f(S2)  Ryd( 4f)     0.00120
    92   Cl    2  f(S2)  Ryd( 5f)     0.00013
    93   Cl    2  f(C3)  Ryd( 4f)     0.00158
    94   Cl    2  f(C3)  Ryd( 5f)     0.00013
    95   Cl    2  f(S3)  Ryd( 4f)     0.00127
    96   Cl    2  f(S3)  Ryd( 5f)     0.00014

    97   Br    3  S      Cor( 1S)     2.00000
    98   Br    3  S      Cor( 2S)     2.00000
    99   Br    3  S      Cor( 3S)     1.99978
   100   Br    3  S      Val( 4S)     1.96172
   101   Br    3  S      Ryd( 5S)     0.00173
   102   Br    3  S      Ryd( 6S)     0.00046
   103   Br    3  S      Ryd( 7S)     0.00016
   104   Br    3  px     Cor( 2p)     2.00000
   105   Br    3  px     Cor( 3p)     1.99999
   106   Br    3  px     Val( 4p)     1.94685
   107   Br    3  px     Ryd( 5p)     0.01090
   108   Br    3  px     Ryd( 6p)     0.00081
   109   Br    3  px     Ryd( 7p)     0.00010
   110   Br    3  py     Cor( 2p)     2.00000
   111   Br    3  py     Cor( 3p)     1.99990
   112   Br    3  py     Val( 4p)     1.83668
   113   Br    3  py     Ryd( 5p)     0.00931
   114   Br    3  py     Ryd( 6p)     0.00076
   115   Br    3  py     Ryd( 7p)     0.00011
   116   Br    3  pz     Cor( 2p)     2.00000
   117   Br    3  pz     Cor( 3p)     2.00000
   118   Br    3  pz     Val( 4p)     1.95382
   119   Br    3  pz     Ryd( 5p)     0.01105
   120   Br    3  pz     Ryd( 6p)     0.00081
   121   Br    3  pz     Ryd( 7p)     0.00009
   122   Br    3  dxy    Cor( 3d)     1.99765
   123   Br    3  dxy    Ryd( 4d)     0.01873
   124   Br    3  dxy    Ryd( 5d)     0.00140
   125   Br    3  dxy    Ryd( 6d)     0.00021
   126   Br    3  dxz    Cor( 3d)     1.99768
   127   Br    3  dxz    Ryd( 4d)     0.01858
   128   Br    3  dxz    Ryd( 5d)     0.00173
   129   Br    3  dxz    Ryd( 6d)     0.00025
   130   Br    3  dyz    Cor( 3d)     1.99766
   131   Br    3  dyz    Ryd( 4d)     0.01884
   132   Br    3  dyz    Ryd( 5d)     0.00142
   133   Br    3  dyz    Ryd( 6d)     0.00020
   134   Br    3  dx2y2  Cor( 3d)     1.99762
   135   Br    3  dx2y2  Ryd( 4d)     0.01857
   136   Br    3  dx2y2  Ryd( 5d)     0.00155
   137   Br    3  dx2y2  Ryd( 6d)     0.00024
   138   Br    3  dz2    Cor( 3d)     1.99766
   139   Br    3  dz2    Ryd( 4d)     0.01856
   140   Br    3  dz2    Ryd( 5d)     0.00169
   141   Br    3  dz2    Ryd( 6d)     0.00022
   142   Br    3  f(0)   Ryd( 4f)     0.00172
   143   Br    3  f(0)   Ryd( 5f)     0.00026
   144   Br    3  f(C1)  Ryd( 4f)     0.00175
   145   Br    3  f(C1)  Ryd( 5f)     0.00024
   146   Br    3  f(S1)  Ryd( 4f)     0.00177
   147   Br    3  f(S1)  Ryd( 5f)     0.00028
   148   Br    3  f(C2)  Ryd( 4f)     0.00171
   149   Br    3  f(C2)  Ryd( 5f)     0.00026
   150   Br    3  f(S2)  Ryd( 4f)     0.00175
   151   Br    3  f(S2)  Ryd( 5f)     0.00025
   152   Br    3  f(C3)  Ryd( 4f)     0.00171
   153   Br    3  f(C3)  Ryd( 5f)     0.00027
   154   Br    3  f(S3)  Ryd( 4f)     0.00173
   155   Br    3  f(S3)  Ryd( 5f)     0.00028

   156    H    4  S      Val( 1S)     0.50847
   157    H    4  S      Ryd( 2S)     0.00828
   158    H    4  S      Ryd( 3S)     0.00036
   159    H    4  S      Ryd( 4S)     0.00020
   160    H    4  px     Ryd( 2p)     0.00429
   161    H    4  px     Ryd( 3p)     0.00053
   162    H    4  px     Ryd( 4p)     0.00013
   163    H    4  py     Ryd( 2p)     0.00500
   164    H    4  py     Ryd( 3p)     0.00114
   165    H    4  py     Ryd( 4p)     0.00032
   166    H    4  pz     Ryd( 2p)     0.00557
   167    H    4  pz     Ryd( 3p)     0.00036
   168    H    4  pz     Ryd( 4p)     0.00027
   169    H    4  dxy    Ryd( 3d)     0.00030
   170    H    4  dxy    Ryd( 4d)     0.00011
   171    H    4  dxz    Ryd( 3d)     0.00024
   172    H    4  dxz    Ryd( 4d)     0.00006
   173    H    4  dyz    Ryd( 3d)     0.00045
   174    H    4  dyz    Ryd( 4d)     0.00012
   175    H    4  dx2y2  Ryd( 3d)     0.00022
   176    H    4  dx2y2  Ryd( 4d)     0.00012
   177    H    4  dz2    Ryd( 3d)     0.00026
   178    H    4  dz2    Ryd( 4d)     0.00008

 WARNING:  5 low occupancy (<1.9990e) core orbitals found on Br    3


 Summary of Natural Population Analysis:                  
                                                          
                                       Natural Population 
                Natural  -----------------------------------------------
    Atom  No    Charge         Core      Valence    Rydberg      Total
 -----------------------------------------------------------------------
      O    1   -0.77798      1.99971     6.66720    0.11106     8.77798
     Cl    2    0.15433      9.99979     6.70098    0.14490    16.84567
     Br    3   -0.83946     27.98793     7.69907    0.15246    35.83946
      H    4    0.46312      0.00000     0.50847    0.02842     0.53688
 =======================================================================
   * Total *   -1.00000     39.98744    21.57573    0.43683    62.00000

                                 Natural Population      
 --------------------------------------------------------
   Core                      39.98744 ( 99.9686% of  40)
   Valence                   21.57573 ( 98.0715% of  22)
   Natural Minimal Basis     61.56317 ( 99.2954% of  62)
   Natural Rydberg Basis      0.43683 (  0.7046% of  62)
 --------------------------------------------------------

    Atom  No          Natural Electron Configuration
 ----------------------------------------------------------------------------
      O    1      [core]2S( 1.80)2p( 4.87)3S( 0.01)3p( 0.04)3d( 0.05)
     Cl    2      [core]3S( 1.88)3p( 4.82)4S( 0.01)3d( 0.09)4p( 0.03)4f( 0.01)
     Br    3      [core]4S( 1.96)4p( 5.74)4d( 0.09)5p( 0.03)4f( 0.01)5d( 0.01)
      H    4            1S( 0.51)2S( 0.01)2p( 0.01)


 NATURAL BOND ORBITAL ANALYSIS:
 Warning:  a bond orbital has occupanc of -0.00002
 Warning:  a bond orbital has occupanc of -0.00000

                       Occupancies       Lewis Structure    Low   High
           Occ.    -------------------  -----------------   occ   occ
  Cycle   Thresh.   Lewis   Non-Lewis     CR  BD  3C  LP    (L)   (NL)   Dev
 =============================================================================
   1(1)    1.90    61.39233   0.60767     20   2   0   9     1      1    0.20
 Warning:  a bond orbital has occupanc of -0.00002
 Warning:  a bond orbital has occupanc of -0.00000
   2(2)    1.90    61.17303   0.82697     20   2   0   9     1      1    0.52
 Warning:  a bond orbital has occupanc of -0.00002
 Warning:  a bond orbital has occupanc of -0.00000
   3(3)    1.90    61.39233   0.60767     20   2   0   9     1      1    0.20
 Warning:  a bond orbital has occupanc of -0.00002
 Warning:  a bond orbital has occupanc of -0.00000
   4(1)    1.80    61.39233   0.60767     20   2   0   9     0      1    0.20
 Warning:  a bond orbital has occupanc of -0.00002
 Warning:  a bond orbital has occupanc of -0.00000
   5(2)    1.80    61.39233   0.60767     20   2   0   9     0      1    0.20
 Warning:  a bond orbital has occupanc of -0.00002
 Warning:  a bond orbital has occupanc of -0.00000
   6(1)    1.70    61.39233   0.60767     20   2   0   9     0      1    0.20
 Warning:  a bond orbital has occupanc of -0.00002
 Warning:  a bond orbital has occupanc of -0.00000
   7(2)    1.70    61.39233   0.60767     20   2   0   9     0      1    0.20
 Warning:  a bond orbital has occupanc of -0.00002
 Warning:  a bond orbital has occupanc of -0.00000
   8(1)    1.60    61.04337   0.95663     20   1   0  10     0      1    0.52
 Warning:  a bond orbital has occupanc of -0.00002
 Warning:  a bond orbital has occupanc of -0.00000
   9(2)    1.60    61.04337   0.95663     20   1   0  10     0      1    0.52
 Warning:  a bond orbital has occupanc of -0.00002
 Warning:  a bond orbital has occupanc of -0.00000
  10(1)    1.50    61.04337   0.95663     20   1   0  10     0      1    0.52
 Warning:  a bond orbital has occupanc of -0.00002
 Warning:  a bond orbital has occupanc of -0.00000
  11(2)    1.50    61.04337   0.95663     20   1   0  10     0      1    0.52
 Warning:  a bond orbital has occupanc of -0.00002
 Warning:  a bond orbital has occupanc of -0.00000
  12(1)    1.90    61.39233   0.60767     20   2   0   9     1      1    0.20
 -----------------------------------------------------------------------------

 Structure accepted: RESONANCE keyword permits strongly delocalized structure

 WARNING:  5 low occupancy (<1.9990e) core orbitals found on Br    3

 --------------------------------------------------------
   Core                     39.98744 ( 99.969% of  40)
   Valence Lewis            21.40489 ( 97.295% of  22)
  ==================       ============================
   Total Lewis              61.39233 ( 99.020% of  62)
  -----------------------------------------------------
   Valence non-Lewis         0.21622 (  0.349% of  62)
   Rydberg non-Lewis         0.39145 (  0.631% of  62)
  ==================       ============================
   Total non-Lewis           0.60767 (  0.980% of  62)
 --------------------------------------------------------


       (Occupancy)   Bond orbital/ Coefficients/ Hybrids
 ---------------------------------------------------------------------------------
     1. (1.93895) BD ( 1) O   1 -Cl   2  
                ( 58.69%)   0.7661* O   1 s( 10.48%)p 8.50( 89.00%)d 0.05(  0.51%)
                                                  f 0.00(  0.02%)
                                            0.0003  0.3203 -0.0441 -0.0152 -0.0005
                                            0.9417 -0.0341 -0.0104 -0.0122 -0.0324
                                           -0.0275 -0.0050  0.0003  0.0000  0.0000
                                            0.0000  0.0000 -0.0208 -0.0016  0.0022
                                            0.0000  0.0000  0.0000  0.0000  0.0000
                                            0.0000  0.0537  0.0043  0.0025 -0.0419
                                           -0.0034  0.0006  0.0000  0.0000 -0.0112
                                            0.0012 -0.0002  0.0002  0.0000  0.0000
                                            0.0000  0.0000  0.0062  0.0010 -0.0006
                                            0.0019
                ( 41.31%)   0.6428*Cl   2 s(  8.66%)p10.40( 90.08%)d 0.13(  1.15%)
                                                  f 0.01(  0.11%)
                                           -0.0000  0.0005  0.2889 -0.0550 -0.0100
                                           -0.0026 -0.0004 -0.9467  0.0649  0.0139
                                           -0.0043 -0.0000 -0.0119 -0.0020  0.0028
                                           -0.0011  0.0000  0.0000  0.0000  0.0000
                                            0.0000  0.0130 -0.0000  0.0006  0.0000
                                            0.0000  0.0000  0.0000  0.0000  0.0000
                                            0.0891 -0.0109 -0.0006 -0.0566  0.0063
                                            0.0012  0.0000  0.0000  0.0213 -0.0031
                                            0.0005 -0.0002  0.0000  0.0000  0.0000
                                            0.0000 -0.0259  0.0029 -0.0016  0.0003
     2. (1.96258) BD ( 1) O   1 - H   4  
                ( 80.61%)   0.8978* O   1 s( 27.82%)p 2.58( 71.71%)d 0.02(  0.46%)
                                                  f 0.00(  0.01%)
                                           -0.0003 -0.5274  0.0049  0.0084 -0.0023
                                            0.2055 -0.0157 -0.0029 -0.0039  0.8213
                                           -0.0011 -0.0058 -0.0044  0.0000  0.0000
                                            0.0000  0.0000  0.0018  0.0025  0.0003
                                            0.0000  0.0000  0.0000  0.0000  0.0000
                                            0.0000  0.0573  0.0061  0.0012  0.0348
                                            0.0017 -0.0035  0.0000  0.0000 -0.0018
                                           -0.0006 -0.0089  0.0000  0.0000  0.0000
                                            0.0000  0.0000 -0.0021 -0.0022  0.0003
                                           -0.0015
                ( 19.39%)   0.4403* H   4 s( 99.81%)p 0.00(  0.19%)d 0.00(  0.00%)
                                           -0.9979 -0.0468 -0.0064  0.0017 -0.0097
                                           -0.0107  0.0016  0.0180 -0.0343 -0.0126
                                            0.0000  0.0000  0.0000  0.0000  0.0011
                                            0.0000  0.0000  0.0000  0.0000  0.0034
                                            0.0017  0.0004  0.0041
     3. (1.99971) CR ( 1) O   1           s(100.00%)p 0.00(  0.00%)
                                            1.0000 -0.0004  0.0000  0.0000 -0.0000
                                           -0.0002  0.0000  0.0000  0.0000  0.0001
                                            0.0000 -0.0000 -0.0000  0.0000  0.0000
                                            0.0000  0.0000  0.0000  0.0000  0.0000
                                            0.0000  0.0000  0.0000  0.0000  0.0000
                                            0.0000 -0.0000  0.0000  0.0000  0.0000
                                            0.0000 -0.0000  0.0000  0.0000  0.0000
                                           -0.0000 -0.0000 -0.0000  0.0000  0.0000
                                            0.0000  0.0000 -0.0000 -0.0000 -0.0000
                                           -0.0000
     4. (2.00000) CR ( 1)Cl   2           s(100.00%)
                                            1.0000  0.0000 -0.0000 -0.0000 -0.0000
                                           -0.0000 -0.0000 -0.0000  0.0000  0.0000
                                           -0.0000 -0.0000 -0.0000 -0.0000  0.0000
                                           -0.0000  0.0000  0.0000  0.0000  0.0000
                                            0.0000  0.0000 -0.0000  0.0000  0.0000
                                            0.0000  0.0000  0.0000  0.0000  0.0000
                                            0.0000 -0.0000 -0.0000 -0.0000  0.0000
                                            0.0000  0.0000  0.0000  0.0000 -0.0000
                                            0.0000 -0.0000  0.0000  0.0000  0.0000
                                            0.0000 -0.0000  0.0000 -0.0000  0.0000
     5. (1.99978) CR ( 2)Cl   2           s(100.00%)p 0.00(  0.00%)
                                            0.0000  1.0000 -0.0004  0.0000  0.0000
                                            0.0000  0.0000  0.0004 -0.0000 -0.0000
                                            0.0000 -0.0000  0.0000  0.0000 -0.0000
                                            0.0000  0.0000  0.0000  0.0000  0.0000
                                            0.0000 -0.0000  0.0000 -0.0000  0.0000
                                            0.0000  0.0000  0.0000  0.0000  0.0000
                                           -0.0000  0.0000  0.0000  0.0000 -0.0000
                                           -0.0000  0.0000  0.0000 -0.0000  0.0000
                                           -0.0000  0.0000  0.0000  0.0000  0.0000
                                            0.0000  0.0000 -0.0000  0.0000 -0.0000
     6. (1.99996) CR ( 3)Cl   2           s(  0.00%)p 1.00(100.00%)
                                           -0.0000  0.0000  0.0001 -0.0000 -0.0000
                                           -0.0000  1.0000 -0.0004  0.0000  0.0000
                                           -0.0000  0.0000 -0.0000 -0.0000  0.0000
                                           -0.0000  0.0000  0.0000  0.0000  0.0000
                                            0.0000  0.0000 -0.0000  0.0000  0.0000
                                            0.0000  0.0000  0.0000  0.0000  0.0000
                                            0.0000 -0.0000 -0.0000 -0.0000  0.0000
                                            0.0000  0.0000  0.0000  0.0000 -0.0000
                                            0.0000 -0.0000  0.0000  0.0000  0.0000
                                            0.0000 -0.0000  0.0000 -0.0000  0.0000
     7. (2.00003) CR ( 4)Cl   2           s(  0.00%)p 1.00(100.00%)
                                           -0.0000 -0.0000  0.0000  0.0000  0.0000
                                           -0.0000  0.0000 -0.0000  0.0000  0.0000
                                           -0.0000  1.0000  0.0002  0.0000  0.0000
                                            0.0000  0.0000  0.0000  0.0000  0.0000
                                            0.0000  0.0000  0.0000  0.0000  0.0000
                                            0.0000  0.0000  0.0000  0.0000  0.0000
                                           -0.0000 -0.0000 -0.0000 -0.0000 -0.0000
                                           -0.0000  0.0000  0.0000  0.0000  0.0000
                                           -0.0000  0.0000  0.0000  0.0000  0.0000
                                            0.0000 -0.0000  0.0000  0.0000 -0.0000
     8. (2.00003) CR ( 5)Cl   2           s(  0.00%)p 1.00(100.00%)
                                            0.0000  0.0000  0.0000  0.0000  0.0000
                                            0.0000  0.0000  0.0000  0.0000  0.0000
                                            0.0000  0.0000  0.0000  0.0000  0.0000
                                            0.0000  1.0000  0.0002  0.0000  0.0000
                                           -0.0000  0.0000  0.0000  0.0000  0.0000
                                            0.0000  0.0000  0.0000  0.0000  0.0000
                                            0.0000  0.0000  0.0000  0.0000  0.0000
                                            0.0000 -0.0000  0.0000  0.0000  0.0000
                                            0.0000  0.0000  0.0000 -0.0000  0.0000
                                           -0.0000  0.0000  0.0000  0.0000  0.0000
     9. (2.00000) CR ( 1)Br   3           s(100.00%)
                                            1.0000 -0.0000  0.0000  0.0000 -0.0000
                                            0.0000  0.0000  0.0000 -0.0000 -0.0000
                                            0.0000 -0.0000 -0.0000  0.0000 -0.0000
                                           -0.0000  0.0000 -0.0000 -0.0000  0.0000
                                            0.0000  0.0000  0.0000  0.0000  0.0000
                                           -0.0000 -0.0000  0.0000 -0.0000  0.0000
                                            0.0000  0.0000  0.0000  0.0000  0.0000
                                            0.0000  0.0000  0.0000  0.0000  0.0000
                                            0.0000  0.0000  0.0000 -0.0000  0.0000
                                            0.0000  0.0000  0.0000  0.0000 -0.0000
                                           -0.0000  0.0000  0.0000  0.0000  0.0000
                                           -0.0000 -0.0000 -0.0000 -0.0000
    10. (2.00000) CR ( 2)Br   3           s(100.00%)
                                           -0.0000  1.0000  0.0000  0.0000 -0.0000
                                            0.0000  0.0000 -0.0000  0.0000  0.0000
                                            0.0000  0.0000 -0.0000  0.0000 -0.0000
                                           -0.0000  0.0000 -0.0000  0.0000  0.0000
                                            0.0000  0.0000  0.0000  0.0000  0.0000
                                           -0.0000  0.0000 -0.0000 -0.0000  0.0000
                                            0.0000  0.0000  0.0000  0.0000  0.0000
                                            0.0000  0.0000  0.0000  0.0000  0.0000
                                            0.0000  0.0000  0.0000 -0.0000  0.0000
                                            0.0000  0.0000 -0.0000 -0.0000 -0.0000
                                           -0.0000  0.0000  0.0000  0.0000  0.0000
                                           -0.0000 -0.0000  0.0000  0.0000
    11. (1.99978) CR ( 3)Br   3           s(100.00%)
                                            0.0000  0.0000  1.0000 -0.0003  0.0000
                                           -0.0000 -0.0000 -0.0000  0.0000  0.0000
                                           -0.0000  0.0000  0.0000 -0.0000  0.0000
                                            0.0001 -0.0000  0.0000  0.0000  0.0000
                                            0.0000  0.0000  0.0000  0.0000  0.0000
                                            0.0000  0.0000 -0.0000  0.0000  0.0000
                                            0.0000  0.0000  0.0000  0.0000  0.0000
                                            0.0000  0.0000 -0.0000 -0.0000 -0.0000
                                           -0.0000 -0.0000 -0.0000  0.0000 -0.0000
                                            0.0000  0.0000 -0.0000 -0.0000  0.0000
                                            0.0000  0.0000  0.0000  0.0000  0.0000
                                           -0.0000  0.0000  0.0000  0.0000
    12. (2.00000) CR ( 4)Br   3           s(  0.00%)p 1.00(100.00%)
                                            0.0000 -0.0000 -0.0000 -0.0000  0.0000
                                           -0.0000 -0.0000  1.0000  0.0000  0.0000
                                            0.0000  0.0000 -0.0000  0.0000 -0.0000
                                           -0.0000 -0.0000 -0.0000  0.0000  0.0000
                                            0.0000  0.0000  0.0000  0.0000  0.0000
                                           -0.0000  0.0000 -0.0000 -0.0000  0.0000
                                            0.0000  0.0000  0.0000  0.0000  0.0000
                                            0.0000  0.0000 -0.0000  0.0000 -0.0000
                                           -0.0000 -0.0000  0.0000 -0.0000  0.0000
                                            0.0000  0.0000 -0.0000 -0.0000  0.0000
                                            0.0000  0.0000  0.0000  0.0000  0.0000
                                           -0.0000 -0.0000  0.0000  0.0000
    13. (1.99999) CR ( 5)Br   3           s(  0.00%)p 1.00(100.00%)
                                           -0.0000  0.0000  0.0000  0.0000 -0.0000
                                            0.0000  0.0000  0.0000  1.0000 -0.0003
                                           -0.0000 -0.0000  0.0000 -0.0000  0.0000
                                            0.0001  0.0000  0.0000 -0.0000  0.0000
                                            0.0000  0.0000  0.0000  0.0000  0.0000
                                            0.0000 -0.0000  0.0000  0.0000  0.0000
                                            0.0000  0.0000  0.0000  0.0000  0.0000
                                            0.0000  0.0000  0.0000 -0.0000  0.0000
                                            0.0000  0.0000 -0.0000  0.0000 -0.0000
                                            0.0000  0.0000  0.0000  0.0000 -0.0000
                                           -0.0000  0.0000  0.0000  0.0000  0.0000
                                            0.0000  0.0000 -0.0000 -0.0000
    14. (2.00000) CR ( 6)Br   3           s(  0.00%)p 1.00(100.00%)
                                            0.0000  0.0000 -0.0000 -0.0000  0.0000
                                           -0.0000 -0.0000  0.0000 -0.0000 -0.0000
                                           -0.0000 -0.0000  0.0000  1.0000  0.0000
                                            0.0000 -0.0000  0.0000 -0.0000  0.0000
                                            0.0000  0.0000  0.0000  0.0000  0.0000
                                            0.0000 -0.0000  0.0000  0.0000  0.0000
                                            0.0000  0.0000  0.0000  0.0000  0.0000
                                            0.0000  0.0000 -0.0000 -0.0000 -0.0000
                                            0.0000 -0.0000 -0.0000  0.0000 -0.0000
                                            0.0000  0.0000  0.0000  0.0000 -0.0000
                                            0.0000  0.0000  0.0000  0.0000  0.0000
                                            0.0000  0.0000 -0.0000 -0.0000
    15. (1.99990) CR ( 7)Br   3           s(  0.00%)p 1.00(100.00%)
                                           -0.0000 -0.0000  0.0000  0.0001 -0.0000
                                            0.0000  0.0000 -0.0000  0.0000  0.0001
                                            0.0000  0.0000 -0.0000  0.0000  1.0000
                                           -0.0001  0.0000 -0.0000  0.0000  0.0000
                                            0.0000  0.0000  0.0000  0.0000  0.0000
                                           -0.0000  0.0000 -0.0000 -0.0000  0.0000
                                            0.0000  0.0000  0.0000  0.0000  0.0000
                                            0.0000  0.0000  0.0000  0.0000  0.0000
                                           -0.0000  0.0000  0.0000 -0.0000  0.0000
                                            0.0000  0.0000 -0.0000 -0.0000  0.0000
                                           -0.0000  0.0000  0.0000  0.0000  0.0000
                                           -0.0000 -0.0000  0.0000  0.0000
    16. (2.00000) CR ( 8)Br   3           s(  0.00%)p 1.00(100.00%)
                                            0.0000  0.0000  0.0000  0.0000  0.0000
                                            0.0000  0.0000  0.0000  0.0000  0.0000
                                            0.0000  0.0000  0.0000  0.0000  0.0000
                                            0.0000  0.0000  0.0000  0.0000  1.0000
                                            0.0000  0.0000  0.0000  0.0000 -0.0000
                                            0.0000  0.0000  0.0000  0.0000 -0.0000
                                            0.0000 -0.0000 -0.0000 -0.0000  0.0000
                                           -0.0000 -0.0000  0.0000  0.0000  0.0000
                                            0.0000  0.0000  0.0000  0.0000  0.0000
                                           -0.0000 -0.0000  0.0000  0.0000  0.0000
                                            0.0000 -0.0000 -0.0000  0.0000  0.0000
                                            0.0000  0.0000  0.0000  0.0000
    17. (2.00000) CR ( 9)Br   3           s(  0.00%)p 1.00(100.00%)
                                            0.0000  0.0000  0.0000  0.0000  0.0000
                                            0.0000  0.0000  0.0000  0.0000  0.0000
                                            0.0000  0.0000  0.0000  0.0000  0.0000
                                            0.0000  0.0000  0.0000  0.0000  0.0000
                                            1.0000 -0.0003 -0.0000 -0.0000  0.0000
                                            0.0000  0.0000  0.0000  0.0000  0.0000
                                           -0.0000  0.0000  0.0000  0.0000 -0.0000
                                            0.0000  0.0000  0.0000  0.0000  0.0000
                                            0.0000  0.0000  0.0000  0.0000  0.0000
                                            0.0000  0.0000  0.0000  0.0000  0.0000
                                            0.0000  0.0000  0.0000 -0.0000 -0.0000
                                            0.0000  0.0000  0.0000  0.0000
    18. (1.99765) CR (10)Br   3           s(  0.00%)p 0.00(  0.00%)d 1.00(100.00%)
                                           -0.0000 -0.0000  0.0000  0.0000  0.0000
                                            0.0000  0.0000 -0.0000  0.0000  0.0000
                                            0.0000  0.0000 -0.0000  0.0000 -0.0000
                                           -0.0000  0.0000 -0.0000  0.0000  0.0000
                                            0.0000  0.0000  0.0000  0.0000  0.0000
                                            1.0000  0.0000 -0.0000 -0.0000  0.0000
                                            0.0000  0.0000  0.0000  0.0000  0.0000
                                            0.0000  0.0000  0.0000  0.0000  0.0000
                                           -0.0000  0.0000  0.0000 -0.0000  0.0000
                                            0.0000  0.0000 -0.0000 -0.0000  0.0000
                                           -0.0000  0.0000  0.0000  0.0000  0.0000
                                           -0.0000 -0.0000  0.0000  0.0000
    19. (1.99768) CR (11)Br   3           s(  0.00%)p 0.00(  0.00%)d 1.00(100.00%)
                                            0.0000  0.0000  0.0000  0.0000  0.0000
                                            0.0000  0.0000  0.0000  0.0000  0.0000
                                            0.0000  0.0000  0.0000  0.0000  0.0000
                                            0.0000  0.0000  0.0000  0.0000 -0.0000
                                            0.0000  0.0000  0.0000  0.0000 -0.0000
                                            0.0000  0.0000  0.0000  0.0000  1.0000
                                            0.0000 -0.0000 -0.0000 -0.0000  0.0000
                                           -0.0000 -0.0000  0.0000  0.0000  0.0000
                                            0.0000  0.0000  0.0000  0.0000  0.0000
                                           -0.0000 -0.0000  0.0000  0.0000  0.0000
                                            0.0000 -0.0000 -0.0000  0.0000  0.0000
                                            0.0000  0.0000  0.0000  0.0000
    20. (1.99766) CR (12)Br   3           s(  0.00%)p 0.00(  0.00%)d 1.00(100.00%)
                                            0.0000  0.0000  0.0000  0.0000  0.0000
                                            0.0000  0.0000  0.0000  0.0000  0.0000
                                            0.0000  0.0000  0.0000  0.0000  0.0000
                                            0.0000  0.0000  0.0000  0.0000 -0.0000
                                            0.0000  0.0000  0.0000  0.0000 -0.0000
                                            0.0000  0.0000  0.0000  0.0000 -0.0000
                                            0.0000 -0.0000 -0.0000  1.0000  0.0000
                                           -0.0000 -0.0000  0.0000  0.0000  0.0000
                                            0.0000  0.0000  0.0000  0.0000  0.0000
                                           -0.0000 -0.0000  0.0000  0.0000  0.0000
                                            0.0000 -0.0000 -0.0000  0.0000  0.0000
                                            0.0000  0.0000  0.0000  0.0000
    21. (1.99762) CR (13)Br   3           s(  0.00%)p 0.00(  0.00%)d 1.00(100.00%)
                                            0.0000  0.0000 -0.0000 -0.0000  0.0000
                                           -0.0000 -0.0000 -0.0000  0.0000  0.0000
                                            0.0000  0.0000  0.0000 -0.0000  0.0000
                                            0.0000 -0.0000  0.0000  0.0000  0.0000
                                            0.0000  0.0000  0.0000  0.0000  0.0000
                                            0.0000  0.0000 -0.0000  0.0000  0.0000
                                            0.0000  0.0000  0.0000  0.0000  0.0000
                                            0.0000  0.0000  1.0000 -0.0000 -0.0000
                                           -0.0000 -0.0000 -0.0000  0.0000 -0.0000
                                            0.0000  0.0000 -0.0000 -0.0000  0.0000
                                            0.0000  0.0000  0.0000  0.0000  0.0000
                                           -0.0000 -0.0000  0.0000  0.0000
    22. (1.99766) CR (14)Br   3           s(  0.00%)p 0.00(  0.00%)d 1.00(100.00%)
                                            0.0000  0.0000 -0.0000 -0.0000  0.0000
                                           -0.0000 -0.0000 -0.0000  0.0000  0.0000
                                           -0.0000  0.0000  0.0000 -0.0000  0.0000
                                            0.0000 -0.0000  0.0000  0.0000  0.0000
                                            0.0000  0.0000  0.0000  0.0000  0.0000
                                            0.0000  0.0000 -0.0000  0.0000  0.0000
                                            0.0000  0.0000  0.0000  0.0000  0.0000
                                            0.0000  0.0000 -0.0000 -0.0000 -0.0000
                                           -0.0000  1.0000 -0.0000  0.0000 -0.0000
                                            0.0000  0.0000  0.0000 -0.0000  0.0000
                                            0.0000  0.0000  0.0000  0.0000  0.0000
                                            0.0000  0.0000 -0.0000  0.0000
    23. (1.96608) LP ( 1) O   1           s( 61.86%)p 0.61( 38.04%)d 0.00(  0.09%)
                                                  f 0.00(  0.00%)
                                            0.0002  0.7864  0.0111  0.0085 -0.0016
                                           -0.2471 -0.0021 -0.0042 -0.0021  0.5650
                                            0.0082  0.0057  0.0017  0.0000  0.0000
                                            0.0000  0.0000  0.0223  0.0022 -0.0033
                                            0.0000  0.0000  0.0000  0.0000  0.0000
                                            0.0000  0.0151  0.0004 -0.0038  0.0113
                                            0.0008  0.0009  0.0000  0.0000 -0.0001
                                            0.0005 -0.0026  0.0001  0.0000  0.0000
                                            0.0000  0.0000  0.0035 -0.0024  0.0039
                                           -0.0016
    24. (1.95183) LP ( 2) O   1           s(  0.00%)p 1.00( 99.81%)d 0.00(  0.17%)
                                                  f 0.00(  0.01%)
                                            0.0000  0.0000  0.0000  0.0000  0.0000
                                            0.0000  0.0000  0.0000  0.0000  0.0000
                                            0.0000  0.0000  0.0000  0.9988  0.0182
                                            0.0058  0.0078  0.0000  0.0000  0.0000
                                            0.0309  0.0050 -0.0008 -0.0249  0.0039
                                            0.0115  0.0000  0.0000  0.0000  0.0000
                                            0.0000  0.0000 -0.0100  0.0007  0.0000
                                            0.0000  0.0000  0.0000  0.0052 -0.0021
                                            0.0008  0.0011  0.0000  0.0000  0.0000
                                            0.0000
    25. (1.97358) LP ( 1)Cl   2           s( 91.46%)p 0.09(  8.52%)d 0.00(  0.02%)
                                                  f 0.00(  0.00%)
                                            0.0000  0.0002  0.9563  0.0065  0.0011
                                            0.0003  0.0001  0.2896 -0.0063 -0.0031
                                            0.0013  0.0000 -0.0348  0.0012  0.0001
                                           -0.0005  0.0000  0.0000  0.0000  0.0000
                                            0.0000 -0.0001 -0.0005 -0.0004  0.0000
                                            0.0000  0.0000  0.0000  0.0000  0.0000
                                           -0.0123  0.0005  0.0002  0.0078  0.0005
                                            0.0003  0.0000  0.0000 -0.0021 -0.0004
                                            0.0001 -0.0000  0.0000  0.0000  0.0000
                                            0.0000  0.0035 -0.0001 -0.0005  0.0002
    26. (1.95596) LP ( 2)Cl   2           s(  0.00%)p 1.00( 99.94%)d 0.00(  0.05%)
                                                  f 0.00(  0.01%)
                                            0.0000  0.0000  0.0000  0.0000  0.0000
                                            0.0000  0.0000  0.0000  0.0000  0.0000
                                            0.0000  0.0000  0.0000  0.0000  0.0000
                                            0.0000 -0.0002  0.9996  0.0153  0.0052
                                           -0.0023  0.0000  0.0000  0.0000  0.0084
                                            0.0180  0.0083  0.0032  0.0027  0.0006
                                            0.0000  0.0000  0.0000  0.0000  0.0000
                                            0.0000 -0.0055  0.0011  0.0000  0.0000
                                            0.0000  0.0000  0.0065 -0.0010  0.0009
                                           -0.0007  0.0000  0.0000  0.0000  0.0000
    27. (1.95458) LP ( 3)Cl   2           s(  0.14%)p99.99( 99.81%)d 0.28(  0.04%)
                                                  f 0.06(  0.01%)
                                            0.0000 -0.0000  0.0369  0.0057  0.0039
                                           -0.0019  0.0000 -0.0023 -0.0003 -0.0003
                                           -0.0007 -0.0002  0.9990  0.0131  0.0015
                                            0.0002  0.0000  0.0000  0.0000  0.0000
                                            0.0000 -0.0004  0.0157  0.0079  0.0000
                                            0.0000  0.0000  0.0000  0.0000  0.0000
                                           -0.0073 -0.0045 -0.0028 -0.0006 -0.0026
                                           -0.0003  0.0000  0.0000  0.0001  0.0003
                                           -0.0024  0.0003  0.0000  0.0000  0.0000
                                            0.0000 -0.0012  0.0002  0.0086 -0.0014
    28. (1.97764) LP ( 1)Br   3           s( 90.23%)p 0.11(  9.77%)d 0.00(  0.00%)
                                                  f 0.00(  0.00%)
                                           -0.0000 -0.0000  0.0003  0.9499 -0.0002
                                            0.0012  0.0006  0.0000 -0.0000 -0.0801
                                            0.0002 -0.0002 -0.0001  0.0000 -0.0002
                                           -0.3022  0.0019 -0.0006 -0.0000  0.0000
                                            0.0000  0.0000  0.0000  0.0000  0.0000
                                           -0.0000 -0.0006  0.0001 -0.0002  0.0000
                                            0.0000  0.0000  0.0000  0.0000  0.0000
                                            0.0000  0.0000  0.0000  0.0011  0.0001
                                            0.0003  0.0000  0.0009 -0.0000  0.0004
                                            0.0000  0.0000  0.0000  0.0000 -0.0001
                                           -0.0001  0.0000  0.0000  0.0000  0.0000
                                           -0.0000 -0.0000 -0.0001 -0.0001
    29. (1.95409) LP ( 2)Br   3           s(  0.00%)p 1.00( 99.99%)d 0.00(  0.01%)
                                                  f 0.00(  0.00%)
                                            0.0000  0.0000  0.0000  0.0000  0.0000
                                            0.0000  0.0000  0.0000  0.0000  0.0000
                                            0.0000  0.0000  0.0000  0.0000  0.0000
                                            0.0000  0.0000  0.0000  0.0000 -0.0000
                                            0.0003  0.9999  0.0039  0.0020 -0.0003
                                            0.0000  0.0000  0.0000  0.0000 -0.0000
                                            0.0020 -0.0002 -0.0005 -0.0000  0.0095
                                           -0.0018 -0.0017  0.0000  0.0000  0.0000
                                            0.0000  0.0000  0.0000  0.0000  0.0000
                                           -0.0025 -0.0013  0.0000  0.0000  0.0000
                                            0.0000 -0.0028 -0.0013  0.0014  0.0008
                                            0.0000  0.0000  0.0000  0.0000
    30. (1.95374) LP ( 3)Br   3           s(  0.01%)p 1.00( 99.98%)d 0.00(  0.01%)
                                                  f 0.00(  0.00%)
                                           -0.0000 -0.0000 -0.0000  0.0076  0.0004
                                           -0.0002 -0.0007 -0.0000  0.0003  0.9722
                                            0.0038  0.0017 -0.0004  0.0000 -0.0001
                                           -0.2337 -0.0009 -0.0006  0.0002  0.0000
                                            0.0000  0.0000  0.0000  0.0000  0.0000
                                           -0.0000  0.0096 -0.0014 -0.0016  0.0000
                                            0.0000  0.0000  0.0000  0.0000  0.0000
                                            0.0000  0.0000 -0.0000  0.0037 -0.0001
                                           -0.0016  0.0000  0.0002 -0.0001  0.0001
                                            0.0000  0.0000 -0.0010 -0.0005  0.0002
                                            0.0000  0.0000  0.0000  0.0000  0.0000
                                           -0.0029 -0.0013  0.0022  0.0010
    31. (1.81585) LP ( 4)Br   3           s(  9.76%)p 9.23( 90.15%)d 0.01(  0.07%)
                                                  f 0.00(  0.01%)
                                            0.0000 -0.0000 -0.0000  0.3124  0.0007
                                           -0.0039 -0.0021  0.0000 -0.0000  0.2196
                                           -0.0015 -0.0006  0.0003 -0.0000  0.0000
                                            0.9237 -0.0080 -0.0046  0.0008  0.0000
                                            0.0000  0.0000  0.0000  0.0000  0.0000
                                            0.0000  0.0101 -0.0020 -0.0001  0.0000
                                            0.0000  0.0000  0.0000  0.0000  0.0000
                                            0.0000  0.0000  0.0000 -0.0200  0.0038
                                            0.0014 -0.0000 -0.0140  0.0030 -0.0003
                                            0.0000  0.0000 -0.0013 -0.0007 -0.0054
                                           -0.0026  0.0000  0.0000  0.0000  0.0000
                                           -0.0043 -0.0018 -0.0052 -0.0020
    32. (0.02009) RY*( 1) O   1           s(  0.00%)p 1.00( 98.78%)d 0.01(  1.17%)
                                                  f 0.00(  0.05%)
                                            0.0000  0.0000  0.0000  0.0000  0.0000
                                            0.0000  0.0000  0.0000  0.0000  0.0000
                                            0.0000  0.0000  0.0000 -0.0223  0.9929
                                           -0.0361 -0.0127  0.0000  0.0000  0.0000
                                            0.0806  0.0274  0.0091 -0.0643  0.0007
                                            0.0148  0.0000  0.0000  0.0000  0.0000
                                            0.0000  0.0000 -0.0126  0.0109  0.0000
                                            0.0000  0.0000  0.0000  0.0110 -0.0098
                                           -0.0024  0.0012  0.0000  0.0000  0.0000
                                            0.0000
    33. (0.01657) RY*( 2) O   1           s( 30.09%)p 2.26( 67.87%)d 0.06(  1.86%)
                                                  f 0.01(  0.18%)
                                           -0.0000  0.0043  0.5476 -0.0303 -0.0083
                                            0.0359 -0.3402 -0.0070  0.0228 -0.0194
                                            0.7462 -0.0018 -0.0621  0.0000  0.0000
                                            0.0000  0.0000  0.1193  0.0275  0.0096
                                            0.0000  0.0000  0.0000  0.0000  0.0000
                                            0.0000  0.0274  0.0058  0.0062  0.0517
                                            0.0045 -0.0033  0.0000  0.0000 -0.0035
                                            0.0004  0.0035  0.0025  0.0000  0.0000
                                            0.0000  0.0000  0.0314 -0.0138  0.0219
                                           -0.0113
    34. (0.00819) RY*( 3) O   1           s( 19.63%)p 0.69( 13.46%)d 3.35( 65.82%)
                                                  f 0.06(  1.09%)
                                           -0.0000  0.0156  0.4361 -0.0746  0.0177
                                           -0.0178 -0.1745  0.0085  0.0451 -0.0111
                                           -0.3060  0.0288 -0.0844 -0.0000 -0.0000
                                           -0.0000 -0.0000 -0.7578 -0.0123 -0.0237
                                           -0.0000 -0.0000 -0.0000 -0.0000 -0.0000
                                           -0.0000  0.1752  0.0038  0.0300  0.2270
                                           -0.0111  0.0061 -0.0000 -0.0000 -0.0216
                                            0.0145  0.0031  0.0028 -0.0000 -0.0000
                                           -0.0000 -0.0000 -0.0340  0.0144 -0.0859
                                            0.0379
    35. (0.00707) RY*( 4) O   1           s(  0.00%)p 1.00(  0.34%)d99.99( 97.90%)
                                                  f 5.15(  1.76%)
                                            0.0000  0.0000  0.0000  0.0000  0.0000
                                            0.0000  0.0000  0.0000  0.0000  0.0000
                                            0.0000  0.0000  0.0000 -0.0191 -0.0534
                                           -0.0106 -0.0085  0.0000  0.0000  0.0000
                                            0.9185 -0.0406  0.0169  0.3647 -0.0193
[...]
   162. (0.00035) RY*( 8) H   4           s( 19.74%)p 2.77( 54.65%)d 1.30( 25.62%)
                                           -0.0045  0.0005  0.3745  0.2390 -0.0651
                                            0.5332 -0.1395  0.0747 -0.2138  0.4326
                                           -0.0000 -0.0000 -0.0000 -0.4186  0.1792
                                           -0.0000 -0.0000 -0.0000 -0.0000  0.0177
                                           -0.1365  0.1246 -0.1197
   163. (0.00031) RY*( 9) H   4           s(  0.00%)p 1.00( 93.89%)d 0.07(  6.11%)
                                            0.0000  0.0000  0.0000  0.0000  0.0000
                                            0.0000  0.0000  0.0000  0.0000  0.0000
                                           -0.1176  0.9557  0.1088  0.0000  0.0000
                                           -0.0631  0.0932  0.0424  0.2158  0.0000
                                            0.0000  0.0000  0.0000
   164. (0.00027) RY*(10) H   4           s(  1.99%)p 9.79( 19.45%)d39.56( 78.56%)
                                            0.0108  0.0445  0.0019  0.1333 -0.0926
                                           -0.0304 -0.1730  0.0052 -0.1292 -0.3720
                                           -0.0000 -0.0000 -0.0000 -0.4306 -0.0098
                                           -0.0000 -0.0000 -0.0000 -0.0000  0.5224
                                            0.0853 -0.5301  0.1974
   165. (0.00025) RY*(11) H   4           s(  0.00%)p 1.00(  0.58%)d99.99( 99.42%)
                                            0.0000  0.0000  0.0000  0.0000  0.0000
                                            0.0000  0.0000  0.0000  0.0000  0.0000
                                           -0.0122  0.0705  0.0254  0.0000  0.0000
                                            0.9748 -0.1844 -0.0865  0.0499  0.0000
                                            0.0000  0.0000  0.0000
   166. (0.00022) RY*(12) H   4           s( 13.55%)p 1.81( 24.59%)d 4.56( 61.86%)
                                            0.0147  0.0221  0.1297  0.3435  0.0714
                                            0.0357  0.0724 -0.0105 -0.3071 -0.3740
                                            0.0000  0.0000  0.0000  0.2167 -0.0516
                                            0.0000  0.0000  0.0000  0.0000  0.3896
                                            0.1615  0.6253  0.0066
   167. (0.00020) RY*(13) H   4           s(  8.97%)p 2.06( 18.48%)d 8.09( 72.55%)
                                           -0.0070 -0.0321  0.2365  0.1808  0.0699
                                           -0.0301  0.2571  0.0069  0.1283  0.3105
                                            0.0000  0.0000  0.0000  0.5344  0.2017
                                            0.0000  0.0000  0.0000  0.0000  0.4736
                                           -0.1655 -0.3536 -0.1501
   168. (0.00013) RY*(14) H   4           s( 70.01%)p 0.19( 13.44%)d 0.24( 16.55%)
                                           -0.0058 -0.0577 -0.2691  0.7902  0.0048
                                            0.1837 -0.1395  0.0174  0.2730 -0.0795
                                            0.0000  0.0000  0.0000  0.1273 -0.2018
                                            0.0000  0.0000  0.0000  0.0000 -0.2857
                                           -0.0262 -0.1604  0.0235
   169. (0.00012) RY*(15) H   4           s(  0.00%)p 1.00( 36.02%)d 1.78( 63.98%)
                                            0.0000  0.0000  0.0000  0.0000  0.0000
                                            0.0000  0.0000  0.0000  0.0000  0.0000
                                           -0.0297 -0.2100  0.5614  0.0000  0.0000
                                           -0.0423  0.1609 -0.4530  0.6379  0.0000
                                            0.0000  0.0000  0.0000
   170. (0.00010) RY*(16) H   4           s(  4.14%)p 6.63( 27.48%)d16.51( 68.38%)
   171. (0.00007) RY*(17) H   4           s( 21.11%)p 1.79( 37.72%)d 1.95( 41.18%)
   172. (0.00005) RY*(18) H   4           s(  0.00%)p 1.00(  1.99%)d49.18( 98.01%)
   173. (0.00006) RY*(19) H   4           s(  0.00%)p 1.00( 34.76%)d 1.88( 65.24%)
   174. (0.00004) RY*(20) H   4           s( 15.76%)p 0.57(  8.93%)d 4.78( 75.31%)
   175. (0.00004) RY*(21) H   4           s(  4.62%)p11.70( 54.05%)d 8.95( 41.34%)
   176. (0.00005) RY*(22) H   4           s(  3.26%)p 0.50(  1.64%)d29.14( 95.09%)
   177. (0.05836) BD*( 1) O   1 -Cl   2  
                ( 41.31%)   0.6428* O   1 s( 10.48%)p 8.50( 89.00%)d 0.05(  0.51%)
                                                  f 0.00(  0.02%)
                                           -0.0003 -0.3203  0.0441  0.0152  0.0005
                                           -0.9417  0.0341  0.0104  0.0122  0.0324
                                            0.0275  0.0050 -0.0003 -0.0000 -0.0000
                                           -0.0000 -0.0000  0.0208  0.0016 -0.0022
                                           -0.0000 -0.0000 -0.0000 -0.0000 -0.0000
                                           -0.0000 -0.0537 -0.0043 -0.0025  0.0419
                                            0.0034 -0.0006 -0.0000 -0.0000  0.0112
                                           -0.0012  0.0002 -0.0002 -0.0000 -0.0000
                                           -0.0000 -0.0000 -0.0062 -0.0010  0.0006
                                           -0.0019
                ( 58.69%)  -0.7661*Cl   2 s(  8.66%)p10.40( 90.08%)d 0.13(  1.15%)
                                                  f 0.01(  0.11%)
                                            0.0000 -0.0005 -0.2889  0.0550  0.0100
                                            0.0026  0.0004  0.9467 -0.0649 -0.0139
                                            0.0043  0.0000  0.0119  0.0020 -0.0028
                                            0.0011 -0.0000 -0.0000 -0.0000 -0.0000
                                           -0.0000 -0.0130  0.0000 -0.0006 -0.0000
                                           -0.0000 -0.0000 -0.0000 -0.0000 -0.0000
                                           -0.0891  0.0109  0.0006  0.0566 -0.0063
                                           -0.0012 -0.0000 -0.0000 -0.0213  0.0031
                                           -0.0005  0.0002 -0.0000 -0.0000 -0.0000
                                           -0.0000  0.0259 -0.0029  0.0016 -0.0003
   178. (0.15786) BD*( 1) O   1 - H   4  
                ( 19.39%)   0.4403* O   1 s( 27.82%)p 2.58( 71.71%)d 0.02(  0.46%)
                                                  f 0.00(  0.01%)
                                            0.0003  0.5274 -0.0049 -0.0084  0.0023
                                           -0.2055  0.0157  0.0029  0.0039 -0.8213
                                            0.0011  0.0058  0.0044 -0.0000 -0.0000
                                           -0.0000 -0.0000 -0.0018 -0.0025 -0.0003
                                           -0.0000 -0.0000 -0.0000 -0.0000 -0.0000
                                           -0.0000 -0.0573 -0.0061 -0.0012 -0.0348
                                           -0.0017  0.0035 -0.0000 -0.0000  0.0018
                                            0.0006  0.0089 -0.0000 -0.0000 -0.0000
                                           -0.0000 -0.0000  0.0021  0.0022 -0.0003
                                            0.0015
                ( 80.61%)  -0.8978* H   4 s( 99.81%)p 0.00(  0.19%)d 0.00(  0.00%)
                                            0.9979  0.0468  0.0064 -0.0017  0.0097
                                            0.0107 -0.0016 -0.0180  0.0343  0.0126
                                           -0.0000 -0.0000 -0.0000 -0.0000 -0.0011
                                           -0.0000 -0.0000 -0.0000 -0.0000 -0.0034
                                           -0.0017 -0.0004 -0.0041


 NHO Directionality and "Bond Bending" (deviations from line of nuclear centers)

         [Thresholds for printing:  angular deviation  >  1.0 degree]
                                    hybrid p-character > 25.0%
                                    orbital occupancy  >  0.10e

                                Line of Centers        Hybrid 1              Hybrid 2
                                ---------------  -------------------   ------------------
                NBO               Theta   Phi    Theta   Phi    Dev    Theta   Phi    Dev
 ========================================================================================
     1. BD (   1) O   1 -Cl   2    90.0    0.0    90.0  355.8   4.2      --     --    --
    23. LP (   1) O   1             --     --     90.0  113.8   --       --     --    --
    24. LP (   2) O   1             --     --      0.0    0.0   --       --     --    --
    26. LP (   2)Cl   2             --     --      0.0    0.0   --       --     --    --
    27. LP (   3)Cl   2             --     --     90.0   90.2   --       --     --    --
    29. LP (   2)Br   3             --     --      0.0    0.0   --       --     --    --
    30. LP (   3)Br   3             --     --     90.0  346.5   --       --     --    --
    31. LP (   4)Br   3             --     --     90.0   76.6   --       --     --    --


 Natural Bond Orbitals (Summary):

           NBO                  Occupancy  
 -----------------------------------------------
 Molecular unit  1  (HOCl)
     1. BD (   1) O   1 -Cl   2          1.93895
     2. BD (   1) O   1 - H   4          1.96258
     3. CR (   1) O   1                  1.99971
     4. CR (   1)Cl   2                  2.00000
     5. CR (   2)Cl   2                  1.99978
     6. CR (   3)Cl   2                  1.99996
     7. CR (   4)Cl   2                  2.00003
     8. CR (   5)Cl   2                  2.00003
    23. LP (   1) O   1                  1.96608
    24. LP (   2) O   1                  1.95183
    25. LP (   1)Cl   2                  1.97358
    26. LP (   2)Cl   2                  1.95596
    27. LP (   3)Cl   2                  1.95458
    32. RY*(   1) O   1                  0.02009
    33. RY*(   2) O   1                  0.01657
    34. RY*(   3) O   1                  0.00819
    35. RY*(   4) O   1                  0.00707
    36. RY*(   5) O   1                  0.00645
    37. RY*(   6) O   1                  0.00622
    38. RY*(   7) O   1                  0.00575
    39. RY*(   8) O   1                  0.00372
    40. RY*(   9) O   1                  0.00246
    41. RY*(  10) O   1                  0.00079
    42. RY*(  11) O   1                  0.00065
    43. RY*(  12) O   1                  0.00063
    44. RY*(  13) O   1                  0.00059
    45. RY*(  14) O   1                  0.00051
    46. RY*(  15) O   1                  0.00051
    47. RY*(  16) O   1                  0.00048
    48. RY*(  17) O   1                  0.00048
    49. RY*(  18) O   1                  0.00048
    50. RY*(  19) O   1                  0.00045
    51. RY*(  20) O   1                  0.00045
    52. RY*(  21) O   1                  0.00045
    53. RY*(  22) O   1                  0.00042
    54. RY*(  23) O   1                  0.00037
    55. RY*(  24) O   1                  0.00032
    56. RY*(  25) O   1                  0.00025
    57. RY*(  26) O   1                  0.00018
    58. RY*(  27) O   1                  0.00012
    59. RY*(  28) O   1                  0.00013
    60. RY*(  29) O   1                  0.00013
    61. RY*(  30) O   1                  0.00009
    62. RY*(  31) O   1                  0.00009
    63. RY*(  32) O   1                  0.00008
    64. RY*(  33) O   1                  0.00008
    65. RY*(  34) O   1                  0.00008
    66. RY*(  35) O   1                  0.00008
    67. RY*(  36) O   1                  0.00006
    68. RY*(  37) O   1                  0.00005
    69. RY*(  38) O   1                  0.00006
    70. RY*(  39) O   1                  0.00005
    71. RY*(  40) O   1                  0.00003
    72. RY*(  41) O   1                 -0.00002
    73. RY*(   1)Cl   2                  0.02284
    74. RY*(   2)Cl   2                  0.01779
    75. RY*(   3)Cl   2                  0.01679
    76. RY*(   4)Cl   2                  0.01675
    77. RY*(   5)Cl   2                  0.01174
    78. RY*(   6)Cl   2                  0.00934
    79. RY*(   7)Cl   2                  0.00911
    80. RY*(   8)Cl   2                  0.00635
    81. RY*(   9)Cl   2                  0.00171
    82. RY*(  10)Cl   2                  0.00127
    83. RY*(  11)Cl   2                  0.00127
    84. RY*(  12)Cl   2                  0.00120
    85. RY*(  13)Cl   2                  0.00120
    86. RY*(  14)Cl   2                  0.00117
    87. RY*(  15)Cl   2                  0.00111
    88. RY*(  16)Cl   2                  0.00095
    89. RY*(  17)Cl   2                  0.00077
    90. RY*(  18)Cl   2                  0.00076
    91. RY*(  19)Cl   2                  0.00064
    92. RY*(  20)Cl   2                  0.00057
    93. RY*(  21)Cl   2                  0.00044
    94. RY*(  22)Cl   2                  0.00037
    95. RY*(  23)Cl   2                  0.00036
    96. RY*(  24)Cl   2                  0.00031
    97. RY*(  25)Cl   2                  0.00018
    98. RY*(  26)Cl   2                  0.00016
    99. RY*(  27)Cl   2                  0.00016
   100. RY*(  28)Cl   2                  0.00013
   101. RY*(  29)Cl   2                  0.00013
   102. RY*(  30)Cl   2                  0.00012
   103. RY*(  31)Cl   2                  0.00011
   104. RY*(  32)Cl   2                  0.00011
   105. RY*(  33)Cl   2                  0.00010
   106. RY*(  34)Cl   2                  0.00010
   107. RY*(  35)Cl   2                  0.00009
   108. RY*(  36)Cl   2                  0.00009
   109. RY*(  37)Cl   2                  0.00008
   110. RY*(  38)Cl   2                  0.00004
   111. RY*(  39)Cl   2                  0.00004
   112. RY*(  40)Cl   2                  0.00002
   113. RY*(  41)Cl   2                 -0.00000
   155. RY*(   1) H   4                  0.01047
   156. RY*(   2) H   4                  0.00568
   157. RY*(   3) H   4                  0.00483
   158. RY*(   4) H   4                  0.00393
   159. RY*(   5) H   4                  0.00092
   160. RY*(   6) H   4                  0.00060
   161. RY*(   7) H   4                  0.00045
   162. RY*(   8) H   4                  0.00035
   163. RY*(   9) H   4                  0.00031
   164. RY*(  10) H   4                  0.00027
   165. RY*(  11) H   4                  0.00025
   166. RY*(  12) H   4                  0.00022
   167. RY*(  13) H   4                  0.00020
   168. RY*(  14) H   4                  0.00013
   169. RY*(  15) H   4                  0.00012
   170. RY*(  16) H   4                  0.00010
   171. RY*(  17) H   4                  0.00007
   172. RY*(  18) H   4                  0.00005
   173. RY*(  19) H   4                  0.00006
   174. RY*(  20) H   4                  0.00004
   175. RY*(  21) H   4                  0.00004
   176. RY*(  22) H   4                  0.00005
   177. BD*(   1) O   1 -Cl   2          0.05836
   178. BD*(   1) O   1 - H   4          0.15786
       -------------------------------
              Total Lewis   25.70308  ( 98.2513%)
        Valence non-Lewis    0.21622  (  0.8265%)
        Rydberg non-Lewis    0.24124  (  0.9222%)
       -------------------------------
            Total unit  1   26.16054  (100.0000%)
           Charge unit  1   -0.16054

 Molecular unit  2  (Br)
     9. CR (   1)Br   3                  2.00000
    10. CR (   2)Br   3                  2.00000
    11. CR (   3)Br   3                  1.99978
    12. CR (   4)Br   3                  2.00000
    13. CR (   5)Br   3                  1.99999
    14. CR (   6)Br   3                  2.00000
    15. CR (   7)Br   3                  1.99990
    16. CR (   8)Br   3                  2.00000
    17. CR (   9)Br   3                  2.00000
    18. CR (  10)Br   3                  1.99765
    19. CR (  11)Br   3                  1.99768
    20. CR (  12)Br   3                  1.99766
    21. CR (  13)Br   3                  1.99762
    22. CR (  14)Br   3                  1.99766
    28. LP (   1)Br   3                  1.97764
    29. LP (   2)Br   3                  1.95409
    30. LP (   3)Br   3                  1.95374
    31. LP (   4)Br   3                  1.81585
   114. RY*(   1)Br   3                  0.01869
   115. RY*(   2)Br   3                  0.01861
   116. RY*(   3)Br   3                  0.01857
   117. RY*(   4)Br   3                  0.01856
   118. RY*(   5)Br   3                  0.01774
   119. RY*(   6)Br   3                  0.01102
   120. RY*(   7)Br   3                  0.01095
   121. RY*(   8)Br   3                  0.00880
   122. RY*(   9)Br   3                  0.00207
   123. RY*(  10)Br   3                  0.00178
   124. RY*(  11)Br   3                  0.00177
   125. RY*(  12)Br   3                  0.00174
   126. RY*(  13)Br   3                  0.00175
   127. RY*(  14)Br   3                  0.00174
   128. RY*(  15)Br   3                  0.00174
   129. RY*(  16)Br   3                  0.00174
   130. RY*(  17)Br   3                  0.00174
   131. RY*(  18)Br   3                  0.00174
   132. RY*(  19)Br   3                  0.00138
   133. RY*(  20)Br   3                  0.00133
   134. RY*(  21)Br   3                  0.00114
   135. RY*(  22)Br   3                  0.00078
   136. RY*(  23)Br   3                  0.00078
   137. RY*(  24)Br   3                  0.00070
   138. RY*(  25)Br   3                  0.00036
   139. RY*(  26)Br   3                  0.00029
   140. RY*(  27)Br   3                  0.00028
   141. RY*(  28)Br   3                  0.00024
   142. RY*(  29)Br   3                  0.00025
   143. RY*(  30)Br   3                  0.00025
   144. RY*(  31)Br   3                  0.00024
   145. RY*(  32)Br   3                  0.00025
   146. RY*(  33)Br   3                  0.00022
   147. RY*(  34)Br   3                  0.00021
   148. RY*(  35)Br   3                  0.00017
   149. RY*(  36)Br   3                  0.00015
   150. RY*(  37)Br   3                  0.00016
   151. RY*(  38)Br   3                  0.00010
   152. RY*(  39)Br   3                  0.00008
   153. RY*(  40)Br   3                  0.00007
   154. RY*(  41)Br   3                  0.00004
       -------------------------------
              Total Lewis   35.68925  ( 99.5809%)
        Valence non-Lewis    0.00000  (  0.0000%)
        Rydberg non-Lewis    0.15021  (  0.4191%)
       -------------------------------
            Total unit  2   35.83946  (100.0000%)
           Charge unit  2   -0.83946
 Leave Link  607 at Tue Oct 12 14:24:34 2021, MaxMem=  1048576000 cpu:         9.5
 (Enter /usr/local/gaussian/g09/l9999.exe)
 1\1\GINC-KRYPTON\SP\RMP2-FC\Aug-CC-pVTZ\Br1Cl1H1O1(1-)\CGAVINH\12-Oct-
 2021\0\\#p pop=NBO SP NoSymm mp2/aug-cc-pvtz density=current\\title\\-
 1,1\O\X,1,10.\Cl,1,1.68432554,2,90.\Br,1,3.07381752,2,90.,3,103.420351
 85,0\H,1,1.05,2,90.,3,103.42035185,0\\Version=ES64L-G09RevE.01\HF=-310
 7.4760023\MP2=-3108.1822667\RMSD=5.191e-09\Dipole=0.7613737,0.7077814,
 0.\Quadrupole=7.0053849,-15.7785987,8.7732137,-6.1533673,0.,0.\PG=CS [
 SG(Br1Cl1H1O1)]\\@


 ACTORS ARE SO FORTUNATE.  THEY CAN CHOOSE WHETHER
 THEY WILL APPEAR IN A TRAGEDY OR IN COMEDY,
 WHETHER THEY WILL SUFFER OF MAKE MERRY,
 LAUGH OR SHED TEARS.  BUT IN REAL LIFE IT IS DIFFERENT.
 MOST MEN AND WOMEN ARE FORCED TO PERFORM
 PARTS FOR WHICH THEY HAVE NO QUALIFICATIONS.
 THE WORLD IS A STAGE, BUT THE PLAY IS BADLY CAST.

                                   -- OSCAR WILDE
 Job cpu time:       0 days  0 hours  2 minutes 34.3 seconds.
 File lengths (MBytes):  RWF=     14 Int=      0 D2E=      0 Chk=      4 Scr=      1
 Normal termination of Gaussian 09 at Tue Oct 12 14:24:34 2021.
