 Entering Gaussian System, Link 0=g09
 Input=brhocl_rOH_120_sp.gjf
 Output=brhocl_rOH_120_sp.log
 Initial command:
 /usr/local/gaussian/g09/l1.exe "/scratch/Gau-18119.inp" -scrdir="/scratch/"
 Entering Link 1 = /usr/local/gaussian/g09/l1.exe PID=     18120.
  
 Copyright (c) 1988,1990,1992,1993,1995,1998,2003,2009,2015,
            Gaussian, Inc.  All Rights Reserved.
  
 This is part of the Gaussian(R) 09 program.  It is based on
 the Gaussian(R) 03 system (copyright 2003, Gaussian, Inc.),
 the Gaussian(R) 98 system (copyright 1998, Gaussian, Inc.),
 the Gaussian(R) 94 system (copyright 1995, Gaussian, Inc.),
 the Gaussian 92(TM) system (copyright 1992, Gaussian, Inc.),
 the Gaussian 90(TM) system (copyright 1990, Gaussian, Inc.),
 the Gaussian 88(TM) system (copyright 1988, Gaussian, Inc.),
 the Gaussian 86(TM) system (copyright 1986, Carnegie Mellon
 University), and the Gaussian 82(TM) system (copyright 1983,
 Carnegie Mellon University). Gaussian is a federally registered
 trademark of Gaussian, Inc.
  
 This software contains proprietary and confidential information,
 including trade secrets, belonging to Gaussian, Inc.
  
 This software is provided under written license and may be
 used, copied, transmitted, or stored only in accord with that
 written license.
  
 The following legend is applicable only to US Government
 contracts under FAR:
  
                    RESTRICTED RIGHTS LEGEND
  
 Use, reproduction and disclosure by the US Government is
 subject to restrictions as set forth in subparagraphs (a)
 and (c) of the Commercial Computer Software - Restricted
 Rights clause in FAR 52.227-19.
  
 Gaussian, Inc.
 340 Quinnipiac St., Bldg. 40, Wallingford CT 06492
  
  
 ---------------------------------------------------------------
 Warning -- This program may not be used in any manner that
 competes with the business of Gaussian, Inc. or will provide
 assistance to any competitor of Gaussian, Inc.  The licensee
 of this program is prohibited from giving any competitor of
 Gaussian, Inc. access to this program.  By using this program,
 the user acknowledges that Gaussian, Inc. is engaged in the
 business of creating and licensing software in the field of
 computational chemistry and represents and warrants to the
 licensee that it is not a competitor of Gaussian, Inc. and that
 it will not use this program in any manner prohibited above.
 ---------------------------------------------------------------
  

 Cite this work as:
 Gaussian 09, Revision E.01,
 M. J. Frisch, G. W. Trucks, H. B. Schlegel, G. E. Scuseria, 
 M. A. Robb, J. R. Cheeseman, G. Scalmani, V. Barone, B. Mennucci, 
 G. A. Petersson, H. Nakatsuji, M. Caricato, X. Li, H. P. Hratchian, 
 A. F. Izmaylov, J. Bloino, G. Zheng, J. L. Sonnenberg, M. Hada, 
 M. Ehara, K. Toyota, R. Fukuda, J. Hasegawa, M. Ishida, T. Nakajima, 
 Y. Honda, O. Kitao, H. Nakai, T. Vreven, J. A. Montgomery, Jr., 
 J. E. Peralta, F. Ogliaro, M. Bearpark, J. J. Heyd, E. Brothers, 
 K. N. Kudin, V. N. Staroverov, T. Keith, R. Kobayashi, J. Normand, 
 K. Raghavachari, A. Rendell, J. C. Burant, S. S. Iyengar, J. Tomasi, 
 M. Cossi, N. Rega, J. M. Millam, M. Klene, J. E. Knox, J. B. Cross, 
 V. Bakken, C. Adamo, J. Jaramillo, R. Gomperts, R. E. Stratmann, 
 O. Yazyev, A. J. Austin, R. Cammi, C. Pomelli, J. W. Ochterski, 
 R. L. Martin, K. Morokuma, V. G. Zakrzewski, G. A. Voth, 
 P. Salvador, J. J. Dannenberg, S. Dapprich, A. D. Daniels, 
 O. Farkas, J. B. Foresman, J. V. Ortiz, J. Cioslowski, 
 and D. J. Fox, Gaussian, Inc., Wallingford CT, 2013.
 
 ******************************************
 Gaussian 09:  ES64L-G09RevE.01 30-Nov-2015
                12-Oct-2021 
 ******************************************
 %nproc=12
 Will use up to   12 processors via shared memory.
 %mem=8000MB
 %chk=/home/netid.washington.edu/cgavinh/mccoy_hocl/rOH_s_oop_0/brhocl/brhocl_rOH
 _120_sp.chk
 ----------------------------------------------------
 #p pop=NBO SP NoSymm mp2/aug-cc-pvtz density=current
 ----------------------------------------------------
 1/30=1,38=1/1;
 2/12=2,15=1,17=6,18=5,40=1/2;
 3/5=16,6=1,7=10,11=9,16=1,25=1,30=1,71=1/1,2,3;
 4//1;
 5/5=2,38=5/2;
 8/6=4,10=1/1;
 9/15=1,16=-3/6;
 10/5=1,13=10,31=1/2;
 6/7=2,8=2,9=2,10=2,22=-1,40=1/1,7;
 99/5=1,9=1/99;
 Leave Link    1 at Tue Oct 12 14:25:08 2021, MaxMem=  1048576000 cpu:         0.2
 (Enter /usr/local/gaussian/g09/l101.exe)
 -----
 title
 -----
 Symbolic Z-matrix:
 Charge = -1 Multiplicity = 1
 O
 X                    1     10. 
 Cl                   1    r1       2     90. 
 Br                   1    r2       2     90.      3    a1       0
 H                    1    r3       2    oop      3    a1       0
       Variables:
  r1                    1.68433                  
  r2                    3.07382                  
  r3                    1.2                      
  a1                  103.42035                  
  OOP                  90.                       
 
 NAtoms=      4 NQM=        4 NQMF=       0 NMMI=      0 NMMIF=      0
                NMic=       0 NMicF=      0.
                    Isotopes and Nuclear Properties:
 (Nuclear quadrupole moments (NQMom) in fm**2, nuclear magnetic moments (NMagM)
  in nuclear magnetons)

  Atom         1           2           3           4
 IAtWgt=          16          35          79           1
 AtmWgt=  15.9949146  34.9688527  78.9183361   1.0078250
 NucSpn=           0           3           3           1
 AtZEff=   0.0000000   0.0000000   0.0000000   0.0000000
 NQMom=    0.0000000  -8.1650000  31.3000000   0.0000000
 NMagM=    0.0000000   0.8218740   2.1063990   2.7928460
 AtZNuc=   8.0000000  17.0000000  35.0000000   1.0000000
 Leave Link  101 at Tue Oct 12 14:25:08 2021, MaxMem=  1048576000 cpu:         0.4
 (Enter /usr/local/gaussian/g09/l202.exe)
                          Input orientation:                          
 ---------------------------------------------------------------------
 Center     Atomic      Atomic             Coordinates (Angstroms)
 Number     Number       Type             X           Y           Z
 ---------------------------------------------------------------------
      1          8           0        0.000000    0.000000    0.000000
      2         17           0        1.684326    0.000000    0.000000
      3         35           0       -0.713413   -2.989882    0.000000
      4          1           0       -0.278512   -1.167232    0.000000
 ---------------------------------------------------------------------
                    Distance matrix (angstroms):
                    1          2          3          4
     1  O    0.000000
     2  Cl   1.684326   0.000000
     3  Br   3.073818   3.832564   0.000000
     4  H    1.200000   2.283673   1.873818   0.000000
 Symmetry turned off by external request.
 Stoichiometry    BrClHO(1-)
 Framework group  CS[SG(BrClHO)]
 Deg. of freedom     5
 Full point group                 CS      NOp   2
 Rotational constants (GHZ):     22.7300338      1.2813328      1.2129563
 Leave Link  202 at Tue Oct 12 14:25:08 2021, MaxMem=  1048576000 cpu:         0.0
 (Enter /usr/local/gaussian/g09/l301.exe)
 Standard basis: Aug-CC-pVTZ (5D, 7F)
 Ernie: Thresh=  0.10000D-02 Tol=  0.10000D-05 Strict=F.
 Ernie:  48 primitive shells out of 228 were deleted.
   178 basis functions,   430 primitive gaussians,   208 cartesian basis functions
    31 alpha electrons       31 beta electrons
       nuclear repulsion energy       190.4372468246 Hartrees.
 IExCor=    0 DFT=F Ex=HF Corr=None ExCW=0 ScaHFX=  1.000000
 ScaDFX=  1.000000  1.000000  1.000000  1.000000 ScalE2=  1.000000  1.000000
 IRadAn=      0 IRanWt=     -1 IRanGd=            0 ICorTp=0 IEmpDi=  4
 NAtoms=    4 NActive=    4 NUniq=    4 SFac= 1.00D+00 NAtFMM=   60 NAOKFM=F Big=F
 Integral buffers will be    131072 words long.
 Raffenetti 1 integral format.
 Two-electron integral symmetry is turned off.
 Leave Link  301 at Tue Oct 12 14:25:08 2021, MaxMem=  1048576000 cpu:         0.3
 (Enter /usr/local/gaussian/g09/l302.exe)
 NPDir=0 NMtPBC=     1 NCelOv=     1 NCel=       1 NClECP=     1 NCelD=      1
         NCelK=      1 NCelE2=     1 NClLst=     1 CellRange=     0.0.
 One-electron integrals computed using PRISM.
 NBasis=   178 RedAO= T EigKep=  3.18D-04  NBF=   178
 NBsUse=   178 1.00D-06 EigRej= -1.00D+00 NBFU=   178
 Leave Link  302 at Tue Oct 12 14:25:08 2021, MaxMem=  1048576000 cpu:         1.6
 (Enter /usr/local/gaussian/g09/l303.exe)
 DipDrv:  MaxL=1.
 Leave Link  303 at Tue Oct 12 14:25:08 2021, MaxMem=  1048576000 cpu:         0.2
 (Enter /usr/local/gaussian/g09/l401.exe)
 ExpMin= 2.53D-02 ExpMax= 1.06D+07 ExpMxC= 1.21D+04 IAcc=3 IRadAn=         5 AccDes= 0.00D+00
 Harris functional with IExCor=  205 and IRadAn=       5 diagonalized for initial guess.
 HarFok:  IExCor=  205 AccDes= 0.00D+00 IRadAn=         5 IDoV= 1 UseB2=F ITyADJ=14
 ICtDFT=  3500011 ScaDFX=  1.000000  1.000000  1.000000  1.000000
 FoFCou: FMM=F IPFlag=           0 FMFlag=      100000 FMFlg1=           0
         NFxFlg=           0 DoJE=T BraDBF=F KetDBF=T FulRan=T
         wScrn=  0.000000 ICntrl=     500 IOpCl=  0 I1Cent=   200000004 NGrid=           0
         NMat0=    1 NMatS0=      1 NMatT0=    0 NMatD0=    1 NMtDS0=    0 NMtDT0=    0
 Symmetry not used in FoFCou.
 Harris En= -3106.36741421063    
 JPrj=0 DoOrth=F DoCkMO=F.
 Leave Link  401 at Tue Oct 12 14:25:08 2021, MaxMem=  1048576000 cpu:         3.1
 (Enter /usr/local/gaussian/g09/l502.exe)
 Closed shell SCF:
 Using DIIS extrapolation, IDIIS=  1040.
 Two-electron integral symmetry not used.
 Keep R1 ints in memory in canonical form, NReq=131623000.
 IVT=      152094 IEndB=      152094 NGot=  1048576000 MDV=   921517561
 LenX=   921517561 LenY=   921473856
 Requested convergence on RMS density matrix=1.00D-08 within 128 cycles.
 Requested convergence on MAX density matrix=1.00D-06.
 Requested convergence on             energy=1.00D-06.
 No special actions if energy rises.
 FoFCou: FMM=F IPFlag=           0 FMFlag=           0 FMFlg1=           0
         NFxFlg=           0 DoJE=F BraDBF=F KetDBF=F FulRan=T
         wScrn=  0.000000 ICntrl=     600 IOpCl=  0 I1Cent=           0 NGrid=           0
         NMat0=    1 NMatS0=  15931 NMatT0=    0 NMatD0=    1 NMtDS0=    0 NMtDT0=    0
 Symmetry not used in FoFCou.

 Cycle   1  Pass 1  IDiag  1:
 E= -3107.30453904623    
 DIIS: error= 6.40D-02 at cycle   1 NSaved=   1.
 NSaved= 1 IEnMin= 1 EnMin= -3107.30453904623     IErMin= 1 ErrMin= 6.40D-02
 ErrMax= 6.40D-02  0.00D+00 EMaxC= 1.00D-01 BMatC= 6.38D-01 BMatP= 6.38D-01
 IDIUse=3 WtCom= 3.60D-01 WtEn= 6.40D-01
 Coeff-Com:  0.100D+01
 Coeff-En:   0.100D+01
 Coeff:      0.100D+01
 Gap=     0.547 Goal=   None    Shift=    0.000
 GapD=    0.547 DampG=2.000 DampE=0.500 DampFc=1.0000 IDamp=-1.
 RMSDP=3.08D-03 MaxDP=1.05D-01              OVMax= 1.23D-01

 Cycle   2  Pass 1  IDiag  1:
 E= -3107.43046795944     Delta-E=       -0.125928913211 Rises=F Damp=F
 DIIS: error= 1.61D-02 at cycle   2 NSaved=   2.
 NSaved= 2 IEnMin= 2 EnMin= -3107.43046795944     IErMin= 2 ErrMin= 1.61D-02
 ErrMax= 1.61D-02  0.00D+00 EMaxC= 1.00D-01 BMatC= 4.24D-02 BMatP= 6.38D-01
 IDIUse=3 WtCom= 8.39D-01 WtEn= 1.61D-01
 Coeff-Com:  0.133D+00 0.867D+00
 Coeff-En:   0.000D+00 0.100D+01
 Coeff:      0.112D+00 0.888D+00
 Gap=     0.370 Goal=   None    Shift=    0.000
 RMSDP=1.14D-03 MaxDP=3.96D-02 DE=-1.26D-01 OVMax= 7.20D-02

 Cycle   3  Pass 1  IDiag  1:
 E= -3107.44693684867     Delta-E=       -0.016468889230 Rises=F Damp=F
 DIIS: error= 8.97D-03 at cycle   3 NSaved=   3.
 NSaved= 3 IEnMin= 3 EnMin= -3107.44693684867     IErMin= 3 ErrMin= 8.97D-03
 ErrMax= 8.97D-03  0.00D+00 EMaxC= 1.00D-01 BMatC= 1.57D-02 BMatP= 4.24D-02
 IDIUse=3 WtCom= 9.10D-01 WtEn= 8.97D-02
 Coeff-Com:  0.792D-02 0.377D+00 0.615D+00
 Coeff-En:   0.000D+00 0.234D+00 0.766D+00
 Coeff:      0.721D-02 0.364D+00 0.629D+00
 Gap=     0.353 Goal=   None    Shift=    0.000
 RMSDP=3.66D-04 MaxDP=1.46D-02 DE=-1.65D-02 OVMax= 3.74D-02

 Cycle   4  Pass 1  IDiag  1:
 E= -3107.45789659250     Delta-E=       -0.010959743835 Rises=F Damp=F
 DIIS: error= 1.30D-03 at cycle   4 NSaved=   4.
 NSaved= 4 IEnMin= 4 EnMin= -3107.45789659250     IErMin= 4 ErrMin= 1.30D-03
 ErrMax= 1.30D-03  0.00D+00 EMaxC= 1.00D-01 BMatC= 1.91D-04 BMatP= 1.57D-02
 IDIUse=3 WtCom= 9.87D-01 WtEn= 1.30D-02
 Coeff-Com: -0.563D-02-0.253D-01 0.515D-01 0.979D+00
 Coeff-En:   0.000D+00 0.000D+00 0.000D+00 0.100D+01
 Coeff:     -0.556D-02-0.250D-01 0.509D-01 0.980D+00
 Gap=     0.352 Goal=   None    Shift=    0.000
 RMSDP=6.60D-05 MaxDP=1.74D-03 DE=-1.10D-02 OVMax= 4.33D-03

 Cycle   5  Pass 1  IDiag  1:
 E= -3107.45814251020     Delta-E=       -0.000245917695 Rises=F Damp=F
 DIIS: error= 2.70D-04 at cycle   5 NSaved=   5.
 NSaved= 5 IEnMin= 5 EnMin= -3107.45814251020     IErMin= 5 ErrMin= 2.70D-04
 ErrMax= 2.70D-04  0.00D+00 EMaxC= 1.00D-01 BMatC= 1.62D-05 BMatP= 1.91D-04
 IDIUse=3 WtCom= 9.97D-01 WtEn= 2.70D-03
 Coeff-Com:  0.108D-02-0.225D-01-0.484D-01-0.176D+00 0.125D+01
 Coeff-En:   0.000D+00 0.000D+00 0.000D+00 0.000D+00 0.100D+01
 Coeff:      0.107D-02-0.224D-01-0.483D-01-0.176D+00 0.125D+01
 Gap=     0.352 Goal=   None    Shift=    0.000
 RMSDP=3.66D-05 MaxDP=1.34D-03 DE=-2.46D-04 OVMax= 3.59D-03

 Cycle   6  Pass 1  IDiag  1:
 E= -3107.45819129411     Delta-E=       -0.000048783910 Rises=F Damp=F
 DIIS: error= 1.35D-04 at cycle   6 NSaved=   6.
 NSaved= 6 IEnMin= 6 EnMin= -3107.45819129411     IErMin= 6 ErrMin= 1.35D-04
 ErrMax= 1.35D-04  0.00D+00 EMaxC= 1.00D-01 BMatC= 2.30D-06 BMatP= 1.62D-05
 IDIUse=3 WtCom= 9.99D-01 WtEn= 1.35D-03
 Coeff-Com:  0.485D-03 0.589D-02 0.678D-04-0.132D+00-0.766D-01 0.120D+01
 Coeff-En:   0.000D+00 0.000D+00 0.000D+00 0.000D+00 0.000D+00 0.100D+01
 Coeff:      0.484D-03 0.588D-02 0.677D-04-0.132D+00-0.765D-01 0.120D+01
 Gap=     0.353 Goal=   None    Shift=    0.000
 RMSDP=1.63D-05 MaxDP=6.62D-04 DE=-4.88D-05 OVMax= 1.79D-03

 Cycle   7  Pass 1  IDiag  1:
 E= -3107.45819957423     Delta-E=       -0.000008280126 Rises=F Damp=F
 DIIS: error= 4.73D-05 at cycle   7 NSaved=   7.
 NSaved= 7 IEnMin= 7 EnMin= -3107.45819957423     IErMin= 7 ErrMin= 4.73D-05
 ErrMax= 4.73D-05  0.00D+00 EMaxC= 1.00D-01 BMatC= 2.23D-07 BMatP= 2.30D-06
 IDIUse=1 WtCom= 1.00D+00 WtEn= 0.00D+00
 Coeff-Com: -0.235D-03 0.616D-03 0.669D-02 0.589D-01-0.149D+00-0.274D+00
 Coeff-Com:  0.136D+01
 Coeff:     -0.235D-03 0.616D-03 0.669D-02 0.589D-01-0.149D+00-0.274D+00
 Coeff:      0.136D+01
 Gap=     0.353 Goal=   None    Shift=    0.000
 RMSDP=6.03D-06 MaxDP=2.18D-04 DE=-8.28D-06 OVMax= 6.58D-04

 Cycle   8  Pass 1  IDiag  1:
 E= -3107.45820042796     Delta-E=       -0.000000853720 Rises=F Damp=F
 DIIS: error= 7.07D-06 at cycle   8 NSaved=   8.
 NSaved= 8 IEnMin= 8 EnMin= -3107.45820042796     IErMin= 8 ErrMin= 7.07D-06
 ErrMax= 7.07D-06  0.00D+00 EMaxC= 1.00D-01 BMatC= 9.05D-09 BMatP= 2.23D-07
 IDIUse=1 WtCom= 1.00D+00 WtEn= 0.00D+00
 Coeff-Com: -0.222D-04-0.150D-03 0.526D-04 0.203D-02 0.541D-02-0.290D-01
 Coeff-Com: -0.829D-01 0.110D+01
 Coeff:     -0.222D-04-0.150D-03 0.526D-04 0.203D-02 0.541D-02-0.290D-01
 Coeff:     -0.829D-01 0.110D+01
 Gap=     0.353 Goal=   None    Shift=    0.000
 RMSDP=9.56D-07 MaxDP=2.21D-05 DE=-8.54D-07 OVMax= 9.06D-05

 Cycle   9  Pass 1  IDiag  1:
 E= -3107.45820045436     Delta-E=       -0.000000026403 Rises=F Damp=F
 DIIS: error= 2.36D-06 at cycle   9 NSaved=   9.
 NSaved= 9 IEnMin= 9 EnMin= -3107.45820045436     IErMin= 9 ErrMin= 2.36D-06
 ErrMax= 2.36D-06  0.00D+00 EMaxC= 1.00D-01 BMatC= 1.38D-09 BMatP= 9.05D-09
 IDIUse=1 WtCom= 1.00D+00 WtEn= 0.00D+00
 Coeff-Com:  0.166D-04-0.222D-03-0.649D-03-0.360D-02 0.146D-01 0.127D-01
 Coeff-Com: -0.127D+00 0.181D+00 0.923D+00
 Coeff:      0.166D-04-0.222D-03-0.649D-03-0.360D-02 0.146D-01 0.127D-01
 Coeff:     -0.127D+00 0.181D+00 0.923D+00
 Gap=     0.353 Goal=   None    Shift=    0.000
 RMSDP=3.10D-07 MaxDP=5.68D-06 DE=-2.64D-08 OVMax= 2.79D-05

 Cycle  10  Pass 1  IDiag  1:
 E= -3107.45820045755     Delta-E=       -0.000000003190 Rises=F Damp=F
 DIIS: error= 1.40D-06 at cycle  10 NSaved=  10.
 NSaved=10 IEnMin=10 EnMin= -3107.45820045755     IErMin=10 ErrMin= 1.40D-06
 ErrMax= 1.40D-06  0.00D+00 EMaxC= 1.00D-01 BMatC= 2.02D-10 BMatP= 1.38D-09
 IDIUse=1 WtCom= 1.00D+00 WtEn= 0.00D+00
 Coeff-Com: -0.185D-05 0.106D-03 0.182D-03 0.163D-03-0.419D-02 0.328D-02
 Coeff-Com:  0.343D-01-0.166D+00-0.273D+00 0.141D+01
 Coeff:     -0.185D-05 0.106D-03 0.182D-03 0.163D-03-0.419D-02 0.328D-02
 Coeff:      0.343D-01-0.166D+00-0.273D+00 0.141D+01
 Gap=     0.353 Goal=   None    Shift=    0.000
 RMSDP=2.22D-07 MaxDP=4.72D-06 DE=-3.19D-09 OVMax= 2.06D-05

 Cycle  11  Pass 1  IDiag  1:
 E= -3107.45820045857     Delta-E=       -0.000000001018 Rises=F Damp=F
 DIIS: error= 7.34D-07 at cycle  11 NSaved=  11.
 NSaved=11 IEnMin=11 EnMin= -3107.45820045857     IErMin=11 ErrMin= 7.34D-07
 ErrMax= 7.34D-07  0.00D+00 EMaxC= 1.00D-01 BMatC= 3.61D-11 BMatP= 2.02D-10
 IDIUse=1 WtCom= 1.00D+00 WtEn= 0.00D+00
 Coeff-Com: -0.208D-05-0.800D-05 0.378D-04 0.662D-03-0.114D-02-0.322D-02
 Coeff-Com:  0.918D-02 0.313D-01-0.412D-01-0.562D+00 0.157D+01
 Coeff:     -0.208D-05-0.800D-05 0.378D-04 0.662D-03-0.114D-02-0.322D-02
 Coeff:      0.918D-02 0.313D-01-0.412D-01-0.562D+00 0.157D+01
 Gap=     0.353 Goal=   None    Shift=    0.000
 RMSDP=1.19D-07 MaxDP=2.68D-06 DE=-1.02D-09 OVMax= 1.13D-05

 Cycle  12  Pass 1  IDiag  1:
 E= -3107.45820045877     Delta-E=       -0.000000000209 Rises=F Damp=F
 DIIS: error= 2.29D-07 at cycle  12 NSaved=  12.
 NSaved=12 IEnMin=12 EnMin= -3107.45820045877     IErMin=12 ErrMin= 2.29D-07
 ErrMax= 2.29D-07  0.00D+00 EMaxC= 1.00D-01 BMatC= 3.06D-12 BMatP= 3.61D-11
 IDIUse=1 WtCom= 1.00D+00 WtEn= 0.00D+00
 Coeff-Com:  0.116D-06-0.155D-04-0.279D-04-0.238D-04 0.649D-03-0.411D-03
 Coeff-Com: -0.577D-02 0.249D-01 0.512D-01-0.221D+00-0.156D-01 0.117D+01
 Coeff:      0.116D-06-0.155D-04-0.279D-04-0.238D-04 0.649D-03-0.411D-03
 Coeff:     -0.577D-02 0.249D-01 0.512D-01-0.221D+00-0.156D-01 0.117D+01
 Gap=     0.353 Goal=   None    Shift=    0.000
 RMSDP=3.45D-08 MaxDP=8.06D-07 DE=-2.09D-10 OVMax= 3.28D-06

 Cycle  13  Pass 1  IDiag  1:
 E= -3107.45820045880     Delta-E=       -0.000000000025 Rises=F Damp=F
 DIIS: error= 4.33D-08 at cycle  13 NSaved=  13.
 NSaved=13 IEnMin=13 EnMin= -3107.45820045880     IErMin=13 ErrMin= 4.33D-08
 ErrMax= 4.33D-08  0.00D+00 EMaxC= 1.00D-01 BMatC= 1.45D-13 BMatP= 3.06D-12
 IDIUse=1 WtCom= 1.00D+00 WtEn= 0.00D+00
 Coeff-Com:  0.108D-06 0.308D-05 0.290D-05-0.336D-04-0.528D-04 0.232D-03
 Coeff-Com:  0.613D-03-0.628D-02-0.852D-02 0.779D-01-0.945D-01-0.227D+00
 Coeff-Com:  0.126D+01
 Coeff:      0.108D-06 0.308D-05 0.290D-05-0.336D-04-0.528D-04 0.232D-03
 Coeff:      0.613D-03-0.628D-02-0.852D-02 0.779D-01-0.945D-01-0.227D+00
 Coeff:      0.126D+01
 Gap=     0.353 Goal=   None    Shift=    0.000
 RMSDP=7.30D-09 MaxDP=1.55D-07 DE=-2.46D-11 OVMax= 6.14D-07

 SCF Done:  E(RHF) =  -3107.45820046     A.U. after   13 cycles
            NFock= 13  Conv=0.73D-08     -V/T= 2.0001
 KE= 3.107187956104D+03 PE=-7.823198881031D+03 EE= 1.418115477643D+03
 Leave Link  502 at Tue Oct 12 14:25:12 2021, MaxMem=  1048576000 cpu:        19.3
 (Enter /usr/local/gaussian/g09/l801.exe)
 ExpMin= 2.53D-02 ExpMax= 1.06D+07 ExpMxC= 1.21D+04 IAcc=3 IRadAn=         5 AccDes= 0.00D+00
 HarFok:  IExCor=  205 AccDes= 0.00D+00 IRadAn=         5 IDoV=-2 UseB2=F ITyADJ=14
 ICtDFT= 12500011 ScaDFX=  1.000000  1.000000  1.000000  1.000000
 Largest valence mixing into a core orbital is  4.47D-04
 Largest core mixing into a valence orbital is  1.55D-04
 Range of M.O.s used for correlation:    16   178
 NBasis=   178 NAE=    31 NBE=    31 NFC=    15 NFV=     0
 NROrb=    163 NOA=    16 NOB=    16 NVA=   147 NVB=   147

 **** Warning!!: The largest alpha MO coefficient is  0.15133933D+02

 Leave Link  801 at Tue Oct 12 14:25:12 2021, MaxMem=  1048576000 cpu:         0.7
 (Enter /usr/local/gaussian/g09/l906.exe)
 Frozen-core derivative calculation, NFC=  15 NFV=   0.
 FulOut=F Deriv=T AODrv=F NAtomX=     4
   MMem=         227  MDisk=          16 MDiskD=          16
  W3Min=     1147744 MinDsk=     1765480 NBas6D=         208
 NBas2D=       22240    NTT=       21736    LW2=     9911920
    MDV=  1048101693 MDiskM=       25146 NBas2p=       22041
 Fully in-core method, ICMem=   526646768.
 IMap=   1   2   3   4   5   6   7   8   9  10  11  12  13  14  15  16  17  18  19  20
 IMap=  21  22  23  24  25  26  27  28  29  30  31
 JobTyp=1 Pass  1 fully in-core, NPsUse= 12.
 Compute canonical integrals.
 FoFCou: FMM=F IPFlag=           0 FMFlag=           0 FMFlg1=           0
         NFxFlg=           0 DoJE=F BraDBF=F KetDBF=F FulRan=T
         wScrn=  0.000000 ICntrl=     600 IOpCl=  1 I1Cent=           0 NGrid=           0
         NMat0=    1 NMatS0=  22240 NMatT0=    0 NMatD0=    1 NMtDS0=    0 NMtDT0=    0
 Symmetry not used in FoFCou.
 Spin components of T(2) and E(2):
     alpha-alpha T2 =       0.3156747697D-01 E2=     -0.9613793201D-01
     alpha-beta  T2 =       0.1664824508D+00 E2=     -0.5221349576D+00
     beta-beta   T2 =       0.3156747697D-01 E2=     -0.9613793201D-01
 The integrals were generated   1 times.
 ANorm=    0.1108881150D+01
 E2 =    -0.7144108216D+00 EUMP2 =    -0.31081726112804D+04
 Leave Link  906 at Tue Oct 12 14:25:20 2021, MaxMem=  1048576000 cpu:        97.4
 (Enter /usr/local/gaussian/g09/l1002.exe)
 Minotr:  Closed shell wavefunction.
          Computing MP2/KS-MP2 derivatives.
          Using Z-Vector for PSCF gradient.
          Skipping F1 and S1 gradient terms here.
          Frozen-core window.
          Direct CPHF calculation.
          Differentiating once with respect to electric field.
                with respect to dipole field.
          Electric field/nuclear overlap derivatives assumed to be zero.
          Requested convergence is 1.0D-10 RMS, and 1.0D-09 maximum.
          NewPWx=F KeepS1=T KeepF1=T KeepIn=T MapXYZ=F SortEE=F KeepMc=T.
          MDV=    1048575801 using IRadAn=       0.
 Keep R1 ints in memory in canonical form, NReq=131472178.
 FoFCou: FMM=F IPFlag=           0 FMFlag=           0 FMFlg1=           0
         NFxFlg=           0 DoJE=F BraDBF=F KetDBF=F FulRan=T
         wScrn=  0.000000 ICntrl=     600 IOpCl=  0 I1Cent=           0 NGrid=           0
         NMat0=    1 NMatS0=  15931 NMatT0=    0 NMatD0=    1 NMtDS0=    0 NMtDT0=    0
 Symmetry not used in FoFCou.
          Solving linear equations separately, MaxMat=       0.
          There are     1 degrees of freedom in the 1st order CPHF.  IDoFFX=0 NUNeed=     1.
 LinEq1:  Iter=  0 NonCon=     1 RMS=2.92D-03 Max=5.31D-02 NDo=     1
 AX will form     1 AO Fock derivatives at one time.
 LinEq1:  Iter=  1 NonCon=     1 RMS=4.64D-04 Max=6.03D-03 NDo=     1
 LinEq1:  Iter=  2 NonCon=     1 RMS=2.11D-04 Max=2.79D-03 NDo=     1
 LinEq1:  Iter=  3 NonCon=     1 RMS=7.46D-05 Max=1.29D-03 NDo=     1
 LinEq1:  Iter=  4 NonCon=     1 RMS=3.08D-05 Max=6.59D-04 NDo=     1
 LinEq1:  Iter=  5 NonCon=     1 RMS=1.18D-05 Max=1.87D-04 NDo=     1
 LinEq1:  Iter=  6 NonCon=     1 RMS=2.43D-06 Max=2.87D-05 NDo=     1
 LinEq1:  Iter=  7 NonCon=     1 RMS=6.20D-07 Max=1.16D-05 NDo=     1
 LinEq1:  Iter=  8 NonCon=     1 RMS=1.85D-07 Max=2.51D-06 NDo=     1
 LinEq1:  Iter=  9 NonCon=     1 RMS=5.63D-08 Max=8.17D-07 NDo=     1
 LinEq1:  Iter= 10 NonCon=     1 RMS=1.57D-08 Max=2.81D-07 NDo=     1
 LinEq1:  Iter= 11 NonCon=     1 RMS=3.89D-09 Max=6.16D-08 NDo=     1
 LinEq1:  Iter= 12 NonCon=     1 RMS=6.40D-10 Max=8.10D-09 NDo=     1
 LinEq1:  Iter= 13 NonCon=     1 RMS=1.36D-10 Max=1.87D-09 NDo=     1
 LinEq1:  Iter= 14 NonCon=     0 RMS=3.51D-11 Max=4.24D-10 NDo=     1
 Linear equations converged to 1.000D-10 1.000D-09 after    14 iterations.
 End of Minotr F.D. properties file   721 does not exist.
 End of Minotr F.D. properties file   722 does not exist.
 End of Minotr F.D. properties file   788 does not exist.
 Leave Link 1002 at Tue Oct 12 14:25:24 2021, MaxMem=  1048576000 cpu:        18.6
 (Enter /usr/local/gaussian/g09/l601.exe)
 Copying SCF densities to generalized density rwf, IOpCl= 0 IROHF=0.

 **********************************************************************

            Population analysis using the MP2 density.

 **********************************************************************

 Alpha  occ. eigenvalues -- -489.77729-104.70972 -64.91765 -58.27225 -58.27206
 Alpha  occ. eigenvalues --  -58.27205 -20.43618 -10.42936  -9.59022  -7.89650
 Alpha  occ. eigenvalues --   -7.89407  -7.89398  -7.19853  -7.19722  -7.19720
 Alpha  occ. eigenvalues --   -2.94045  -2.93978  -2.93975  -2.93819  -2.93818
 Alpha  occ. eigenvalues --   -1.17903  -0.86372  -0.75546  -0.48369  -0.41396
 Alpha  occ. eigenvalues --   -0.40545  -0.28835  -0.25647  -0.20344  -0.19503
 Alpha  occ. eigenvalues --   -0.19477
 Alpha virt. eigenvalues --    0.15824   0.18673   0.21419   0.22854   0.23865
 Alpha virt. eigenvalues --    0.24692   0.25034   0.29682   0.30989   0.32237
 Alpha virt. eigenvalues --    0.32874   0.33141   0.36315   0.43727   0.43779
 Alpha virt. eigenvalues --    0.46242   0.46441   0.48088   0.49631   0.54558
 Alpha virt. eigenvalues --    0.54699   0.58266   0.58786   0.59647   0.61326
 Alpha virt. eigenvalues --    0.61434   0.66468   0.67585   0.72980   0.73124
 Alpha virt. eigenvalues --    0.74281   0.78771   0.78811   0.84565   0.91050
 Alpha virt. eigenvalues --    0.91397   0.92448   0.95091   0.98321   0.98743
 Alpha virt. eigenvalues --    1.00404   1.00754   1.02146   1.03596   1.06619
 Alpha virt. eigenvalues --    1.09701   1.10427   1.10770   1.11852   1.16219
 Alpha virt. eigenvalues --    1.16250   1.16749   1.17739   1.22750   1.24190
 Alpha virt. eigenvalues --    1.24979   1.29942   1.30776   1.33805   1.34304
 Alpha virt. eigenvalues --    1.37380   1.40181   1.48653   1.49413   1.52264
 Alpha virt. eigenvalues --    1.57404   1.60628   1.63157   1.68136   1.70003
 Alpha virt. eigenvalues --    1.72644   1.75253   1.77802   1.82076   1.87989
 Alpha virt. eigenvalues --    1.99746   2.12253   2.33377   2.39913   2.41991
 Alpha virt. eigenvalues --    2.42052   2.44378   2.50446   2.50983   2.52260
 Alpha virt. eigenvalues --    2.52395   2.53516   2.53835   2.53872   2.54706
 Alpha virt. eigenvalues --    2.56967   2.60182   2.61268   2.63534   2.63616
 Alpha virt. eigenvalues --    2.66983   2.68564   2.69040   2.72785   2.73207
 Alpha virt. eigenvalues --    2.75008   2.75291   2.80258   2.81933   2.83909
 Alpha virt. eigenvalues --    3.07030   3.09218   3.09825   3.12902   3.19512
 Alpha virt. eigenvalues --    3.24133   3.24197   3.27391   3.31916   3.32075
 Alpha virt. eigenvalues --    3.37412   3.54127   3.56195   3.60093   3.92032
 Alpha virt. eigenvalues --    4.07919   4.21055   4.38439   4.40766   4.54321
 Alpha virt. eigenvalues --    4.69761   4.78890   4.83725   4.94154   5.13095
 Alpha virt. eigenvalues --    5.37810   5.44100   6.46494   6.55668   6.85129
 Alpha virt. eigenvalues --    6.90340   6.93989   7.00143   7.08668   7.16887
 Alpha virt. eigenvalues --    7.36707   7.41784   7.56488   7.66953   7.98347
 Alpha virt. eigenvalues --    8.07929  12.88260
          Condensed to atoms (all electrons):
               1          2          3          4
     1  O    8.665046  -0.125964  -0.118636   0.124897
     2  Cl  -0.125964  17.118058   0.012269  -0.022218
     3  Br  -0.118636   0.012269  35.800748   0.031815
     4  H    0.124897  -0.022218   0.031815   0.611826
 Mulliken charges:
               1
     1  O   -0.545342
     2  Cl   0.017856
     3  Br  -0.726195
     4  H    0.253681
 Sum of Mulliken charges =  -1.00000
 Mulliken charges with hydrogens summed into heavy atoms:
               1
     1  O   -0.291661
     2  Cl   0.017856
     3  Br  -0.726195
 Electronic spatial extent (au):  <R**2>=           1477.8985
 Charge=             -1.0000 electrons
 Dipole moment (field-independent basis, Debye):
    X=              1.0679    Y=              8.8617    Z=              0.0000  Tot=              8.9258
 Quadrupole moment (field-independent basis, Debye-Ang):
   XX=            -45.8222   YY=            -72.0338   ZZ=            -43.0184
   XY=             -7.3037   XZ=              0.0000   YZ=             -0.0000
 Traceless Quadrupole moment (field-independent basis, Debye-Ang):
   XX=              7.8026   YY=            -18.4090   ZZ=             10.6064
   XY=             -7.3037   XZ=              0.0000   YZ=             -0.0000
 Octapole moment (field-independent basis, Debye-Ang**2):
  XXX=            -18.2904  YYY=            289.4025  ZZZ=              0.0000  XYY=             14.1560
  XXY=             72.4163  XXZ=              0.0000  XZZ=             -7.1867  YZZ=             67.5061
  YYZ=              0.0000  XYZ=              0.0000
 Hexadecapole moment (field-independent basis, Debye-Ang**3):
 XXXX=           -345.4385 YYYY=          -1505.8861 ZZZZ=            -60.2779 XXXY=           -148.2528
 XXXZ=              0.0000 YYYX=           -203.6931 YYYZ=             -0.0000 ZZZX=              0.0000
 ZZZY=             -0.0000 XXYY=           -286.3667 XXZZ=            -71.9202 YYZZ=           -220.8167
 XXYZ=             -0.0000 YYXZ=             -0.0000 ZZXY=            -48.2415
 N-N= 1.904372468246D+02 E-N=-7.821766936151D+03  KE= 3.107224620114D+03
 No NMR shielding tensors so no spin-rotation constants.
 Leave Link  601 at Tue Oct 12 14:25:24 2021, MaxMem=  1048576000 cpu:         2.4
 (Enter /usr/local/gaussian/g09/l607.exe)
 ******************************Gaussian NBO Version 3.1******************************
             N A T U R A L   A T O M I C   O R B I T A L   A N D
          N A T U R A L   B O N D   O R B I T A L   A N A L Y S I S
 ******************************Gaussian NBO Version 3.1******************************
       /RESON  / : Allow strongly delocalized NBO set

 Analyzing the MP2 density

 Job title: title                                                           

 Storage needed:     95974 in NPA,    127345 in NBO (1048575904 available)


 NATURAL POPULATIONS:  Natural atomic orbital occupancies 
                                                          
   NAO  Atom  No  lang   Type(AO)    Occupancy
 --------------------------------------------
     1    O    1  S      Cor( 1S)     1.99979
     2    O    1  S      Val( 2S)     1.82851
     3    O    1  S      Ryd( 3S)     0.01118
     4    O    1  S      Ryd( 4S)     0.00117
     5    O    1  S      Ryd( 5S)     0.00017
     6    O    1  px     Val( 2p)     1.18779
     7    O    1  px     Ryd( 3p)     0.00762
     8    O    1  px     Ryd( 4p)     0.00066
     9    O    1  px     Ryd( 5p)     0.00056
    10    O    1  py     Val( 2p)     1.73383
    11    O    1  py     Ryd( 3p)     0.01385
    12    O    1  py     Ryd( 4p)     0.00069
    13    O    1  py     Ryd( 5p)     0.00045
    14    O    1  pz     Val( 2p)     1.94581
    15    O    1  pz     Ryd( 3p)     0.02186
    16    O    1  pz     Ryd( 4p)     0.00062
    17    O    1  pz     Ryd( 5p)     0.00014
    18    O    1  dxy    Ryd( 3d)     0.00852
    19    O    1  dxy    Ryd( 4d)     0.00052
    20    O    1  dxy    Ryd( 5d)     0.00013
    21    O    1  dxz    Ryd( 3d)     0.00885
    22    O    1  dxz    Ryd( 4d)     0.00061
    23    O    1  dxz    Ryd( 5d)     0.00010
    24    O    1  dyz    Ryd( 3d)     0.00705
    25    O    1  dyz    Ryd( 4d)     0.00066
    26    O    1  dyz    Ryd( 5d)     0.00030
    27    O    1  dx2y2  Ryd( 3d)     0.01196
    28    O    1  dx2y2  Ryd( 4d)     0.00041
    29    O    1  dx2y2  Ryd( 5d)     0.00016
    30    O    1  dz2    Ryd( 3d)     0.00871
    31    O    1  dz2    Ryd( 4d)     0.00063
    32    O    1  dz2    Ryd( 5d)     0.00017
    33    O    1  f(0)   Ryd( 4f)     0.00067
    34    O    1  f(0)   Ryd( 5f)     0.00011
    35    O    1  f(C1)  Ryd( 4f)     0.00066
    36    O    1  f(C1)  Ryd( 5f)     0.00012
    37    O    1  f(S1)  Ryd( 4f)     0.00063
    38    O    1  f(S1)  Ryd( 5f)     0.00011
    39    O    1  f(C2)  Ryd( 4f)     0.00064
    40    O    1  f(C2)  Ryd( 5f)     0.00013
    41    O    1  f(S2)  Ryd( 4f)     0.00055
    42    O    1  f(S2)  Ryd( 5f)     0.00012
    43    O    1  f(C3)  Ryd( 4f)     0.00063
    44    O    1  f(C3)  Ryd( 5f)     0.00014
    45    O    1  f(S3)  Ryd( 4f)     0.00059
    46    O    1  f(S3)  Ryd( 5f)     0.00012

    47   Cl    2  S      Cor( 1S)     2.00000
    48   Cl    2  S      Cor( 2S)     1.99975
    49   Cl    2  S      Val( 3S)     1.87756
    50   Cl    2  S      Ryd( 4S)     0.00828
    51   Cl    2  S      Ryd( 5S)     0.00055
    52   Cl    2  S      Ryd( 6S)     0.00018
    53   Cl    2  px     Cor( 2p)     1.99995
    54   Cl    2  px     Val( 3p)     0.93087
    55   Cl    2  px     Ryd( 4p)     0.00687
    56   Cl    2  px     Ryd( 5p)     0.00054
    57   Cl    2  px     Ryd( 6p)     0.00022
    58   Cl    2  py     Cor( 2p)     2.00003
    59   Cl    2  py     Val( 3p)     1.95235
    60   Cl    2  py     Ryd( 4p)     0.01042
    61   Cl    2  py     Ryd( 5p)     0.00054
    62   Cl    2  py     Ryd( 6p)     0.00008
    63   Cl    2  pz     Cor( 2p)     2.00003
    64   Cl    2  pz     Val( 3p)     1.95375
    65   Cl    2  pz     Ryd( 4p)     0.01124
    66   Cl    2  pz     Ryd( 5p)     0.00071
    67   Cl    2  pz     Ryd( 6p)     0.00003
    68   Cl    2  dxy    Ryd( 3d)     0.01834
    69   Cl    2  dxy    Ryd( 4d)     0.00107
    70   Cl    2  dxy    Ryd( 5d)     0.00037
    71   Cl    2  dxz    Ryd( 3d)     0.02241
    72   Cl    2  dxz    Ryd( 4d)     0.00126
    73   Cl    2  dxz    Ryd( 5d)     0.00037
    74   Cl    2  dyz    Ryd( 3d)     0.01692
    75   Cl    2  dyz    Ryd( 4d)     0.00071
    76   Cl    2  dyz    Ryd( 5d)     0.00023
    77   Cl    2  dx2y2  Ryd( 3d)     0.01875
    78   Cl    2  dx2y2  Ryd( 4d)     0.00048
    79   Cl    2  dx2y2  Ryd( 5d)     0.00019
    80   Cl    2  dz2    Ryd( 3d)     0.01770
    81   Cl    2  dz2    Ryd( 4d)     0.00059
    82   Cl    2  dz2    Ryd( 5d)     0.00020
    83   Cl    2  f(0)   Ryd( 4f)     0.00132
    84   Cl    2  f(0)   Ryd( 5f)     0.00014
    85   Cl    2  f(C1)  Ryd( 4f)     0.00150
    86   Cl    2  f(C1)  Ryd( 5f)     0.00015
    87   Cl    2  f(S1)  Ryd( 4f)     0.00128
    88   Cl    2  f(S1)  Ryd( 5f)     0.00013
    89   Cl    2  f(C2)  Ryd( 4f)     0.00136
    90   Cl    2  f(C2)  Ryd( 5f)     0.00014
    91   Cl    2  f(S2)  Ryd( 4f)     0.00121
    92   Cl    2  f(S2)  Ryd( 5f)     0.00013
    93   Cl    2  f(C3)  Ryd( 4f)     0.00165
    94   Cl    2  f(C3)  Ryd( 5f)     0.00014
    95   Cl    2  f(S3)  Ryd( 4f)     0.00130
    96   Cl    2  f(S3)  Ryd( 5f)     0.00015

    97   Br    3  S      Cor( 1S)     2.00000
    98   Br    3  S      Cor( 2S)     2.00000
    99   Br    3  S      Cor( 3S)     1.99959
   100   Br    3  S      Val( 4S)     1.94464
   101   Br    3  S      Ryd( 5S)     0.00147
   102   Br    3  S      Ryd( 6S)     0.00049
   103   Br    3  S      Ryd( 7S)     0.00020
   104   Br    3  px     Cor( 2p)     2.00000
   105   Br    3  px     Cor( 3p)     1.99997
   106   Br    3  px     Val( 4p)     1.94238
   107   Br    3  px     Ryd( 5p)     0.01044
   108   Br    3  px     Ryd( 6p)     0.00079
   109   Br    3  px     Ryd( 7p)     0.00011
   110   Br    3  py     Cor( 2p)     2.00000
   111   Br    3  py     Cor( 3p)     1.99985
   112   Br    3  py     Val( 4p)     1.75680
   113   Br    3  py     Ryd( 5p)     0.00872
   114   Br    3  py     Ryd( 6p)     0.00073
   115   Br    3  py     Ryd( 7p)     0.00012
   116   Br    3  pz     Cor( 2p)     2.00000
   117   Br    3  pz     Cor( 3p)     1.99997
   118   Br    3  pz     Val( 4p)     1.95401
   119   Br    3  pz     Ryd( 5p)     0.01057
   120   Br    3  pz     Ryd( 6p)     0.00079
   121   Br    3  pz     Ryd( 7p)     0.00010
   122   Br    3  dxy    Cor( 3d)     1.99763
   123   Br    3  dxy    Ryd( 4d)     0.01855
   124   Br    3  dxy    Ryd( 5d)     0.00133
   125   Br    3  dxy    Ryd( 6d)     0.00022
   126   Br    3  dxz    Cor( 3d)     1.99768
   127   Br    3  dxz    Ryd( 4d)     0.01838
   128   Br    3  dxz    Ryd( 5d)     0.00169
   129   Br    3  dxz    Ryd( 6d)     0.00025
   130   Br    3  dyz    Cor( 3d)     1.99765
   131   Br    3  dyz    Ryd( 4d)     0.01854
   132   Br    3  dyz    Ryd( 5d)     0.00135
   133   Br    3  dyz    Ryd( 6d)     0.00022
   134   Br    3  dx2y2  Cor( 3d)     1.99759
   135   Br    3  dx2y2  Ryd( 4d)     0.01883
   136   Br    3  dx2y2  Ryd( 5d)     0.00151
   137   Br    3  dx2y2  Ryd( 6d)     0.00025
   138   Br    3  dz2    Cor( 3d)     1.99765
   139   Br    3  dz2    Ryd( 4d)     0.01858
   140   Br    3  dz2    Ryd( 5d)     0.00166
   141   Br    3  dz2    Ryd( 6d)     0.00021
   142   Br    3  f(0)   Ryd( 4f)     0.00171
   143   Br    3  f(0)   Ryd( 5f)     0.00025
   144   Br    3  f(C1)  Ryd( 4f)     0.00174
   145   Br    3  f(C1)  Ryd( 5f)     0.00024
   146   Br    3  f(S1)  Ryd( 4f)     0.00179
   147   Br    3  f(S1)  Ryd( 5f)     0.00029
   148   Br    3  f(C2)  Ryd( 4f)     0.00169
   149   Br    3  f(C2)  Ryd( 5f)     0.00025
   150   Br    3  f(S2)  Ryd( 4f)     0.00172
   151   Br    3  f(S2)  Ryd( 5f)     0.00025
   152   Br    3  f(C3)  Ryd( 4f)     0.00172
   153   Br    3  f(C3)  Ryd( 5f)     0.00027
   154   Br    3  f(S3)  Ryd( 4f)     0.00175
   155   Br    3  f(S3)  Ryd( 5f)     0.00028

   156    H    4  S      Val( 1S)     0.56420
   157    H    4  S      Ryd( 2S)     0.00614
   158    H    4  S      Ryd( 3S)     0.00072
   159    H    4  S      Ryd( 4S)     0.00020
   160    H    4  px     Ryd( 2p)     0.00463
   161    H    4  px     Ryd( 3p)     0.00052
   162    H    4  px     Ryd( 4p)     0.00012
   163    H    4  py     Ryd( 2p)     0.00487
   164    H    4  py     Ryd( 3p)     0.00149
   165    H    4  py     Ryd( 4p)     0.00023
   166    H    4  pz     Ryd( 2p)     0.00595
   167    H    4  pz     Ryd( 3p)     0.00035
   168    H    4  pz     Ryd( 4p)     0.00028
   169    H    4  dxy    Ryd( 3d)     0.00031
   170    H    4  dxy    Ryd( 4d)     0.00010
   171    H    4  dxz    Ryd( 3d)     0.00026
   172    H    4  dxz    Ryd( 4d)     0.00007
   173    H    4  dyz    Ryd( 3d)     0.00042
   174    H    4  dyz    Ryd( 4d)     0.00010
   175    H    4  dx2y2  Ryd( 3d)     0.00025
   176    H    4  dx2y2  Ryd( 4d)     0.00014
   177    H    4  dz2    Ryd( 3d)     0.00026
   178    H    4  dz2    Ryd( 4d)     0.00010

 WARNING:  5 low occupancy (<1.9990e) core orbitals found on Br    3


 Summary of Natural Population Analysis:                  
                                                          
                                       Natural Population 
                Natural  -----------------------------------------------
    Atom  No    Charge         Core      Valence    Rydberg      Total
 -----------------------------------------------------------------------
      O    1   -0.80869      1.99979     6.69594    0.11297     8.80869
     Cl    2    0.13587      9.99976     6.71453    0.14983    16.86413
     Br    3   -0.73547     27.98758     7.59783    0.15005    35.73547
      H    4    0.40829      0.00000     0.56420    0.02752     0.59171
 =======================================================================
   * Total *   -1.00000     39.98713    21.57250    0.44037    62.00000

                                 Natural Population      
 --------------------------------------------------------
   Core                      39.98713 ( 99.9678% of  40)
   Valence                   21.57250 ( 98.0568% of  22)
   Natural Minimal Basis     61.55963 ( 99.2897% of  62)
   Natural Rydberg Basis      0.44037 (  0.7103% of  62)
 --------------------------------------------------------

    Atom  No          Natural Electron Configuration
 ----------------------------------------------------------------------------
      O    1      [core]2S( 1.83)2p( 4.87)3S( 0.01)3p( 0.04)3d( 0.05)
     Cl    2      [core]3S( 1.88)3p( 4.84)4S( 0.01)3d( 0.09)4p( 0.03)4f( 0.01)
     Br    3      [core]4S( 1.94)4p( 5.65)4d( 0.09)5p( 0.03)4f( 0.01)5d( 0.01)
      H    4            1S( 0.56)2S( 0.01)2p( 0.02)


 NATURAL BOND ORBITAL ANALYSIS:
 Warning:  a bond orbital has occupanc of -0.00011
 Warning:  a bond orbital has occupanc of -0.00000

                       Occupancies       Lewis Structure    Low   High
           Occ.    -------------------  -----------------   occ   occ
  Cycle   Thresh.   Lewis   Non-Lewis     CR  BD  3C  LP    (L)   (NL)   Dev
 =============================================================================
   1(1)    1.90    61.28018   0.71982     20   2   0   9     1      1    0.33
 Warning:  a bond orbital has occupanc of -0.00011
 Warning:  a bond orbital has occupanc of -0.00000
   2(2)    1.90    61.21220   0.78780     20   2   0   9     1      1    0.43
 Warning:  a bond orbital has occupanc of -0.00011
 Warning:  a bond orbital has occupanc of -0.00000
   3(3)    1.90    61.28018   0.71982     20   2   0   9     1      1    0.33
 Warning:  a bond orbital has occupanc of -0.00011
 Warning:  a bond orbital has occupanc of -0.00000
   4(1)    1.80    61.28018   0.71982     20   2   0   9     1      1    0.33
 Warning:  a bond orbital has occupanc of -0.00011
 Warning:  a bond orbital has occupanc of -0.00000
   5(2)    1.80    61.21220   0.78780     20   2   0   9     1      1    0.43
 Warning:  a bond orbital has occupanc of -0.00011
 Warning:  a bond orbital has occupanc of -0.00000
   6(3)    1.80    61.28018   0.71982     20   2   0   9     1      1    0.33
 Warning:  a bond orbital has occupanc of -0.00011
 Warning:  a bond orbital has occupanc of -0.00000
   7(1)    1.70    61.28018   0.71982     20   2   0   9     0      1    0.33
 Warning:  a bond orbital has occupanc of -0.00011
 Warning:  a bond orbital has occupanc of -0.00000
   8(2)    1.70    61.28018   0.71982     20   2   0   9     0      1    0.33
 Warning:  a bond orbital has occupanc of -0.00011
 Warning:  a bond orbital has occupanc of -0.00000
   9(1)    1.60    60.98393   1.01607     20   1   0  10     0      1    0.43
 Warning:  a bond orbital has occupanc of -0.00011
 Warning:  a bond orbital has occupanc of -0.00000
  10(2)    1.60    60.98393   1.01607     20   1   0  10     0      1    0.43
 Warning:  a bond orbital has occupanc of -0.00011
 Warning:  a bond orbital has occupanc of -0.00000
  11(1)    1.50    60.98393   1.01607     20   1   0  10     0      1    0.43
 Warning:  a bond orbital has occupanc of -0.00011
 Warning:  a bond orbital has occupanc of -0.00000
  12(2)    1.50    60.98393   1.01607     20   1   0  10     0      1    0.43
 Warning:  a bond orbital has occupanc of -0.00011
 Warning:  a bond orbital has occupanc of -0.00000
  13(1)    1.90    61.28018   0.71982     20   2   0   9     1      1    0.33
 -----------------------------------------------------------------------------

 Structure accepted: RESONANCE keyword permits strongly delocalized structure

 WARNING:  5 low occupancy (<1.9990e) core orbitals found on Br    3

 --------------------------------------------------------
   Core                     39.98713 ( 99.968% of  40)
   Valence Lewis            21.29305 ( 96.787% of  22)
  ==================       ============================
   Total Lewis              61.28018 ( 98.839% of  62)
  -----------------------------------------------------
   Valence non-Lewis         0.32437 (  0.523% of  62)
   Rydberg non-Lewis         0.39545 (  0.638% of  62)
  ==================       ============================
   Total non-Lewis           0.71982 (  1.161% of  62)
 --------------------------------------------------------


       (Occupancy)   Bond orbital/ Coefficients/ Hybrids
 ---------------------------------------------------------------------------------
     1. (1.93754) BD ( 1) O   1 -Cl   2  
                ( 57.87%)   0.7607* O   1 s( 10.37%)p 8.59( 89.11%)d 0.05(  0.50%)
                                                  f 0.00(  0.02%)
                                            0.0003  0.3173 -0.0525  0.0166 -0.0005
                                            0.9415 -0.0405 -0.0106 -0.0153 -0.0459
                                           -0.0240 -0.0042  0.0015  0.0000  0.0000
                                            0.0000  0.0000 -0.0168 -0.0017  0.0014
                                            0.0000  0.0000  0.0000  0.0000  0.0000
                                            0.0000  0.0545  0.0040  0.0022 -0.0412
                                           -0.0035  0.0001  0.0000  0.0000 -0.0108
                                            0.0010 -0.0000  0.0001  0.0000  0.0000
                                            0.0000  0.0000  0.0074  0.0010 -0.0008
                                            0.0014
                ( 42.13%)   0.6491*Cl   2 s(  9.07%)p 9.88( 89.69%)d 0.12(  1.11%)
                                                  f 0.01(  0.12%)
                                           -0.0000  0.0006  0.2955 -0.0575 -0.0102
                                           -0.0027 -0.0004 -0.9446  0.0652  0.0137
                                           -0.0038 -0.0000 -0.0120 -0.0018  0.0032
                                           -0.0015  0.0000  0.0000  0.0000  0.0000
                                            0.0000  0.0132 -0.0002  0.0002  0.0000
                                            0.0000  0.0000  0.0000  0.0000  0.0000
                                            0.0875 -0.0120 -0.0015 -0.0556  0.0074
                                            0.0019  0.0000  0.0000  0.0218 -0.0029
                                            0.0006 -0.0001  0.0000  0.0000  0.0000
                                            0.0000 -0.0267  0.0028 -0.0021  0.0004
     2. (1.95529) BD ( 1) O   1 - H   4  
                ( 82.37%)   0.9076* O   1 s( 22.43%)p 3.44( 77.23%)d 0.01(  0.33%)
                                                  f 0.00(  0.01%)
                                           -0.0002 -0.4736  0.0001 -0.0077 -0.0024
                                            0.1995 -0.0128 -0.0025 -0.0055  0.8557
                                            0.0076 -0.0029 -0.0042  0.0000  0.0000
                                            0.0000  0.0000  0.0091  0.0028  0.0006
                                            0.0000  0.0000  0.0000  0.0000  0.0000
                                            0.0000  0.0486  0.0061 -0.0008  0.0272
                                            0.0016 -0.0043  0.0000  0.0000 -0.0017
                                           -0.0004 -0.0090  0.0009  0.0000  0.0000
                                            0.0000  0.0000 -0.0023 -0.0012  0.0007
                                           -0.0001
                ( 17.63%)   0.4199* H   4 s( 99.76%)p 0.00(  0.23%)d 0.00(  0.02%)
                                           -0.9981  0.0325 -0.0197  0.0011 -0.0084
                                           -0.0147  0.0022  0.0130 -0.0401 -0.0136
                                            0.0000  0.0000  0.0000 -0.0016 -0.0031
                                            0.0000  0.0000  0.0000  0.0000  0.0079
                                            0.0069  0.0025  0.0083
     3. (1.99979) CR ( 1) O   1           s(100.00%)p 0.00(  0.00%)
                                            1.0000 -0.0003  0.0000 -0.0000 -0.0000
                                           -0.0002  0.0000  0.0000  0.0000  0.0001
                                            0.0000 -0.0000 -0.0000  0.0000  0.0000
                                            0.0000  0.0000  0.0000  0.0000  0.0000
                                            0.0000  0.0000  0.0000  0.0000  0.0000
                                            0.0000 -0.0000  0.0000 -0.0000  0.0000
                                            0.0000 -0.0000  0.0000  0.0000  0.0000
                                           -0.0000 -0.0000  0.0000  0.0000  0.0000
                                            0.0000  0.0000 -0.0000 -0.0000 -0.0000
                                           -0.0000
     4. (2.00000) CR ( 1)Cl   2           s(100.00%)
                                            1.0000  0.0000 -0.0000 -0.0000 -0.0000
                                           -0.0000 -0.0000 -0.0000  0.0000  0.0000
                                           -0.0000 -0.0000 -0.0000 -0.0000  0.0000
                                           -0.0000  0.0000  0.0000  0.0000  0.0000
                                            0.0000  0.0000 -0.0000 -0.0000  0.0000
                                            0.0000  0.0000  0.0000  0.0000  0.0000
                                            0.0000 -0.0000 -0.0000 -0.0000  0.0000
                                            0.0000  0.0000  0.0000  0.0000 -0.0000
                                            0.0000 -0.0000  0.0000  0.0000  0.0000
                                            0.0000 -0.0000  0.0000 -0.0000  0.0000
     5. (1.99976) CR ( 2)Cl   2           s(100.00%)p 0.00(  0.00%)
                                            0.0000  1.0000 -0.0004  0.0000  0.0000
                                            0.0000  0.0000  0.0005 -0.0000 -0.0000
                                            0.0000 -0.0000  0.0000  0.0000 -0.0000
                                            0.0000  0.0000  0.0000  0.0000  0.0000
                                            0.0000 -0.0000  0.0000  0.0000  0.0000
                                            0.0000  0.0000  0.0000  0.0000  0.0000
                                           -0.0000  0.0000  0.0000  0.0000 -0.0000
                                           -0.0000  0.0000  0.0000 -0.0000  0.0000
                                           -0.0000  0.0000  0.0000  0.0000  0.0000
                                            0.0000  0.0000 -0.0000  0.0000 -0.0000
     6. (1.99995) CR ( 3)Cl   2           s(  0.00%)p 1.00(100.00%)
                                           -0.0000  0.0000  0.0000 -0.0000 -0.0000
                                           -0.0000  1.0000 -0.0004  0.0000  0.0000
                                           -0.0000  0.0000 -0.0000 -0.0000  0.0000
                                           -0.0000  0.0000  0.0000  0.0000  0.0000
                                            0.0000  0.0000 -0.0000 -0.0000  0.0000
                                            0.0000  0.0000  0.0000  0.0000  0.0000
                                            0.0000 -0.0000 -0.0000 -0.0000  0.0000
                                            0.0000  0.0000  0.0000  0.0000 -0.0000
                                            0.0000 -0.0000  0.0000  0.0000  0.0000
                                            0.0000 -0.0000  0.0000 -0.0000  0.0000
     7. (2.00003) CR ( 4)Cl   2           s(  0.00%)p 1.00(100.00%)
                                           -0.0000 -0.0000  0.0000  0.0000  0.0000
                                           -0.0000  0.0000 -0.0000  0.0000  0.0000
                                           -0.0000  1.0000  0.0002  0.0000  0.0000
                                            0.0000  0.0000  0.0000  0.0000  0.0000
                                            0.0000  0.0000  0.0000  0.0000  0.0000
                                            0.0000  0.0000  0.0000  0.0000  0.0000
                                           -0.0000 -0.0000 -0.0000 -0.0000 -0.0000
                                            0.0000  0.0000  0.0000  0.0000  0.0000
                                           -0.0000  0.0000  0.0000  0.0000  0.0000
                                            0.0000 -0.0000  0.0000  0.0000 -0.0000
     8. (2.00003) CR ( 5)Cl   2           s(  0.00%)p 1.00(100.00%)
                                            0.0000  0.0000  0.0000  0.0000  0.0000
                                            0.0000  0.0000  0.0000  0.0000  0.0000
                                            0.0000  0.0000  0.0000  0.0000  0.0000
                                            0.0000  1.0000  0.0002  0.0000  0.0000
                                           -0.0000  0.0000  0.0000  0.0000  0.0000
                                            0.0000  0.0000  0.0000  0.0000  0.0000
                                            0.0000  0.0000  0.0000  0.0000  0.0000
                                            0.0000 -0.0000  0.0000  0.0000  0.0000
                                            0.0000  0.0000  0.0000 -0.0000  0.0000
                                           -0.0000  0.0000  0.0000  0.0000  0.0000
     9. (2.00000) CR ( 1)Br   3           s(100.00%)
                                            1.0000 -0.0000  0.0000  0.0000  0.0000
                                            0.0000 -0.0000  0.0000 -0.0000 -0.0000
                                            0.0000 -0.0000 -0.0000  0.0000 -0.0000
                                           -0.0000  0.0000 -0.0000 -0.0000  0.0000
                                            0.0000  0.0000  0.0000  0.0000  0.0000
                                           -0.0000 -0.0000  0.0000 -0.0000  0.0000
                                            0.0000  0.0000  0.0000  0.0000  0.0000
                                            0.0000  0.0000  0.0000  0.0000 -0.0000
                                            0.0000  0.0000  0.0000 -0.0000  0.0000
                                            0.0000  0.0000  0.0000  0.0000  0.0000
                                           -0.0000  0.0000  0.0000  0.0000  0.0000
                                            0.0000 -0.0000  0.0000 -0.0000
    10. (2.00000) CR ( 2)Br   3           s(100.00%)
                                           -0.0000  1.0000  0.0000  0.0000  0.0000
                                            0.0000 -0.0000 -0.0000 -0.0000  0.0000
                                            0.0000  0.0000 -0.0000  0.0000 -0.0000
                                           -0.0000  0.0000 -0.0000 -0.0000  0.0000
                                            0.0000  0.0000  0.0000  0.0000  0.0000
                                           -0.0000 -0.0000  0.0000 -0.0000  0.0000
                                            0.0000  0.0000  0.0000  0.0000  0.0000
                                            0.0000  0.0000  0.0000  0.0000 -0.0000
                                            0.0000  0.0000  0.0000 -0.0000  0.0000
                                            0.0000  0.0000 -0.0000 -0.0000  0.0000
                                           -0.0000  0.0000  0.0000  0.0000  0.0000
                                           -0.0000 -0.0000  0.0000 -0.0000
    11. (1.99959) CR ( 3)Br   3           s(100.00%)p 0.00(  0.00%)
                                            0.0000  0.0000  1.0000 -0.0004 -0.0000
                                           -0.0000  0.0000 -0.0000  0.0000  0.0000
                                           -0.0000  0.0000  0.0000 -0.0000  0.0000
                                            0.0001 -0.0000  0.0000  0.0000  0.0000
                                            0.0000  0.0000  0.0000  0.0000  0.0000
                                            0.0000  0.0000 -0.0000  0.0000  0.0000
                                            0.0000  0.0000  0.0000  0.0000  0.0000
                                            0.0000  0.0000 -0.0000 -0.0000  0.0000
                                           -0.0000 -0.0000 -0.0000  0.0000 -0.0000
                                            0.0000  0.0000 -0.0000 -0.0000 -0.0000
                                            0.0000  0.0000  0.0000  0.0000  0.0000
                                           -0.0000  0.0000 -0.0000  0.0000
    12. (2.00000) CR ( 4)Br   3           s(  0.00%)p 1.00(100.00%)
                                            0.0000 -0.0000 -0.0000 -0.0000 -0.0000
                                           -0.0000  0.0000  1.0000  0.0000  0.0000
                                            0.0000  0.0000 -0.0000  0.0000 -0.0000
                                           -0.0000 -0.0000 -0.0000  0.0000  0.0000
                                            0.0000  0.0000  0.0000  0.0000  0.0000
                                           -0.0000  0.0000 -0.0000 -0.0000  0.0000
                                            0.0000  0.0000  0.0000  0.0000  0.0000
                                            0.0000  0.0000 -0.0000  0.0000  0.0000
                                           -0.0000 -0.0000  0.0000 -0.0000  0.0000
                                            0.0000  0.0000 -0.0000 -0.0000  0.0000
                                            0.0000  0.0000  0.0000  0.0000  0.0000
                                           -0.0000 -0.0000  0.0000  0.0000
    13. (1.99997) CR ( 5)Br   3           s(  0.00%)p 1.00(100.00%)
                                           -0.0000 -0.0000  0.0000  0.0000  0.0000
                                            0.0000 -0.0000  0.0000  1.0000 -0.0004
                                           -0.0000 -0.0000  0.0000 -0.0000  0.0000
                                            0.0001  0.0000  0.0000 -0.0000  0.0000
                                            0.0000  0.0000  0.0000  0.0000  0.0000
                                            0.0000 -0.0000  0.0000  0.0000  0.0000
                                            0.0000  0.0000  0.0000  0.0000  0.0000
                                            0.0000  0.0000  0.0000 -0.0000 -0.0000
                                            0.0000  0.0000  0.0000  0.0000 -0.0000
                                            0.0000  0.0000  0.0000  0.0000 -0.0000
                                           -0.0000  0.0000  0.0000  0.0000  0.0000
                                            0.0000  0.0000 -0.0000 -0.0000
    14. (2.00000) CR ( 6)Br   3           s(  0.00%)p 1.00(100.00%)
                                            0.0000  0.0000 -0.0000 -0.0000 -0.0000
                                           -0.0000  0.0000  0.0000 -0.0000 -0.0000
                                           -0.0000 -0.0000  0.0000  1.0000  0.0000
                                            0.0000 -0.0000  0.0000  0.0000  0.0000
                                            0.0000  0.0000  0.0000  0.0000  0.0000
                                            0.0000 -0.0000  0.0000  0.0000  0.0000
                                            0.0000  0.0000  0.0000  0.0000  0.0000
                                            0.0000  0.0000 -0.0000 -0.0000 -0.0000
                                            0.0000 -0.0000 -0.0000  0.0000 -0.0000
                                            0.0000  0.0000  0.0000  0.0000 -0.0000
                                            0.0000  0.0000  0.0000  0.0000  0.0000
                                            0.0000  0.0000 -0.0000 -0.0000
    15. (1.99985) CR ( 7)Br   3           s(  0.00%)p 1.00(100.00%)
                                           -0.0000 -0.0000  0.0000  0.0002  0.0000
                                            0.0000 -0.0000 -0.0000  0.0000  0.0001
                                            0.0000  0.0000 -0.0000  0.0000  1.0000
                                           -0.0001  0.0000 -0.0000 -0.0000  0.0000
                                            0.0000  0.0000  0.0000  0.0000  0.0000
                                           -0.0000  0.0000 -0.0000 -0.0000  0.0000
                                            0.0000  0.0000  0.0000  0.0000  0.0000
                                            0.0000  0.0000  0.0000  0.0000  0.0000
                                           -0.0000  0.0000  0.0000 -0.0000  0.0000
                                            0.0000  0.0000 -0.0000 -0.0000  0.0000
                                           -0.0000  0.0000  0.0000  0.0000  0.0000
                                           -0.0000 -0.0000  0.0000  0.0000
    16. (2.00000) CR ( 8)Br   3           s(  0.00%)p 1.00(100.00%)
                                            0.0000  0.0000  0.0000  0.0000  0.0000
                                            0.0000  0.0000  0.0000  0.0000  0.0000
                                            0.0000  0.0000  0.0000  0.0000  0.0000
                                            0.0000  0.0000  0.0000  0.0000  1.0000
                                            0.0000  0.0000  0.0000  0.0000 -0.0000
                                            0.0000  0.0000  0.0000  0.0000 -0.0000
                                            0.0000  0.0000 -0.0000 -0.0000  0.0000
                                           -0.0000 -0.0000  0.0000  0.0000  0.0000
                                            0.0000  0.0000  0.0000  0.0000  0.0000
                                           -0.0000 -0.0000  0.0000  0.0000  0.0000
                                            0.0000 -0.0000 -0.0000  0.0000  0.0000
                                            0.0000  0.0000  0.0000  0.0000
    17. (1.99997) CR ( 9)Br   3           s(  0.00%)p 1.00(100.00%)
                                            0.0000  0.0000  0.0000  0.0000  0.0000
                                            0.0000  0.0000  0.0000  0.0000  0.0000
                                            0.0000  0.0000  0.0000  0.0000  0.0000
                                            0.0000  0.0000  0.0000  0.0000  0.0000
                                            1.0000 -0.0004 -0.0000 -0.0000  0.0000
                                            0.0000  0.0000  0.0000  0.0000  0.0000
                                           -0.0000 -0.0000  0.0000  0.0000 -0.0000
                                            0.0000  0.0000  0.0000  0.0000  0.0000
                                            0.0000  0.0000  0.0000  0.0000  0.0000
                                            0.0000  0.0000  0.0000  0.0000  0.0000
                                            0.0000  0.0000  0.0000 -0.0000 -0.0000
                                            0.0000  0.0000  0.0000  0.0000
    18. (1.99763) CR (10)Br   3           s(  0.00%)p 0.00(  0.00%)d 1.00(100.00%)
                                           -0.0000 -0.0000  0.0000  0.0000  0.0000
                                            0.0000 -0.0000 -0.0000  0.0000  0.0000
                                            0.0000  0.0000 -0.0000  0.0000 -0.0000
                                           -0.0000  0.0000 -0.0000 -0.0000  0.0000
                                            0.0000  0.0000  0.0000  0.0000  0.0000
                                            1.0000  0.0000 -0.0000 -0.0000  0.0000
                                            0.0000  0.0000  0.0000  0.0000  0.0000
                                            0.0000  0.0000  0.0000  0.0000  0.0000
                                           -0.0000  0.0000  0.0000 -0.0000  0.0000
                                            0.0000  0.0000 -0.0000 -0.0000  0.0000
                                            0.0000  0.0000  0.0000  0.0000  0.0000
                                           -0.0000 -0.0000  0.0000  0.0000
    19. (1.99768) CR (11)Br   3           s(  0.00%)p 0.00(  0.00%)d 1.00(100.00%)
                                            0.0000  0.0000  0.0000  0.0000  0.0000
                                            0.0000  0.0000  0.0000  0.0000  0.0000
                                            0.0000  0.0000  0.0000  0.0000  0.0000
                                            0.0000  0.0000  0.0000  0.0000 -0.0000
                                            0.0000  0.0000  0.0000  0.0000 -0.0000
                                            0.0000  0.0000  0.0000  0.0000  1.0000
                                            0.0000  0.0000 -0.0000 -0.0000  0.0000
                                           -0.0000 -0.0000  0.0000  0.0000  0.0000
                                            0.0000  0.0000  0.0000  0.0000  0.0000
                                           -0.0000 -0.0000  0.0000  0.0000  0.0000
                                            0.0000 -0.0000 -0.0000  0.0000  0.0000
                                            0.0000  0.0000  0.0000  0.0000
    20. (1.99765) CR (12)Br   3           s(  0.00%)p 0.00(  0.00%)d 1.00(100.00%)
                                            0.0000  0.0000  0.0000  0.0000  0.0000
                                            0.0000  0.0000  0.0000  0.0000  0.0000
                                            0.0000  0.0000  0.0000  0.0000  0.0000
                                            0.0000  0.0000  0.0000  0.0000 -0.0000
                                            0.0000  0.0000  0.0000  0.0000 -0.0000
                                            0.0000  0.0000  0.0000  0.0000 -0.0000
                                            0.0000  0.0000 -0.0000  1.0000  0.0000
                                           -0.0000 -0.0000  0.0000  0.0000  0.0000
                                            0.0000  0.0000  0.0000  0.0000  0.0000
                                           -0.0000 -0.0000  0.0000  0.0000  0.0000
                                            0.0000 -0.0000 -0.0000  0.0000  0.0000
                                            0.0000  0.0000  0.0000  0.0000
    21. (1.99759) CR (13)Br   3           s(  0.00%)p 0.00(  0.00%)d 1.00(100.00%)
                                            0.0000  0.0000 -0.0000 -0.0001 -0.0000
                                           -0.0000  0.0000 -0.0000  0.0000  0.0000
                                            0.0000  0.0000  0.0000 -0.0000  0.0000
                                            0.0000 -0.0000  0.0000  0.0000  0.0000
                                            0.0000  0.0000  0.0000  0.0000  0.0000
                                            0.0000  0.0000 -0.0000 -0.0000  0.0000
                                            0.0000  0.0000  0.0000  0.0000  0.0000
                                            0.0000  0.0000  1.0000 -0.0000  0.0000
                                           -0.0000 -0.0000 -0.0000  0.0000 -0.0000
                                            0.0000  0.0000 -0.0000 -0.0000 -0.0000
                                            0.0000  0.0000  0.0000  0.0000  0.0000
                                           -0.0000 -0.0000  0.0000  0.0000
    22. (1.99765) CR (14)Br   3           s(  0.00%)p 0.00(  0.00%)d 1.00(100.00%)
                                            0.0000  0.0000 -0.0000 -0.0000 -0.0000
                                           -0.0000  0.0000 -0.0000  0.0000  0.0000
                                           -0.0000  0.0000  0.0000 -0.0000  0.0000
                                            0.0000 -0.0000  0.0000  0.0000  0.0000
                                            0.0000  0.0000  0.0000  0.0000  0.0000
                                            0.0000  0.0000 -0.0000  0.0000  0.0000
                                            0.0000  0.0000  0.0000  0.0000  0.0000
                                            0.0000  0.0000 -0.0000 -0.0000  0.0000
                                           -0.0000  1.0000 -0.0000  0.0000 -0.0000
                                            0.0000  0.0000 -0.0000 -0.0000 -0.0000
                                            0.0000  0.0000  0.0000  0.0000  0.0000
                                           -0.0000  0.0000 -0.0000  0.0000
    23. (1.96615) LP ( 1) O   1           s( 67.45%)p 0.48( 32.49%)d 0.00(  0.06%)
                                                  f 0.00(  0.00%)
                                            0.0002  0.8212  0.0098 -0.0079 -0.0014
                                           -0.2508  0.0005 -0.0042 -0.0013  0.5117
                                            0.0072  0.0051  0.0014  0.0000  0.0000
                                            0.0000  0.0000  0.0209  0.0025 -0.0025
                                            0.0000  0.0000  0.0000  0.0000  0.0000
                                            0.0000  0.0102  0.0004 -0.0032  0.0078
                                            0.0005  0.0011  0.0000  0.0000 -0.0003
                                            0.0005 -0.0019 -0.0001  0.0000  0.0000
                                            0.0000  0.0000  0.0035 -0.0023  0.0042
                                           -0.0012
    24. (1.94980) LP ( 2) O   1           s(  0.00%)p 1.00( 99.83%)d 0.00(  0.15%)
                                                  f 0.00(  0.01%)
                                            0.0000  0.0000  0.0000  0.0000  0.0000
                                            0.0000  0.0000  0.0000  0.0000  0.0000
                                            0.0000  0.0000  0.0000  0.9990  0.0161
                                            0.0047  0.0100  0.0000  0.0000  0.0000
                                            0.0320  0.0047 -0.0015 -0.0192  0.0039
                                            0.0102  0.0000  0.0000  0.0000  0.0000
                                            0.0000  0.0000 -0.0091  0.0003  0.0000
                                            0.0000  0.0000  0.0000  0.0067 -0.0022
                                            0.0003  0.0011  0.0000  0.0000  0.0000
                                            0.0000
    25. (1.97348) LP ( 1)Cl   2           s( 91.08%)p 0.10(  8.90%)d 0.00(  0.02%)
                                                  f 0.00(  0.00%)
                                            0.0000  0.0003  0.9543  0.0072  0.0012
                                            0.0004  0.0001  0.2962 -0.0064 -0.0032
                                            0.0014  0.0000 -0.0345  0.0010 -0.0000
                                           -0.0005  0.0000  0.0000  0.0000  0.0000
                                            0.0000 -0.0003 -0.0004 -0.0003  0.0000
                                            0.0000  0.0000  0.0000  0.0000  0.0000
                                           -0.0130  0.0003  0.0004  0.0081  0.0005
                                            0.0002  0.0000  0.0000 -0.0023 -0.0003
                                            0.0001 -0.0000  0.0000  0.0000  0.0000
                                            0.0000  0.0036 -0.0001 -0.0003  0.0001
    26. (1.95548) LP ( 2)Cl   2           s(  0.00%)p 1.00( 99.94%)d 0.00(  0.05%)
                                                  f 0.00(  0.01%)
                                            0.0000  0.0000  0.0000  0.0000  0.0000
                                            0.0000  0.0000  0.0000  0.0000  0.0000
                                            0.0000  0.0000  0.0000  0.0000  0.0000
                                            0.0000 -0.0002  0.9996  0.0153  0.0051
                                           -0.0023  0.0000  0.0000  0.0000  0.0101
                                            0.0193  0.0077  0.0026  0.0021  0.0003
                                            0.0000  0.0000  0.0000  0.0000  0.0000
                                            0.0000 -0.0055  0.0014  0.0000  0.0000
                                            0.0000  0.0000  0.0064 -0.0011  0.0007
                                           -0.0006  0.0000  0.0000  0.0000  0.0000
    27. (1.95395) LP ( 3)Cl   2           s(  0.14%)p99.99( 99.81%)d 0.31(  0.04%)
                                                  f 0.06(  0.01%)
                                            0.0000 -0.0000  0.0366  0.0049  0.0039
                                           -0.0024  0.0000 -0.0021  0.0002  0.0000
                                           -0.0005 -0.0002  0.9990  0.0137  0.0015
                                            0.0004  0.0000  0.0000  0.0000  0.0000
                                            0.0000  0.0022  0.0174  0.0075  0.0000
                                            0.0000  0.0000  0.0000  0.0000  0.0000
                                           -0.0061 -0.0041 -0.0025 -0.0002 -0.0021
                                            0.0000  0.0000  0.0000  0.0001  0.0002
                                           -0.0025  0.0004  0.0000  0.0000  0.0000
                                            0.0000 -0.0011  0.0002  0.0085 -0.0017
    28. (1.97644) LP ( 1)Br   3           s( 87.82%)p 0.14( 12.17%)d 0.00(  0.00%)
                                                  f 0.00(  0.00%)
                                           -0.0000 -0.0000  0.0004  0.9371  0.0005
                                            0.0017 -0.0007  0.0000 -0.0001 -0.0890
                                            0.0004 -0.0002 -0.0001  0.0000 -0.0002
                                           -0.3373  0.0033 -0.0003 -0.0002  0.0000
                                            0.0000  0.0000  0.0000  0.0000  0.0000
                                           -0.0000 -0.0015  0.0002 -0.0003  0.0000
                                            0.0000  0.0000  0.0000  0.0000  0.0000
                                            0.0000  0.0000  0.0001  0.0027 -0.0001
                                            0.0004  0.0000  0.0021 -0.0002  0.0005
                                            0.0000  0.0000  0.0001  0.0000  0.0002
                                           -0.0000  0.0000  0.0000  0.0000  0.0000
                                            0.0002 -0.0000  0.0002 -0.0001
    29. (1.95434) LP ( 2)Br   3           s(  0.00%)p 1.00( 99.99%)d 0.00(  0.01%)
                                                  f 0.00(  0.00%)
                                            0.0000  0.0000  0.0000  0.0000  0.0000
                                            0.0000  0.0000  0.0000  0.0000  0.0000
                                            0.0000  0.0000  0.0000  0.0000  0.0000
                                            0.0000  0.0000  0.0000  0.0000 -0.0000
                                            0.0004  0.9999  0.0047  0.0023 -0.0005
                                            0.0000  0.0000  0.0000  0.0000 -0.0000
                                            0.0019  0.0001 -0.0011 -0.0000  0.0100
                                           -0.0010 -0.0032  0.0000  0.0000  0.0000
                                            0.0000  0.0000  0.0000  0.0000  0.0000
                                           -0.0031 -0.0013  0.0000  0.0000  0.0000
                                            0.0000 -0.0035 -0.0014  0.0017  0.0007
                                            0.0000  0.0000  0.0000  0.0000
    30. (1.95401) LP ( 3)Br   3           s(  0.01%)p 1.00( 99.98%)d 0.00(  0.01%)
                                                  f 0.00(  0.00%)
                                           -0.0000 -0.0000  0.0000  0.0076 -0.0004
                                           -0.0005  0.0007 -0.0000  0.0004  0.9718
                                            0.0045  0.0021 -0.0006  0.0000 -0.0001
                                           -0.2353 -0.0011 -0.0008  0.0002  0.0000
                                            0.0000  0.0000  0.0000  0.0000  0.0000
                                           -0.0000  0.0101 -0.0007 -0.0029  0.0000
                                            0.0000  0.0000  0.0000  0.0000  0.0000
                                            0.0000  0.0000 -0.0000  0.0036  0.0004
                                           -0.0024  0.0000  0.0003 -0.0002  0.0002
                                            0.0000  0.0000 -0.0012 -0.0005  0.0002
                                            0.0001  0.0000  0.0000  0.0000  0.0000
                                           -0.0037 -0.0013  0.0028  0.0010
    31. (1.71656) LP ( 4)Br   3           s( 12.16%)p 7.21( 87.69%)d 0.01(  0.13%)
                                                  f 0.00(  0.02%)
                                            0.0000 -0.0000  0.0000  0.3487 -0.0014
                                           -0.0054  0.0021 -0.0000  0.0000  0.2177
                                           -0.0015 -0.0007  0.0000  0.0000  0.0000
                                            0.9107 -0.0100 -0.0057  0.0013  0.0000
                                            0.0000  0.0000  0.0000  0.0000  0.0000
                                            0.0000  0.0137 -0.0026  0.0003  0.0000
                                            0.0000  0.0000  0.0000  0.0000  0.0000
                                            0.0000  0.0000  0.0000 -0.0270  0.0047
                                            0.0009 -0.0000 -0.0186  0.0036 -0.0007
                                            0.0000  0.0000 -0.0017 -0.0007 -0.0072
                                           -0.0024  0.0000  0.0000  0.0000  0.0000
                                           -0.0059 -0.0017 -0.0070 -0.0017
    32. (0.02154) RY*( 1) O   1           s(  0.00%)p 1.00( 99.02%)d 0.01(  0.93%)
                                                  f 0.00(  0.05%)
                                            0.0000  0.0000  0.0000  0.0000  0.0000
                                            0.0000  0.0000  0.0000  0.0000  0.0000
                                            0.0000  0.0000  0.0000 -0.0196  0.9943
                                           -0.0314 -0.0125  0.0000  0.0000  0.0000
                                            0.0726  0.0267  0.0072 -0.0559 -0.0009
                                            0.0118  0.0000  0.0000  0.0000  0.0000
                                            0.0000  0.0000 -0.0130  0.0103  0.0000
                                            0.0000  0.0000  0.0000  0.0101 -0.0093
                                           -0.0014  0.0010  0.0000  0.0000  0.0000
                                            0.0000
    33. (0.01763) RY*( 2) O   1           s( 27.17%)p 2.61( 71.03%)d 0.06(  1.66%)
                                                  f 0.01(  0.14%)
                                           -0.0000  0.0065  0.5206  0.0197 -0.0139
                                            0.0345 -0.3236 -0.0131  0.0262 -0.0196
                                            0.7742 -0.0051 -0.0616  0.0000  0.0000
                                            0.0000  0.0000  0.1169  0.0321  0.0142
                                            0.0000  0.0000  0.0000  0.0000  0.0000
                                            0.0000  0.0126  0.0069  0.0070  0.0374
                                            0.0036 -0.0047  0.0000  0.0000 -0.0033
                                            0.0000  0.0017  0.0035  0.0000  0.0000
                                            0.0000  0.0000  0.0271 -0.0115  0.0204
                                           -0.0099
    34. (0.00852) RY*( 3) O   1           s( 25.89%)p 0.87( 22.44%)d 1.97( 50.89%)
                                                  f 0.03(  0.79%)
                                           -0.0000  0.0099  0.4978  0.1028  0.0183
                                           -0.0110 -0.2666  0.0076  0.0746 -0.0045
                                           -0.3729  0.0299 -0.0869 -0.0000 -0.0000
                                           -0.0000 -0.0000 -0.6355 -0.0129 -0.0180
                                           -0.0000 -0.0000 -0.0000 -0.0000 -0.0000
                                           -0.0000  0.2191 -0.0075  0.0232  0.2360
                                           -0.0143  0.0025 -0.0000 -0.0000 -0.0184
                                            0.0116  0.0064 -0.0025 -0.0000 -0.0000
                                           -0.0000 -0.0000 -0.0052  0.0016 -0.0798
                                            0.0319
    35. (0.00703) RY*( 4) O   1           s(  0.00%)p 1.00(  0.32%)d99.99( 97.84%)
                                                  f 5.70(  1.84%)
                                            0.0000  0.0000  0.0000  0.0000  0.0000
                                            0.0000  0.0000  0.0000  0.0000  0.0000
[...]
                                           -0.0022 -0.0299  0.2586  0.4192 -0.1014
                                            0.2671 -0.2152  0.0545 -0.2662  0.3777
                                           -0.0000 -0.0000 -0.0000 -0.5852  0.0137
                                           -0.0000 -0.0000 -0.0000 -0.0000  0.0898
                                           -0.1222  0.2068 -0.0611
   163. (0.00029) RY*( 9) H   4           s(  0.46%)p12.44(  5.67%)d99.99( 93.87%)
                                            0.0061 -0.0338  0.0524  0.0251 -0.0544
                                            0.0058 -0.0688  0.0149  0.0194 -0.2199
                                           -0.0000 -0.0000 -0.0000 -0.2426  0.0537
                                           -0.0000 -0.0000 -0.0000 -0.0000  0.5894
                                           -0.0046 -0.6678  0.2892
   164. (0.00028) RY*(10) H   4           s(  0.00%)p 1.00(  0.12%)d99.99( 99.88%)
                                            0.0000  0.0000  0.0000  0.0000  0.0000
                                            0.0000  0.0000  0.0000  0.0000  0.0000
                                            0.0054  0.0041  0.0341  0.0000  0.0000
                                            0.9503 -0.2925 -0.0589  0.0815  0.0000
                                            0.0000  0.0000  0.0000
   165. (0.00027) RY*(11) H   4           s(  0.00%)p 1.00( 81.11%)d 0.23( 18.89%)
                                            0.0000  0.0000  0.0000  0.0000  0.0000
                                            0.0000  0.0000  0.0000  0.0000  0.0000
                                           -0.0559  0.8784  0.1909  0.0000  0.0000
                                            0.0265  0.0893  0.3881  0.1722  0.0000
                                            0.0000  0.0000  0.0000
   166. (0.00023) RY*(12) H   4           s( 13.68%)p 0.63(  8.64%)d 5.68( 77.67%)
                                            0.0091 -0.0187  0.0984  0.3560  0.1054
                                            0.0696  0.1907  0.0072 -0.1039 -0.1525
                                            0.0000  0.0000  0.0000  0.4066  0.0432
                                            0.0000  0.0000  0.0000  0.0000  0.6195
                                            0.1812  0.4391 -0.0092
   167. (0.00021) RY*(13) H   4           s(  8.71%)p 4.05( 35.28%)d 6.43( 56.01%)
                                           -0.0135  0.0625  0.0591  0.2820  0.0304
                                           -0.0549  0.1609  0.0006  0.0378  0.5671
                                            0.0000  0.0000  0.0000  0.4344  0.2500
                                            0.0000  0.0000  0.0000  0.0000  0.0061
                                           -0.3213 -0.4085 -0.1966
   168. (0.00013) RY*(14) H   4           s( 73.09%)p 0.30( 21.76%)d 0.07(  5.15%)
                                            0.0022 -0.0707  0.6070 -0.5978 -0.0048
                                           -0.1155 -0.0668 -0.0142 -0.4306  0.1191
                                           -0.0000 -0.0000 -0.0000  0.1331  0.1237
                                           -0.0000 -0.0000 -0.0000 -0.0000  0.1221
                                           -0.0320  0.0386 -0.0324
   169. (0.00011) RY*(15) H   4           s( 27.18%)p 1.75( 47.59%)d 0.93( 25.23%)
                                            0.0017 -0.0235  0.3491  0.3864 -0.0259
                                            0.0512 -0.2936  0.0722 -0.1790 -0.5909
                                            0.0000  0.0000  0.0000  0.2206  0.0444
                                            0.0000  0.0000  0.0000  0.0000 -0.3387
                                           -0.1982 -0.1677 -0.1397
   170. (0.00010) RY*(16) H   4           s(  0.00%)p 1.00( 31.22%)d 2.20( 68.78%)
   171. (0.00008) RY*(17) H   4           s(  1.51%)p12.24( 18.49%)d52.97( 80.00%)
   172. (0.00007) RY*(18) H   4           s(  0.00%)p 1.00( 38.59%)d 1.59( 61.41%)
   173. (0.00004) RY*(19) H   4           s(  5.62%)p 5.45( 30.63%)d11.34( 63.75%)
   174. (0.00004) RY*(20) H   4           s(  1.17%)p31.40( 36.65%)d53.27( 62.18%)
   175. (0.00004) RY*(21) H   4           s(  0.00%)p 1.00(  0.18%)d99.99( 99.82%)
   176. (0.00003) RY*(22) H   4           s(  6.11%)p 1.44(  8.79%)d13.94( 85.10%)
   177. (0.05898) BD*( 1) O   1 -Cl   2  
                ( 42.13%)   0.6491* O   1 s( 10.37%)p 8.59( 89.11%)d 0.05(  0.50%)
                                                  f 0.00(  0.02%)
                                           -0.0003 -0.3173  0.0525 -0.0166  0.0005
                                           -0.9415  0.0405  0.0106  0.0153  0.0459
                                            0.0240  0.0042 -0.0015 -0.0000 -0.0000
                                           -0.0000 -0.0000  0.0168  0.0017 -0.0014
                                           -0.0000 -0.0000 -0.0000 -0.0000 -0.0000
                                           -0.0000 -0.0545 -0.0040 -0.0022  0.0412
                                            0.0035 -0.0001 -0.0000 -0.0000  0.0108
                                           -0.0010  0.0000 -0.0001 -0.0000 -0.0000
                                           -0.0000 -0.0000 -0.0074 -0.0010  0.0008
                                           -0.0014
                ( 57.87%)  -0.7607*Cl   2 s(  9.07%)p 9.88( 89.69%)d 0.12(  1.11%)
                                                  f 0.01(  0.12%)
                                            0.0000 -0.0006 -0.2955  0.0575  0.0102
                                            0.0027  0.0004  0.9446 -0.0652 -0.0137
                                            0.0038  0.0000  0.0120  0.0018 -0.0032
                                            0.0015 -0.0000 -0.0000 -0.0000 -0.0000
                                           -0.0000 -0.0132  0.0002 -0.0002 -0.0000
                                           -0.0000 -0.0000 -0.0000 -0.0000 -0.0000
                                           -0.0875  0.0120  0.0015  0.0556 -0.0074
                                           -0.0019 -0.0000 -0.0000 -0.0218  0.0029
                                           -0.0006  0.0001 -0.0000 -0.0000 -0.0000
                                           -0.0000  0.0267 -0.0028  0.0021 -0.0004
   178. (0.26539) BD*( 1) O   1 - H   4  
                ( 17.63%)   0.4199* O   1 s( 22.43%)p 3.44( 77.23%)d 0.01(  0.33%)
                                                  f 0.00(  0.01%)
                                            0.0002  0.4736 -0.0001  0.0077  0.0024
                                           -0.1995  0.0128  0.0025  0.0055 -0.8557
                                           -0.0076  0.0029  0.0042 -0.0000 -0.0000
                                           -0.0000 -0.0000 -0.0091 -0.0028 -0.0006
                                           -0.0000 -0.0000 -0.0000 -0.0000 -0.0000
                                           -0.0000 -0.0486 -0.0061  0.0008 -0.0272
                                           -0.0016  0.0043 -0.0000 -0.0000  0.0017
                                            0.0004  0.0090 -0.0009 -0.0000 -0.0000
                                           -0.0000 -0.0000  0.0023  0.0012 -0.0007
                                            0.0001
                ( 82.37%)  -0.9076* H   4 s( 99.76%)p 0.00(  0.23%)d 0.00(  0.02%)
                                            0.9981 -0.0325  0.0197 -0.0011  0.0084
                                            0.0147 -0.0022 -0.0130  0.0401  0.0136
                                           -0.0000 -0.0000 -0.0000  0.0016  0.0031
                                           -0.0000 -0.0000 -0.0000 -0.0000 -0.0079
                                           -0.0069 -0.0025 -0.0083


 NHO Directionality and "Bond Bending" (deviations from line of nuclear centers)

         [Thresholds for printing:  angular deviation  >  1.0 degree]
                                    hybrid p-character > 25.0%
                                    orbital occupancy  >  0.10e

                                Line of Centers        Hybrid 1              Hybrid 2
                                ---------------  -------------------   ------------------
                NBO               Theta   Phi    Theta   Phi    Dev    Theta   Phi    Dev
 ========================================================================================
     1. BD (   1) O   1 -Cl   2    90.0    0.0    90.0  355.3   4.7      --     --    --
     2. BD (   1) O   1 - H   4    90.0  256.6    90.0  258.2   1.6      --     --    --
    23. LP (   1) O   1             --     --     90.0  116.0   --       --     --    --
    24. LP (   2) O   1             --     --      0.0    0.0   --       --     --    --
    26. LP (   2)Cl   2             --     --      0.0    0.0   --       --     --    --
    27. LP (   3)Cl   2             --     --     90.0   90.1   --       --     --    --
    29. LP (   2)Br   3             --     --      0.0    0.0   --       --     --    --
    30. LP (   3)Br   3             --     --     90.0  346.4   --       --     --    --
    31. LP (   4)Br   3             --     --     90.0   76.5   --       --     --    --
   178. BD*(   1) O   1 - H   4    90.0  256.6    90.0  258.2   1.6      --     --    --


 Natural Bond Orbitals (Summary):

           NBO                  Occupancy  
 -----------------------------------------------
 Molecular unit  1  (HOCl)
     1. BD (   1) O   1 -Cl   2          1.93754
     2. BD (   1) O   1 - H   4          1.95529
     3. CR (   1) O   1                  1.99979
     4. CR (   1)Cl   2                  2.00000
     5. CR (   2)Cl   2                  1.99976
     6. CR (   3)Cl   2                  1.99995
     7. CR (   4)Cl   2                  2.00003
     8. CR (   5)Cl   2                  2.00003
    23. LP (   1) O   1                  1.96615
    24. LP (   2) O   1                  1.94980
    25. LP (   1)Cl   2                  1.97348
    26. LP (   2)Cl   2                  1.95548
    27. LP (   3)Cl   2                  1.95395
    32. RY*(   1) O   1                  0.02154
    33. RY*(   2) O   1                  0.01763
    34. RY*(   3) O   1                  0.00852
    35. RY*(   4) O   1                  0.00703
    36. RY*(   5) O   1                  0.00670
    37. RY*(   6) O   1                  0.00629
    38. RY*(   7) O   1                  0.00574
    39. RY*(   8) O   1                  0.00448
    40. RY*(   9) O   1                  0.00236
    41. RY*(  10) O   1                  0.00072
    42. RY*(  11) O   1                  0.00067
    43. RY*(  12) O   1                  0.00066
    44. RY*(  13) O   1                  0.00060
    45. RY*(  14) O   1                  0.00053
    46. RY*(  15) O   1                  0.00054
    47. RY*(  16) O   1                  0.00049
    48. RY*(  17) O   1                  0.00049
    49. RY*(  18) O   1                  0.00048
    50. RY*(  19) O   1                  0.00047
    51. RY*(  20) O   1                  0.00046
    52. RY*(  21) O   1                  0.00046
    53. RY*(  22) O   1                  0.00045
    54. RY*(  23) O   1                  0.00040
    55. RY*(  24) O   1                  0.00034
    56. RY*(  25) O   1                  0.00027
    57. RY*(  26) O   1                  0.00016
    58. RY*(  27) O   1                  0.00013
    59. RY*(  28) O   1                  0.00012
    60. RY*(  29) O   1                  0.00012
    61. RY*(  30) O   1                  0.00008
    62. RY*(  31) O   1                  0.00009
    63. RY*(  32) O   1                  0.00009
    64. RY*(  33) O   1                  0.00008
    65. RY*(  34) O   1                  0.00008
    66. RY*(  35) O   1                  0.00007
    67. RY*(  36) O   1                  0.00007
    68. RY*(  37) O   1                  0.00006
    69. RY*(  38) O   1                  0.00007
    70. RY*(  39) O   1                  0.00005
    71. RY*(  40) O   1                  0.00003
    72. RY*(  41) O   1                 -0.00011
    73. RY*(   1)Cl   2                  0.02384
    74. RY*(   2)Cl   2                  0.01932
    75. RY*(   3)Cl   2                  0.01693
    76. RY*(   4)Cl   2                  0.01691
    77. RY*(   5)Cl   2                  0.01226
    78. RY*(   6)Cl   2                  0.00962
    79. RY*(   7)Cl   2                  0.00933
    80. RY*(   8)Cl   2                  0.00657
    81. RY*(   9)Cl   2                  0.00182
    82. RY*(  10)Cl   2                  0.00127
    83. RY*(  11)Cl   2                  0.00127
    84. RY*(  12)Cl   2                  0.00121
    85. RY*(  13)Cl   2                  0.00121
    86. RY*(  14)Cl   2                  0.00118
    87. RY*(  15)Cl   2                  0.00112
    88. RY*(  16)Cl   2                  0.00098
    89. RY*(  17)Cl   2                  0.00079
    90. RY*(  18)Cl   2                  0.00077
    91. RY*(  19)Cl   2                  0.00067
    92. RY*(  20)Cl   2                  0.00061
    93. RY*(  21)Cl   2                  0.00046
    94. RY*(  22)Cl   2                  0.00038
    95. RY*(  23)Cl   2                  0.00036
    96. RY*(  24)Cl   2                  0.00032
    97. RY*(  25)Cl   2                  0.00018
    98. RY*(  26)Cl   2                  0.00018
    99. RY*(  27)Cl   2                  0.00017
   100. RY*(  28)Cl   2                  0.00014
   101. RY*(  29)Cl   2                  0.00013
   102. RY*(  30)Cl   2                  0.00012
   103. RY*(  31)Cl   2                  0.00013
   104. RY*(  32)Cl   2                  0.00011
   105. RY*(  33)Cl   2                  0.00011
   106. RY*(  34)Cl   2                  0.00010
   107. RY*(  35)Cl   2                  0.00009
   108. RY*(  36)Cl   2                  0.00010
   109. RY*(  37)Cl   2                  0.00008
   110. RY*(  38)Cl   2                  0.00004
   111. RY*(  39)Cl   2                  0.00004
   112. RY*(  40)Cl   2                  0.00003
   113. RY*(  41)Cl   2                 -0.00000
   155. RY*(   1) H   4                  0.00807
   156. RY*(   2) H   4                  0.00599
   157. RY*(   3) H   4                  0.00465
   158. RY*(   4) H   4                  0.00413
   159. RY*(   5) H   4                  0.00228
   160. RY*(   6) H   4                  0.00069
   161. RY*(   7) H   4                  0.00039
   162. RY*(   8) H   4                  0.00032
   163. RY*(   9) H   4                  0.00029
   164. RY*(  10) H   4                  0.00028
   165. RY*(  11) H   4                  0.00027
   166. RY*(  12) H   4                  0.00023
   167. RY*(  13) H   4                  0.00021
   168. RY*(  14) H   4                  0.00013
   169. RY*(  15) H   4                  0.00011
   170. RY*(  16) H   4                  0.00010
   171. RY*(  17) H   4                  0.00008
   172. RY*(  18) H   4                  0.00007
   173. RY*(  19) H   4                  0.00004
   174. RY*(  20) H   4                  0.00004
   175. RY*(  21) H   4                  0.00004
   176. RY*(  22) H   4                  0.00003
   177. BD*(   1) O   1 -Cl   2          0.05898
   178. BD*(   1) O   1 - H   4          0.26539
       -------------------------------
              Total Lewis   25.69125  ( 97.8173%)
        Valence non-Lewis    0.32437  (  1.2350%)
        Rydberg non-Lewis    0.24891  (  0.9477%)
       -------------------------------
            Total unit  1   26.26453  (100.0000%)
           Charge unit  1   -0.26453

 Molecular unit  2  (Br)
     9. CR (   1)Br   3                  2.00000
    10. CR (   2)Br   3                  2.00000
    11. CR (   3)Br   3                  1.99959
    12. CR (   4)Br   3                  2.00000
    13. CR (   5)Br   3                  1.99997
    14. CR (   6)Br   3                  2.00000
    15. CR (   7)Br   3                  1.99985
    16. CR (   8)Br   3                  2.00000
    17. CR (   9)Br   3                  1.99997
    18. CR (  10)Br   3                  1.99763
    19. CR (  11)Br   3                  1.99768
    20. CR (  12)Br   3                  1.99765
    21. CR (  13)Br   3                  1.99759
    22. CR (  14)Br   3                  1.99765
    28. LP (   1)Br   3                  1.97644
    29. LP (   2)Br   3                  1.95434
    30. LP (   3)Br   3                  1.95401
    31. LP (   4)Br   3                  1.71656
   114. RY*(   1)Br   3                  0.01841
   115. RY*(   2)Br   3                  0.01840
   116. RY*(   3)Br   3                  0.01834
   117. RY*(   4)Br   3                  0.01825
   118. RY*(   5)Br   3                  0.01749
   119. RY*(   6)Br   3                  0.01053
   120. RY*(   7)Br   3                  0.01047
   121. RY*(   8)Br   3                  0.00818
   122. RY*(   9)Br   3                  0.00182
   123. RY*(  10)Br   3                  0.00174
   124. RY*(  11)Br   3                  0.00174
   125. RY*(  12)Br   3                  0.00174
   126. RY*(  13)Br   3                  0.00174
   127. RY*(  14)Br   3                  0.00171
   128. RY*(  15)Br   3                  0.00171
   129. RY*(  16)Br   3                  0.00171
   130. RY*(  17)Br   3                  0.00171
   131. RY*(  18)Br   3                  0.00167
   132. RY*(  19)Br   3                  0.00131
   133. RY*(  20)Br   3                  0.00126
   134. RY*(  21)Br   3                  0.00113
   135. RY*(  22)Br   3                  0.00076
   136. RY*(  23)Br   3                  0.00076
   137. RY*(  24)Br   3                  0.00064
   138. RY*(  25)Br   3                  0.00040
   139. RY*(  26)Br   3                  0.00028
   140. RY*(  27)Br   3                  0.00028
   141. RY*(  28)Br   3                  0.00023
   142. RY*(  29)Br   3                  0.00024
   143. RY*(  30)Br   3                  0.00024
   144. RY*(  31)Br   3                  0.00023
   145. RY*(  32)Br   3                  0.00024
   146. RY*(  33)Br   3                  0.00021
   147. RY*(  34)Br   3                  0.00020
   148. RY*(  35)Br   3                  0.00016
   149. RY*(  36)Br   3                  0.00013
   150. RY*(  37)Br   3                  0.00014
   151. RY*(  38)Br   3                  0.00012
   152. RY*(  39)Br   3                  0.00008
   153. RY*(  40)Br   3                  0.00008
   154. RY*(  41)Br   3                  0.00004
       -------------------------------
              Total Lewis   35.58893  ( 99.5899%)
        Valence non-Lewis    0.00000  (  0.0000%)
        Rydberg non-Lewis    0.14653  (  0.4101%)
       -------------------------------
            Total unit  2   35.73547  (100.0000%)
           Charge unit  2   -0.73547
 Leave Link  607 at Tue Oct 12 14:25:25 2021, MaxMem=  1048576000 cpu:        10.0
 (Enter /usr/local/gaussian/g09/l9999.exe)
 1\1\GINC-KRYPTON\SP\RMP2-FC\Aug-CC-pVTZ\Br1Cl1H1O1(1-)\CGAVINH\12-Oct-
 2021\0\\#p pop=NBO SP NoSymm mp2/aug-cc-pvtz density=current\\title\\-
 1,1\O\X,1,10.\Cl,1,1.68432554,2,90.\Br,1,3.07381752,2,90.,3,103.420351
 85,0\H,1,1.2,2,90.,3,103.42035185,0\\Version=ES64L-G09RevE.01\HF=-3107
 .4582005\MP2=-3108.1726113\RMSD=7.298e-09\Dipole=0.5250135,0.2084517,0
 .\Quadrupole=5.8010355,-13.6866472,7.8856117,-5.4301557,0.,0.\PG=CS [S
 G(Br1Cl1H1O1)]\\@


 WHEN A MATHEMATICIAN ENGAGED IN INVESTIGATING
 PHYSICAL ACTIONS AND RESULTS HAS ARRIVED AT HIS
 CONCLUSIONS, MAY THEY NOT BE EXPRESSED IN COMMON
 LANGUAGE AS FULLY, CLEARLY, AND DEFINITELY AS IN
 MATHEMATICAL FORMULAE?
           - LETTER FROM M. FARADAY TO J.C. MAXWELL, 1857.
 Job cpu time:       0 days  0 hours  2 minutes 34.5 seconds.
 File lengths (MBytes):  RWF=     14 Int=      0 D2E=      0 Chk=      4 Scr=      1
 Normal termination of Gaussian 09 at Tue Oct 12 14:25:25 2021.
