 Entering Gaussian System, Link 0=g09
 Input=brhocl_rOH_100_sp.gjf
 Output=brhocl_rOH_100_sp.log
 Initial command:
 /usr/local/gaussian/g09/l1.exe "/scratch/Gau-17428.inp" -scrdir="/scratch/"
 Entering Link 1 = /usr/local/gaussian/g09/l1.exe PID=     17429.
  
 Copyright (c) 1988,1990,1992,1993,1995,1998,2003,2009,2015,
            Gaussian, Inc.  All Rights Reserved.
  
 This is part of the Gaussian(R) 09 program.  It is based on
 the Gaussian(R) 03 system (copyright 2003, Gaussian, Inc.),
 the Gaussian(R) 98 system (copyright 1998, Gaussian, Inc.),
 the Gaussian(R) 94 system (copyright 1995, Gaussian, Inc.),
 the Gaussian 92(TM) system (copyright 1992, Gaussian, Inc.),
 the Gaussian 90(TM) system (copyright 1990, Gaussian, Inc.),
 the Gaussian 88(TM) system (copyright 1988, Gaussian, Inc.),
 the Gaussian 86(TM) system (copyright 1986, Carnegie Mellon
 University), and the Gaussian 82(TM) system (copyright 1983,
 Carnegie Mellon University). Gaussian is a federally registered
 trademark of Gaussian, Inc.
  
 This software contains proprietary and confidential information,
 including trade secrets, belonging to Gaussian, Inc.
  
 This software is provided under written license and may be
 used, copied, transmitted, or stored only in accord with that
 written license.
  
 The following legend is applicable only to US Government
 contracts under FAR:
  
                    RESTRICTED RIGHTS LEGEND
  
 Use, reproduction and disclosure by the US Government is
 subject to restrictions as set forth in subparagraphs (a)
 and (c) of the Commercial Computer Software - Restricted
 Rights clause in FAR 52.227-19.
  
 Gaussian, Inc.
 340 Quinnipiac St., Bldg. 40, Wallingford CT 06492
  
  
 ---------------------------------------------------------------
 Warning -- This program may not be used in any manner that
 competes with the business of Gaussian, Inc. or will provide
 assistance to any competitor of Gaussian, Inc.  The licensee
 of this program is prohibited from giving any competitor of
 Gaussian, Inc. access to this program.  By using this program,
 the user acknowledges that Gaussian, Inc. is engaged in the
 business of creating and licensing software in the field of
 computational chemistry and represents and warrants to the
 licensee that it is not a competitor of Gaussian, Inc. and that
 it will not use this program in any manner prohibited above.
 ---------------------------------------------------------------
  

 Cite this work as:
 Gaussian 09, Revision E.01,
 M. J. Frisch, G. W. Trucks, H. B. Schlegel, G. E. Scuseria, 
 M. A. Robb, J. R. Cheeseman, G. Scalmani, V. Barone, B. Mennucci, 
 G. A. Petersson, H. Nakatsuji, M. Caricato, X. Li, H. P. Hratchian, 
 A. F. Izmaylov, J. Bloino, G. Zheng, J. L. Sonnenberg, M. Hada, 
 M. Ehara, K. Toyota, R. Fukuda, J. Hasegawa, M. Ishida, T. Nakajima, 
 Y. Honda, O. Kitao, H. Nakai, T. Vreven, J. A. Montgomery, Jr., 
 J. E. Peralta, F. Ogliaro, M. Bearpark, J. J. Heyd, E. Brothers, 
 K. N. Kudin, V. N. Staroverov, T. Keith, R. Kobayashi, J. Normand, 
 K. Raghavachari, A. Rendell, J. C. Burant, S. S. Iyengar, J. Tomasi, 
 M. Cossi, N. Rega, J. M. Millam, M. Klene, J. E. Knox, J. B. Cross, 
 V. Bakken, C. Adamo, J. Jaramillo, R. Gomperts, R. E. Stratmann, 
 O. Yazyev, A. J. Austin, R. Cammi, C. Pomelli, J. W. Ochterski, 
 R. L. Martin, K. Morokuma, V. G. Zakrzewski, G. A. Voth, 
 P. Salvador, J. J. Dannenberg, S. Dapprich, A. D. Daniels, 
 O. Farkas, J. B. Foresman, J. V. Ortiz, J. Cioslowski, 
 and D. J. Fox, Gaussian, Inc., Wallingford CT, 2013.
 
 ******************************************
 Gaussian 09:  ES64L-G09RevE.01 30-Nov-2015
                12-Oct-2021 
 ******************************************
 %nproc=12
 Will use up to   12 processors via shared memory.
 %mem=8000MB
 %chk=/home/netid.washington.edu/cgavinh/mccoy_hocl/rOH_s_oop_0/brhocl/brhocl_rOH
 _100_sp.chk
 ----------------------------------------------------
 #p pop=NBO SP NoSymm mp2/aug-cc-pvtz density=current
 ----------------------------------------------------
 1/30=1,38=1/1;
 2/12=2,15=1,17=6,18=5,40=1/2;
 3/5=16,6=1,7=10,11=9,16=1,25=1,30=1,71=1/1,2,3;
 4//1;
 5/5=2,38=5/2;
 8/6=4,10=1/1;
 9/15=1,16=-3/6;
 10/5=1,13=10,31=1/2;
 6/7=2,8=2,9=2,10=2,22=-1,40=1/1,7;
 99/5=1,9=1/99;
 Leave Link    1 at Tue Oct 12 14:24:00 2021, MaxMem=  1048576000 cpu:         0.2
 (Enter /usr/local/gaussian/g09/l101.exe)
 -----
 title
 -----
 Symbolic Z-matrix:
 Charge = -1 Multiplicity = 1
 O
 X                    1     10. 
 Cl                   1    r1       2     90. 
 Br                   1    r2       2     90.      3    a1       0
 H                    1    r3       2    oop      3    a1       0
       Variables:
  r1                    1.68433                  
  r2                    3.07382                  
  r3                    1.                       
  a1                  103.42035                  
  OOP                  90.                       
 
 NAtoms=      4 NQM=        4 NQMF=       0 NMMI=      0 NMMIF=      0
                NMic=       0 NMicF=      0.
                    Isotopes and Nuclear Properties:
 (Nuclear quadrupole moments (NQMom) in fm**2, nuclear magnetic moments (NMagM)
  in nuclear magnetons)

  Atom         1           2           3           4
 IAtWgt=          16          35          79           1
 AtmWgt=  15.9949146  34.9688527  78.9183361   1.0078250
 NucSpn=           0           3           3           1
 AtZEff=   0.0000000   0.0000000   0.0000000   0.0000000
 NQMom=    0.0000000  -8.1650000  31.3000000   0.0000000
 NMagM=    0.0000000   0.8218740   2.1063990   2.7928460
 AtZNuc=   8.0000000  17.0000000  35.0000000   1.0000000
 Leave Link  101 at Tue Oct 12 14:24:00 2021, MaxMem=  1048576000 cpu:         0.4
 (Enter /usr/local/gaussian/g09/l202.exe)
                          Input orientation:                          
 ---------------------------------------------------------------------
 Center     Atomic      Atomic             Coordinates (Angstroms)
 Number     Number       Type             X           Y           Z
 ---------------------------------------------------------------------
      1          8           0        0.000000    0.000000    0.000000
      2         17           0        1.684326    0.000000    0.000000
      3         35           0       -0.713413   -2.989882    0.000000
      4          1           0       -0.232093   -0.972693    0.000000
 ---------------------------------------------------------------------
                    Distance matrix (angstroms):
                    1          2          3          4
     1  O    0.000000
     2  Cl   1.684326   0.000000
     3  Br   3.073818   3.832564   0.000000
     4  H    1.000000   2.149138   2.073818   0.000000
 Symmetry turned off by external request.
 Stoichiometry    BrClHO(1-)
 Framework group  CS[SG(BrClHO)]
 Deg. of freedom     5
 Full point group                 CS      NOp   2
 Rotational constants (GHZ):     22.6369248      1.2807693      1.2121853
 Leave Link  202 at Tue Oct 12 14:24:00 2021, MaxMem=  1048576000 cpu:         0.0
 (Enter /usr/local/gaussian/g09/l301.exe)
 Standard basis: Aug-CC-pVTZ (5D, 7F)
 Ernie: Thresh=  0.10000D-02 Tol=  0.10000D-05 Strict=F.
 Ernie:  48 primitive shells out of 228 were deleted.
   178 basis functions,   430 primitive gaussians,   208 cartesian basis functions
    31 alpha electrons       31 beta electrons
       nuclear repulsion energy       190.4361751119 Hartrees.
 IExCor=    0 DFT=F Ex=HF Corr=None ExCW=0 ScaHFX=  1.000000
 ScaDFX=  1.000000  1.000000  1.000000  1.000000 ScalE2=  1.000000  1.000000
 IRadAn=      0 IRanWt=     -1 IRanGd=            0 ICorTp=0 IEmpDi=  4
 NAtoms=    4 NActive=    4 NUniq=    4 SFac= 1.00D+00 NAtFMM=   60 NAOKFM=F Big=F
 Integral buffers will be    131072 words long.
 Raffenetti 1 integral format.
 Two-electron integral symmetry is turned off.
 Leave Link  301 at Tue Oct 12 14:24:00 2021, MaxMem=  1048576000 cpu:         0.3
 (Enter /usr/local/gaussian/g09/l302.exe)
 NPDir=0 NMtPBC=     1 NCelOv=     1 NCel=       1 NClECP=     1 NCelD=      1
         NCelK=      1 NCelE2=     1 NClLst=     1 CellRange=     0.0.
 One-electron integrals computed using PRISM.
 NBasis=   178 RedAO= T EigKep=  2.33D-04  NBF=   178
 NBsUse=   178 1.00D-06 EigRej= -1.00D+00 NBFU=   178
 Leave Link  302 at Tue Oct 12 14:24:00 2021, MaxMem=  1048576000 cpu:         1.6
 (Enter /usr/local/gaussian/g09/l303.exe)
 DipDrv:  MaxL=1.
 Leave Link  303 at Tue Oct 12 14:24:00 2021, MaxMem=  1048576000 cpu:         0.2
 (Enter /usr/local/gaussian/g09/l401.exe)
 ExpMin= 2.53D-02 ExpMax= 1.06D+07 ExpMxC= 1.21D+04 IAcc=3 IRadAn=         5 AccDes= 0.00D+00
 Harris functional with IExCor=  205 and IRadAn=       5 diagonalized for initial guess.
 HarFok:  IExCor=  205 AccDes= 0.00D+00 IRadAn=         5 IDoV= 1 UseB2=F ITyADJ=14
 ICtDFT=  3500011 ScaDFX=  1.000000  1.000000  1.000000  1.000000
 FoFCou: FMM=F IPFlag=           0 FMFlag=      100000 FMFlg1=           0
         NFxFlg=           0 DoJE=T BraDBF=F KetDBF=T FulRan=T
         wScrn=  0.000000 ICntrl=     500 IOpCl=  0 I1Cent=   200000004 NGrid=           0
         NMat0=    1 NMatS0=      1 NMatT0=    0 NMatD0=    1 NMtDS0=    0 NMtDT0=    0
 Symmetry not used in FoFCou.
 Harris En= -3106.39061020926    
 JPrj=0 DoOrth=F DoCkMO=F.
 Leave Link  401 at Tue Oct 12 14:24:00 2021, MaxMem=  1048576000 cpu:         3.0
 (Enter /usr/local/gaussian/g09/l502.exe)
 Closed shell SCF:
 Using DIIS extrapolation, IDIIS=  1040.
 Two-electron integral symmetry not used.
 Keep R1 ints in memory in canonical form, NReq=131623000.
 IVT=      152094 IEndB=      152094 NGot=  1048576000 MDV=   921517561
 LenX=   921517561 LenY=   921473856
 Requested convergence on RMS density matrix=1.00D-08 within 128 cycles.
 Requested convergence on MAX density matrix=1.00D-06.
 Requested convergence on             energy=1.00D-06.
 No special actions if energy rises.
 FoFCou: FMM=F IPFlag=           0 FMFlag=           0 FMFlg1=           0
         NFxFlg=           0 DoJE=F BraDBF=F KetDBF=F FulRan=T
         wScrn=  0.000000 ICntrl=     600 IOpCl=  0 I1Cent=           0 NGrid=           0
         NMat0=    1 NMatS0=  15931 NMatT0=    0 NMatD0=    1 NMtDS0=    0 NMtDT0=    0
 Symmetry not used in FoFCou.

 Cycle   1  Pass 1  IDiag  1:
 E= -3107.31644073809    
 DIIS: error= 6.01D-02 at cycle   1 NSaved=   1.
 NSaved= 1 IEnMin= 1 EnMin= -3107.31644073809     IErMin= 1 ErrMin= 6.01D-02
 ErrMax= 6.01D-02  0.00D+00 EMaxC= 1.00D-01 BMatC= 6.38D-01 BMatP= 6.38D-01
 IDIUse=3 WtCom= 3.99D-01 WtEn= 6.01D-01
 Coeff-Com:  0.100D+01
 Coeff-En:   0.100D+01
 Coeff:      0.100D+01
 Gap=     0.559 Goal=   None    Shift=    0.000
 GapD=    0.559 DampG=2.000 DampE=0.500 DampFc=1.0000 IDamp=-1.
 RMSDP=3.09D-03 MaxDP=1.01D-01              OVMax= 1.17D-01

 Cycle   2  Pass 1  IDiag  1:
 E= -3107.45157733420     Delta-E=       -0.135136596115 Rises=F Damp=F
 DIIS: error= 1.74D-02 at cycle   2 NSaved=   2.
 NSaved= 2 IEnMin= 2 EnMin= -3107.45157733420     IErMin= 2 ErrMin= 1.74D-02
 ErrMax= 1.74D-02  0.00D+00 EMaxC= 1.00D-01 BMatC= 4.28D-02 BMatP= 6.38D-01
 IDIUse=3 WtCom= 8.26D-01 WtEn= 1.74D-01
 Coeff-Com:  0.134D+00 0.866D+00
 Coeff-En:   0.000D+00 0.100D+01
 Coeff:      0.111D+00 0.889D+00
 Gap=     0.330 Goal=   None    Shift=    0.000
 RMSDP=1.13D-03 MaxDP=3.82D-02 DE=-1.35D-01 OVMax= 7.26D-02

 Cycle   3  Pass 1  IDiag  1:
 E= -3107.46975780977     Delta-E=       -0.018180475568 Rises=F Damp=F
 DIIS: error= 8.89D-03 at cycle   3 NSaved=   3.
 NSaved= 3 IEnMin= 3 EnMin= -3107.46975780977     IErMin= 3 ErrMin= 8.89D-03
 ErrMax= 8.89D-03  0.00D+00 EMaxC= 1.00D-01 BMatC= 1.36D-02 BMatP= 4.28D-02
 IDIUse=3 WtCom= 9.11D-01 WtEn= 8.89D-02
 Coeff-Com:  0.677D-02 0.358D+00 0.635D+00
 Coeff-En:   0.000D+00 0.177D+00 0.823D+00
 Coeff:      0.617D-02 0.342D+00 0.652D+00
 Gap=     0.332 Goal=   None    Shift=    0.000
 RMSDP=3.46D-04 MaxDP=1.39D-02 DE=-1.82D-02 OVMax= 3.53D-02

 Cycle   4  Pass 1  IDiag  1:
 E= -3107.47908310749     Delta-E=       -0.009325297724 Rises=F Damp=F
 DIIS: error= 1.41D-03 at cycle   4 NSaved=   4.
 NSaved= 4 IEnMin= 4 EnMin= -3107.47908310749     IErMin= 4 ErrMin= 1.41D-03
 ErrMax= 1.41D-03  0.00D+00 EMaxC= 1.00D-01 BMatC= 1.71D-04 BMatP= 1.36D-02
 IDIUse=3 WtCom= 9.86D-01 WtEn= 1.41D-02
 Coeff-Com: -0.510D-02-0.287D-01 0.484D-01 0.985D+00
 Coeff-En:   0.000D+00 0.000D+00 0.000D+00 0.100D+01
 Coeff:     -0.503D-02-0.283D-01 0.477D-01 0.986D+00
 Gap=     0.331 Goal=   None    Shift=    0.000
 RMSDP=6.04D-05 MaxDP=1.42D-03 DE=-9.33D-03 OVMax= 3.50D-03

 Cycle   5  Pass 1  IDiag  1:
 E= -3107.47927847183     Delta-E=       -0.000195364340 Rises=F Damp=F
 DIIS: error= 2.20D-04 at cycle   5 NSaved=   5.
 NSaved= 5 IEnMin= 5 EnMin= -3107.47927847183     IErMin= 5 ErrMin= 2.20D-04
 ErrMax= 2.20D-04  0.00D+00 EMaxC= 1.00D-01 BMatC= 1.18D-05 BMatP= 1.71D-04
 IDIUse=3 WtCom= 9.98D-01 WtEn= 2.20D-03
 Coeff-Com:  0.807D-03-0.172D-01-0.392D-01-0.170D+00 0.123D+01
 Coeff-En:   0.000D+00 0.000D+00 0.000D+00 0.000D+00 0.100D+01
 Coeff:      0.806D-03-0.171D-01-0.391D-01-0.169D+00 0.122D+01
 Gap=     0.331 Goal=   None    Shift=    0.000
 RMSDP=3.02D-05 MaxDP=1.07D-03 DE=-1.95D-04 OVMax= 2.84D-03

 Cycle   6  Pass 1  IDiag  1:
 E= -3107.47931137119     Delta-E=       -0.000032899353 Rises=F Damp=F
 DIIS: error= 1.21D-04 at cycle   6 NSaved=   6.
 NSaved= 6 IEnMin= 6 EnMin= -3107.47931137119     IErMin= 6 ErrMin= 1.21D-04
 ErrMax= 1.21D-04  0.00D+00 EMaxC= 1.00D-01 BMatC= 1.67D-06 BMatP= 1.18D-05
 IDIUse=3 WtCom= 9.99D-01 WtEn= 1.21D-03
 Coeff-Com:  0.463D-03 0.408D-02-0.138D-02-0.122D+00-0.543D-01 0.117D+01
 Coeff-En:   0.000D+00 0.000D+00 0.000D+00 0.000D+00 0.000D+00 0.100D+01
 Coeff:      0.462D-03 0.407D-02-0.138D-02-0.122D+00-0.542D-01 0.117D+01
 Gap=     0.331 Goal=   None    Shift=    0.000
 RMSDP=1.28D-05 MaxDP=5.26D-04 DE=-3.29D-05 OVMax= 1.41D-03

 Cycle   7  Pass 1  IDiag  1:
 E= -3107.47931698635     Delta-E=       -0.000005615169 Rises=F Damp=F
 DIIS: error= 4.53D-05 at cycle   7 NSaved=   7.
 NSaved= 7 IEnMin= 7 EnMin= -3107.47931698635     IErMin= 7 ErrMin= 4.53D-05
 ErrMax= 4.53D-05  0.00D+00 EMaxC= 1.00D-01 BMatC= 1.77D-07 BMatP= 1.67D-06
 IDIUse=1 WtCom= 1.00D+00 WtEn= 0.00D+00
 Coeff-Com: -0.227D-03 0.866D-03 0.653D-02 0.545D-01-0.155D+00-0.272D+00
 Coeff-Com:  0.137D+01
 Coeff:     -0.227D-03 0.866D-03 0.653D-02 0.545D-01-0.155D+00-0.272D+00
 Coeff:      0.137D+01
 Gap=     0.331 Goal=   None    Shift=    0.000
 RMSDP=5.24D-06 MaxDP=1.88D-04 DE=-5.62D-06 OVMax= 5.50D-04

 Cycle   8  Pass 1  IDiag  1:
 E= -3107.47931767297     Delta-E=       -0.000000686612 Rises=F Damp=F
 DIIS: error= 8.56D-06 at cycle   8 NSaved=   8.
 NSaved= 8 IEnMin= 8 EnMin= -3107.47931767297     IErMin= 8 ErrMin= 8.56D-06
 ErrMax= 8.56D-06  0.00D+00 EMaxC= 1.00D-01 BMatC= 8.88D-09 BMatP= 1.77D-07
 IDIUse=1 WtCom= 1.00D+00 WtEn= 0.00D+00
 Coeff-Com:  0.160D-04-0.488D-03-0.113D-02-0.454D-02 0.290D-01 0.133D-01
 Coeff-Com: -0.326D+00 0.129D+01
 Coeff:      0.160D-04-0.488D-03-0.113D-02-0.454D-02 0.290D-01 0.133D-01
 Coeff:     -0.326D+00 0.129D+01
 Gap=     0.331 Goal=   None    Shift=    0.000
 RMSDP=1.21D-06 MaxDP=2.54D-05 DE=-6.87D-07 OVMax= 1.34D-04

 Cycle   9  Pass 1  IDiag  1:
 E= -3107.47931770903     Delta-E=       -0.000000036066 Rises=F Damp=F
 DIIS: error= 3.49D-06 at cycle   9 NSaved=   9.
 NSaved= 9 IEnMin= 9 EnMin= -3107.47931770903     IErMin= 9 ErrMin= 3.49D-06
 ErrMax= 3.49D-06  0.00D+00 EMaxC= 1.00D-01 BMatC= 1.15D-09 BMatP= 8.88D-09
 IDIUse=1 WtCom= 1.00D+00 WtEn= 0.00D+00
 Coeff-Com:  0.120D-04-0.377D-04-0.285D-03-0.241D-02 0.615D-02 0.153D-01
 Coeff-Com: -0.433D-01-0.228D+00 0.125D+01
 Coeff:      0.120D-04-0.377D-04-0.285D-03-0.241D-02 0.615D-02 0.153D-01
 Coeff:     -0.433D-01-0.228D+00 0.125D+01
 Gap=     0.331 Goal=   None    Shift=    0.000
 RMSDP=4.50D-07 MaxDP=1.17D-05 DE=-3.61D-08 OVMax= 5.60D-05

 Cycle  10  Pass 1  IDiag  1:
 E= -3107.47931771433     Delta-E=       -0.000000005298 Rises=F Damp=F
 DIIS: error= 1.72D-06 at cycle  10 NSaved=  10.
 NSaved=10 IEnMin=10 EnMin= -3107.47931771433     IErMin=10 ErrMin= 1.72D-06
 ErrMax= 1.72D-06  0.00D+00 EMaxC= 1.00D-01 BMatC= 2.45D-10 BMatP= 1.15D-09
 IDIUse=1 WtCom= 1.00D+00 WtEn= 0.00D+00
 Coeff-Com: -0.349D-05 0.136D-03 0.246D-03 0.413D-03-0.605D-02 0.116D-02
 Coeff-Com:  0.590D-01-0.246D+00-0.823D-01 0.127D+01
 Coeff:     -0.349D-05 0.136D-03 0.246D-03 0.413D-03-0.605D-02 0.116D-02
 Coeff:      0.590D-01-0.246D+00-0.823D-01 0.127D+01
 Gap=     0.331 Goal=   None    Shift=    0.000
 RMSDP=2.59D-07 MaxDP=7.16D-06 DE=-5.30D-09 OVMax= 3.16D-05

 Cycle  11  Pass 1  IDiag  1:
 E= -3107.47931771553     Delta-E=       -0.000000001200 Rises=F Damp=F
 DIIS: error= 5.36D-07 at cycle  11 NSaved=  11.
 NSaved=11 IEnMin=11 EnMin= -3107.47931771553     IErMin=11 ErrMin= 5.36D-07
 ErrMax= 5.36D-07  0.00D+00 EMaxC= 1.00D-01 BMatC= 2.28D-11 BMatP= 2.45D-10
 IDIUse=1 WtCom= 1.00D+00 WtEn= 0.00D+00
 Coeff-Com: -0.147D-05-0.225D-04 0.789D-05 0.597D-03-0.533D-03-0.339D-02
 Coeff-Com:  0.264D-02 0.566D-01-0.148D+00-0.194D+00 0.129D+01
 Coeff:     -0.147D-05-0.225D-04 0.789D-05 0.597D-03-0.533D-03-0.339D-02
 Coeff:      0.264D-02 0.566D-01-0.148D+00-0.194D+00 0.129D+01
 Gap=     0.331 Goal=   None    Shift=    0.000
 RMSDP=8.21D-08 MaxDP=2.47D-06 DE=-1.20D-09 OVMax= 9.75D-06

 Cycle  12  Pass 1  IDiag  1:
 E= -3107.47931771564     Delta-E=       -0.000000000111 Rises=F Damp=F
 DIIS: error= 1.17D-07 at cycle  12 NSaved=  12.
 NSaved=12 IEnMin=12 EnMin= -3107.47931771564     IErMin=12 ErrMin= 1.17D-07
 ErrMax= 1.17D-07  0.00D+00 EMaxC= 1.00D-01 BMatC= 1.53D-12 BMatP= 2.28D-11
 IDIUse=1 WtCom= 1.00D+00 WtEn= 0.00D+00
 Coeff-Com:  0.115D-06-0.109D-04-0.210D-04-0.286D-04 0.517D-03-0.695D-04
 Coeff-Com: -0.575D-02 0.259D-01 0.153D-02-0.138D+00 0.129D+00 0.987D+00
 Coeff:      0.115D-06-0.109D-04-0.210D-04-0.286D-04 0.517D-03-0.695D-04
 Coeff:     -0.575D-02 0.259D-01 0.153D-02-0.138D+00 0.129D+00 0.987D+00
 Gap=     0.331 Goal=   None    Shift=    0.000
 RMSDP=1.45D-08 MaxDP=4.06D-07 DE=-1.11D-10 OVMax= 1.46D-06

 Cycle  13  Pass 1  IDiag  1:
 E= -3107.47931771563     Delta-E=        0.000000000007 Rises=F Damp=F
 DIIS: error= 2.17D-08 at cycle  13 NSaved=  13.
 NSaved=13 IEnMin=12 EnMin= -3107.47931771564     IErMin=13 ErrMin= 2.17D-08
 ErrMax= 2.17D-08  0.00D+00 EMaxC= 1.00D-01 BMatC= 9.24D-14 BMatP= 1.53D-12
 IDIUse=1 WtCom= 1.00D+00 WtEn= 0.00D+00
 Coeff-Com:  0.806D-07 0.252D-05 0.217D-05-0.261D-04-0.403D-04 0.133D-03
 Coeff-Com:  0.904D-03-0.783D-02 0.102D-01 0.331D-01-0.115D+00-0.122D+00
 Coeff-Com:  0.120D+01
 Coeff:      0.806D-07 0.252D-05 0.217D-05-0.261D-04-0.403D-04 0.133D-03
 Coeff:      0.904D-03-0.783D-02 0.102D-01 0.331D-01-0.115D+00-0.122D+00
 Coeff:      0.120D+01
 Gap=     0.331 Goal=   None    Shift=    0.000
 RMSDP=4.64D-09 MaxDP=1.06D-07 DE= 7.28D-12 OVMax= 3.71D-07

 SCF Done:  E(RHF) =  -3107.47931772     A.U. after   13 cycles
            NFock= 13  Conv=0.46D-08     -V/T= 2.0000
 KE= 3.107353853936D+03 PE=-7.823414580510D+03 EE= 1.418145233746D+03
 Leave Link  502 at Tue Oct 12 14:24:04 2021, MaxMem=  1048576000 cpu:        19.3
 (Enter /usr/local/gaussian/g09/l801.exe)
 ExpMin= 2.53D-02 ExpMax= 1.06D+07 ExpMxC= 1.21D+04 IAcc=3 IRadAn=         5 AccDes= 0.00D+00
 HarFok:  IExCor=  205 AccDes= 0.00D+00 IRadAn=         5 IDoV=-2 UseB2=F ITyADJ=14
 ICtDFT= 12500011 ScaDFX=  1.000000  1.000000  1.000000  1.000000
 Largest valence mixing into a core orbital is  4.47D-04
 Largest core mixing into a valence orbital is  1.58D-04
 Range of M.O.s used for correlation:    16   178
 NBasis=   178 NAE=    31 NBE=    31 NFC=    15 NFV=     0
 NROrb=    163 NOA=    16 NOB=    16 NVA=   147 NVB=   147

 **** Warning!!: The largest alpha MO coefficient is  0.19624406D+02

 Leave Link  801 at Tue Oct 12 14:24:04 2021, MaxMem=  1048576000 cpu:         0.7
 (Enter /usr/local/gaussian/g09/l906.exe)
 Frozen-core derivative calculation, NFC=  15 NFV=   0.
 FulOut=F Deriv=T AODrv=F NAtomX=     4
   MMem=         227  MDisk=          16 MDiskD=          16
  W3Min=     1147744 MinDsk=     1765480 NBas6D=         208
 NBas2D=       22240    NTT=       21736    LW2=     9911920
    MDV=  1048101735 MDiskM=       25146 NBas2p=       22041
 Fully in-core method, ICMem=   526646768.
 IMap=   1   2   3   4   5   6   7   8   9  10  11  12  13  14  15  16  17  18  19  20
 IMap=  21  22  23  24  25  26  27  28  29  30  31
 JobTyp=1 Pass  1 fully in-core, NPsUse= 12.
 Compute canonical integrals.
 FoFCou: FMM=F IPFlag=           0 FMFlag=           0 FMFlg1=           0
         NFxFlg=           0 DoJE=F BraDBF=F KetDBF=F FulRan=T
         wScrn=  0.000000 ICntrl=     600 IOpCl=  1 I1Cent=           0 NGrid=           0
         NMat0=    1 NMatS0=  22240 NMatT0=    0 NMatD0=    1 NMtDS0=    0 NMtDT0=    0
 Symmetry not used in FoFCou.
 Spin components of T(2) and E(2):
     alpha-alpha T2 =       0.3024269499D-01 E2=     -0.9408387731D-01
     alpha-beta  T2 =       0.1610345849D+00 E2=     -0.5151055621D+00
     beta-beta   T2 =       0.3024269499D-01 E2=     -0.9408387731D-01
 The integrals were generated   1 times.
 ANorm=    0.1105223948D+01
 E2 =    -0.7032733167D+00 EUMP2 =    -0.31081825910323D+04
 Leave Link  906 at Tue Oct 12 14:24:12 2021, MaxMem=  1048576000 cpu:        97.7
 (Enter /usr/local/gaussian/g09/l1002.exe)
 Minotr:  Closed shell wavefunction.
          Computing MP2/KS-MP2 derivatives.
          Using Z-Vector for PSCF gradient.
          Skipping F1 and S1 gradient terms here.
          Frozen-core window.
          Direct CPHF calculation.
          Differentiating once with respect to electric field.
                with respect to dipole field.
          Electric field/nuclear overlap derivatives assumed to be zero.
          Requested convergence is 1.0D-10 RMS, and 1.0D-09 maximum.
          NewPWx=F KeepS1=T KeepF1=T KeepIn=T MapXYZ=F SortEE=F KeepMc=T.
          MDV=    1048575801 using IRadAn=       0.
 Keep R1 ints in memory in canonical form, NReq=131472178.
 FoFCou: FMM=F IPFlag=           0 FMFlag=           0 FMFlg1=           0
         NFxFlg=           0 DoJE=F BraDBF=F KetDBF=F FulRan=T
         wScrn=  0.000000 ICntrl=     600 IOpCl=  0 I1Cent=           0 NGrid=           0
         NMat0=    1 NMatS0=  15931 NMatT0=    0 NMatD0=    1 NMtDS0=    0 NMtDT0=    0
 Symmetry not used in FoFCou.
          Solving linear equations separately, MaxMat=       0.
          There are     1 degrees of freedom in the 1st order CPHF.  IDoFFX=0 NUNeed=     1.
 LinEq1:  Iter=  0 NonCon=     1 RMS=2.63D-03 Max=4.52D-02 NDo=     1
 AX will form     1 AO Fock derivatives at one time.
 LinEq1:  Iter=  1 NonCon=     1 RMS=4.14D-04 Max=4.89D-03 NDo=     1
 LinEq1:  Iter=  2 NonCon=     1 RMS=1.93D-04 Max=4.02D-03 NDo=     1
 LinEq1:  Iter=  3 NonCon=     1 RMS=6.24D-05 Max=1.02D-03 NDo=     1
 LinEq1:  Iter=  4 NonCon=     1 RMS=2.62D-05 Max=8.96D-04 NDo=     1
 LinEq1:  Iter=  5 NonCon=     1 RMS=9.50D-06 Max=1.56D-04 NDo=     1
 LinEq1:  Iter=  6 NonCon=     1 RMS=1.99D-06 Max=2.44D-05 NDo=     1
 LinEq1:  Iter=  7 NonCon=     1 RMS=4.83D-07 Max=8.46D-06 NDo=     1
 LinEq1:  Iter=  8 NonCon=     1 RMS=1.33D-07 Max=2.04D-06 NDo=     1
 LinEq1:  Iter=  9 NonCon=     1 RMS=3.17D-08 Max=7.68D-07 NDo=     1
 LinEq1:  Iter= 10 NonCon=     1 RMS=8.88D-09 Max=2.40D-07 NDo=     1
 LinEq1:  Iter= 11 NonCon=     1 RMS=2.24D-09 Max=4.24D-08 NDo=     1
 LinEq1:  Iter= 12 NonCon=     1 RMS=4.38D-10 Max=6.57D-09 NDo=     1
 LinEq1:  Iter= 13 NonCon=     1 RMS=1.24D-10 Max=1.71D-09 NDo=     1
 LinEq1:  Iter= 14 NonCon=     0 RMS=2.68D-11 Max=3.95D-10 NDo=     1
 Linear equations converged to 1.000D-10 1.000D-09 after    14 iterations.
 End of Minotr F.D. properties file   721 does not exist.
 End of Minotr F.D. properties file   722 does not exist.
 End of Minotr F.D. properties file   788 does not exist.
 Leave Link 1002 at Tue Oct 12 14:24:16 2021, MaxMem=  1048576000 cpu:        18.6
 (Enter /usr/local/gaussian/g09/l601.exe)
 Copying SCF densities to generalized density rwf, IOpCl= 0 IROHF=0.

 **********************************************************************

            Population analysis using the MP2 density.

 **********************************************************************

 Alpha  occ. eigenvalues -- -489.75499-104.73230 -64.89536 -58.24986 -58.24982
 Alpha  occ. eigenvalues --  -58.24982 -20.46189 -10.45178  -9.56791  -7.91895
 Alpha  occ. eigenvalues --   -7.91629  -7.91619  -7.17571  -7.17517  -7.17516
 Alpha  occ. eigenvalues --   -2.91740  -2.91715  -2.91713  -2.91655  -2.91655
 Alpha  occ. eigenvalues --   -1.23221  -0.89747  -0.73056  -0.54301  -0.44342
 Alpha  occ. eigenvalues --   -0.43530  -0.30918  -0.28173  -0.18533  -0.17550
 Alpha  occ. eigenvalues --   -0.17546
 Alpha virt. eigenvalues --    0.15595   0.18077   0.21586   0.22785   0.24128
 Alpha virt. eigenvalues --    0.24641   0.25016   0.28612   0.30325   0.31726
 Alpha virt. eigenvalues --    0.32331   0.32496   0.35869   0.43536   0.43698
 Alpha virt. eigenvalues --    0.46976   0.48229   0.48637   0.50408   0.54241
 Alpha virt. eigenvalues --    0.54248   0.56999   0.59320   0.60075   0.60525
 Alpha virt. eigenvalues --    0.60864   0.65552   0.70178   0.73806   0.74575
 Alpha virt. eigenvalues --    0.75370   0.77582   0.78755   0.84815   0.88885
 Alpha virt. eigenvalues --    0.89541   0.91949   0.94331   0.99814   1.00082
 Alpha virt. eigenvalues --    1.00419   1.00906   1.02026   1.03314   1.06847
 Alpha virt. eigenvalues --    1.07883   1.09298   1.10346   1.11182   1.13150
 Alpha virt. eigenvalues --    1.15175   1.17749   1.18268   1.20686   1.22067
 Alpha virt. eigenvalues --    1.23957   1.28208   1.29440   1.33280   1.33508
 Alpha virt. eigenvalues --    1.37403   1.38783   1.47446   1.50566   1.52054
 Alpha virt. eigenvalues --    1.56852   1.58890   1.63303   1.66579   1.70219
 Alpha virt. eigenvalues --    1.70418   1.76894   1.78999   1.80501   1.90196
 Alpha virt. eigenvalues --    1.97301   2.15062   2.37669   2.40964   2.41991
 Alpha virt. eigenvalues --    2.42571   2.46843   2.50293   2.50676   2.52852
 Alpha virt. eigenvalues --    2.53561   2.55021   2.55207   2.55449   2.56501
 Alpha virt. eigenvalues --    2.57880   2.60405   2.63279   2.64998   2.65960
 Alpha virt. eigenvalues --    2.68039   2.68086   2.70242   2.71924   2.72646
 Alpha virt. eigenvalues --    2.73864   2.75786   2.78239   2.80627   2.80998
 Alpha virt. eigenvalues --    2.87595   3.02669   3.07438   3.09538   3.17382
 Alpha virt. eigenvalues --    3.19988   3.21605   3.25615   3.29042   3.31180
 Alpha virt. eigenvalues --    3.33778   3.53112   3.54739   3.57303   3.93835
 Alpha virt. eigenvalues --    4.19518   4.31944   4.45530   4.55374   4.59583
 Alpha virt. eigenvalues --    4.78047   4.97585   5.04072   5.26521   5.36074
 Alpha virt. eigenvalues --    5.41883   5.69105   6.41949   6.59229   6.85060
 Alpha virt. eigenvalues --    6.90291   6.91504   7.00025   7.30125   7.34704
 Alpha virt. eigenvalues --    7.36191   7.45265   7.55222   7.75527   7.82833
 Alpha virt. eigenvalues --    8.37795  14.89370
          Condensed to atoms (all electrons):
               1          2          3          4
     1  O    8.664093  -0.114151  -0.091835   0.026827
     2  Cl  -0.114151  17.065526   0.003758  -0.006155
     3  Br  -0.091835   0.003758  35.898847   0.044013
     4  H    0.026827  -0.006155   0.044013   0.646621
 Mulliken charges:
               1
     1  O   -0.484934
     2  Cl   0.051023
     3  Br  -0.854783
     4  H    0.288694
 Sum of Mulliken charges =  -1.00000
 Mulliken charges with hydrogens summed into heavy atoms:
               1
     1  O   -0.196240
     2  Cl   0.051023
     3  Br  -0.854783
 Electronic spatial extent (au):  <R**2>=           1480.0714
 Charge=             -1.0000 electrons
 Dipole moment (field-independent basis, Debye):
    X=              1.8380    Y=             10.4661    Z=              0.0000  Tot=             10.6262
 Quadrupole moment (field-independent basis, Debye-Ang):
   XX=            -45.4273   YY=            -77.3043   ZZ=            -43.1789
   XY=             -8.5417   XZ=              0.0000   YZ=             -0.0000
 Traceless Quadrupole moment (field-independent basis, Debye-Ang):
   XX=              9.8762   YY=            -22.0008   ZZ=             12.1246
   XY=             -8.5417   XZ=              0.0000   YZ=             -0.0000
 Octapole moment (field-independent basis, Debye-Ang**2):
  XXX=            -13.7612  YYY=            310.6936  ZZZ=              0.0000  XYY=             18.7029
  XXY=             74.9361  XXZ=              0.0000  XZZ=             -6.3888  YZZ=             69.2739
  YYZ=              0.0000  XYZ=              0.0000
 Hexadecapole moment (field-independent basis, Debye-Ang**3):
 XXXX=           -340.8648 YYYY=          -1593.9701 ZZZZ=            -61.9720 XXXY=           -153.0239
 XXXZ=              0.0000 YYYX=           -220.1819 YYYZ=             -0.0000 ZZZX=              0.0000
 ZZZY=             -0.0000 XXYY=           -294.7233 XXZZ=            -71.9374 YYZZ=           -226.8672
 XXYZ=             -0.0000 YYXZ=             -0.0000 ZZXY=            -49.5705
 N-N= 1.904361751119D+02 E-N=-7.821985972649D+03  KE= 3.107378848231D+03
 No NMR shielding tensors so no spin-rotation constants.
 Leave Link  601 at Tue Oct 12 14:24:16 2021, MaxMem=  1048576000 cpu:         2.1
 (Enter /usr/local/gaussian/g09/l607.exe)
 ******************************Gaussian NBO Version 3.1******************************
             N A T U R A L   A T O M I C   O R B I T A L   A N D
          N A T U R A L   B O N D   O R B I T A L   A N A L Y S I S
 ******************************Gaussian NBO Version 3.1******************************
       /RESON  / : Allow strongly delocalized NBO set

 Analyzing the MP2 density

 Job title: title                                                           

 Storage needed:     95974 in NPA,    127345 in NBO (1048575896 available)


 NATURAL POPULATIONS:  Natural atomic orbital occupancies 
                                                          
   NAO  Atom  No  lang   Type(AO)    Occupancy
 --------------------------------------------
     1    O    1  S      Cor( 1S)     1.99968
     2    O    1  S      Val( 2S)     1.78597
     3    O    1  S      Ryd( 3S)     0.00974
     4    O    1  S      Ryd( 4S)     0.00113
     5    O    1  S      Ryd( 5S)     0.00019
     6    O    1  px     Val( 2p)     1.20702
     7    O    1  px     Ryd( 3p)     0.00671
     8    O    1  px     Ryd( 4p)     0.00063
     9    O    1  px     Ryd( 5p)     0.00037
    10    O    1  py     Val( 2p)     1.71184
    11    O    1  py     Ryd( 3p)     0.01215
    12    O    1  py     Ryd( 4p)     0.00076
    13    O    1  py     Ryd( 5p)     0.00047
    14    O    1  pz     Val( 2p)     1.94770
    15    O    1  pz     Ryd( 3p)     0.02011
    16    O    1  pz     Ryd( 4p)     0.00068
    17    O    1  pz     Ryd( 5p)     0.00014
    18    O    1  dxy    Ryd( 3d)     0.00869
    19    O    1  dxy    Ryd( 4d)     0.00047
    20    O    1  dxy    Ryd( 5d)     0.00015
    21    O    1  dxz    Ryd( 3d)     0.00869
    22    O    1  dxz    Ryd( 4d)     0.00057
    23    O    1  dxz    Ryd( 5d)     0.00010
    24    O    1  dyz    Ryd( 3d)     0.00763
    25    O    1  dyz    Ryd( 4d)     0.00060
    26    O    1  dyz    Ryd( 5d)     0.00037
    27    O    1  dx2y2  Ryd( 3d)     0.01360
    28    O    1  dx2y2  Ryd( 4d)     0.00035
    29    O    1  dx2y2  Ryd( 5d)     0.00017
    30    O    1  dz2    Ryd( 3d)     0.00977
    31    O    1  dz2    Ryd( 4d)     0.00056
    32    O    1  dz2    Ryd( 5d)     0.00015
    33    O    1  f(0)   Ryd( 4f)     0.00071
    34    O    1  f(0)   Ryd( 5f)     0.00010
    35    O    1  f(C1)  Ryd( 4f)     0.00067
    36    O    1  f(C1)  Ryd( 5f)     0.00011
    37    O    1  f(S1)  Ryd( 4f)     0.00057
    38    O    1  f(S1)  Ryd( 5f)     0.00011
    39    O    1  f(C2)  Ryd( 4f)     0.00059
    40    O    1  f(C2)  Ryd( 5f)     0.00012
    41    O    1  f(S2)  Ryd( 4f)     0.00054
    42    O    1  f(S2)  Ryd( 5f)     0.00012
    43    O    1  f(C3)  Ryd( 4f)     0.00058
    44    O    1  f(C3)  Ryd( 5f)     0.00014
    45    O    1  f(S3)  Ryd( 4f)     0.00054
    46    O    1  f(S3)  Ryd( 5f)     0.00013

    47   Cl    2  S      Cor( 1S)     2.00000
    48   Cl    2  S      Cor( 2S)     1.99979
    49   Cl    2  S      Val( 3S)     1.88193
    50   Cl    2  S      Ryd( 4S)     0.00780
    51   Cl    2  S      Ryd( 5S)     0.00052
    52   Cl    2  S      Ryd( 6S)     0.00017
    53   Cl    2  px     Cor( 2p)     1.99996
    54   Cl    2  px     Val( 3p)     0.90767
    55   Cl    2  px     Ryd( 4p)     0.00650
    56   Cl    2  px     Ryd( 5p)     0.00052
    57   Cl    2  px     Ryd( 6p)     0.00021
    58   Cl    2  py     Cor( 2p)     2.00003
    59   Cl    2  py     Val( 3p)     1.95322
    60   Cl    2  py     Ryd( 4p)     0.00985
    61   Cl    2  py     Ryd( 5p)     0.00052
    62   Cl    2  py     Ryd( 6p)     0.00009
    63   Cl    2  pz     Cor( 2p)     2.00003
    64   Cl    2  pz     Val( 3p)     1.95451
    65   Cl    2  pz     Ryd( 4p)     0.01060
    66   Cl    2  pz     Ryd( 5p)     0.00068
    67   Cl    2  pz     Ryd( 6p)     0.00003
    68   Cl    2  dxy    Ryd( 3d)     0.01670
    69   Cl    2  dxy    Ryd( 4d)     0.00084
    70   Cl    2  dxy    Ryd( 5d)     0.00034
    71   Cl    2  dxz    Ryd( 3d)     0.02146
    72   Cl    2  dxz    Ryd( 4d)     0.00110
    73   Cl    2  dxz    Ryd( 5d)     0.00036
    74   Cl    2  dyz    Ryd( 3d)     0.01679
    75   Cl    2  dyz    Ryd( 4d)     0.00072
    76   Cl    2  dyz    Ryd( 5d)     0.00019
    77   Cl    2  dx2y2  Ryd( 3d)     0.01856
    78   Cl    2  dx2y2  Ryd( 4d)     0.00047
    79   Cl    2  dx2y2  Ryd( 5d)     0.00017
    80   Cl    2  dz2    Ryd( 3d)     0.01752
    81   Cl    2  dz2    Ryd( 4d)     0.00059
    82   Cl    2  dz2    Ryd( 5d)     0.00016
    83   Cl    2  f(0)   Ryd( 4f)     0.00131
    84   Cl    2  f(0)   Ryd( 5f)     0.00013
    85   Cl    2  f(C1)  Ryd( 4f)     0.00145
    86   Cl    2  f(C1)  Ryd( 5f)     0.00014
    87   Cl    2  f(S1)  Ryd( 4f)     0.00127
    88   Cl    2  f(S1)  Ryd( 5f)     0.00013
    89   Cl    2  f(C2)  Ryd( 4f)     0.00134
    90   Cl    2  f(C2)  Ryd( 5f)     0.00013
    91   Cl    2  f(S2)  Ryd( 4f)     0.00120
    92   Cl    2  f(S2)  Ryd( 5f)     0.00013
    93   Cl    2  f(C3)  Ryd( 4f)     0.00156
    94   Cl    2  f(C3)  Ryd( 5f)     0.00013
    95   Cl    2  f(S3)  Ryd( 4f)     0.00126
    96   Cl    2  f(S3)  Ryd( 5f)     0.00014

    97   Br    3  S      Cor( 1S)     2.00000
    98   Br    3  S      Cor( 2S)     2.00000
    99   Br    3  S      Cor( 3S)     1.99984
   100   Br    3  S      Val( 4S)     1.96648
   101   Br    3  S      Ryd( 5S)     0.00183
   102   Br    3  S      Ryd( 6S)     0.00045
   103   Br    3  S      Ryd( 7S)     0.00015
   104   Br    3  px     Cor( 2p)     2.00000
   105   Br    3  px     Cor( 3p)     2.00000
   106   Br    3  px     Val( 4p)     1.94816
   107   Br    3  px     Ryd( 5p)     0.01103
   108   Br    3  px     Ryd( 6p)     0.00081
   109   Br    3  px     Ryd( 7p)     0.00009
   110   Br    3  py     Cor( 2p)     2.00000
   111   Br    3  py     Cor( 3p)     1.99992
   112   Br    3  py     Val( 4p)     1.85961
   113   Br    3  py     Ryd( 5p)     0.00951
   114   Br    3  py     Ryd( 6p)     0.00076
   115   Br    3  py     Ryd( 7p)     0.00011
   116   Br    3  pz     Cor( 3p)     2.00000
   117   Br    3  pz     Cor( 2p)     2.00000
   118   Br    3  pz     Val( 4p)     1.95380
   119   Br    3  pz     Ryd( 5p)     0.01118
   120   Br    3  pz     Ryd( 6p)     0.00081
   121   Br    3  pz     Ryd( 7p)     0.00009
   122   Br    3  dxy    Cor( 3d)     1.99765
   123   Br    3  dxy    Ryd( 4d)     0.01877
   124   Br    3  dxy    Ryd( 5d)     0.00142
   125   Br    3  dxy    Ryd( 6d)     0.00021
   126   Br    3  dxz    Cor( 3d)     1.99768
   127   Br    3  dxz    Ryd( 4d)     0.01862
   128   Br    3  dxz    Ryd( 5d)     0.00174
   129   Br    3  dxz    Ryd( 6d)     0.00025
   130   Br    3  dyz    Cor( 3d)     1.99766
   131   Br    3  dyz    Ryd( 4d)     0.01891
   132   Br    3  dyz    Ryd( 5d)     0.00145
   133   Br    3  dyz    Ryd( 6d)     0.00020
   134   Br    3  dx2y2  Cor( 3d)     1.99763
   135   Br    3  dx2y2  Ryd( 4d)     0.01850
   136   Br    3  dx2y2  Ryd( 5d)     0.00157
   137   Br    3  dx2y2  Ryd( 6d)     0.00024
   138   Br    3  dz2    Cor( 3d)     1.99766
   139   Br    3  dz2    Ryd( 4d)     0.01855
   140   Br    3  dz2    Ryd( 5d)     0.00170
   141   Br    3  dz2    Ryd( 6d)     0.00022
   142   Br    3  f(0)   Ryd( 4f)     0.00173
   143   Br    3  f(0)   Ryd( 5f)     0.00026
   144   Br    3  f(C1)  Ryd( 4f)     0.00175
   145   Br    3  f(C1)  Ryd( 5f)     0.00024
   146   Br    3  f(S1)  Ryd( 4f)     0.00176
   147   Br    3  f(S1)  Ryd( 5f)     0.00027
   148   Br    3  f(C2)  Ryd( 4f)     0.00172
   149   Br    3  f(C2)  Ryd( 5f)     0.00026
   150   Br    3  f(S2)  Ryd( 4f)     0.00175
   151   Br    3  f(S2)  Ryd( 5f)     0.00026
   152   Br    3  f(C3)  Ryd( 4f)     0.00171
   153   Br    3  f(C3)  Ryd( 5f)     0.00027
   154   Br    3  f(S3)  Ryd( 4f)     0.00172
   155   Br    3  f(S3)  Ryd( 5f)     0.00027

   156    H    4  S      Val( 1S)     0.49894
   157    H    4  S      Ryd( 2S)     0.00888
   158    H    4  S      Ryd( 3S)     0.00029
   159    H    4  S      Ryd( 4S)     0.00017
   160    H    4  px     Ryd( 2p)     0.00417
   161    H    4  px     Ryd( 3p)     0.00053
   162    H    4  px     Ryd( 4p)     0.00012
   163    H    4  py     Ryd( 2p)     0.00513
   164    H    4  py     Ryd( 3p)     0.00098
   165    H    4  py     Ryd( 4p)     0.00035
   166    H    4  pz     Ryd( 2p)     0.00548
   167    H    4  pz     Ryd( 3p)     0.00038
   168    H    4  pz     Ryd( 4p)     0.00026
   169    H    4  dxy    Ryd( 3d)     0.00029
   170    H    4  dxy    Ryd( 4d)     0.00011
   171    H    4  dxz    Ryd( 3d)     0.00024
   172    H    4  dxz    Ryd( 4d)     0.00007
   173    H    4  dyz    Ryd( 3d)     0.00045
   174    H    4  dyz    Ryd( 4d)     0.00011
   175    H    4  dx2y2  Ryd( 3d)     0.00021
   176    H    4  dx2y2  Ryd( 4d)     0.00012
   177    H    4  dz2    Ryd( 3d)     0.00025
   178    H    4  dz2    Ryd( 4d)     0.00009

 WARNING:  5 low occupancy (<1.9990e) core orbitals found on Br    3


 Summary of Natural Population Analysis:                  
                                                          
                                       Natural Population 
                Natural  -----------------------------------------------
    Atom  No    Charge         Core      Valence    Rydberg      Total
 -----------------------------------------------------------------------
      O    1   -0.76221      1.99968     6.65252    0.11000     8.76221
     Cl    2    0.15908      9.99981     6.69732    0.14379    16.84092
     Br    3   -0.86926     27.98805     7.72805    0.15316    35.86926
      H    4    0.47238      0.00000     0.49894    0.02867     0.52762
 =======================================================================
   * Total *   -1.00000     39.98754    21.57684    0.43562    62.00000

                                 Natural Population      
 --------------------------------------------------------
   Core                      39.98754 ( 99.9689% of  40)
   Valence                   21.57684 ( 98.0765% of  22)
   Natural Minimal Basis     61.56438 ( 99.2974% of  62)
   Natural Rydberg Basis      0.43562 (  0.7026% of  62)
 --------------------------------------------------------

    Atom  No          Natural Electron Configuration
 ----------------------------------------------------------------------------
      O    1      [core]2S( 1.79)2p( 4.87)3S( 0.01)3p( 0.04)3d( 0.05)
     Cl    2      [core]3S( 1.88)3p( 4.82)4S( 0.01)3d( 0.09)4p( 0.03)4f( 0.01)
     Br    3      [core]4S( 1.97)4p( 5.76)4d( 0.09)5p( 0.03)4f( 0.01)5d( 0.01)
      H    4            1S( 0.50)2S( 0.01)2p( 0.01)


 NATURAL BOND ORBITAL ANALYSIS:
 Warning:  a bond orbital has occupanc of -0.00000

                       Occupancies       Lewis Structure    Low   High
           Occ.    -------------------  -----------------   occ   occ
  Cycle   Thresh.   Lewis   Non-Lewis     CR  BD  3C  LP    (L)   (NL)   Dev
 =============================================================================
   1(1)    1.90    61.42529   0.57471     20   2   0   9     1      1    0.16
 Warning:  a bond orbital has occupanc of -0.00000
   2(2)    1.90    61.15594   0.84406     20   2   0   9     1      1    0.56
 Warning:  a bond orbital has occupanc of -0.00000
   3(3)    1.90    61.42529   0.57471     20   2   0   9     1      1    0.16
 Warning:  a bond orbital has occupanc of -0.00000
   4(1)    1.80    61.42529   0.57471     20   2   0   9     0      1    0.16
 Warning:  a bond orbital has occupanc of -0.00000
   5(2)    1.80    61.42529   0.57471     20   2   0   9     0      1    0.16
 Warning:  a bond orbital has occupanc of -0.00000
   6(1)    1.70    61.42529   0.57471     20   2   0   9     0      1    0.16
 Warning:  a bond orbital has occupanc of -0.00000
   7(2)    1.70    61.42529   0.57471     20   2   0   9     0      1    0.16
 Warning:  a bond orbital has occupanc of -0.00000
   8(1)    1.60    61.42529   0.57471     20   2   0   9     0      1    0.16
 Warning:  a bond orbital has occupanc of -0.00000
   9(2)    1.60    61.42529   0.57471     20   2   0   9     0      1    0.16
 Warning:  a bond orbital has occupanc of -0.00000
  10(1)    1.50    61.05436   0.94564     20   1   0  10     0      1    0.56
 Warning:  a bond orbital has occupanc of -0.00000
  11(2)    1.50    61.05436   0.94564     20   1   0  10     0      1    0.56
 Warning:  a bond orbital has occupanc of -0.00000
  12(1)    1.90    61.42529   0.57471     20   2   0   9     1      1    0.16
 -----------------------------------------------------------------------------

 Structure accepted: RESONANCE keyword permits strongly delocalized structure

 WARNING:  5 low occupancy (<1.9990e) core orbitals found on Br    3

 --------------------------------------------------------
   Core                     39.98754 ( 99.969% of  40)
   Valence Lewis            21.43775 ( 97.444% of  22)
  ==================       ============================
   Total Lewis              61.42529 ( 99.073% of  62)
  -----------------------------------------------------
   Valence non-Lewis         0.18484 (  0.298% of  62)
   Rydberg non-Lewis         0.38987 (  0.629% of  62)
  ==================       ============================
   Total non-Lewis           0.57471 (  0.927% of  62)
 --------------------------------------------------------


       (Occupancy)   Bond orbital/ Coefficients/ Hybrids
 ---------------------------------------------------------------------------------
     1. (1.93952) BD ( 1) O   1 -Cl   2  
                ( 58.91%)   0.7675* O   1 s( 10.54%)p 8.44( 88.93%)d 0.05(  0.51%)
                                                  f 0.00(  0.02%)
                                            0.0003  0.3216 -0.0420 -0.0146 -0.0005
                                            0.9416 -0.0315 -0.0104 -0.0112 -0.0269
                                           -0.0287 -0.0051  0.0001  0.0000  0.0000
                                            0.0000  0.0000 -0.0220 -0.0016  0.0024
                                            0.0000  0.0000  0.0000  0.0000  0.0000
                                            0.0000  0.0530  0.0045  0.0025 -0.0422
                                           -0.0034  0.0007  0.0000  0.0000 -0.0113
                                            0.0012 -0.0002  0.0002  0.0000  0.0000
                                            0.0000  0.0000  0.0058  0.0009 -0.0005
                                            0.0020
                ( 41.09%)   0.6410*Cl   2 s(  8.53%)p10.57( 90.20%)d 0.14(  1.16%)
                                                  f 0.01(  0.11%)
                                           -0.0000  0.0005  0.2867 -0.0548 -0.0100
                                            0.0026 -0.0004 -0.9473  0.0651  0.0139
                                           -0.0043 -0.0000 -0.0113 -0.0018  0.0027
                                           -0.0009  0.0000  0.0000  0.0000  0.0000
                                            0.0000  0.0129  0.0000  0.0008  0.0000
                                            0.0000  0.0000  0.0000  0.0000  0.0000
                                            0.0897 -0.0105 -0.0003 -0.0569  0.0060
                                            0.0010  0.0000  0.0000  0.0211 -0.0031
                                            0.0005 -0.0002  0.0000  0.0000  0.0000
                                            0.0000 -0.0256  0.0028 -0.0014  0.0002
     2. (1.96509) BD ( 1) O   1 - H   4  
                ( 79.78%)   0.8932* O   1 s( 29.70%)p 2.35( 69.81%)d 0.02(  0.48%)
                                                  f 0.00(  0.01%)
                                           -0.0003 -0.5449  0.0070  0.0082 -0.0021
                                            0.2071 -0.0169 -0.0029 -0.0033  0.8092
                                           -0.0056 -0.0066 -0.0043  0.0000  0.0000
                                            0.0000  0.0000 -0.0001  0.0026  0.0002
                                            0.0000  0.0000  0.0000  0.0000  0.0000
                                            0.0000  0.0585  0.0056  0.0018  0.0362
                                            0.0015 -0.0031  0.0000  0.0000 -0.0017
                                           -0.0006 -0.0087 -0.0003  0.0000  0.0000
                                            0.0000  0.0000 -0.0020 -0.0024  0.0004
                                           -0.0021
                ( 20.22%)   0.4496* H   4 s( 99.83%)p 0.00(  0.17%)d 0.00(  0.00%)
                                           -0.9981 -0.0453 -0.0035  0.0018 -0.0104
                                           -0.0092 -0.0015  0.0179 -0.0319  0.0117
                                            0.0000  0.0000  0.0000  0.0001  0.0019
                                            0.0000  0.0000  0.0000  0.0000  0.0024
                                            0.0008  0.0000  0.0033
     3. (1.99968) CR ( 1) O   1           s(100.00%)p 0.00(  0.00%)
                                            1.0000 -0.0004  0.0000  0.0000 -0.0000
                                           -0.0002  0.0000  0.0000  0.0000  0.0001
                                            0.0000 -0.0000 -0.0000  0.0000  0.0000
                                            0.0000  0.0000  0.0000  0.0000 -0.0000
                                            0.0000  0.0000  0.0000  0.0000  0.0000
                                            0.0000 -0.0000  0.0000  0.0000  0.0000
                                            0.0000 -0.0000  0.0000  0.0000  0.0000
                                           -0.0000 -0.0000 -0.0000  0.0000  0.0000
                                            0.0000  0.0000 -0.0000 -0.0000 -0.0000
                                           -0.0000
     4. (2.00000) CR ( 1)Cl   2           s(100.00%)
                                            1.0000  0.0000 -0.0000 -0.0000 -0.0000
                                            0.0000 -0.0000 -0.0000  0.0000  0.0000
                                           -0.0000 -0.0000 -0.0000 -0.0000  0.0000
                                           -0.0000  0.0000  0.0000  0.0000  0.0000
                                            0.0000  0.0000 -0.0000  0.0000  0.0000
                                            0.0000  0.0000  0.0000  0.0000  0.0000
                                            0.0000 -0.0000 -0.0000 -0.0000  0.0000
                                            0.0000  0.0000  0.0000  0.0000 -0.0000
                                            0.0000 -0.0000  0.0000  0.0000  0.0000
                                            0.0000 -0.0000  0.0000 -0.0000  0.0000
     5. (1.99979) CR ( 2)Cl   2           s(100.00%)p 0.00(  0.00%)
                                            0.0000  1.0000 -0.0004  0.0000  0.0000
                                           -0.0000  0.0000  0.0004 -0.0000 -0.0000
                                            0.0000 -0.0000  0.0000  0.0000 -0.0000
                                            0.0000  0.0000  0.0000  0.0000  0.0000
                                            0.0000 -0.0000  0.0000 -0.0000  0.0000
                                            0.0000  0.0000  0.0000  0.0000  0.0000
                                           -0.0000  0.0000  0.0000  0.0000 -0.0000
                                           -0.0000  0.0000  0.0000 -0.0000  0.0000
                                           -0.0000  0.0000  0.0000  0.0000  0.0000
                                            0.0000  0.0000 -0.0000  0.0000 -0.0000
     6. (1.99996) CR ( 3)Cl   2           s(  0.00%)p 1.00(100.00%)
                                           -0.0000  0.0000  0.0001 -0.0000 -0.0000
                                            0.0000  1.0000 -0.0004  0.0000  0.0000
                                           -0.0000  0.0000 -0.0000 -0.0000  0.0000
                                           -0.0000  0.0000  0.0000  0.0000  0.0000
                                            0.0000  0.0000 -0.0000  0.0000  0.0000
                                            0.0000  0.0000  0.0000  0.0000  0.0000
                                            0.0000 -0.0000 -0.0000 -0.0000  0.0000
                                            0.0000  0.0000  0.0000  0.0000 -0.0000
                                            0.0000 -0.0000  0.0000  0.0000  0.0000
                                            0.0000 -0.0000  0.0000 -0.0000  0.0000
     7. (2.00003) CR ( 4)Cl   2           s(  0.00%)p 1.00(100.00%)
                                           -0.0000 -0.0000  0.0000  0.0000  0.0000
                                            0.0000  0.0000 -0.0000  0.0000  0.0000
                                           -0.0000  1.0000  0.0002  0.0000  0.0000
                                            0.0000  0.0000  0.0000  0.0000  0.0000
                                            0.0000 -0.0000  0.0000  0.0000  0.0000
                                            0.0000  0.0000  0.0000  0.0000  0.0000
                                           -0.0000 -0.0000 -0.0000 -0.0000 -0.0000
                                           -0.0000  0.0000  0.0000  0.0000  0.0000
                                           -0.0000  0.0000  0.0000  0.0000  0.0000
                                            0.0000 -0.0000  0.0000  0.0000 -0.0000
     8. (2.00003) CR ( 5)Cl   2           s(  0.00%)p 1.00(100.00%)
                                            0.0000  0.0000  0.0000  0.0000  0.0000
                                            0.0000  0.0000  0.0000  0.0000  0.0000
                                            0.0000  0.0000  0.0000  0.0000  0.0000
                                            0.0000  1.0000  0.0002  0.0000  0.0000
                                           -0.0000  0.0000  0.0000  0.0000  0.0000
                                            0.0000  0.0000  0.0000  0.0000  0.0000
                                            0.0000  0.0000  0.0000  0.0000  0.0000
                                            0.0000 -0.0000  0.0000  0.0000  0.0000
                                            0.0000  0.0000  0.0000 -0.0000  0.0000
                                           -0.0000  0.0000  0.0000  0.0000  0.0000
     9. (2.00000) CR ( 1)Br   3           s(100.00%)
                                            1.0000 -0.0000  0.0000  0.0000 -0.0000
                                            0.0000  0.0000  0.0000 -0.0000 -0.0000
                                            0.0000 -0.0000 -0.0000  0.0000 -0.0000
                                           -0.0000  0.0000 -0.0000  0.0000  0.0000
                                            0.0000  0.0000  0.0000  0.0000  0.0000
                                           -0.0000 -0.0000  0.0000 -0.0000  0.0000
                                            0.0000  0.0000  0.0000  0.0000  0.0000
                                            0.0000  0.0000  0.0000  0.0000  0.0000
                                            0.0000  0.0000  0.0000  0.0000  0.0000
                                            0.0000  0.0000 -0.0000  0.0000 -0.0000
                                           -0.0000  0.0000  0.0000  0.0000  0.0000
                                           -0.0000 -0.0000 -0.0000 -0.0000
    10. (2.00000) CR ( 2)Br   3           s(100.00%)
                                           -0.0000  1.0000  0.0000  0.0000 -0.0000
                                            0.0000  0.0000 -0.0000  0.0000  0.0000
                                            0.0000  0.0000 -0.0000  0.0000 -0.0000
                                           -0.0000  0.0000 -0.0000  0.0000  0.0000
                                            0.0000  0.0000  0.0000  0.0000  0.0000
                                           -0.0000  0.0000 -0.0000 -0.0000  0.0000
                                            0.0000  0.0000  0.0000  0.0000  0.0000
                                            0.0000  0.0000  0.0000  0.0000  0.0000
                                           -0.0000  0.0000  0.0000  0.0000  0.0000
                                            0.0000  0.0000 -0.0000 -0.0000 -0.0000
                                           -0.0000  0.0000  0.0000  0.0000  0.0000
                                           -0.0000 -0.0000  0.0000  0.0000
    11. (1.99984) CR ( 3)Br   3           s(100.00%)
                                            0.0000  0.0000  1.0000 -0.0002  0.0000
                                           -0.0000 -0.0000 -0.0000  0.0000  0.0000
                                           -0.0000  0.0000  0.0000 -0.0000  0.0000
                                            0.0001 -0.0000  0.0000 -0.0000  0.0000
                                            0.0000  0.0000  0.0000  0.0000  0.0000
                                            0.0000  0.0000 -0.0000  0.0000  0.0000
                                            0.0000  0.0000  0.0000  0.0000  0.0000
                                            0.0000  0.0000 -0.0000 -0.0000 -0.0000
                                           -0.0000 -0.0000 -0.0000 -0.0000 -0.0000
                                            0.0000  0.0000  0.0000 -0.0000  0.0000
                                            0.0000  0.0000  0.0000  0.0000  0.0000
                                            0.0000  0.0000  0.0000  0.0000
    12. (2.00000) CR ( 4)Br   3           s(  0.00%)p 1.00(100.00%)
                                            0.0000 -0.0000 -0.0000 -0.0000  0.0000
                                           -0.0000 -0.0000  1.0000  0.0000  0.0000
                                            0.0000  0.0000 -0.0000  0.0000 -0.0000
                                           -0.0000 -0.0000 -0.0000  0.0000  0.0000
                                            0.0000  0.0000  0.0000  0.0000  0.0000
                                           -0.0000  0.0000 -0.0000 -0.0000  0.0000
                                            0.0000  0.0000  0.0000  0.0000  0.0000
                                            0.0000  0.0000 -0.0000  0.0000 -0.0000
                                           -0.0000 -0.0000  0.0000 -0.0000  0.0000
                                            0.0000  0.0000 -0.0000 -0.0000  0.0000
                                            0.0000  0.0000  0.0000  0.0000  0.0000
                                           -0.0000 -0.0000  0.0000  0.0000
    13. (2.00000) CR ( 5)Br   3           s(  0.00%)p 1.00(100.00%)
                                           -0.0000  0.0000  0.0000  0.0000 -0.0000
                                            0.0000  0.0000  0.0000  1.0000 -0.0002
                                           -0.0000 -0.0000  0.0000 -0.0000  0.0000
                                            0.0000  0.0000  0.0000 -0.0000  0.0000
                                            0.0000  0.0000  0.0000  0.0000  0.0000
                                            0.0000 -0.0000  0.0000  0.0000  0.0000
                                            0.0000  0.0000  0.0000  0.0000  0.0000
                                            0.0000  0.0000  0.0000 -0.0000  0.0000
                                            0.0000  0.0000 -0.0000  0.0000 -0.0000
                                            0.0000  0.0000  0.0000  0.0000 -0.0000
                                           -0.0000  0.0000  0.0000  0.0000  0.0000
                                            0.0000  0.0000 -0.0000 -0.0000
    14. (2.00000) CR ( 6)Br   3           s(  0.00%)p 1.00(100.00%)
                                            0.0000  0.0000 -0.0000 -0.0000  0.0000
                                           -0.0000 -0.0000  0.0000 -0.0000 -0.0000
                                           -0.0000 -0.0000  0.0000  1.0000  0.0000
                                            0.0000 -0.0000  0.0000 -0.0000  0.0000
                                            0.0000  0.0000  0.0000  0.0000  0.0000
                                            0.0000 -0.0000  0.0000  0.0000  0.0000
                                            0.0000  0.0000  0.0000  0.0000  0.0000
                                            0.0000  0.0000 -0.0000 -0.0000 -0.0000
                                            0.0000 -0.0000 -0.0000  0.0000 -0.0000
                                            0.0000  0.0000  0.0000  0.0000  0.0000
                                            0.0000  0.0000  0.0000  0.0000  0.0000
                                            0.0000  0.0000 -0.0000 -0.0000
    15. (1.99992) CR ( 7)Br   3           s(  0.00%)p 1.00(100.00%)
                                           -0.0000 -0.0000  0.0000  0.0001 -0.0000
                                            0.0000  0.0000 -0.0000  0.0000  0.0000
                                            0.0000  0.0000 -0.0000  0.0000  1.0000
                                           -0.0001  0.0000 -0.0000  0.0000  0.0000
                                            0.0000  0.0000  0.0000  0.0000  0.0000
                                           -0.0000  0.0000 -0.0000 -0.0000  0.0000
                                            0.0000  0.0000  0.0000  0.0000  0.0000
                                            0.0000  0.0000  0.0000  0.0000  0.0000
                                           -0.0000  0.0000  0.0000  0.0000  0.0000
                                            0.0000  0.0000 -0.0000 -0.0000 -0.0000
                                           -0.0000  0.0000  0.0000  0.0000  0.0000
                                           -0.0000 -0.0000  0.0000  0.0000
    16. (2.00000) CR ( 8)Br   3           s(  0.00%)p 1.00(100.00%)
                                            0.0000  0.0000  0.0000  0.0000  0.0000
                                            0.0000  0.0000  0.0000  0.0000  0.0000
                                            0.0000  0.0000  0.0000  0.0000  0.0000
                                            0.0000  0.0000  0.0000  0.0000  1.0000
                                            0.0000  0.0000  0.0000  0.0000 -0.0000
                                            0.0000  0.0000  0.0000  0.0000 -0.0000
                                            0.0000 -0.0000 -0.0000 -0.0000  0.0000
                                           -0.0000 -0.0000  0.0000  0.0000  0.0000
                                            0.0000  0.0000  0.0000  0.0000  0.0000
                                           -0.0000 -0.0000  0.0000  0.0000  0.0000
                                            0.0000 -0.0000 -0.0000  0.0000  0.0000
                                            0.0000  0.0000  0.0000  0.0000
    17. (2.00000) CR ( 9)Br   3           s(  0.00%)p 1.00(100.00%)
                                            0.0000  0.0000  0.0000  0.0000  0.0000
                                            0.0000  0.0000  0.0000  0.0000  0.0000
                                            0.0000  0.0000  0.0000  0.0000  0.0000
                                            0.0000  0.0000  0.0000  0.0000  0.0000
                                            1.0000 -0.0002 -0.0000 -0.0000  0.0000
                                            0.0000  0.0000  0.0000  0.0000  0.0000
                                           -0.0000  0.0000  0.0000  0.0000 -0.0000
                                            0.0000  0.0000  0.0000  0.0000  0.0000
                                            0.0000  0.0000  0.0000  0.0000  0.0000
                                            0.0000  0.0000  0.0000  0.0000  0.0000
                                            0.0000  0.0000  0.0000 -0.0000 -0.0000
                                            0.0000  0.0000  0.0000  0.0000
    18. (1.99765) CR (10)Br   3           s(  0.00%)p 0.00(  0.00%)d 1.00(100.00%)
                                           -0.0000 -0.0000  0.0000  0.0000  0.0000
                                            0.0000  0.0000 -0.0000  0.0000  0.0000
                                            0.0000  0.0000 -0.0000  0.0000 -0.0000
                                           -0.0000  0.0000 -0.0000  0.0000  0.0000
                                            0.0000  0.0000  0.0000  0.0000  0.0000
                                            1.0000  0.0000 -0.0000 -0.0000  0.0000
                                            0.0000  0.0000  0.0000  0.0000  0.0000
                                            0.0000  0.0000  0.0000  0.0000  0.0000
                                           -0.0000  0.0000  0.0000 -0.0000  0.0000
                                            0.0000  0.0000 -0.0000 -0.0000 -0.0000
                                           -0.0000  0.0000  0.0000  0.0000  0.0000
                                           -0.0000 -0.0000  0.0000  0.0000
    19. (1.99768) CR (11)Br   3           s(  0.00%)p 0.00(  0.00%)d 1.00(100.00%)
                                            0.0000  0.0000  0.0000  0.0000  0.0000
                                            0.0000  0.0000  0.0000  0.0000  0.0000
                                            0.0000  0.0000  0.0000  0.0000  0.0000
                                            0.0000  0.0000  0.0000  0.0000 -0.0000
                                            0.0000  0.0000  0.0000  0.0000 -0.0000
                                            0.0000  0.0000  0.0000  0.0000  1.0000
                                            0.0000 -0.0000 -0.0000 -0.0000  0.0000
                                           -0.0000 -0.0000  0.0000  0.0000  0.0000
                                            0.0000  0.0000  0.0000  0.0000  0.0000
                                           -0.0000 -0.0000  0.0000  0.0000  0.0000
                                            0.0000 -0.0000 -0.0000  0.0000  0.0000
                                            0.0000  0.0000  0.0000  0.0000
    20. (1.99766) CR (12)Br   3           s(  0.00%)p 0.00(  0.00%)d 1.00(100.00%)
                                            0.0000  0.0000  0.0000  0.0000  0.0000
                                            0.0000  0.0000  0.0000  0.0000  0.0000
                                            0.0000  0.0000  0.0000  0.0000  0.0000
                                            0.0000  0.0000  0.0000  0.0000 -0.0000
                                            0.0000  0.0000  0.0000  0.0000 -0.0000
                                            0.0000  0.0000  0.0000  0.0000 -0.0000
                                            0.0000 -0.0000 -0.0000  1.0000  0.0000
                                           -0.0000 -0.0000  0.0000  0.0000  0.0000
                                            0.0000  0.0000  0.0000  0.0000  0.0000
                                           -0.0000 -0.0000  0.0000  0.0000  0.0000
                                            0.0000 -0.0000 -0.0000  0.0000  0.0000
                                            0.0000  0.0000  0.0000  0.0000
    21. (1.99763) CR (13)Br   3           s(  0.00%)p 0.00(  0.00%)d 1.00(100.00%)
                                            0.0000  0.0000 -0.0000 -0.0000  0.0000
                                           -0.0000 -0.0000 -0.0000  0.0000  0.0000
                                            0.0000  0.0000  0.0000 -0.0000  0.0000
                                            0.0000 -0.0000  0.0000 -0.0000  0.0000
                                            0.0000  0.0000  0.0000  0.0000  0.0000
                                            0.0000  0.0000 -0.0000  0.0000  0.0000
                                            0.0000  0.0000  0.0000  0.0000  0.0000
                                            0.0000  0.0000  1.0000 -0.0000 -0.0000
                                           -0.0000 -0.0000 -0.0000 -0.0000 -0.0000
                                            0.0000  0.0000 -0.0000 -0.0000  0.0000
                                            0.0000  0.0000  0.0000  0.0000  0.0000
                                           -0.0000 -0.0000  0.0000  0.0000
    22. (1.99766) CR (14)Br   3           s(  0.00%)p 0.00(  0.00%)d 1.00(100.00%)
                                            0.0000  0.0000 -0.0000 -0.0000  0.0000
                                           -0.0000 -0.0000 -0.0000  0.0000  0.0000
                                           -0.0000  0.0000  0.0000 -0.0000  0.0000
                                            0.0000 -0.0000  0.0000 -0.0000  0.0000
                                            0.0000  0.0000  0.0000  0.0000  0.0000
                                            0.0000 -0.0000  0.0000  0.0000  0.0000
                                            0.0000  0.0000  0.0000  0.0000  0.0000
                                            0.0000  0.0000 -0.0000 -0.0000 -0.0000
                                           -0.0000  1.0000 -0.0000 -0.0000 -0.0000
                                            0.0000  0.0000  0.0000  0.0000  0.0000
                                            0.0000  0.0000  0.0000  0.0000  0.0000
                                            0.0000  0.0000  0.0000  0.0000
    23. (1.96620) LP ( 1) O   1           s( 59.90%)p 0.67( 40.00%)d 0.00(  0.10%)
                                                  f 0.00(  0.00%)
                                            0.0002  0.7738  0.0122  0.0085 -0.0015
                                           -0.2467 -0.0030 -0.0042 -0.0022  0.5822
                                            0.0086  0.0058  0.0017  0.0000  0.0000
                                            0.0000  0.0000  0.0227  0.0022 -0.0035
                                            0.0000  0.0000  0.0000  0.0000  0.0000
                                            0.0000  0.0164  0.0002 -0.0041  0.0123
                                            0.0007  0.0007  0.0000  0.0000 -0.0000
                                            0.0005 -0.0028  0.0002  0.0000  0.0000
                                            0.0000  0.0000  0.0036 -0.0023  0.0038
                                           -0.0017
    24. (1.95239) LP ( 2) O   1           s(  0.00%)p 1.00( 99.80%)d 0.00(  0.18%)
                                                  f 0.00(  0.01%)
                                            0.0000  0.0000  0.0000  0.0000  0.0000
                                            0.0000  0.0000  0.0000  0.0000  0.0000
                                            0.0000  0.0000  0.0000  0.9988  0.0195
                                            0.0060  0.0071  0.0000  0.0000  0.0000
                                            0.0303  0.0051 -0.0006 -0.0267  0.0040
                                            0.0118  0.0000  0.0000  0.0000  0.0000
                                            0.0000  0.0000 -0.0103  0.0006  0.0000
                                            0.0000  0.0000  0.0000  0.0047 -0.0022
                                            0.0010  0.0012  0.0000  0.0000  0.0000
                                            0.0000
    25. (1.97380) LP ( 1)Cl   2           s( 91.60%)p 0.09(  8.38%)d 0.00(  0.02%)
                                                  f 0.00(  0.00%)
                                            0.0000  0.0003  0.9571  0.0064  0.0011
                                           -0.0003  0.0000  0.2875 -0.0063 -0.0031
                                            0.0013  0.0000 -0.0329  0.0013  0.0001
                                           -0.0005  0.0000  0.0000  0.0000  0.0000
                                            0.0000 -0.0000 -0.0005 -0.0005  0.0000
                                            0.0000  0.0000  0.0000  0.0000  0.0000
                                           -0.0122  0.0005  0.0001  0.0077  0.0005
                                            0.0004  0.0000  0.0000 -0.0021 -0.0004
                                            0.0001 -0.0000  0.0000  0.0000  0.0000
                                            0.0000  0.0034 -0.0000 -0.0005  0.0002
    26. (1.95608) LP ( 2)Cl   2           s(  0.00%)p 1.00( 99.95%)d 0.00(  0.05%)
                                                  f 0.00(  0.01%)
                                            0.0000  0.0000  0.0000  0.0000  0.0000
                                            0.0000  0.0000  0.0000  0.0000  0.0000
                                            0.0000  0.0000  0.0000  0.0000  0.0000
                                            0.0000 -0.0002  0.9996  0.0153  0.0052
                                           -0.0023  0.0000  0.0000  0.0000  0.0079
                                            0.0176  0.0085  0.0034  0.0029  0.0008
                                            0.0000  0.0000  0.0000  0.0000  0.0000
                                            0.0000 -0.0055  0.0010  0.0000  0.0000
                                            0.0000  0.0000  0.0065 -0.0010  0.0009
                                           -0.0007  0.0000  0.0000  0.0000  0.0000
    27. (1.95472) LP ( 3)Cl   2           s(  0.13%)p99.99( 99.83%)d 0.30(  0.04%)
                                                  f 0.07(  0.01%)
                                            0.0000 -0.0000  0.0349  0.0059  0.0039
                                            0.0018  0.0000 -0.0024 -0.0004 -0.0003
                                           -0.0007 -0.0002  0.9990  0.0130  0.0015
                                            0.0002  0.0000  0.0000  0.0000  0.0000
                                            0.0000 -0.0011  0.0150  0.0080  0.0000
                                            0.0000  0.0000  0.0000  0.0000  0.0000
                                           -0.0076 -0.0046 -0.0029 -0.0007 -0.0026
                                           -0.0004  0.0000  0.0000  0.0001  0.0003
                                           -0.0024  0.0002  0.0000  0.0000  0.0000
                                            0.0000 -0.0013  0.0002  0.0087 -0.0014
    28. (1.97805) LP ( 1)Br   3           s( 91.43%)p 0.09(  8.57%)d 0.00(  0.00%)
                                                  f 0.00(  0.00%)
                                           -0.0000 -0.0000  0.0002  0.9562 -0.0002
                                            0.0009  0.0005  0.0000 -0.0000 -0.0751
                                            0.0002 -0.0002 -0.0001  0.0000 -0.0001
                                           -0.2830  0.0015 -0.0006  0.0000  0.0000
                                            0.0000  0.0000  0.0000  0.0000  0.0000
                                           -0.0000 -0.0004  0.0000 -0.0002  0.0000
                                            0.0000  0.0000  0.0000  0.0000  0.0000
                                            0.0000  0.0000  0.0000  0.0006  0.0002
                                            0.0003  0.0000  0.0005  0.0000  0.0003
                                            0.0000  0.0000 -0.0000  0.0000 -0.0002
                                           -0.0001  0.0000  0.0000  0.0000  0.0000
                                           -0.0001 -0.0001 -0.0002 -0.0002
    29. (1.95405) LP ( 2)Br   3           s(  0.00%)p 1.00( 99.99%)d 0.00(  0.01%)
                                                  f 0.00(  0.00%)
                                            0.0000  0.0000  0.0000  0.0000  0.0000
                                            0.0000  0.0000  0.0000  0.0000  0.0000
                                            0.0000  0.0000  0.0000  0.0000  0.0000
                                            0.0000  0.0000  0.0000  0.0000 -0.0000
                                            0.0002  0.9999  0.0034  0.0018 -0.0003
                                            0.0000  0.0000  0.0000  0.0000 -0.0000
                                            0.0021 -0.0003 -0.0004 -0.0000  0.0093
                                           -0.0020 -0.0013  0.0000  0.0000  0.0000
                                            0.0000  0.0000  0.0000  0.0000  0.0000
                                           -0.0023 -0.0013  0.0000  0.0000  0.0000
                                            0.0000 -0.0026 -0.0013  0.0013  0.0008
                                            0.0000  0.0000  0.0000  0.0000
    30. (1.95370) LP ( 3)Br   3           s(  0.01%)p 1.00( 99.98%)d 0.00(  0.01%)
                                                  f 0.00(  0.00%)
                                            0.0000 -0.0000 -0.0000  0.0074  0.0004
                                           -0.0001 -0.0007 -0.0000  0.0002  0.9724
                                            0.0033  0.0015 -0.0004  0.0000 -0.0001
                                           -0.2330 -0.0007 -0.0005  0.0002  0.0000
                                            0.0000  0.0000  0.0000  0.0000  0.0000
                                           -0.0000  0.0094 -0.0016 -0.0012  0.0000
                                            0.0000  0.0000  0.0000  0.0000  0.0000
                                            0.0000  0.0000 -0.0000  0.0037 -0.0002
                                           -0.0013  0.0000  0.0001 -0.0000  0.0001
                                            0.0000  0.0000 -0.0009 -0.0005  0.0001
                                            0.0000  0.0000  0.0000  0.0000  0.0000
                                           -0.0027 -0.0012  0.0021  0.0010
    31. (1.84413) LP ( 4)Br   3           s(  8.56%)p10.67( 91.37%)d 0.01(  0.06%)
                                                  f 0.00(  0.01%)
                                           -0.0000  0.0000 -0.0000  0.2926  0.0007
                                           -0.0030 -0.0018  0.0000  0.0000  0.2206
                                           -0.0014 -0.0006  0.0004  0.0000  0.0000
                                            0.9300 -0.0069 -0.0040  0.0007  0.0000
                                            0.0000  0.0000  0.0000  0.0000  0.0000
                                            0.0000  0.0091 -0.0019 -0.0000  0.0000
                                            0.0000  0.0000  0.0000  0.0000  0.0000
                                            0.0000  0.0000  0.0000 -0.0181  0.0034
                                            0.0012  0.0000 -0.0126  0.0027 -0.0003
                                            0.0000  0.0000 -0.0011 -0.0007 -0.0047
                                           -0.0023  0.0000  0.0000  0.0000  0.0000
                                           -0.0037 -0.0016 -0.0044 -0.0017
    32. (0.01959) RY*( 1) O   1           s(  0.00%)p 1.00( 98.74%)d 0.01(  1.21%)
                                                  f 0.00(  0.05%)
                                            0.0000  0.0000  0.0000  0.0000  0.0000
                                            0.0000  0.0000  0.0000  0.0000  0.0000
                                            0.0000  0.0000  0.0000 -0.0238  0.9925
                                           -0.0385 -0.0133  0.0000  0.0000  0.0000
                                            0.0826  0.0277  0.0096 -0.0645  0.0018
                                            0.0167  0.0000  0.0000  0.0000  0.0000
                                            0.0000  0.0000 -0.0118  0.0106  0.0000
                                            0.0000  0.0000  0.0000  0.0118 -0.0103
                                           -0.0029  0.0014  0.0000  0.0000  0.0000
                                            0.0000
    33. (0.01618) RY*( 2) O   1           s( 30.47%)p 2.21( 67.44%)d 0.06(  1.89%)
                                                  f 0.01(  0.19%)
                                           -0.0000  0.0029  0.5508 -0.0365 -0.0066
                                            0.0373 -0.3419 -0.0040  0.0216 -0.0186
                                            0.7429 -0.0017 -0.0580  0.0000  0.0000
                                            0.0000  0.0000  0.1213  0.0263  0.0078
                                            0.0000  0.0000  0.0000  0.0000  0.0000
                                            0.0000  0.0271  0.0041  0.0035  0.0516
                                            0.0030 -0.0049  0.0000  0.0000 -0.0038
                                            0.0006  0.0044  0.0018  0.0000  0.0000
                                            0.0000  0.0000  0.0323 -0.0143  0.0227
                                           -0.0117
    34. (0.00802) RY*( 3) O   1           s( 17.84%)p 0.59( 10.59%)d 3.94( 70.37%)
                                                  f 0.07(  1.20%)
                                           -0.0000  0.0170  0.4162 -0.0681  0.0167
                                           -0.0194 -0.1524  0.0084  0.0364 -0.0115
                                           -0.2717  0.0289 -0.0781 -0.0000 -0.0000
                                           -0.0000 -0.0000 -0.7984 -0.0131 -0.0251
                                           -0.0000 -0.0000 -0.0000 -0.0000 -0.0000
                                           -0.0000  0.1483  0.0071  0.0297  0.2059
                                           -0.0096  0.0054 -0.0000 -0.0000 -0.0233
                                            0.0150  0.0035  0.0023 -0.0000 -0.0000
                                           -0.0000 -0.0000 -0.0440  0.0173 -0.0867
                                            0.0382
    35. (0.00706) RY*( 4) O   1           s(  0.00%)p 1.00(  0.36%)d99.99( 97.92%)
                                                  f 4.71(  1.71%)
                                            0.0000  0.0000  0.0000  0.0000  0.0000
                                            0.0000  0.0000  0.0000  0.0000  0.0000
                                            0.0000  0.0000  0.0000 -0.0180 -0.0561
                                           -0.0110 -0.0065  0.0000  0.0000  0.0000
                                            0.9212 -0.0379  0.0174  0.3583 -0.0196
                                            0.0079  0.0000  0.0000  0.0000  0.0000
                                            0.0000  0.0000 -0.0372  0.0162  0.0000
                                            0.0000  0.0000  0.0000  0.1113 -0.0497
                                           -0.0224  0.0108  0.0000  0.0000  0.0000
                                            0.0000
    36. (0.00631) RY*( 5) O   1           s(  1.63%)p13.68( 22.30%)d45.59( 74.31%)
                                                  f 1.08(  1.76%)
[...]
                                           -0.1122  0.1227 -0.1055
   163. (0.00032) RY*( 9) H   4           s(  0.00%)p 1.00( 93.97%)d 0.06(  6.03%)
                                            0.0000  0.0000  0.0000  0.0000  0.0000
                                            0.0000  0.0000  0.0000  0.0000  0.0000
                                           -0.1259  0.9596 -0.0539  0.0000  0.0000
                                           -0.0647  0.0847 -0.0635  0.2120  0.0000
                                            0.0000  0.0000  0.0000
   164. (0.00026) RY*(10) H   4           s(  2.48%)p10.05( 24.93%)d29.27( 72.59%)
                                            0.0125  0.0510  0.0124  0.1479 -0.0994
                                           -0.0723  0.1834 -0.0101 -0.2251  0.3871
                                            0.0000  0.0000  0.0000 -0.4457 -0.0147
                                            0.0000  0.0000  0.0000  0.0000  0.4833
                                            0.0939 -0.5113  0.1524
   165. (0.00024) RY*(11) H   4           s(  0.00%)p 1.00(  0.44%)d99.99( 99.56%)
                                            0.0000  0.0000  0.0000  0.0000  0.0000
                                            0.0000  0.0000  0.0000  0.0000  0.0000
                                           -0.0150  0.0633 -0.0128  0.0000  0.0000
                                            0.9824 -0.1431 -0.0952  0.0299  0.0000
                                            0.0000  0.0000  0.0000
   166. (0.00022) RY*(12) H   4           s( 11.56%)p 2.56( 29.64%)d 5.09( 58.80%)
                                            0.0153  0.0210  0.2270  0.2518  0.0675
                                            0.0050 -0.0623 -0.0253 -0.3940  0.3634
                                            0.0000  0.0000  0.0000  0.2272 -0.0459
                                            0.0000  0.0000  0.0000  0.0000  0.3413
                                            0.1073  0.6373 -0.0064
   167. (0.00019) RY*(13) H   4           s(  8.71%)p 1.78( 15.53%)d 8.69( 75.76%)
                                           -0.0062 -0.0306  0.2908  0.0399  0.0659
                                           -0.0187 -0.2547  0.0096  0.1490 -0.2519
                                            0.0000  0.0000  0.0000  0.5102  0.1747
                                            0.0000  0.0000  0.0000  0.0000  0.5437
                                           -0.1348 -0.3532 -0.1677
   168. (0.00013) RY*(14) H   4           s(  0.00%)p 1.00( 40.36%)d 1.48( 59.64%)
                                            0.0000  0.0000  0.0000  0.0000  0.0000
                                            0.0000  0.0000  0.0000  0.0000  0.0000
                                            0.0199  0.2174  0.5966  0.0000  0.0000
                                            0.0319 -0.1578  0.4344 -0.6179  0.0000
                                            0.0000  0.0000  0.0000
   169. (0.00012) RY*(15) H   4           s( 63.29%)p 0.19( 12.01%)d 0.39( 24.70%)
                                           -0.0053 -0.0322  0.0441  0.7937  0.0203
                                            0.1901  0.2330  0.0114  0.1666  0.0368
                                           -0.0000 -0.0000 -0.0000  0.2363 -0.2993
                                           -0.0000 -0.0000 -0.0000 -0.0000 -0.2475
                                           -0.0413 -0.1924  0.0407
   170. (0.00010) RY*(16) H   4           s( 11.34%)p 2.46( 27.90%)d 5.36( 60.77%)
                                            0.0010 -0.0029  0.1119  0.3175 -0.0193
                                           -0.0663 -0.4811 -0.0037  0.1122  0.1737
                                            0.0000  0.0000  0.0000 -0.1474  0.6189
                                            0.0000  0.0000  0.0000  0.0000 -0.2681
                                            0.3571 -0.0590  0.0035
   171. (0.00005) RY*(17) H   4           s(  0.00%)p 1.00( 32.62%)d 2.07( 67.38%)
   172. (0.00006) RY*(18) H   4           s(  0.00%)p 1.00(  1.88%)d52.16( 98.12%)
   173. (0.00006) RY*(19) H   4           s( 18.64%)p 1.89( 35.26%)d 2.47( 46.10%)
   174. (0.00004) RY*(20) H   4           s( 13.40%)p 0.64(  8.58%)d 5.82( 78.01%)
   175. (0.00004) RY*(21) H   4           s(  7.44%)p 6.45( 48.00%)d 5.99( 44.56%)
   176. (0.00005) RY*(22) H   4           s( 10.23%)p 0.43(  4.41%)d 8.34( 85.36%)
   177. (0.05804) BD*( 1) O   1 -Cl   2  
                ( 41.09%)   0.6410* O   1 s( 10.54%)p 8.44( 88.93%)d 0.05(  0.51%)
                                                  f 0.00(  0.02%)
                                           -0.0003 -0.3216  0.0420  0.0146  0.0005
                                           -0.9416  0.0315  0.0104  0.0112  0.0269
                                            0.0287  0.0051 -0.0001 -0.0000 -0.0000
                                           -0.0000 -0.0000  0.0220  0.0016 -0.0024
                                           -0.0000 -0.0000 -0.0000 -0.0000 -0.0000
                                           -0.0000 -0.0530 -0.0045 -0.0025  0.0422
                                            0.0034 -0.0007 -0.0000 -0.0000  0.0113
                                           -0.0012  0.0002 -0.0002 -0.0000 -0.0000
                                           -0.0000 -0.0000 -0.0058 -0.0009  0.0005
                                           -0.0020
                ( 58.91%)  -0.7675*Cl   2 s(  8.53%)p10.57( 90.20%)d 0.14(  1.16%)
                                                  f 0.01(  0.11%)
                                            0.0000 -0.0005 -0.2867  0.0548  0.0100
                                           -0.0026  0.0004  0.9473 -0.0651 -0.0139
                                            0.0043  0.0000  0.0113  0.0018 -0.0027
                                            0.0009 -0.0000 -0.0000 -0.0000 -0.0000
                                           -0.0000 -0.0129 -0.0000 -0.0008 -0.0000
                                           -0.0000 -0.0000 -0.0000 -0.0000 -0.0000
                                           -0.0897  0.0105  0.0003  0.0569 -0.0060
                                           -0.0010 -0.0000 -0.0000 -0.0211  0.0031
                                           -0.0005  0.0002 -0.0000 -0.0000 -0.0000
                                           -0.0000  0.0256 -0.0028  0.0014 -0.0002
   178. (0.12681) BD*( 1) O   1 - H   4  
                ( 20.22%)   0.4496* O   1 s( 29.70%)p 2.35( 69.81%)d 0.02(  0.48%)
                                                  f 0.00(  0.01%)
                                            0.0003  0.5449 -0.0070 -0.0082  0.0021
                                           -0.2071  0.0169  0.0029  0.0033 -0.8092
                                            0.0056  0.0066  0.0043 -0.0000 -0.0000
                                           -0.0000 -0.0000  0.0001 -0.0026 -0.0002
                                           -0.0000 -0.0000 -0.0000 -0.0000 -0.0000
                                           -0.0000 -0.0585 -0.0056 -0.0018 -0.0362
                                           -0.0015  0.0031 -0.0000 -0.0000  0.0017
                                            0.0006  0.0087  0.0003 -0.0000 -0.0000
                                           -0.0000 -0.0000  0.0020  0.0024 -0.0004
                                            0.0021
                ( 79.78%)  -0.8932* H   4 s( 99.83%)p 0.00(  0.17%)d 0.00(  0.00%)
                                            0.9981  0.0453  0.0035 -0.0018  0.0104
                                            0.0092  0.0015 -0.0179  0.0319 -0.0117
                                           -0.0000 -0.0000 -0.0000 -0.0001 -0.0019
                                           -0.0000 -0.0000 -0.0000 -0.0000 -0.0024
                                           -0.0008 -0.0000 -0.0033


 NHO Directionality and "Bond Bending" (deviations from line of nuclear centers)

         [Thresholds for printing:  angular deviation  >  1.0 degree]
                                    hybrid p-character > 25.0%
                                    orbital occupancy  >  0.10e

                                Line of Centers        Hybrid 1              Hybrid 2
                                ---------------  -------------------   ------------------
                NBO               Theta   Phi    Theta   Phi    Dev    Theta   Phi    Dev
 ========================================================================================
     1. BD (   1) O   1 -Cl   2    90.0    0.0    90.0  356.1   3.9      --     --    --
    23. LP (   1) O   1             --     --     90.0  113.2   --       --     --    --
    24. LP (   2) O   1             --     --      0.0    0.0   --       --     --    --
    26. LP (   2)Cl   2             --     --      0.0    0.0   --       --     --    --
    27. LP (   3)Cl   2             --     --     90.0   90.2   --       --     --    --
    29. LP (   2)Br   3             --     --      0.0    0.0   --       --     --    --
    30. LP (   3)Br   3             --     --     90.0  346.5   --       --     --    --
    31. LP (   4)Br   3             --     --     90.0   76.6   --       --     --    --


 Natural Bond Orbitals (Summary):

           NBO                  Occupancy  
 -----------------------------------------------
 Molecular unit  1  (HOCl)
     1. BD (   1) O   1 -Cl   2          1.93952
     2. BD (   1) O   1 - H   4          1.96509
     3. CR (   1) O   1                  1.99968
     4. CR (   1)Cl   2                  2.00000
     5. CR (   2)Cl   2                  1.99979
     6. CR (   3)Cl   2                  1.99996
     7. CR (   4)Cl   2                  2.00003
     8. CR (   5)Cl   2                  2.00003
    23. LP (   1) O   1                  1.96620
    24. LP (   2) O   1                  1.95239
    25. LP (   1)Cl   2                  1.97380
    26. LP (   2)Cl   2                  1.95608
    27. LP (   3)Cl   2                  1.95472
    32. RY*(   1) O   1                  0.01959
    33. RY*(   2) O   1                  0.01618
    34. RY*(   3) O   1                  0.00802
    35. RY*(   4) O   1                  0.00706
    36. RY*(   5) O   1                  0.00631
    37. RY*(   6) O   1                  0.00619
    38. RY*(   7) O   1                  0.00574
    39. RY*(   8) O   1                  0.00339
    40. RY*(   9) O   1                  0.00247
    41. RY*(  10) O   1                  0.00081
    42. RY*(  11) O   1                  0.00065
    43. RY*(  12) O   1                  0.00061
    44. RY*(  13) O   1                  0.00059
    45. RY*(  14) O   1                  0.00050
    46. RY*(  15) O   1                  0.00051
    47. RY*(  16) O   1                  0.00048
    48. RY*(  17) O   1                  0.00048
    49. RY*(  18) O   1                  0.00047
    50. RY*(  19) O   1                  0.00045
    51. RY*(  20) O   1                  0.00045
    52. RY*(  21) O   1                  0.00044
    53. RY*(  22) O   1                  0.00042
    54. RY*(  23) O   1                  0.00035
    55. RY*(  24) O   1                  0.00031
    56. RY*(  25) O   1                  0.00025
    57. RY*(  26) O   1                  0.00019
    58. RY*(  27) O   1                  0.00012
    59. RY*(  28) O   1                  0.00013
    60. RY*(  29) O   1                  0.00013
    61. RY*(  30) O   1                  0.00009
    62. RY*(  31) O   1                  0.00009
    63. RY*(  32) O   1                  0.00008
    64. RY*(  33) O   1                  0.00007
    65. RY*(  34) O   1                  0.00008
    66. RY*(  35) O   1                  0.00008
    67. RY*(  36) O   1                  0.00006
    68. RY*(  37) O   1                  0.00006
    69. RY*(  38) O   1                  0.00006
    70. RY*(  39) O   1                  0.00004
    71. RY*(  40) O   1                  0.00002
    72. RY*(  41) O   1                  0.00000
    73. RY*(   1)Cl   2                  0.02264
    74. RY*(   2)Cl   2                  0.01750
    75. RY*(   3)Cl   2                  0.01676
    76. RY*(   4)Cl   2                  0.01664
    77. RY*(   5)Cl   2                  0.01162
    78. RY*(   6)Cl   2                  0.00927
    79. RY*(   7)Cl   2                  0.00905
    80. RY*(   8)Cl   2                  0.00629
    81. RY*(   9)Cl   2                  0.00167
    82. RY*(  10)Cl   2                  0.00127
    83. RY*(  11)Cl   2                  0.00127
    84. RY*(  12)Cl   2                  0.00119
    85. RY*(  13)Cl   2                  0.00120
    86. RY*(  14)Cl   2                  0.00116
    87. RY*(  15)Cl   2                  0.00111
    88. RY*(  16)Cl   2                  0.00094
    89. RY*(  17)Cl   2                  0.00077
    90. RY*(  18)Cl   2                  0.00076
    91. RY*(  19)Cl   2                  0.00064
    92. RY*(  20)Cl   2                  0.00056
    93. RY*(  21)Cl   2                  0.00044
    94. RY*(  22)Cl   2                  0.00036
    95. RY*(  23)Cl   2                  0.00036
    96. RY*(  24)Cl   2                  0.00031
    97. RY*(  25)Cl   2                  0.00018
    98. RY*(  26)Cl   2                  0.00015
    99. RY*(  27)Cl   2                  0.00016
   100. RY*(  28)Cl   2                  0.00013
   101. RY*(  29)Cl   2                  0.00013
   102. RY*(  30)Cl   2                  0.00012
   103. RY*(  31)Cl   2                  0.00011
   104. RY*(  32)Cl   2                  0.00011
   105. RY*(  33)Cl   2                  0.00010
   106. RY*(  34)Cl   2                  0.00009
   107. RY*(  35)Cl   2                  0.00009
   108. RY*(  36)Cl   2                  0.00009
   109. RY*(  37)Cl   2                  0.00007
   110. RY*(  38)Cl   2                  0.00004
   111. RY*(  39)Cl   2                  0.00004
   112. RY*(  40)Cl   2                  0.00003
   113. RY*(  41)Cl   2                 -0.00000
   155. RY*(   1) H   4                  0.01083
   156. RY*(   2) H   4                  0.00562
   157. RY*(   3) H   4                  0.00494
   158. RY*(   4) H   4                  0.00383
   159. RY*(   5) H   4                  0.00070
   160. RY*(   6) H   4                  0.00057
   161. RY*(   7) H   4                  0.00046
   162. RY*(   8) H   4                  0.00036
   163. RY*(   9) H   4                  0.00032
   164. RY*(  10) H   4                  0.00026
   165. RY*(  11) H   4                  0.00024
   166. RY*(  12) H   4                  0.00022
   167. RY*(  13) H   4                  0.00019
   168. RY*(  14) H   4                  0.00013
   169. RY*(  15) H   4                  0.00012
   170. RY*(  16) H   4                  0.00010
   171. RY*(  17) H   4                  0.00005
   172. RY*(  18) H   4                  0.00006
   173. RY*(  19) H   4                  0.00006
   174. RY*(  20) H   4                  0.00004
   175. RY*(  21) H   4                  0.00004
   176. RY*(  22) H   4                  0.00005
   177. BD*(   1) O   1 -Cl   2          0.05804
   178. BD*(   1) O   1 - H   4          0.12681
       -------------------------------
              Total Lewis   25.70731  ( 98.3795%)
        Valence non-Lewis    0.18484  (  0.7074%)
        Rydberg non-Lewis    0.23860  (  0.9131%)
       -------------------------------
            Total unit  1   26.13074  (100.0000%)
           Charge unit  1   -0.13074

 Molecular unit  2  (Br)
     9. CR (   1)Br   3                  2.00000
    10. CR (   2)Br   3                  2.00000
    11. CR (   3)Br   3                  1.99984
    12. CR (   4)Br   3                  2.00000
    13. CR (   5)Br   3                  2.00000
    14. CR (   6)Br   3                  2.00000
    15. CR (   7)Br   3                  1.99992
    16. CR (   8)Br   3                  2.00000
    17. CR (   9)Br   3                  2.00000
    18. CR (  10)Br   3                  1.99765
    19. CR (  11)Br   3                  1.99768
    20. CR (  12)Br   3                  1.99766
    21. CR (  13)Br   3                  1.99763
    22. CR (  14)Br   3                  1.99766
    28. LP (   1)Br   3                  1.97805
    29. LP (   2)Br   3                  1.95405
    30. LP (   3)Br   3                  1.95370
    31. LP (   4)Br   3                  1.84413
   114. RY*(   1)Br   3                  0.01876
   115. RY*(   2)Br   3                  0.01868
   116. RY*(   3)Br   3                  0.01862
   117. RY*(   4)Br   3                  0.01861
   118. RY*(   5)Br   3                  0.01777
   119. RY*(   6)Br   3                  0.01116
   120. RY*(   7)Br   3                  0.01108
   121. RY*(   8)Br   3                  0.00906
   122. RY*(   9)Br   3                  0.00216
   123. RY*(  10)Br   3                  0.00179
   124. RY*(  11)Br   3                  0.00178
   125. RY*(  12)Br   3                  0.00175
   126. RY*(  13)Br   3                  0.00175
   127. RY*(  14)Br   3                  0.00174
   128. RY*(  15)Br   3                  0.00175
   129. RY*(  16)Br   3                  0.00175
   130. RY*(  17)Br   3                  0.00174
   131. RY*(  18)Br   3                  0.00174
   132. RY*(  19)Br   3                  0.00140
   133. RY*(  20)Br   3                  0.00136
   134. RY*(  21)Br   3                  0.00117
   135. RY*(  22)Br   3                  0.00079
   136. RY*(  23)Br   3                  0.00079
   137. RY*(  24)Br   3                  0.00072
   138. RY*(  25)Br   3                  0.00037
   139. RY*(  26)Br   3                  0.00028
   140. RY*(  27)Br   3                  0.00028
   141. RY*(  28)Br   3                  0.00024
   142. RY*(  29)Br   3                  0.00025
   143. RY*(  30)Br   3                  0.00025
   144. RY*(  31)Br   3                  0.00025
   145. RY*(  32)Br   3                  0.00024
   146. RY*(  33)Br   3                  0.00022
   147. RY*(  34)Br   3                  0.00022
   148. RY*(  35)Br   3                  0.00017
   149. RY*(  36)Br   3                  0.00015
   150. RY*(  37)Br   3                  0.00016
   151. RY*(  38)Br   3                  0.00010
   152. RY*(  39)Br   3                  0.00007
   153. RY*(  40)Br   3                  0.00007
   154. RY*(  41)Br   3                  0.00004
       -------------------------------
              Total Lewis   35.71798  ( 99.5783%)
        Valence non-Lewis    0.00000  (  0.0000%)
        Rydberg non-Lewis    0.15127  (  0.4217%)
       -------------------------------
            Total unit  2   35.86926  (100.0000%)
           Charge unit  2   -0.86926
 Leave Link  607 at Tue Oct 12 14:24:17 2021, MaxMem=  1048576000 cpu:         9.5
 (Enter /usr/local/gaussian/g09/l9999.exe)
 1\1\GINC-KRYPTON\SP\RMP2-FC\Aug-CC-pVTZ\Br1Cl1H1O1(1-)\CGAVINH\12-Oct-
 2021\0\\#p pop=NBO SP NoSymm mp2/aug-cc-pvtz density=current\\title\\-
 1,1\O\X,1,10.\Cl,1,1.68432554,2,90.\Br,1,3.07381752,2,90.,3,103.420351
 85,0\H,1,1.,2,90.,3,103.42035185,0\\Version=ES64L-G09RevE.01\HF=-3107.
 4793177\MP2=-3108.182591\RMSD=4.637e-09\Dipole=0.8294343,0.8456933,0.\
 Quadrupole=7.3427127,-16.3570352,9.0143224,-6.3505143,0.,0.\PG=CS [SG(
 Br1Cl1H1O1)]\\@


 SATCHEL PAIGE'S GUIDE TO LONGEVITY

    1.  AVOID FRIED MEATS, WHICH ANGRY UP THE BLOOD.

    2.  IF YOUR STOMACH DISPUTES YOU, LIE DOWN AND PACIFY IT WITH COOL
        THOUGHTS.

    3.  KEEP THE JUICES FLOWING BY JANGLING AROUND GENTLY AS YOU MOVE.

    4.  GO VERY LIGHT ON THE VICES, SUCH AS CARRYING ON IN SOCIETY.
        THE SOCIAL RUMBLE AIN'T RESTFUL.

    5.  AVOID RUNNING AT ALL TIMES.

    6.  DON'T LOOK BACK.  SOMETHING MAY BE GAINING ON YOU.
 Job cpu time:       0 days  0 hours  2 minutes 34.1 seconds.
 File lengths (MBytes):  RWF=     14 Int=      0 D2E=      0 Chk=      4 Scr=      1
 Normal termination of Gaussian 09 at Tue Oct 12 14:24:17 2021.
