 Entering Gaussian System, Link 0=g09
 Input=brhocl_rOH_080_sp.gjf
 Output=brhocl_rOH_080_sp.log
 Initial command:
 /usr/local/gaussian/g09/l1.exe "/scratch/Gau-16743.inp" -scrdir="/scratch/"
 Entering Link 1 = /usr/local/gaussian/g09/l1.exe PID=     16744.
  
 Copyright (c) 1988,1990,1992,1993,1995,1998,2003,2009,2015,
            Gaussian, Inc.  All Rights Reserved.
  
 This is part of the Gaussian(R) 09 program.  It is based on
 the Gaussian(R) 03 system (copyright 2003, Gaussian, Inc.),
 the Gaussian(R) 98 system (copyright 1998, Gaussian, Inc.),
 the Gaussian(R) 94 system (copyright 1995, Gaussian, Inc.),
 the Gaussian 92(TM) system (copyright 1992, Gaussian, Inc.),
 the Gaussian 90(TM) system (copyright 1990, Gaussian, Inc.),
 the Gaussian 88(TM) system (copyright 1988, Gaussian, Inc.),
 the Gaussian 86(TM) system (copyright 1986, Carnegie Mellon
 University), and the Gaussian 82(TM) system (copyright 1983,
 Carnegie Mellon University). Gaussian is a federally registered
 trademark of Gaussian, Inc.
  
 This software contains proprietary and confidential information,
 including trade secrets, belonging to Gaussian, Inc.
  
 This software is provided under written license and may be
 used, copied, transmitted, or stored only in accord with that
 written license.
  
 The following legend is applicable only to US Government
 contracts under FAR:
  
                    RESTRICTED RIGHTS LEGEND
  
 Use, reproduction and disclosure by the US Government is
 subject to restrictions as set forth in subparagraphs (a)
 and (c) of the Commercial Computer Software - Restricted
 Rights clause in FAR 52.227-19.
  
 Gaussian, Inc.
 340 Quinnipiac St., Bldg. 40, Wallingford CT 06492
  
  
 ---------------------------------------------------------------
 Warning -- This program may not be used in any manner that
 competes with the business of Gaussian, Inc. or will provide
 assistance to any competitor of Gaussian, Inc.  The licensee
 of this program is prohibited from giving any competitor of
 Gaussian, Inc. access to this program.  By using this program,
 the user acknowledges that Gaussian, Inc. is engaged in the
 business of creating and licensing software in the field of
 computational chemistry and represents and warrants to the
 licensee that it is not a competitor of Gaussian, Inc. and that
 it will not use this program in any manner prohibited above.
 ---------------------------------------------------------------
  

 Cite this work as:
 Gaussian 09, Revision E.01,
 M. J. Frisch, G. W. Trucks, H. B. Schlegel, G. E. Scuseria, 
 M. A. Robb, J. R. Cheeseman, G. Scalmani, V. Barone, B. Mennucci, 
 G. A. Petersson, H. Nakatsuji, M. Caricato, X. Li, H. P. Hratchian, 
 A. F. Izmaylov, J. Bloino, G. Zheng, J. L. Sonnenberg, M. Hada, 
 M. Ehara, K. Toyota, R. Fukuda, J. Hasegawa, M. Ishida, T. Nakajima, 
 Y. Honda, O. Kitao, H. Nakai, T. Vreven, J. A. Montgomery, Jr., 
 J. E. Peralta, F. Ogliaro, M. Bearpark, J. J. Heyd, E. Brothers, 
 K. N. Kudin, V. N. Staroverov, T. Keith, R. Kobayashi, J. Normand, 
 K. Raghavachari, A. Rendell, J. C. Burant, S. S. Iyengar, J. Tomasi, 
 M. Cossi, N. Rega, J. M. Millam, M. Klene, J. E. Knox, J. B. Cross, 
 V. Bakken, C. Adamo, J. Jaramillo, R. Gomperts, R. E. Stratmann, 
 O. Yazyev, A. J. Austin, R. Cammi, C. Pomelli, J. W. Ochterski, 
 R. L. Martin, K. Morokuma, V. G. Zakrzewski, G. A. Voth, 
 P. Salvador, J. J. Dannenberg, S. Dapprich, A. D. Daniels, 
 O. Farkas, J. B. Foresman, J. V. Ortiz, J. Cioslowski, 
 and D. J. Fox, Gaussian, Inc., Wallingford CT, 2013.
 
 ******************************************
 Gaussian 09:  ES64L-G09RevE.01 30-Nov-2015
                12-Oct-2021 
 ******************************************
 %nproc=12
 Will use up to   12 processors via shared memory.
 %mem=8000MB
 %chk=/home/netid.washington.edu/cgavinh/mccoy_hocl/rOH_s_oop_0/brhocl/brhocl_rOH
 _080_sp.chk
 ----------------------------------------------------
 #p pop=NBO SP NoSymm mp2/aug-cc-pvtz density=current
 ----------------------------------------------------
 1/30=1,38=1/1;
 2/12=2,15=1,17=6,18=5,40=1/2;
 3/5=16,6=1,7=10,11=9,16=1,25=1,30=1,71=1/1,2,3;
 4//1;
 5/5=2,38=5/2;
 8/6=4,10=1/1;
 9/15=1,16=-3/6;
 10/5=1,13=10,31=1/2;
 6/7=2,8=2,9=2,10=2,22=-1,40=1/1,7;
 99/5=1,9=1/99;
 Leave Link    1 at Tue Oct 12 14:22:53 2021, MaxMem=  1048576000 cpu:         0.2
 (Enter /usr/local/gaussian/g09/l101.exe)
 -----
 title
 -----
 Symbolic Z-matrix:
 Charge = -1 Multiplicity = 1
 O
 X                    1     10. 
 Cl                   1    r1       2     90. 
 Br                   1    r2       2     90.      3    a1       0
 H                    1    r3       2    oop      3    a1       0
       Variables:
  r1                    1.68433                  
  r2                    3.07382                  
  r3                    0.8                      
  a1                  103.42035                  
  OOP                  90.                       
 
 NAtoms=      4 NQM=        4 NQMF=       0 NMMI=      0 NMMIF=      0
                NMic=       0 NMicF=      0.
                    Isotopes and Nuclear Properties:
 (Nuclear quadrupole moments (NQMom) in fm**2, nuclear magnetic moments (NMagM)
  in nuclear magnetons)

  Atom         1           2           3           4
 IAtWgt=          16          35          79           1
 AtmWgt=  15.9949146  34.9688527  78.9183361   1.0078250
 NucSpn=           0           3           3           1
 AtZEff=   0.0000000   0.0000000   0.0000000   0.0000000
 NQMom=    0.0000000  -8.1650000  31.3000000   0.0000000
 NMagM=    0.0000000   0.8218740   2.1063990   2.7928460
 AtZNuc=   8.0000000  17.0000000  35.0000000   1.0000000
 Leave Link  101 at Tue Oct 12 14:22:53 2021, MaxMem=  1048576000 cpu:         0.4
 (Enter /usr/local/gaussian/g09/l202.exe)
                          Input orientation:                          
 ---------------------------------------------------------------------
 Center     Atomic      Atomic             Coordinates (Angstroms)
 Number     Number       Type             X           Y           Z
 ---------------------------------------------------------------------
      1          8           0        0.000000    0.000000    0.000000
      2         17           0        1.684326    0.000000    0.000000
      3         35           0       -0.713413   -2.989882    0.000000
      4          1           0       -0.185675   -0.778155    0.000000
 ---------------------------------------------------------------------
                    Distance matrix (angstroms):
                    1          2          3          4
     1  O    0.000000
     2  Cl   1.684326   0.000000
     3  Br   3.073818   3.832564   0.000000
     4  H    0.800000   2.025445   2.273818   0.000000
 Symmetry turned off by external request.
 Stoichiometry    BrClHO(1-)
 Framework group  CS[SG(BrClHO)]
 Deg. of freedom     5
 Full point group                 CS      NOp   2
 Rotational constants (GHZ):     22.5346897      1.2799787      1.2111831
 Leave Link  202 at Tue Oct 12 14:22:53 2021, MaxMem=  1048576000 cpu:         0.0
 (Enter /usr/local/gaussian/g09/l301.exe)
 Standard basis: Aug-CC-pVTZ (5D, 7F)
 Ernie: Thresh=  0.10000D-02 Tol=  0.10000D-05 Strict=F.
 Ernie:  48 primitive shells out of 228 were deleted.
   178 basis functions,   430 primitive gaussians,   208 cartesian basis functions
    31 alpha electrons       31 beta electrons
       nuclear repulsion energy       190.9646110524 Hartrees.
 IExCor=    0 DFT=F Ex=HF Corr=None ExCW=0 ScaHFX=  1.000000
 ScaDFX=  1.000000  1.000000  1.000000  1.000000 ScalE2=  1.000000  1.000000
 IRadAn=      0 IRanWt=     -1 IRanGd=            0 ICorTp=0 IEmpDi=  4
 NAtoms=    4 NActive=    4 NUniq=    4 SFac= 1.00D+00 NAtFMM=   60 NAOKFM=F Big=F
 Integral buffers will be    131072 words long.
 Raffenetti 1 integral format.
 Two-electron integral symmetry is turned off.
 Leave Link  301 at Tue Oct 12 14:22:53 2021, MaxMem=  1048576000 cpu:         0.3
 (Enter /usr/local/gaussian/g09/l302.exe)
 NPDir=0 NMtPBC=     1 NCelOv=     1 NCel=       1 NClECP=     1 NCelD=      1
         NCelK=      1 NCelE2=     1 NClLst=     1 CellRange=     0.0.
 One-electron integrals computed using PRISM.
 NBasis=   178 RedAO= T EigKep=  1.77D-04  NBF=   178
 NBsUse=   178 1.00D-06 EigRej= -1.00D+00 NBFU=   178
 Leave Link  302 at Tue Oct 12 14:22:53 2021, MaxMem=  1048576000 cpu:         1.7
 (Enter /usr/local/gaussian/g09/l303.exe)
 DipDrv:  MaxL=1.
 Leave Link  303 at Tue Oct 12 14:22:53 2021, MaxMem=  1048576000 cpu:         0.2
 (Enter /usr/local/gaussian/g09/l401.exe)
 ExpMin= 2.53D-02 ExpMax= 1.06D+07 ExpMxC= 1.21D+04 IAcc=3 IRadAn=         5 AccDes= 0.00D+00
 Harris functional with IExCor=  205 and IRadAn=       5 diagonalized for initial guess.
 HarFok:  IExCor=  205 AccDes= 0.00D+00 IRadAn=         5 IDoV= 1 UseB2=F ITyADJ=14
 ICtDFT=  3500011 ScaDFX=  1.000000  1.000000  1.000000  1.000000
 FoFCou: FMM=F IPFlag=           0 FMFlag=      100000 FMFlg1=           0
         NFxFlg=           0 DoJE=T BraDBF=F KetDBF=T FulRan=T
         wScrn=  0.000000 ICntrl=     500 IOpCl=  0 I1Cent=   200000004 NGrid=           0
         NMat0=    1 NMatS0=      1 NMatT0=    0 NMatD0=    1 NMtDS0=    0 NMtDT0=    0
 Symmetry not used in FoFCou.
 Harris En= -3106.36385182490    
 JPrj=0 DoOrth=F DoCkMO=F.
 Leave Link  401 at Tue Oct 12 14:22:54 2021, MaxMem=  1048576000 cpu:         3.3
 (Enter /usr/local/gaussian/g09/l502.exe)
 Closed shell SCF:
 Using DIIS extrapolation, IDIIS=  1040.
 Two-electron integral symmetry not used.
 Keep R1 ints in memory in canonical form, NReq=131623000.
 IVT=      152094 IEndB=      152094 NGot=  1048576000 MDV=   921517561
 LenX=   921517561 LenY=   921473856
 Requested convergence on RMS density matrix=1.00D-08 within 128 cycles.
 Requested convergence on MAX density matrix=1.00D-06.
 Requested convergence on             energy=1.00D-06.
 No special actions if energy rises.
 FoFCou: FMM=F IPFlag=           0 FMFlag=           0 FMFlg1=           0
         NFxFlg=           0 DoJE=F BraDBF=F KetDBF=F FulRan=T
         wScrn=  0.000000 ICntrl=     600 IOpCl=  0 I1Cent=           0 NGrid=           0
         NMat0=    1 NMatS0=  15931 NMatT0=    0 NMatD0=    1 NMtDS0=    0 NMtDT0=    0
 Symmetry not used in FoFCou.

 Cycle   1  Pass 1  IDiag  1:
 E= -3107.24574821184    
 DIIS: error= 4.95D-02 at cycle   1 NSaved=   1.
 NSaved= 1 IEnMin= 1 EnMin= -3107.24574821184     IErMin= 1 ErrMin= 4.95D-02
 ErrMax= 4.95D-02  0.00D+00 EMaxC= 1.00D-01 BMatC= 6.79D-01 BMatP= 6.79D-01
 IDIUse=3 WtCom= 5.05D-01 WtEn= 4.95D-01
 Coeff-Com:  0.100D+01
 Coeff-En:   0.100D+01
 Coeff:      0.100D+01
 Gap=     0.582 Goal=   None    Shift=    0.000
 GapD=    0.582 DampG=2.000 DampE=0.500 DampFc=1.0000 IDamp=-1.
 RMSDP=3.15D-03 MaxDP=9.58D-02              OVMax= 1.29D-01

 Cycle   2  Pass 1  IDiag  1:
 E= -3107.39759610081     Delta-E=       -0.151847888975 Rises=F Damp=F
 DIIS: error= 2.08D-02 at cycle   2 NSaved=   2.
 NSaved= 2 IEnMin= 2 EnMin= -3107.39759610081     IErMin= 2 ErrMin= 2.08D-02
 ErrMax= 2.08D-02  0.00D+00 EMaxC= 1.00D-01 BMatC= 6.76D-02 BMatP= 6.79D-01
 IDIUse=3 WtCom= 7.92D-01 WtEn= 2.08D-01
 Coeff-Com:  0.174D+00 0.826D+00
 Coeff-En:   0.000D+00 0.100D+01
 Coeff:      0.138D+00 0.862D+00
 Gap=     0.321 Goal=   None    Shift=    0.000
 RMSDP=1.21D-03 MaxDP=4.23D-02 DE=-1.52D-01 OVMax= 9.13D-02

 Cycle   3  Pass 1  IDiag  1:
 E= -3107.43035252102     Delta-E=       -0.032756420212 Rises=F Damp=F
 DIIS: error= 9.46D-03 at cycle   3 NSaved=   3.
 NSaved= 3 IEnMin= 3 EnMin= -3107.43035252102     IErMin= 3 ErrMin= 9.46D-03
 ErrMax= 9.46D-03  0.00D+00 EMaxC= 1.00D-01 BMatC= 1.67D-02 BMatP= 6.76D-02
 IDIUse=3 WtCom= 9.05D-01 WtEn= 9.46D-02
 Coeff-Com:  0.499D-02 0.329D+00 0.666D+00
 Coeff-En:   0.000D+00 0.929D-01 0.907D+00
 Coeff:      0.452D-02 0.306D+00 0.689D+00
 Gap=     0.317 Goal=   None    Shift=    0.000
 RMSDP=3.70D-04 MaxDP=1.56D-02 DE=-3.28D-02 OVMax= 3.94D-02

 Cycle   4  Pass 1  IDiag  1:
 E= -3107.44156744503     Delta-E=       -0.011214924003 Rises=F Damp=F
 DIIS: error= 1.42D-03 at cycle   4 NSaved=   4.
 NSaved= 4 IEnMin= 4 EnMin= -3107.44156744503     IErMin= 4 ErrMin= 1.42D-03
 ErrMax= 1.42D-03  0.00D+00 EMaxC= 1.00D-01 BMatC= 1.94D-04 BMatP= 1.67D-02
 IDIUse=3 WtCom= 9.86D-01 WtEn= 1.42D-02
 Coeff-Com: -0.512D-02-0.370D-01 0.274D-01 0.101D+01
 Coeff-En:   0.000D+00 0.000D+00 0.000D+00 0.100D+01
 Coeff:     -0.504D-02-0.365D-01 0.270D-01 0.101D+01
 Gap=     0.316 Goal=   None    Shift=    0.000
 RMSDP=6.36D-05 MaxDP=1.46D-03 DE=-1.12D-02 OVMax= 3.79D-03

 Cycle   5  Pass 1  IDiag  1:
 E= -3107.44178631008     Delta-E=       -0.000218865052 Rises=F Damp=F
 DIIS: error= 3.03D-04 at cycle   5 NSaved=   5.
 NSaved= 5 IEnMin= 5 EnMin= -3107.44178631008     IErMin= 5 ErrMin= 3.03D-04
 ErrMax= 3.03D-04  0.00D+00 EMaxC= 1.00D-01 BMatC= 1.29D-05 BMatP= 1.94D-04
 IDIUse=3 WtCom= 9.97D-01 WtEn= 3.03D-03
 Coeff-Com:  0.967D-03-0.132D-01-0.361D-01-0.198D+00 0.125D+01
 Coeff-En:   0.000D+00 0.000D+00 0.000D+00 0.000D+00 0.100D+01
 Coeff:      0.964D-03-0.132D-01-0.360D-01-0.198D+00 0.125D+01
 Gap=     0.317 Goal=   None    Shift=    0.000
 RMSDP=3.19D-05 MaxDP=1.07D-03 DE=-2.19D-04 OVMax= 2.92D-03

 Cycle   6  Pass 1  IDiag  1:
 E= -3107.44182275217     Delta-E=       -0.000036442093 Rises=F Damp=F
 DIIS: error= 1.22D-04 at cycle   6 NSaved=   6.
 NSaved= 6 IEnMin= 6 EnMin= -3107.44182275217     IErMin= 6 ErrMin= 1.22D-04
 ErrMax= 1.22D-04  0.00D+00 EMaxC= 1.00D-01 BMatC= 1.76D-06 BMatP= 1.29D-05
 IDIUse=3 WtCom= 9.99D-01 WtEn= 1.22D-03
 Coeff-Com:  0.405D-03 0.434D-02 0.142D-02-0.109D+00-0.940D-01 0.120D+01
 Coeff-En:   0.000D+00 0.000D+00 0.000D+00 0.000D+00 0.000D+00 0.100D+01
 Coeff:      0.405D-03 0.434D-02 0.142D-02-0.109D+00-0.939D-01 0.120D+01
 Gap=     0.317 Goal=   None    Shift=    0.000
 RMSDP=1.35D-05 MaxDP=5.06D-04 DE=-3.64D-05 OVMax= 1.38D-03

 Cycle   7  Pass 1  IDiag  1:
 E= -3107.44182895381     Delta-E=       -0.000006201637 Rises=F Damp=F
 DIIS: error= 4.06D-05 at cycle   7 NSaved=   7.
 NSaved= 7 IEnMin= 7 EnMin= -3107.44182895381     IErMin= 7 ErrMin= 4.06D-05
 ErrMax= 4.06D-05  0.00D+00 EMaxC= 1.00D-01 BMatC= 2.01D-07 BMatP= 1.76D-06
 IDIUse=1 WtCom= 1.00D+00 WtEn= 0.00D+00
 Coeff-Com: -0.237D-03 0.654D-03 0.570D-02 0.543D-01-0.172D+00-0.209D+00
 Coeff-Com:  0.132D+01
 Coeff:     -0.237D-03 0.654D-03 0.570D-02 0.543D-01-0.172D+00-0.209D+00
 Coeff:      0.132D+01
 Gap=     0.317 Goal=   None    Shift=    0.000
 RMSDP=5.67D-06 MaxDP=1.77D-04 DE=-6.20D-06 OVMax= 6.23D-04

 Cycle   8  Pass 1  IDiag  1:
 E= -3107.44182975358     Delta-E=       -0.000000799770 Rises=F Damp=F
 DIIS: error= 9.90D-06 at cycle   8 NSaved=   8.
 NSaved= 8 IEnMin= 8 EnMin= -3107.44182975358     IErMin= 8 ErrMin= 9.90D-06
 ErrMax= 9.90D-06  0.00D+00 EMaxC= 1.00D-01 BMatC= 1.27D-08 BMatP= 2.01D-07
 IDIUse=1 WtCom= 1.00D+00 WtEn= 0.00D+00
 Coeff-Com:  0.196D-04-0.599D-03-0.131D-02-0.312D-02 0.354D-01-0.904D-02
 Coeff-Com: -0.340D+00 0.132D+01
 Coeff:      0.196D-04-0.599D-03-0.131D-02-0.312D-02 0.354D-01-0.904D-02
 Coeff:     -0.340D+00 0.132D+01
 Gap=     0.317 Goal=   None    Shift=    0.000
 RMSDP=1.56D-06 MaxDP=4.17D-05 DE=-8.00D-07 OVMax= 1.97D-04

 Cycle   9  Pass 1  IDiag  1:
 E= -3107.44182980908     Delta-E=       -0.000000055504 Rises=F Damp=F
 DIIS: error= 3.69D-06 at cycle   9 NSaved=   9.
 NSaved= 9 IEnMin= 9 EnMin= -3107.44182980908     IErMin= 9 ErrMin= 3.69D-06
 ErrMax= 3.69D-06  0.00D+00 EMaxC= 1.00D-01 BMatC= 1.57D-09 BMatP= 1.27D-08
 IDIUse=1 WtCom= 1.00D+00 WtEn= 0.00D+00
 Coeff-Com:  0.116D-04 0.141D-03-0.369D-04-0.349D-02 0.257D-02 0.248D-01
 Coeff-Com: -0.710D-02-0.461D+00 0.144D+01
 Coeff:      0.116D-04 0.141D-03-0.369D-04-0.349D-02 0.257D-02 0.248D-01
 Coeff:     -0.710D-02-0.461D+00 0.144D+01
 Gap=     0.317 Goal=   None    Shift=    0.000
 RMSDP=6.09D-07 MaxDP=1.98D-05 DE=-5.55D-08 OVMax= 8.35D-05

 Cycle  10  Pass 1  IDiag  1:
 E= -3107.44182981734     Delta-E=       -0.000000008261 Rises=F Damp=F
 DIIS: error= 1.45D-06 at cycle  10 NSaved=  10.
 NSaved=10 IEnMin=10 EnMin= -3107.44182981734     IErMin=10 ErrMin= 1.45D-06
 ErrMax= 1.45D-06  0.00D+00 EMaxC= 1.00D-01 BMatC= 1.97D-10 BMatP= 1.57D-09
 IDIUse=1 WtCom= 1.00D+00 WtEn= 0.00D+00
 Coeff-Com: -0.392D-05 0.817D-04 0.195D-03 0.918D-03-0.614D-02-0.577D-03
 Coeff-Com:  0.549D-01-0.177D+00-0.859D-01 0.121D+01
 Coeff:     -0.392D-05 0.817D-04 0.195D-03 0.918D-03-0.614D-02-0.577D-03
 Coeff:      0.549D-01-0.177D+00-0.859D-01 0.121D+01
 Gap=     0.317 Goal=   None    Shift=    0.000
 RMSDP=2.20D-07 MaxDP=7.58D-06 DE=-8.26D-09 OVMax= 2.94D-05

 Cycle  11  Pass 1  IDiag  1:
 E= -3107.44182981825     Delta-E=       -0.000000000904 Rises=F Damp=F
 DIIS: error= 3.82D-07 at cycle  11 NSaved=  11.
 NSaved=11 IEnMin=11 EnMin= -3107.44182981825     IErMin=11 ErrMin= 3.82D-07
 ErrMax= 3.82D-07  0.00D+00 EMaxC= 1.00D-01 BMatC= 1.16D-11 BMatP= 1.97D-10
 IDIUse=1 WtCom= 1.00D+00 WtEn= 0.00D+00
 Coeff-Com: -0.716D-06-0.186D-04-0.204D-04 0.191D-03 0.449D-03-0.152D-02
 Coeff-Com: -0.744D-02 0.638D-01-0.112D+00-0.184D+00 0.124D+01
 Coeff:     -0.716D-06-0.186D-04-0.204D-04 0.191D-03 0.449D-03-0.152D-02
 Coeff:     -0.744D-02 0.638D-01-0.112D+00-0.184D+00 0.124D+01
 Gap=     0.317 Goal=   None    Shift=    0.000
 RMSDP=5.14D-08 MaxDP=1.82D-06 DE=-9.04D-10 OVMax= 6.30D-06

 Cycle  12  Pass 1  IDiag  1:
 E= -3107.44182981830     Delta-E=       -0.000000000052 Rises=F Damp=F
 DIIS: error= 7.03D-08 at cycle  12 NSaved=  12.
 NSaved=12 IEnMin=12 EnMin= -3107.44182981830     IErMin=12 ErrMin= 7.03D-08
 ErrMax= 7.03D-08  0.00D+00 EMaxC= 1.00D-01 BMatC= 6.79D-13 BMatP= 1.16D-11
 IDIUse=1 WtCom= 1.00D+00 WtEn= 0.00D+00
 Coeff-Com:  0.937D-07-0.688D-05-0.113D-04 0.163D-04 0.277D-03-0.392D-03
 Coeff-Com: -0.217D-02 0.114D-01-0.547D-03-0.732D-01 0.515D-01 0.101D+01
 Coeff:      0.937D-07-0.688D-05-0.113D-04 0.163D-04 0.277D-03-0.392D-03
 Coeff:     -0.217D-02 0.114D-01-0.547D-03-0.732D-01 0.515D-01 0.101D+01
 Gap=     0.317 Goal=   None    Shift=    0.000
 RMSDP=8.75D-09 MaxDP=2.50D-07 DE=-5.18D-11 OVMax= 7.97D-07

 SCF Done:  E(RHF) =  -3107.44182982     A.U. after   12 cycles
            NFock= 12  Conv=0.87D-08     -V/T= 1.9999
 KE= 3.107797936655D+03 PE=-7.824656816210D+03 EE= 1.418452438684D+03
 Leave Link  502 at Tue Oct 12 14:22:57 2021, MaxMem=  1048576000 cpu:        19.0
 (Enter /usr/local/gaussian/g09/l801.exe)
 ExpMin= 2.53D-02 ExpMax= 1.06D+07 ExpMxC= 1.21D+04 IAcc=3 IRadAn=         5 AccDes= 0.00D+00
 HarFok:  IExCor=  205 AccDes= 0.00D+00 IRadAn=         5 IDoV=-2 UseB2=F ITyADJ=14
 ICtDFT= 12500011 ScaDFX=  1.000000  1.000000  1.000000  1.000000
 DSYEVD-2 returned Info=          93 IAlg= 4 N=    46 NDim=    46 NE2=    17770621 trying  DSYEV.
 Largest valence mixing into a core orbital is  4.48D-04
 Largest core mixing into a valence orbital is  1.59D-04
 Range of M.O.s used for correlation:    16   178
 NBasis=   178 NAE=    31 NBE=    31 NFC=    15 NFV=     0
 NROrb=    163 NOA=    16 NOB=    16 NVA=   147 NVB=   147

 **** Warning!!: The largest alpha MO coefficient is  0.18237568D+02

 Leave Link  801 at Tue Oct 12 14:22:57 2021, MaxMem=  1048576000 cpu:         0.7
 (Enter /usr/local/gaussian/g09/l906.exe)
 Frozen-core derivative calculation, NFC=  15 NFV=   0.
 FulOut=F Deriv=T AODrv=F NAtomX=     4
   MMem=         227  MDisk=          16 MDiskD=          16
  W3Min=     1147744 MinDsk=     1765480 NBas6D=         208
 NBas2D=       22240    NTT=       21736    LW2=     9911920
    MDV=  1048101889 MDiskM=       25146 NBas2p=       22041
 Fully in-core method, ICMem=   526646768.
 IMap=   1   2   3   4   5   6   7   8   9  10  11  12  13  14  15  16  17  18  19  20
 IMap=  21  22  23  24  25  26  27  28  29  30  31
 JobTyp=1 Pass  1 fully in-core, NPsUse= 12.
 Compute canonical integrals.
 FoFCou: FMM=F IPFlag=           0 FMFlag=           0 FMFlg1=           0
         NFxFlg=           0 DoJE=F BraDBF=F KetDBF=F FulRan=T
         wScrn=  0.000000 ICntrl=     600 IOpCl=  1 I1Cent=           0 NGrid=           0
         NMat0=    1 NMatS0=  22240 NMatT0=    0 NMatD0=    1 NMtDS0=    0 NMtDT0=    0
 Symmetry not used in FoFCou.
 Spin components of T(2) and E(2):
     alpha-alpha T2 =       0.2897214071D-01 E2=     -0.9205068582D-01
     alpha-beta  T2 =       0.1557544339D+00 E2=     -0.5077111416D+00
     beta-beta   T2 =       0.2897214071D-01 E2=     -0.9205068582D-01
 The integrals were generated   1 times.
 ANorm=    0.1101679951D+01
 E2 =    -0.6918125132D+00 EUMP2 =    -0.31081336423315D+04
 Leave Link  906 at Tue Oct 12 14:23:05 2021, MaxMem=  1048576000 cpu:        97.5
 (Enter /usr/local/gaussian/g09/l1002.exe)
 Minotr:  Closed shell wavefunction.
          Computing MP2/KS-MP2 derivatives.
          Using Z-Vector for PSCF gradient.
          Skipping F1 and S1 gradient terms here.
          Frozen-core window.
          Direct CPHF calculation.
          Differentiating once with respect to electric field.
                with respect to dipole field.
          Electric field/nuclear overlap derivatives assumed to be zero.
          Requested convergence is 1.0D-10 RMS, and 1.0D-09 maximum.
          NewPWx=F KeepS1=T KeepF1=T KeepIn=T MapXYZ=F SortEE=F KeepMc=T.
          MDV=    1048575801 using IRadAn=       0.
 Keep R1 ints in memory in canonical form, NReq=131472178.
 FoFCou: FMM=F IPFlag=           0 FMFlag=           0 FMFlg1=           0
         NFxFlg=           0 DoJE=F BraDBF=F KetDBF=F FulRan=T
         wScrn=  0.000000 ICntrl=     600 IOpCl=  0 I1Cent=           0 NGrid=           0
         NMat0=    1 NMatS0=  15931 NMatT0=    0 NMatD0=    1 NMtDS0=    0 NMtDT0=    0
 Symmetry not used in FoFCou.
          Solving linear equations separately, MaxMat=       0.
          There are     1 degrees of freedom in the 1st order CPHF.  IDoFFX=0 NUNeed=     1.
 LinEq1:  Iter=  0 NonCon=     1 RMS=2.42D-03 Max=4.04D-02 NDo=     1
 AX will form     1 AO Fock derivatives at one time.
 LinEq1:  Iter=  1 NonCon=     1 RMS=3.79D-04 Max=4.69D-03 NDo=     1
 LinEq1:  Iter=  2 NonCon=     1 RMS=1.70D-04 Max=2.86D-03 NDo=     1
 LinEq1:  Iter=  3 NonCon=     1 RMS=4.88D-05 Max=7.41D-04 NDo=     1
 LinEq1:  Iter=  4 NonCon=     1 RMS=1.52D-05 Max=5.79D-04 NDo=     1
 LinEq1:  Iter=  5 NonCon=     1 RMS=6.25D-06 Max=1.02D-04 NDo=     1
 LinEq1:  Iter=  6 NonCon=     1 RMS=1.65D-06 Max=2.60D-05 NDo=     1
 LinEq1:  Iter=  7 NonCon=     1 RMS=3.85D-07 Max=4.80D-06 NDo=     1
 LinEq1:  Iter=  8 NonCon=     1 RMS=1.00D-07 Max=1.34D-06 NDo=     1
 LinEq1:  Iter=  9 NonCon=     1 RMS=2.21D-08 Max=3.77D-07 NDo=     1
 LinEq1:  Iter= 10 NonCon=     1 RMS=5.66D-09 Max=1.45D-07 NDo=     1
 LinEq1:  Iter= 11 NonCon=     1 RMS=1.48D-09 Max=4.44D-08 NDo=     1
 LinEq1:  Iter= 12 NonCon=     1 RMS=3.72D-10 Max=8.46D-09 NDo=     1
 LinEq1:  Iter= 13 NonCon=     1 RMS=9.94D-11 Max=1.50D-09 NDo=     1
 LinEq1:  Iter= 14 NonCon=     0 RMS=1.95D-11 Max=3.57D-10 NDo=     1
 Linear equations converged to 1.000D-10 1.000D-09 after    14 iterations.
 End of Minotr F.D. properties file   721 does not exist.
 End of Minotr F.D. properties file   722 does not exist.
 End of Minotr F.D. properties file   788 does not exist.
 Leave Link 1002 at Tue Oct 12 14:23:09 2021, MaxMem=  1048576000 cpu:        18.6
 (Enter /usr/local/gaussian/g09/l601.exe)
 Copying SCF densities to generalized density rwf, IOpCl= 0 IROHF=0.

 **********************************************************************

            Population analysis using the MP2 density.

 **********************************************************************

 Alpha  occ. eigenvalues -- -489.74266-104.74778 -64.88299 -58.23747 -58.23747
 Alpha  occ. eigenvalues --  -58.23745 -20.46356 -10.46705  -9.55549  -7.93425
 Alpha  occ. eigenvalues --   -7.93145  -7.93133  -7.16304  -7.16287  -7.16286
 Alpha  occ. eigenvalues --   -2.90466  -2.90460  -2.90458  -2.90444  -2.90443
 Alpha  occ. eigenvalues --   -1.30060  -0.93111  -0.71582  -0.60274  -0.46419
 Alpha  occ. eigenvalues --   -0.45641  -0.32717  -0.29880  -0.17196  -0.16389
 Alpha  occ. eigenvalues --   -0.16388
 Alpha virt. eigenvalues --    0.15291   0.17615   0.21756   0.22599   0.24158
 Alpha virt. eigenvalues --    0.24849   0.25159   0.27474   0.29815   0.30689
 Alpha virt. eigenvalues --    0.31759   0.32799   0.35849   0.42560   0.43710
 Alpha virt. eigenvalues --    0.47464   0.48524   0.49021   0.51674   0.54011
 Alpha virt. eigenvalues --    0.54886   0.56217   0.58454   0.59766   0.60356
 Alpha virt. eigenvalues --    0.61560   0.64715   0.71264   0.74161   0.75105
 Alpha virt. eigenvalues --    0.76208   0.76836   0.79064   0.86076   0.88147
 Alpha virt. eigenvalues --    0.88361   0.91477   0.94077   0.99103   1.01028
 Alpha virt. eigenvalues --    1.01327   1.01607   1.02868   1.03726   1.06414
 Alpha virt. eigenvalues --    1.06768   1.09261   1.10849   1.12265   1.13745
 Alpha virt. eigenvalues --    1.16500   1.18860   1.19082   1.19272   1.21811
 Alpha virt. eigenvalues --    1.21992   1.26497   1.28768   1.33311   1.33317
 Alpha virt. eigenvalues --    1.35768   1.37809   1.45837   1.50722   1.52901
 Alpha virt. eigenvalues --    1.57021   1.58039   1.63213   1.65392   1.67370
 Alpha virt. eigenvalues --    1.71621   1.73104   1.77732   1.88133   1.93884
 Alpha virt. eigenvalues --    1.95737   2.10378   2.36395   2.40296   2.41606
 Alpha virt. eigenvalues --    2.42595   2.47634   2.50875   2.51852   2.53543
 Alpha virt. eigenvalues --    2.53614   2.55608   2.55803   2.56242   2.56842
 Alpha virt. eigenvalues --    2.59457   2.61031   2.63802   2.66266   2.66683
 Alpha virt. eigenvalues --    2.67612   2.68112   2.69529   2.71149   2.72727
 Alpha virt. eigenvalues --    2.74687   2.76790   2.79966   2.80511   2.84383
 Alpha virt. eigenvalues --    2.96517   3.06685   3.08521   3.10763   3.16279
 Alpha virt. eigenvalues --    3.18710   3.20529   3.24556   3.30276   3.31317
 Alpha virt. eigenvalues --    3.35359   3.53769   3.54063   3.58120   3.98635
 Alpha virt. eigenvalues --    4.20038   4.49222   4.53033   4.73856   4.75338
 Alpha virt. eigenvalues --    4.78139   4.82854   5.10919   5.27661   5.93654
 Alpha virt. eigenvalues --    6.07531   6.21243   6.43852   6.63166   6.87729
 Alpha virt. eigenvalues --    6.90122   6.92921   7.03892   7.29536   7.39280
 Alpha virt. eigenvalues --    7.41984   7.87423   8.01179   8.04490   8.61673
 Alpha virt. eigenvalues --    8.91756  19.85569
          Condensed to atoms (all electrons):
               1          2          3          4
     1  O    8.364282  -0.079126  -0.070185   0.065092
     2  Cl  -0.079126  17.021757   0.001500  -0.023988
     3  Br  -0.070185   0.001500  35.952614   0.042835
     4  H    0.065092  -0.023988   0.042835   0.789091
 Mulliken charges:
               1
     1  O   -0.280064
     2  Cl   0.079857
     3  Br  -0.926764
     4  H    0.126970
 Sum of Mulliken charges =  -1.00000
 Mulliken charges with hydrogens summed into heavy atoms:
               1
     1  O   -0.153093
     2  Cl   0.079857
     3  Br  -0.926764
 Electronic spatial extent (au):  <R**2>=           1480.8113
 Charge=             -1.0000 electrons
 Dipole moment (field-independent basis, Debye):
    X=              2.3892    Y=             11.4876    Z=              0.0000  Tot=             11.7334
 Quadrupole moment (field-independent basis, Debye-Ang):
   XX=            -44.9663   YY=            -80.4920   ZZ=            -43.1765
   XY=             -9.2995   XZ=             -0.0000   YZ=             -0.0000
 Traceless Quadrupole moment (field-independent basis, Debye-Ang):
   XX=             11.2453   YY=            -24.2804   ZZ=             13.0351
   XY=             -9.2995   XZ=             -0.0000   YZ=             -0.0000
 Octapole moment (field-independent basis, Debye-Ang**2):
  XXX=            -10.6360  YYY=            323.5871  ZZZ=              0.0000  XYY=             21.4537
  XXY=             76.3978  XXZ=              0.0000  XZZ=             -5.8736  YZZ=             70.3303
  YYZ=              0.0000  XYZ=              0.0000
 Hexadecapole moment (field-independent basis, Debye-Ang**3):
 XXXX=           -337.1895 YYYY=          -1648.8621 ZZZZ=            -63.0961 XXXY=           -156.0825
 XXXZ=             -0.0000 YYYX=           -230.1698 YYYZ=             -0.0000 ZZZX=             -0.0000
 ZZZY=             -0.0000 XXYY=           -299.9053 XXZZ=            -71.9107 YYZZ=           -230.7623
 XXYZ=             -0.0000 YYXZ=             -0.0000 ZZXY=            -50.4070
 N-N= 1.909646110524D+02 E-N=-7.823218908319D+03  KE= 3.107797523979D+03
 No NMR shielding tensors so no spin-rotation constants.
 Leave Link  601 at Tue Oct 12 14:23:09 2021, MaxMem=  1048576000 cpu:         2.3
 (Enter /usr/local/gaussian/g09/l607.exe)
 ******************************Gaussian NBO Version 3.1******************************
             N A T U R A L   A T O M I C   O R B I T A L   A N D
          N A T U R A L   B O N D   O R B I T A L   A N A L Y S I S
 ******************************Gaussian NBO Version 3.1******************************
       /RESON  / : Allow strongly delocalized NBO set

 Analyzing the MP2 density

 Job title: title                                                           

 Storage needed:     95974 in NPA,    127345 in NBO (1048575896 available)


 NATURAL POPULATIONS:  Natural atomic orbital occupancies 
                                                          
   NAO  Atom  No  lang   Type(AO)    Occupancy
 --------------------------------------------
     1    O    1  S      Cor( 1S)     1.99946
     2    O    1  S      Val( 2S)     1.71150
     3    O    1  S      Ryd( 3S)     0.00938
     4    O    1  S      Ryd( 4S)     0.00094
     5    O    1  S      Ryd( 5S)     0.00019
     6    O    1  px     Val( 2p)     1.21836
     7    O    1  px     Ryd( 3p)     0.00588
     8    O    1  px     Ryd( 4p)     0.00061
     9    O    1  px     Ryd( 5p)     0.00025
    10    O    1  py     Val( 2p)     1.67300
    11    O    1  py     Ryd( 3p)     0.01192
    12    O    1  py     Ryd( 4p)     0.00070
    13    O    1  py     Ryd( 5p)     0.00032
    14    O    1  pz     Val( 2p)     1.94857
    15    O    1  pz     Ryd( 3p)     0.01878
    16    O    1  pz     Ryd( 4p)     0.00069
    17    O    1  pz     Ryd( 5p)     0.00013
    18    O    1  dxy    Ryd( 3d)     0.00872
    19    O    1  dxy    Ryd( 4d)     0.00043
    20    O    1  dxy    Ryd( 5d)     0.00015
    21    O    1  dxz    Ryd( 3d)     0.00828
    22    O    1  dxz    Ryd( 4d)     0.00052
    23    O    1  dxz    Ryd( 5d)     0.00010
    24    O    1  dyz    Ryd( 3d)     0.00804
    25    O    1  dyz    Ryd( 4d)     0.00055
    26    O    1  dyz    Ryd( 5d)     0.00037
    27    O    1  dx2y2  Ryd( 3d)     0.01264
    28    O    1  dx2y2  Ryd( 4d)     0.00030
    29    O    1  dx2y2  Ryd( 5d)     0.00023
    30    O    1  dz2    Ryd( 3d)     0.00945
    31    O    1  dz2    Ryd( 4d)     0.00044
    32    O    1  dz2    Ryd( 5d)     0.00011
    33    O    1  f(0)   Ryd( 4f)     0.00069
    34    O    1  f(0)   Ryd( 5f)     0.00010
    35    O    1  f(C1)  Ryd( 4f)     0.00066
    36    O    1  f(C1)  Ryd( 5f)     0.00011
    37    O    1  f(S1)  Ryd( 4f)     0.00051
    38    O    1  f(S1)  Ryd( 5f)     0.00011
    39    O    1  f(C2)  Ryd( 4f)     0.00055
    40    O    1  f(C2)  Ryd( 5f)     0.00012
    41    O    1  f(S2)  Ryd( 4f)     0.00051
    42    O    1  f(S2)  Ryd( 5f)     0.00012
    43    O    1  f(C3)  Ryd( 4f)     0.00052
    44    O    1  f(C3)  Ryd( 5f)     0.00015
    45    O    1  f(S3)  Ryd( 4f)     0.00049
    46    O    1  f(S3)  Ryd( 5f)     0.00017

    47   Cl    2  S      Cor( 1S)     2.00000
    48   Cl    2  S      Cor( 2S)     1.99984
    49   Cl    2  S      Val( 3S)     1.88735
    50   Cl    2  S      Ryd( 4S)     0.00766
    51   Cl    2  S      Ryd( 5S)     0.00051
    52   Cl    2  S      Ryd( 6S)     0.00013
    53   Cl    2  px     Cor( 2p)     1.99997
    54   Cl    2  px     Val( 3p)     0.89229
    55   Cl    2  px     Ryd( 4p)     0.00647
    56   Cl    2  px     Ryd( 5p)     0.00053
    57   Cl    2  px     Ryd( 6p)     0.00015
    58   Cl    2  py     Cor( 2p)     2.00003
    59   Cl    2  py     Val( 3p)     1.95353
    60   Cl    2  py     Ryd( 4p)     0.00941
    61   Cl    2  py     Ryd( 5p)     0.00051
    62   Cl    2  py     Ryd( 6p)     0.00009
    63   Cl    2  pz     Cor( 2p)     2.00003
    64   Cl    2  pz     Val( 3p)     1.95492
    65   Cl    2  pz     Ryd( 4p)     0.01011
    66   Cl    2  pz     Ryd( 5p)     0.00068
    67   Cl    2  pz     Ryd( 6p)     0.00002
    68   Cl    2  dxy    Ryd( 3d)     0.01608
    69   Cl    2  dxy    Ryd( 4d)     0.00067
    70   Cl    2  dxy    Ryd( 5d)     0.00030
    71   Cl    2  dxz    Ryd( 3d)     0.02144
    72   Cl    2  dxz    Ryd( 4d)     0.00097
    73   Cl    2  dxz    Ryd( 5d)     0.00035
    74   Cl    2  dyz    Ryd( 3d)     0.01669
    75   Cl    2  dyz    Ryd( 4d)     0.00074
    76   Cl    2  dyz    Ryd( 5d)     0.00017
    77   Cl    2  dx2y2  Ryd( 3d)     0.01886
    78   Cl    2  dx2y2  Ryd( 4d)     0.00047
    79   Cl    2  dx2y2  Ryd( 5d)     0.00015
    80   Cl    2  dz2    Ryd( 3d)     0.01748
    81   Cl    2  dz2    Ryd( 4d)     0.00060
    82   Cl    2  dz2    Ryd( 5d)     0.00014
    83   Cl    2  f(0)   Ryd( 4f)     0.00132
    84   Cl    2  f(0)   Ryd( 5f)     0.00013
    85   Cl    2  f(C1)  Ryd( 4f)     0.00141
    86   Cl    2  f(C1)  Ryd( 5f)     0.00014
    87   Cl    2  f(S1)  Ryd( 4f)     0.00126
    88   Cl    2  f(S1)  Ryd( 5f)     0.00013
    89   Cl    2  f(C2)  Ryd( 4f)     0.00136
    90   Cl    2  f(C2)  Ryd( 5f)     0.00013
    91   Cl    2  f(S2)  Ryd( 4f)     0.00119
    92   Cl    2  f(S2)  Ryd( 5f)     0.00013
    93   Cl    2  f(C3)  Ryd( 4f)     0.00149
    94   Cl    2  f(C3)  Ryd( 5f)     0.00013
    95   Cl    2  f(S3)  Ryd( 4f)     0.00125
    96   Cl    2  f(S3)  Ryd( 5f)     0.00013

    97   Br    3  S      Cor( 1S)     2.00001
    98   Br    3  S      Cor( 2S)     2.00000
    99   Br    3  S      Cor( 3S)     2.00000
   100   Br    3  S      Val( 4S)     1.97834
   101   Br    3  S      Ryd( 5S)     0.00230
   102   Br    3  S      Ryd( 6S)     0.00047
   103   Br    3  S      Ryd( 7S)     0.00014
   104   Br    3  px     Cor( 2p)     2.00002
   105   Br    3  px     Cor( 3p)     2.00000
   106   Br    3  px     Val( 4p)     1.95193
   107   Br    3  px     Ryd( 5p)     0.01147
   108   Br    3  px     Ryd( 6p)     0.00082
   109   Br    3  px     Ryd( 7p)     0.00009
   110   Br    3  py     Cor( 2p)     2.00000
   111   Br    3  py     Cor( 3p)     2.00000
   112   Br    3  py     Val( 4p)     1.92372
   113   Br    3  py     Ryd( 5p)     0.01034
   114   Br    3  py     Ryd( 6p)     0.00077
   115   Br    3  py     Ryd( 7p)     0.00009
   116   Br    3  pz     Cor( 2p)     2.00002
   117   Br    3  pz     Cor( 3p)     2.00000
   118   Br    3  pz     Val( 4p)     1.95386
   119   Br    3  pz     Ryd( 5p)     0.01161
   120   Br    3  pz     Ryd( 6p)     0.00082
   121   Br    3  pz     Ryd( 7p)     0.00008
   122   Br    3  dxy    Cor( 3d)     1.99766
   123   Br    3  dxy    Ryd( 4d)     0.01895
   124   Br    3  dxy    Ryd( 5d)     0.00153
   125   Br    3  dxy    Ryd( 6d)     0.00022
   126   Br    3  dxz    Cor( 3d)     1.99769
   127   Br    3  dxz    Ryd( 4d)     0.01874
   128   Br    3  dxz    Ryd( 5d)     0.00178
   129   Br    3  dxz    Ryd( 6d)     0.00025
   130   Br    3  dyz    Cor( 3d)     1.99767
   131   Br    3  dyz    Ryd( 4d)     0.01903
   132   Br    3  dyz    Ryd( 5d)     0.00154
   133   Br    3  dyz    Ryd( 6d)     0.00021
   134   Br    3  dx2y2  Cor( 3d)     1.99765
   135   Br    3  dx2y2  Ryd( 4d)     0.01875
   136   Br    3  dx2y2  Ryd( 5d)     0.00166
   137   Br    3  dx2y2  Ryd( 6d)     0.00026
   138   Br    3  dz2    Cor( 3d)     1.99767
   139   Br    3  dz2    Ryd( 4d)     0.01870
   140   Br    3  dz2    Ryd( 5d)     0.00176
   141   Br    3  dz2    Ryd( 6d)     0.00023
   142   Br    3  f(0)   Ryd( 4f)     0.00174
   143   Br    3  f(0)   Ryd( 5f)     0.00026
   144   Br    3  f(C1)  Ryd( 4f)     0.00176
   145   Br    3  f(C1)  Ryd( 5f)     0.00025
   146   Br    3  f(S1)  Ryd( 4f)     0.00175
   147   Br    3  f(S1)  Ryd( 5f)     0.00026
   148   Br    3  f(C2)  Ryd( 4f)     0.00174
   149   Br    3  f(C2)  Ryd( 5f)     0.00026
   150   Br    3  f(S2)  Ryd( 4f)     0.00177
   151   Br    3  f(S2)  Ryd( 5f)     0.00026
   152   Br    3  f(C3)  Ryd( 4f)     0.00172
   153   Br    3  f(C3)  Ryd( 5f)     0.00026
   154   Br    3  f(S3)  Ryd( 4f)     0.00172
   155   Br    3  f(S3)  Ryd( 5f)     0.00026

   156    H    4  S      Val( 1S)     0.53299
   157    H    4  S      Ryd( 2S)     0.00959
   158    H    4  S      Ryd( 3S)     0.00025
   159    H    4  S      Ryd( 4S)     0.00008
   160    H    4  px     Ryd( 2p)     0.00371
   161    H    4  px     Ryd( 3p)     0.00042
   162    H    4  px     Ryd( 4p)     0.00015
   163    H    4  py     Ryd( 2p)     0.00541
   164    H    4  py     Ryd( 3p)     0.00066
   165    H    4  py     Ryd( 4p)     0.00046
   166    H    4  pz     Ryd( 2p)     0.00549
   167    H    4  pz     Ryd( 3p)     0.00043
   168    H    4  pz     Ryd( 4p)     0.00018
   169    H    4  dxy    Ryd( 3d)     0.00026
   170    H    4  dxy    Ryd( 4d)     0.00012
   171    H    4  dxz    Ryd( 3d)     0.00021
   172    H    4  dxz    Ryd( 4d)     0.00009
   173    H    4  dyz    Ryd( 3d)     0.00043
   174    H    4  dyz    Ryd( 4d)     0.00010
   175    H    4  dx2y2  Ryd( 3d)     0.00021
   176    H    4  dx2y2  Ryd( 4d)     0.00016
   177    H    4  dz2    Ryd( 3d)     0.00021
   178    H    4  dz2    Ryd( 4d)     0.00015

 WARNING:  5 low occupancy (<1.9990e) core orbitals found on Br    3


 Summary of Natural Population Analysis:                  
                                                          
                                       Natural Population 
                Natural  -----------------------------------------------
    Atom  No    Charge         Core      Valence    Rydberg      Total
 -----------------------------------------------------------------------
      O    1   -0.65583      1.99946     6.55142    0.10494     8.65583
     Cl    2    0.17043      9.99987     6.68810    0.14160    16.82957
     Br    3   -0.95287     27.98840     7.80786    0.15662    35.95287
      H    4    0.43827      0.00000     0.53299    0.02875     0.56173
 =======================================================================
   * Total *   -1.00000     39.98773    21.58037    0.43190    62.00000

                                 Natural Population      
 --------------------------------------------------------
   Core                      39.98773 ( 99.9693% of  40)
   Valence                   21.58037 ( 98.0926% of  22)
   Natural Minimal Basis     61.56810 ( 99.3034% of  62)
   Natural Rydberg Basis      0.43190 (  0.6966% of  62)
 --------------------------------------------------------

    Atom  No          Natural Electron Configuration
 ----------------------------------------------------------------------------
      O    1      [core]2S( 1.71)2p( 4.84)3S( 0.01)3p( 0.04)3d( 0.05)
     Cl    2      [core]3S( 1.89)3p( 4.80)4S( 0.01)3d( 0.09)4p( 0.03)4f( 0.01)
     Br    3      [core]4S( 1.98)4p( 5.83)4d( 0.09)5p( 0.03)4f( 0.01)5d( 0.01)
      H    4            1S( 0.53)2S( 0.01)2p( 0.01)


 NATURAL BOND ORBITAL ANALYSIS:

                       Occupancies       Lewis Structure    Low   High
           Occ.    -------------------  -----------------   occ   occ
  Cycle   Thresh.   Lewis   Non-Lewis     CR  BD  3C  LP    (L)   (NL)   Dev
 =============================================================================
   1(1)    1.90    61.52015   0.47985     20   2   0   9     0      0    0.04
 -----------------------------------------------------------------------------

 Structure accepted: No low occupancy Lewis orbitals

 WARNING:  5 low occupancy (<1.9990e) core orbitals found on Br    3

 --------------------------------------------------------
   Core                     39.98773 ( 99.969% of  40)
   Valence Lewis            21.53242 ( 97.875% of  22)
  ==================       ============================
   Total Lewis              61.52015 ( 99.226% of  62)
  -----------------------------------------------------
   Valence non-Lewis         0.09641 (  0.156% of  62)
   Rydberg non-Lewis         0.38344 (  0.618% of  62)
  ==================       ============================
   Total non-Lewis           0.47985 (  0.774% of  62)
 --------------------------------------------------------


       (Occupancy)   Bond orbital/ Coefficients/ Hybrids
 ---------------------------------------------------------------------------------
     1. (1.94195) BD ( 1) O   1 -Cl   2  
                ( 59.47%)   0.7712* O   1 s( 10.88%)p 8.15( 88.61%)d 0.05(  0.50%)
                                                  f 0.00(  0.02%)
                                            0.0003  0.3268 -0.0426 -0.0127 -0.0003
                                            0.9405 -0.0209 -0.0113 -0.0084  0.0018
                                           -0.0287 -0.0044 -0.0005  0.0000  0.0000
                                            0.0000  0.0000 -0.0270 -0.0012  0.0028
                                            0.0000  0.0000  0.0000  0.0000  0.0000
                                            0.0000  0.0504  0.0061  0.0023 -0.0404
                                           -0.0035  0.0009  0.0000  0.0000 -0.0115
                                            0.0010 -0.0005  0.0001  0.0000  0.0000
                                            0.0000  0.0000  0.0046 -0.0003 -0.0005
                                            0.0029
                ( 40.53%)   0.6366*Cl   2 s(  8.07%)p11.23( 90.59%)d 0.15(  1.24%)
                                                  f 0.01(  0.11%)
                                           -0.0000  0.0005  0.2785 -0.0548 -0.0102
                                            0.0021 -0.0003 -0.9493  0.0667  0.0144
                                           -0.0040 -0.0000 -0.0072 -0.0009  0.0024
                                           -0.0006  0.0000  0.0000  0.0000  0.0000
                                            0.0000  0.0128  0.0000  0.0010  0.0000
                                            0.0000  0.0000  0.0000  0.0000  0.0000
                                            0.0933 -0.0098  0.0003 -0.0584  0.0053
                                            0.0005  0.0000  0.0000  0.0205 -0.0032
                                            0.0003 -0.0001  0.0000  0.0000  0.0000
                                            0.0000 -0.0248  0.0029 -0.0006 -0.0001
     2. (1.97429) BD ( 1) O   1 - H   4  
                ( 74.49%)   0.8631* O   1 s( 37.30%)p 1.67( 62.23%)d 0.01(  0.46%)
                                                  f 0.00(  0.01%)
                                           -0.0003 -0.6105  0.0146  0.0046 -0.0009
                                            0.2083 -0.0211 -0.0013 -0.0013  0.7600
                                           -0.0292 -0.0060 -0.0031  0.0000  0.0000
                                            0.0000  0.0000 -0.0046  0.0043 -0.0006
                                            0.0000  0.0000  0.0000  0.0000  0.0000
                                            0.0000  0.0569  0.0018  0.0045  0.0366
                                           -0.0015 -0.0015  0.0000  0.0000 -0.0014
                                           -0.0010 -0.0074 -0.0022  0.0000  0.0000
                                            0.0000  0.0000 -0.0015 -0.0037  0.0006
                                           -0.0044
                ( 25.51%)   0.5050* H   4 s( 99.89%)p 0.00(  0.11%)d 0.00(  0.00%)
                                           -0.9992 -0.0219 -0.0010  0.0003 -0.0118
                                           -0.0060 -0.0011  0.0089 -0.0275  0.0084
                                            0.0000  0.0000  0.0000  0.0013  0.0007
                                            0.0000  0.0000  0.0000  0.0000 -0.0014
                                            0.0030 -0.0029  0.0048
     3. (1.99946) CR ( 1) O   1           s(100.00%)p 0.00(  0.00%)
                                            1.0000 -0.0004  0.0000  0.0000  0.0000
                                           -0.0002  0.0000  0.0000  0.0000  0.0001
                                           -0.0000 -0.0000 -0.0000  0.0000  0.0000
                                            0.0000  0.0000  0.0000  0.0000 -0.0000
                                            0.0000  0.0000  0.0000  0.0000  0.0000
                                            0.0000 -0.0000 -0.0000  0.0000  0.0000
                                            0.0000 -0.0000  0.0000  0.0000  0.0000
                                           -0.0000 -0.0000 -0.0000  0.0000  0.0000
                                            0.0000  0.0000 -0.0000 -0.0000 -0.0000
                                           -0.0000
     4. (2.00000) CR ( 1)Cl   2           s(100.00%)
                                            1.0000  0.0000  0.0000 -0.0000 -0.0000
                                            0.0000 -0.0000 -0.0000  0.0000  0.0000
                                           -0.0000 -0.0000 -0.0000 -0.0000  0.0000
                                           -0.0000  0.0000  0.0000  0.0000  0.0000
                                            0.0000  0.0000 -0.0000  0.0000  0.0000
                                            0.0000  0.0000  0.0000  0.0000  0.0000
                                            0.0000 -0.0000  0.0000 -0.0000  0.0000
                                            0.0000  0.0000  0.0000  0.0000 -0.0000
                                            0.0000 -0.0000  0.0000  0.0000  0.0000
                                            0.0000 -0.0000  0.0000 -0.0000 -0.0000
     5. (1.99985) CR ( 2)Cl   2           s(100.00%)p 0.00(  0.00%)
                                            0.0000  1.0000 -0.0004  0.0000  0.0000
                                           -0.0000  0.0000  0.0004 -0.0000 -0.0000
                                            0.0000  0.0000  0.0000  0.0000 -0.0000
                                            0.0000  0.0000  0.0000  0.0000  0.0000
                                            0.0000 -0.0000  0.0000 -0.0000  0.0000
                                            0.0000  0.0000  0.0000  0.0000  0.0000
                                           -0.0000  0.0000 -0.0000  0.0000 -0.0000
                                           -0.0000  0.0000  0.0000 -0.0000  0.0000
                                           -0.0000  0.0000  0.0000  0.0000  0.0000
                                            0.0000  0.0000 -0.0000  0.0000 -0.0000
     6. (1.99997) CR ( 3)Cl   2           s(  0.00%)p 1.00(100.00%)
                                           -0.0000  0.0000  0.0001 -0.0000 -0.0000
                                            0.0000  1.0000 -0.0003  0.0000  0.0000
                                           -0.0000 -0.0000 -0.0000 -0.0000  0.0000
                                           -0.0000  0.0000  0.0000  0.0000  0.0000
                                            0.0000  0.0000 -0.0000  0.0000  0.0000
                                            0.0000  0.0000  0.0000  0.0000  0.0000
                                            0.0000 -0.0000  0.0000 -0.0000  0.0000
                                            0.0000  0.0000  0.0000  0.0000 -0.0000
                                            0.0000 -0.0000  0.0000  0.0000  0.0000
                                            0.0000 -0.0000  0.0000 -0.0000 -0.0000
     7. (2.00003) CR ( 4)Cl   2           s(  0.00%)p 1.00(100.00%)
                                           -0.0000  0.0000  0.0000  0.0000  0.0000
                                            0.0000 -0.0000 -0.0000  0.0000  0.0000
                                           -0.0000  1.0000  0.0002  0.0000  0.0000
                                            0.0000  0.0000  0.0000  0.0000  0.0000
                                            0.0000 -0.0000  0.0000  0.0000  0.0000
                                            0.0000  0.0000  0.0000  0.0000  0.0000
                                           -0.0000 -0.0000 -0.0000 -0.0000 -0.0000
                                           -0.0000  0.0000  0.0000  0.0000 -0.0000
                                           -0.0000 -0.0000  0.0000  0.0000  0.0000
                                            0.0000 -0.0000  0.0000  0.0000 -0.0000
     8. (2.00003) CR ( 5)Cl   2           s(  0.00%)p 1.00(100.00%)
                                            0.0000  0.0000  0.0000  0.0000  0.0000
                                            0.0000  0.0000  0.0000  0.0000  0.0000
                                            0.0000  0.0000  0.0000  0.0000  0.0000
                                            0.0000  1.0000  0.0002  0.0000  0.0000
                                           -0.0000  0.0000  0.0000  0.0000  0.0000
                                            0.0000  0.0000  0.0000  0.0000  0.0000
                                            0.0000  0.0000  0.0000  0.0000  0.0000
                                            0.0000 -0.0000  0.0000  0.0000  0.0000
                                            0.0000  0.0000  0.0000 -0.0000  0.0000
                                           -0.0000  0.0000  0.0000  0.0000  0.0000
     9. (2.00001) CR ( 1)Br   3           s(100.00%)p 0.00(  0.00%)
                                            1.0000  0.0000 -0.0000  0.0000  0.0000
                                           -0.0000 -0.0000 -0.0000 -0.0000  0.0000
                                           -0.0000 -0.0000  0.0000 -0.0000 -0.0000
                                            0.0002 -0.0000 -0.0000  0.0000  0.0000
                                            0.0000  0.0000  0.0000  0.0000  0.0000
                                           -0.0000  0.0000 -0.0000  0.0000  0.0000
                                            0.0000  0.0000  0.0000  0.0000  0.0000
                                            0.0000  0.0000  0.0000 -0.0000  0.0000
                                            0.0000  0.0000 -0.0000  0.0000 -0.0000
                                            0.0000  0.0000 -0.0000 -0.0000 -0.0000
                                           -0.0000  0.0000  0.0000  0.0000  0.0000
                                           -0.0000 -0.0000 -0.0000 -0.0000
    10. (2.00000) CR ( 2)Br   3           s(100.00%)
                                            0.0000  1.0000  0.0000 -0.0000 -0.0000
                                            0.0000  0.0000  0.0000  0.0000 -0.0000
                                            0.0000  0.0000 -0.0000  0.0000  0.0000
                                           -0.0000  0.0000  0.0000 -0.0000  0.0000
                                            0.0000  0.0000  0.0000  0.0000  0.0000
                                            0.0000 -0.0000  0.0000 -0.0000  0.0000
                                            0.0000  0.0000  0.0000  0.0000  0.0000
                                            0.0000  0.0000 -0.0000  0.0000 -0.0000
                                           -0.0000 -0.0000  0.0000 -0.0000  0.0000
                                            0.0000  0.0000  0.0000  0.0000  0.0000
                                            0.0000  0.0000  0.0000  0.0000  0.0000
                                            0.0000  0.0000  0.0000  0.0000
    11. (2.00000) CR ( 3)Br   3           s(100.00%)
                                           -0.0000  0.0000  1.0000  0.0000  0.0000
                                           -0.0000 -0.0000 -0.0000 -0.0000  0.0000
                                           -0.0000 -0.0000  0.0000 -0.0000 -0.0000
                                            0.0000 -0.0000 -0.0000  0.0000  0.0000
                                            0.0000  0.0000  0.0000  0.0000  0.0000
                                           -0.0000  0.0000 -0.0000  0.0000  0.0000
                                            0.0000  0.0000  0.0000  0.0000  0.0000
                                            0.0000  0.0000  0.0000 -0.0000  0.0000
                                            0.0000  0.0000 -0.0000  0.0000 -0.0000
                                            0.0000  0.0000 -0.0000 -0.0000 -0.0000
                                           -0.0000  0.0000  0.0000  0.0000  0.0000
                                           -0.0000 -0.0000 -0.0000 -0.0000
    12. (2.00002) CR ( 4)Br   3           s(  0.00%)p 1.00(100.00%)
                                           -0.0000  0.0000 -0.0000  0.0000  0.0000
                                           -0.0000 -0.0000  1.0000 -0.0000 -0.0001
                                           -0.0000 -0.0000  0.0000 -0.0000 -0.0000
                                            0.0000 -0.0000 -0.0000  0.0000  0.0000
                                            0.0000  0.0000  0.0000  0.0000  0.0000
                                           -0.0000 -0.0000  0.0000  0.0000  0.0000
                                            0.0000  0.0000  0.0000  0.0000  0.0000
                                            0.0000  0.0000  0.0000 -0.0000  0.0000
                                            0.0000  0.0000 -0.0000  0.0000 -0.0000
                                            0.0000  0.0000  0.0000  0.0000 -0.0000
                                           -0.0000  0.0000  0.0000  0.0000  0.0000
                                            0.0000  0.0000 -0.0000 -0.0000
    13. (2.00000) CR ( 5)Br   3           s(  0.00%)p 1.00(100.00%)
                                           -0.0000  0.0000 -0.0000  0.0000  0.0000
                                           -0.0000 -0.0000 -0.0000  1.0000 -0.0000
                                           -0.0000 -0.0000  0.0000 -0.0000 -0.0000
                                            0.0000 -0.0000 -0.0000  0.0000  0.0000
                                            0.0000  0.0000  0.0000  0.0000  0.0000
                                           -0.0000 -0.0000  0.0000  0.0000  0.0000
                                            0.0000  0.0000  0.0000  0.0000  0.0000
                                            0.0000  0.0000  0.0000 -0.0000  0.0000
                                            0.0000  0.0000 -0.0000  0.0000 -0.0000
                                            0.0000  0.0000  0.0000  0.0000 -0.0000
                                           -0.0000  0.0000  0.0000  0.0000  0.0000
                                            0.0000  0.0000 -0.0000 -0.0000
    14. (2.00000) CR ( 6)Br   3           s(  0.00%)p 1.00(100.00%)
                                           -0.0000  0.0000 -0.0000  0.0001  0.0000
                                           -0.0000 -0.0000 -0.0000 -0.0000  0.0000
                                           -0.0000 -0.0000  0.0000  1.0000 -0.0000
                                            0.0001 -0.0000 -0.0000  0.0000  0.0000
                                            0.0000  0.0000  0.0000  0.0000  0.0000
                                           -0.0000  0.0000 -0.0000  0.0000  0.0000
                                            0.0000  0.0000  0.0000  0.0000  0.0000
                                            0.0000  0.0000  0.0000 -0.0000  0.0000
                                            0.0000  0.0000 -0.0000  0.0000 -0.0000
                                            0.0000  0.0000 -0.0000 -0.0000 -0.0000
                                           -0.0000  0.0000  0.0000  0.0000  0.0000
                                           -0.0000 -0.0000 -0.0000 -0.0000
    15. (2.00000) CR ( 7)Br   3           s(  0.00%)p 1.00(100.00%)
                                           -0.0000  0.0000 -0.0000  0.0000  0.0000
                                           -0.0000 -0.0000 -0.0000 -0.0000  0.0000
                                           -0.0000 -0.0000  0.0000 -0.0000  1.0000
                                            0.0000 -0.0000 -0.0000  0.0000  0.0000
                                            0.0000  0.0000  0.0000  0.0000  0.0000
                                           -0.0000  0.0000 -0.0000  0.0000  0.0000
                                            0.0000  0.0000  0.0000  0.0000  0.0000
                                            0.0000  0.0000  0.0000 -0.0000  0.0000
                                            0.0000  0.0000 -0.0000  0.0000 -0.0000
                                            0.0000  0.0000 -0.0000 -0.0000 -0.0000
                                           -0.0000  0.0000  0.0000  0.0000  0.0000
                                           -0.0000 -0.0000 -0.0000 -0.0000
    16. (2.00002) CR ( 8)Br   3           s(  0.00%)p 1.00(100.00%)
                                            0.0000  0.0000  0.0000  0.0000  0.0000
                                            0.0000  0.0000  0.0000  0.0000  0.0000
                                            0.0000  0.0000  0.0000  0.0000  0.0000
                                            0.0000  0.0000  0.0000  0.0000  1.0000
                                           -0.0000 -0.0001 -0.0000 -0.0000  0.0000
                                            0.0000  0.0000  0.0000  0.0000  0.0000
                                           -0.0000  0.0000 -0.0000  0.0000 -0.0000
                                            0.0000 -0.0000  0.0000  0.0000  0.0000
                                            0.0000  0.0000  0.0000  0.0000  0.0000
                                            0.0000  0.0000  0.0000  0.0000  0.0000
                                            0.0000  0.0000  0.0000 -0.0000 -0.0000
                                            0.0000  0.0000  0.0000  0.0000
    17. (2.00000) CR ( 9)Br   3           s(  0.00%)p 1.00(100.00%)
                                            0.0000  0.0000  0.0000  0.0000  0.0000
                                            0.0000  0.0000  0.0000  0.0000  0.0000
                                            0.0000  0.0000  0.0000  0.0000  0.0000
                                            0.0000  0.0000  0.0000  0.0000 -0.0000
                                            1.0000 -0.0000 -0.0000 -0.0000  0.0000
                                            0.0000  0.0000  0.0000  0.0000  0.0000
                                           -0.0000  0.0000 -0.0000  0.0000 -0.0000
                                            0.0000 -0.0000  0.0000  0.0000  0.0000
                                            0.0000  0.0000  0.0000  0.0000  0.0000
                                            0.0000  0.0000  0.0000  0.0000  0.0000
                                            0.0000  0.0000  0.0000 -0.0000 -0.0000
                                            0.0000  0.0000  0.0000  0.0000
    18. (1.99766) CR (10)Br   3           s(  0.00%)p 0.00(  0.00%)d 1.00(100.00%)
                                           -0.0000  0.0000 -0.0000  0.0000  0.0000
                                           -0.0000 -0.0000 -0.0000 -0.0000  0.0000
                                           -0.0000 -0.0000  0.0000 -0.0000 -0.0000
                                            0.0001 -0.0000 -0.0000  0.0000  0.0000
                                            0.0000  0.0000  0.0000  0.0000  0.0000
                                            1.0000  0.0000 -0.0000  0.0000  0.0000
                                            0.0000  0.0000  0.0000  0.0000  0.0000
                                            0.0000  0.0000  0.0000 -0.0000  0.0000
                                            0.0000  0.0000 -0.0000  0.0000 -0.0000
                                            0.0000  0.0000 -0.0000 -0.0000 -0.0000
                                           -0.0000  0.0000  0.0000  0.0000  0.0000
                                           -0.0000 -0.0000 -0.0000 -0.0000
    19. (1.99769) CR (11)Br   3           s(  0.00%)p 0.00(  0.00%)d 1.00(100.00%)
                                            0.0000  0.0000  0.0000  0.0000  0.0000
                                            0.0000  0.0000  0.0000  0.0000  0.0000
                                            0.0000  0.0000  0.0000  0.0000  0.0000
                                            0.0000  0.0000  0.0000  0.0000  0.0000
                                            0.0000  0.0000  0.0000  0.0000 -0.0000
                                            0.0000  0.0000  0.0000  0.0000  1.0000
                                            0.0000 -0.0000  0.0000 -0.0000  0.0000
                                           -0.0000  0.0000  0.0000  0.0000  0.0000
                                            0.0000  0.0000  0.0000  0.0000  0.0000
                                           -0.0000 -0.0000  0.0000  0.0000  0.0000
                                            0.0000 -0.0000 -0.0000  0.0000  0.0000
                                            0.0000  0.0000  0.0000  0.0000
    20. (1.99767) CR (12)Br   3           s(  0.00%)p 0.00(  0.00%)d 1.00(100.00%)
                                            0.0000  0.0000  0.0000  0.0000  0.0000
                                            0.0000  0.0000  0.0000  0.0000  0.0000
                                            0.0000  0.0000  0.0000  0.0000  0.0000
                                            0.0000  0.0000  0.0000  0.0000  0.0000
                                            0.0000  0.0000  0.0000  0.0000 -0.0000
                                            0.0000  0.0000  0.0000  0.0000 -0.0000
                                            0.0000 -0.0000  0.0000  1.0000  0.0000
                                           -0.0000  0.0000  0.0000  0.0000  0.0000
                                            0.0000  0.0000  0.0000  0.0000  0.0000
                                           -0.0000 -0.0000  0.0000  0.0000  0.0000
                                            0.0000 -0.0000 -0.0000  0.0000  0.0000
                                            0.0000  0.0000  0.0000  0.0000
    21. (1.99765) CR (13)Br   3           s(  0.00%)p 0.00(  0.00%)d 1.00(100.00%)
                                            0.0000 -0.0000  0.0000 -0.0000 -0.0000
                                            0.0000  0.0000  0.0000  0.0000 -0.0000
                                            0.0000  0.0000 -0.0000  0.0000  0.0000
                                           -0.0001  0.0000  0.0000 -0.0000  0.0000
                                            0.0000  0.0000  0.0000  0.0000  0.0000
                                            0.0000 -0.0000  0.0000 -0.0000  0.0000
                                            0.0000  0.0000  0.0000  0.0000  0.0000
                                            0.0000  0.0000  1.0000  0.0000 -0.0000
                                           -0.0000 -0.0000  0.0000 -0.0000  0.0000
                                            0.0000  0.0000  0.0000  0.0000  0.0000
                                            0.0000  0.0000  0.0000  0.0000  0.0000
                                            0.0000  0.0000  0.0000  0.0000
    22. (1.99767) CR (14)Br   3           s(  0.00%)p 0.00(  0.00%)d 1.00(100.00%)
                                            0.0000 -0.0000  0.0000 -0.0000 -0.0000
                                            0.0000  0.0000  0.0000  0.0000 -0.0000
                                            0.0000  0.0000 -0.0000  0.0000  0.0000
                                           -0.0001  0.0000  0.0000 -0.0000  0.0000
                                            0.0000  0.0000  0.0000  0.0000  0.0000
                                            0.0000 -0.0000  0.0000 -0.0000  0.0000
                                            0.0000  0.0000  0.0000  0.0000  0.0000
                                            0.0000  0.0000 -0.0000  0.0000 -0.0000
                                           -0.0000  1.0000  0.0000 -0.0000  0.0000
                                            0.0000  0.0000  0.0000  0.0000  0.0000
                                            0.0000  0.0000  0.0000  0.0000  0.0000
                                            0.0000  0.0000  0.0000  0.0000
    23. (1.96670) LP ( 1) O   1           s( 51.97%)p 0.92( 47.90%)d 0.00(  0.13%)
                                                  f 0.00(  0.01%)
                                            0.0002  0.7206  0.0200  0.0065 -0.0008
                                           -0.2503 -0.0072 -0.0030 -0.0018  0.6451
                                            0.0095  0.0056  0.0014  0.0000  0.0000
                                            0.0000  0.0000  0.0239  0.0028 -0.0035
                                            0.0000  0.0000  0.0000  0.0000  0.0000
                                            0.0000  0.0200 -0.0019 -0.0053  0.0153
                                           -0.0008 -0.0006  0.0000  0.0000  0.0001
                                            0.0007 -0.0033 -0.0002  0.0000  0.0000
                                            0.0000  0.0000  0.0034 -0.0024  0.0036
                                           -0.0030
    24. (1.95416) LP ( 2) O   1           s(  0.00%)p 1.00( 99.79%)d 0.00(  0.20%)
                                                  f 0.00(  0.01%)
                                            0.0000  0.0000  0.0000  0.0000  0.0000
                                            0.0000  0.0000  0.0000  0.0000  0.0000
                                            0.0000  0.0000  0.0000  0.9986  0.0261
                                            0.0056  0.0049  0.0000  0.0000  0.0000
                                            0.0276  0.0061 -0.0002 -0.0323  0.0053
                                            0.0117  0.0000  0.0000  0.0000  0.0000
                                            0.0000  0.0000 -0.0101 -0.0000  0.0000
                                            0.0000  0.0000  0.0000  0.0042 -0.0032
                                            0.0009  0.0018  0.0000  0.0000  0.0000
                                            0.0000
    25. (1.97495) LP ( 1)Cl   2           s( 92.17%)p 0.08(  7.81%)d 0.00(  0.02%)
                                                  f 0.00(  0.00%)
                                            0.0000  0.0003  0.9600  0.0062  0.0012
                                           -0.0002  0.0000  0.2791 -0.0059 -0.0029
                                            0.0010 -0.0000 -0.0104  0.0017  0.0002
                                           -0.0004  0.0000  0.0000  0.0000  0.0000
                                            0.0000  0.0002 -0.0002 -0.0004  0.0000
                                            0.0000  0.0000  0.0000  0.0000  0.0000
                                           -0.0119  0.0004 -0.0002  0.0074  0.0005
                                            0.0005  0.0000  0.0000 -0.0018 -0.0005
                                            0.0001 -0.0000  0.0000  0.0000  0.0000
                                            0.0000  0.0031  0.0001 -0.0005  0.0003
    26. (1.95642) LP ( 2)Cl   2           s(  0.00%)p 1.00( 99.95%)d 0.00(  0.04%)
                                                  f 0.00(  0.01%)
                                            0.0000  0.0000  0.0000  0.0000  0.0000
                                            0.0000  0.0000  0.0000  0.0000  0.0000
                                            0.0000  0.0000  0.0000  0.0000  0.0000
                                            0.0000 -0.0002  0.9996  0.0155  0.0050
                                           -0.0021  0.0000  0.0000  0.0000  0.0066
                                            0.0160  0.0091  0.0040  0.0035  0.0013
                                            0.0000  0.0000  0.0000  0.0000  0.0000
                                            0.0000 -0.0056  0.0008  0.0000  0.0000
                                            0.0000  0.0000  0.0069 -0.0010  0.0010
                                           -0.0008  0.0000  0.0000  0.0000  0.0000
    27. (1.95495) LP ( 3)Cl   2           s(  0.02%)p99.99( 99.93%)d 1.75(  0.04%)
                                                  f 0.44(  0.01%)
                                            0.0000 -0.0000  0.0122  0.0064  0.0038
                                            0.0019  0.0000 -0.0052 -0.0004 -0.0003
                                           -0.0009 -0.0002  0.9996  0.0129  0.0016
                                            0.0003  0.0000  0.0000  0.0000  0.0000
                                            0.0000 -0.0031  0.0128  0.0081  0.0000
                                            0.0000  0.0000  0.0000  0.0000  0.0000
                                           -0.0086 -0.0053 -0.0035 -0.0011 -0.0030
                                           -0.0009  0.0000  0.0000  0.0002  0.0001
                                           -0.0023 -0.0000  0.0000  0.0000  0.0000
                                            0.0000 -0.0015  0.0004  0.0090 -0.0014
    28. (1.97993) LP ( 1)Br   3           s( 97.39%)p 0.03(  2.61%)d 0.00(  0.00%)
                                                  f 0.00(  0.00%)
                                            0.0000 -0.0000  0.0000  0.9869 -0.0002
                                            0.0001  0.0002 -0.0000 -0.0000 -0.0416
                                            0.0002 -0.0002 -0.0001 -0.0000 -0.0000
                                           -0.1561  0.0008 -0.0008  0.0002  0.0000
                                            0.0000  0.0000  0.0000  0.0000  0.0000
                                           -0.0000  0.0008 -0.0002 -0.0001  0.0000
                                            0.0000  0.0000  0.0000  0.0000  0.0000
                                            0.0000  0.0000  0.0000 -0.0014  0.0005
                                            0.0001  0.0000 -0.0009  0.0003  0.0001
                                            0.0000  0.0000 -0.0001 -0.0001 -0.0005
                                           -0.0003  0.0000  0.0000  0.0000  0.0000
                                           -0.0004 -0.0002 -0.0004 -0.0002
    29. (1.95404) LP ( 2)Br   3           s(  0.00%)p 1.00( 99.99%)d 0.00(  0.01%)
                                                  f 0.00(  0.00%)
                                            0.0000  0.0000  0.0000  0.0000  0.0000
                                            0.0000  0.0000  0.0000  0.0000  0.0000
                                            0.0000  0.0000  0.0000  0.0000  0.0000
                                            0.0000  0.0000  0.0000  0.0000  0.0001
                                            0.0000  1.0000  0.0012  0.0013 -0.0003
                                            0.0000  0.0000  0.0000  0.0000 -0.0000
                                            0.0021 -0.0006  0.0001 -0.0000  0.0081
                                           -0.0024  0.0000  0.0000  0.0000  0.0000
                                            0.0000  0.0000  0.0000  0.0000  0.0000
                                           -0.0018 -0.0012  0.0000  0.0000  0.0000
                                            0.0000 -0.0019 -0.0012  0.0011  0.0008
                                            0.0000  0.0000  0.0000  0.0000
    30. (1.95371) LP ( 3)Br   3           s(  0.00%)p 1.00( 99.99%)d 0.00(  0.01%)
                                                  f 0.00(  0.00%)
                                           -0.0000 -0.0000 -0.0000  0.0054  0.0004
                                            0.0001 -0.0005  0.0001  0.0000  0.9741
                                            0.0012  0.0010 -0.0003 -0.0000 -0.0000
                                           -0.2257 -0.0001 -0.0004  0.0001  0.0000
                                            0.0000  0.0000  0.0000  0.0000  0.0000
                                           -0.0000  0.0083 -0.0021 -0.0002  0.0000
                                            0.0000  0.0000  0.0000  0.0000  0.0000
                                            0.0000  0.0000 -0.0000  0.0034 -0.0006
                                           -0.0005  0.0000 -0.0001  0.0001 -0.0000
                                            0.0000  0.0000 -0.0008 -0.0005  0.0000
                                           -0.0001  0.0000  0.0000  0.0000  0.0000
                                           -0.0021 -0.0012  0.0016  0.0009
    31. (1.92133) LP ( 4)Br   3           s(  2.60%)p37.38( 97.36%)d 0.01(  0.04%)
                                                  f 0.00(  0.00%)
                                           -0.0002  0.0000 -0.0000  0.1614  0.0013
                                           -0.0006 -0.0011 -0.0000 -0.0000  0.2218
                                           -0.0008 -0.0005  0.0010 -0.0001 -0.0000
                                            0.9614 -0.0022 -0.0025  0.0004  0.0000
                                            0.0000  0.0000  0.0000  0.0000  0.0000
                                           -0.0001  0.0072 -0.0020  0.0004  0.0000
                                            0.0000  0.0000  0.0000  0.0000  0.0000
                                            0.0000  0.0000  0.0001 -0.0140  0.0029
                                            0.0001  0.0001 -0.0097  0.0023 -0.0005
                                            0.0000  0.0000 -0.0008 -0.0005 -0.0030
                                           -0.0016  0.0000  0.0000  0.0000  0.0000
                                           -0.0025 -0.0013 -0.0027 -0.0009
    32. (0.01765) RY*( 1) O   1           s(  0.00%)p 1.00( 98.75%)d 0.01(  1.18%)
                                                  f 0.00(  0.08%)
                                            0.0000  0.0000  0.0000  0.0000  0.0000
                                            0.0000  0.0000  0.0000  0.0000  0.0000
                                            0.0000  0.0000  0.0000 -0.0302  0.9923
                                           -0.0415 -0.0121  0.0000  0.0000  0.0000
                                            0.0910  0.0305  0.0105 -0.0421  0.0091
                                            0.0247  0.0000  0.0000  0.0000  0.0000
                                            0.0000  0.0000 -0.0044  0.0085  0.0000
                                            0.0000  0.0000  0.0000  0.0201 -0.0144
                                           -0.0067  0.0024  0.0000  0.0000  0.0000
                                            0.0000
    33. (0.01471) RY*( 2) O   1           s( 31.10%)p 2.16( 67.06%)d 0.05(  1.64%)
                                                  f 0.01(  0.19%)
                                           -0.0000 -0.0068  0.5528 -0.0731  0.0039
                                            0.0463 -0.3349  0.0079  0.0182 -0.0113
                                            0.7445 -0.0112 -0.0368  0.0000  0.0000
                                            0.0000  0.0000  0.1184  0.0226  0.0024
                                            0.0000  0.0000  0.0000  0.0000  0.0000
                                            0.0000  0.0096  0.0055 -0.0032  0.0390
                                           -0.0028 -0.0144  0.0000  0.0000 -0.0051
                                            0.0024  0.0057  0.0025  0.0000  0.0000
                                            0.0000  0.0000  0.0298 -0.0119  0.0261
                                           -0.0124
    34. (0.00727) RY*( 3) O   1           s( 10.59%)p 0.43(  4.54%)d 7.87( 83.38%)
                                                  f 0.14(  1.49%)
                                           -0.0000  0.0178  0.3222 -0.0419  0.0066
                                           -0.0258 -0.1286  0.0062  0.0111 -0.0072
                                           -0.1551  0.0328 -0.0529 -0.0000 -0.0000
                                           -0.0000 -0.0000 -0.9069 -0.0259 -0.0261
                                           -0.0000 -0.0000 -0.0000 -0.0000 -0.0000
                                           -0.0000  0.0578  0.0203  0.0291  0.0732
                                            0.0025  0.0070 -0.0000 -0.0000 -0.0310
                                            0.0144  0.0103 -0.0050 -0.0000 -0.0000
                                           -0.0000 -0.0000 -0.0709  0.0186 -0.0829
                                            0.0364
    35. (0.00688) RY*( 4) O   1           s(  0.00%)p 1.00(  0.68%)d99.99( 97.81%)
                                                  f 2.21(  1.50%)
                                            0.0000  0.0000  0.0000  0.0000  0.0000
                                            0.0000  0.0000  0.0000  0.0000  0.0000
                                            0.0000  0.0000  0.0000 -0.0160 -0.0794
                                           -0.0156  0.0025  0.0000  0.0000  0.0000
                                            0.9498 -0.0126  0.0170  0.2744 -0.0179
                                           -0.0009  0.0000  0.0000  0.0000  0.0000
                                            0.0000  0.0000 -0.0431  0.0217  0.0000
                                            0.0000  0.0000  0.0000  0.1003 -0.0418
                                           -0.0284  0.0094  0.0000  0.0000  0.0000
                                            0.0000
    36. (0.00601) RY*( 5) O   1           s(  0.00%)p 1.00(  0.61%)d99.99( 98.25%)
                                                  f 1.86(  1.14%)
                                            0.0000  0.0000  0.0000  0.0000  0.0000
                                            0.0000  0.0000  0.0000  0.0000  0.0000
                                            0.0000  0.0000  0.0000  0.0371  0.0653
                                            0.0026 -0.0216  0.0000  0.0000  0.0000
                                           -0.2687  0.0159  0.0017  0.9522 -0.0513
                                            0.0267  0.0000  0.0000  0.0000  0.0000
                                            0.0000  0.0000  0.0793 -0.0320  0.0000
                                            0.0000  0.0000  0.0000  0.0409 -0.0118
                                            0.0426 -0.0213  0.0000  0.0000  0.0000
                                            0.0000
    37. (0.00568) RY*( 6) O   1           s(  4.63%)p 1.27(  5.89%)d19.06( 88.30%)
                                                  f 0.26(  1.18%)
                                           -0.0000  0.0262  0.2094 -0.0424  0.0029
                                            0.0337  0.0169  0.0073 -0.0056 -0.0504
                                           -0.2315  0.0339 -0.0088  0.0000  0.0000
                                            0.0000  0.0000  0.1950 -0.0204 -0.0024
                                            0.0000  0.0000  0.0000  0.0000  0.0000
                                            0.0000  0.0930  0.0088  0.0336  0.9119
                                           -0.0497  0.0253  0.0000  0.0000  0.0716
                                           -0.0312 -0.0673  0.0298  0.0000  0.0000
                                            0.0000  0.0000 -0.0132  0.0058 -0.0096
                                            0.0011
    38. (0.00560) RY*( 7) O   1           s(  0.42%)p64.73( 27.33%)d99.99( 70.01%)
                                                  f 5.31(  2.24%)
                                            0.0000  0.0012  0.0540 -0.0152 -0.0328
                                           -0.0628 -0.4395  0.0051  0.0460 -0.0549
                                           -0.2655  0.0225  0.0065  0.0000  0.0000
                                            0.0000  0.0000  0.1659 -0.0018  0.0156
[...]
                                            0.0000  0.0000  0.0000  0.0000  0.0000
                                           -0.0859  0.8866  0.2015  0.0000  0.0000
                                           -0.0670  0.0632 -0.3753  0.1290  0.0000
                                            0.0000  0.0000  0.0000
   163. (0.00028) RY*( 9) H   4           s( 29.23%)p 0.89( 26.14%)d 1.53( 44.63%)
                                            0.0020 -0.0149  0.5341  0.0828 -0.0616
                                            0.2976  0.3809  0.0471 -0.1331  0.0635
                                            0.0000  0.0000  0.0000 -0.6134  0.0376
                                            0.0000  0.0000  0.0000  0.0000  0.2553
                                            0.0199 -0.0546  0.0108
   164. (0.00020) RY*(10) H   4           s(  0.00%)p 1.00(  0.89%)d99.99( 99.11%)
                                            0.0000  0.0000  0.0000  0.0000  0.0000
                                            0.0000  0.0000  0.0000  0.0000  0.0000
                                           -0.0274  0.0327  0.0844  0.0000  0.0000
                                            0.9893  0.0486 -0.0655 -0.0751  0.0000
                                            0.0000  0.0000  0.0000
   165. (0.00021) RY*(11) H   4           s(  5.60%)p10.73( 60.10%)d 6.12( 34.29%)
                                           -0.0175 -0.0357  0.2198 -0.0783  0.0628
                                            0.4183  0.0001  0.1187  0.6238 -0.1373
                                            0.0000  0.0000  0.0000  0.0370  0.0185
                                            0.0000  0.0000  0.0000  0.0000 -0.5203
                                            0.1281 -0.0741  0.2205
   166. (0.00021) RY*(12) H   4           s( 14.49%)p 0.24(  3.49%)d 5.66( 82.01%)
                                            0.0009 -0.0303  0.3750  0.0587  0.0873
                                            0.0576  0.0189 -0.0220 -0.1520  0.0068
                                            0.0000  0.0000  0.0000  0.2838 -0.0191
                                            0.0000  0.0000  0.0000  0.0000 -0.0840
                                           -0.1296  0.8430  0.0688
   167. (0.00016) RY*(13) H   4           s(  0.00%)p 1.00( 58.27%)d 0.72( 41.73%)
                                            0.0000  0.0000  0.0000  0.0000  0.0000
                                            0.0000  0.0000  0.0000  0.0000  0.0000
                                           -0.0101  0.0575  0.7611  0.0000  0.0000
                                           -0.0725 -0.1841  0.3564 -0.5011  0.0000
                                            0.0000  0.0000  0.0000
   168. (0.00015) RY*(14) H   4           s( 19.19%)p 1.56( 29.99%)d 2.65( 50.83%)
                                           -0.0046 -0.0428  0.4323  0.0560  0.0424
                                            0.1341 -0.5060  0.0196  0.1537  0.0085
                                            0.0000  0.0000  0.0000  0.3192  0.2210
                                            0.0000  0.0000  0.0000  0.0000  0.4530
                                            0.1849 -0.1766 -0.2949
   169. (0.00014) RY*(15) H   4           s(  5.68%)p 7.76( 44.05%)d 8.86( 50.27%)
                                           -0.0130 -0.0444  0.0016  0.2337  0.0455
                                           -0.0400  0.4937  0.0582  0.3616 -0.2428
                                            0.0000  0.0000  0.0000  0.3261 -0.4364
                                            0.0000  0.0000  0.0000  0.0000  0.3363
                                           -0.2338 -0.0702 -0.1822
   170. (0.00011) RY*(16) H   4           s( 45.40%)p 0.40( 17.94%)d 0.81( 36.66%)
                                           -0.0107 -0.0358 -0.3791  0.5558 -0.0694
                                            0.0746 -0.1688  0.0174  0.3744 -0.0081
                                            0.0000  0.0000  0.0000 -0.3637  0.2551
                                            0.0000  0.0000  0.0000  0.0000  0.1252
                                           -0.0116  0.3551 -0.1654
   171. (0.00009) RY*(17) H   4           s(  0.00%)p 1.00(  0.12%)d99.99( 99.88%)
   172. (0.00008) RY*(18) H   4           s(  0.42%)p 3.06(  1.28%)d99.99( 98.30%)
   173. (0.00004) RY*(19) H   4           s(  0.00%)p 1.00( 25.27%)d 2.96( 74.73%)
   174. (0.00003) RY*(20) H   4           s(  3.16%)p 8.63( 27.25%)d22.03( 69.59%)
   175. (0.00003) RY*(21) H   4           s(  0.78%)p43.25( 33.83%)d83.62( 65.39%)
   176. (0.00003) RY*(22) H   4           s( 61.02%)p 0.21( 12.85%)d 0.43( 26.13%)
   177. (0.05649) BD*( 1) O   1 -Cl   2  
                ( 40.53%)   0.6366* O   1 s( 10.88%)p 8.15( 88.61%)d 0.05(  0.50%)
                                                  f 0.00(  0.02%)
                                           -0.0003 -0.3268  0.0426  0.0127  0.0003
                                           -0.9405  0.0209  0.0113  0.0084 -0.0018
                                            0.0287  0.0044  0.0005 -0.0000 -0.0000
                                           -0.0000 -0.0000  0.0270  0.0012 -0.0028
                                           -0.0000 -0.0000 -0.0000 -0.0000 -0.0000
                                           -0.0000 -0.0504 -0.0061 -0.0023  0.0404
                                            0.0035 -0.0009 -0.0000 -0.0000  0.0115
                                           -0.0010  0.0005 -0.0001 -0.0000 -0.0000
                                           -0.0000 -0.0000 -0.0046  0.0003  0.0005
                                           -0.0029
                ( 59.47%)  -0.7712*Cl   2 s(  8.07%)p11.23( 90.59%)d 0.15(  1.24%)
                                                  f 0.01(  0.11%)
                                            0.0000 -0.0005 -0.2785  0.0548  0.0102
                                           -0.0021  0.0003  0.9493 -0.0667 -0.0144
                                            0.0040  0.0000  0.0072  0.0009 -0.0024
                                            0.0006 -0.0000 -0.0000 -0.0000 -0.0000
                                           -0.0000 -0.0128 -0.0000 -0.0010 -0.0000
                                           -0.0000 -0.0000 -0.0000 -0.0000 -0.0000
                                           -0.0933  0.0098 -0.0003  0.0584 -0.0053
                                           -0.0005 -0.0000 -0.0000 -0.0205  0.0032
                                           -0.0003  0.0001 -0.0000 -0.0000 -0.0000
                                           -0.0000  0.0248 -0.0029  0.0006  0.0001
   178. (0.03992) BD*( 1) O   1 - H   4  
                ( 25.51%)   0.5050* O   1 s( 37.30%)p 1.67( 62.23%)d 0.01(  0.46%)
                                                  f 0.00(  0.01%)
                                            0.0003  0.6105 -0.0146 -0.0046  0.0009
                                           -0.2083  0.0211  0.0013  0.0013 -0.7600
                                            0.0292  0.0060  0.0031 -0.0000 -0.0000
                                           -0.0000 -0.0000  0.0046 -0.0043  0.0006
                                           -0.0000 -0.0000 -0.0000 -0.0000 -0.0000
                                           -0.0000 -0.0569 -0.0018 -0.0045 -0.0366
                                            0.0015  0.0015 -0.0000 -0.0000  0.0014
                                            0.0010  0.0074  0.0022 -0.0000 -0.0000
                                           -0.0000 -0.0000  0.0015  0.0037 -0.0006
                                            0.0044
                ( 74.49%)  -0.8631* H   4 s( 99.89%)p 0.00(  0.11%)d 0.00(  0.00%)
                                            0.9992  0.0219  0.0010 -0.0003  0.0118
                                            0.0060  0.0011 -0.0089  0.0275 -0.0084
                                           -0.0000 -0.0000 -0.0000 -0.0013 -0.0007
                                           -0.0000 -0.0000 -0.0000 -0.0000  0.0014
                                           -0.0030  0.0029 -0.0048


 NHO Directionality and "Bond Bending" (deviations from line of nuclear centers)

         [Thresholds for printing:  angular deviation  >  1.0 degree]
                                    hybrid p-character > 25.0%
                                    orbital occupancy  >  0.10e

                                Line of Centers        Hybrid 1              Hybrid 2
                                ---------------  -------------------   ------------------
                NBO               Theta   Phi    Theta   Phi    Dev    Theta   Phi    Dev
 ========================================================================================
     1. BD (   1) O   1 -Cl   2    90.0    0.0    90.0  358.0   2.0      --     --    --
    23. LP (   1) O   1             --     --     90.0  111.6   --       --     --    --
    24. LP (   2) O   1             --     --      0.0    0.0   --       --     --    --
    26. LP (   2)Cl   2             --     --      0.0    0.0   --       --     --    --
    27. LP (   3)Cl   2             --     --     90.0   90.4   --       --     --    --
    29. LP (   2)Br   3             --     --      0.0    0.0   --       --     --    --
    30. LP (   3)Br   3             --     --     90.0  347.0   --       --     --    --
    31. LP (   4)Br   3             --     --     90.0   77.0   --       --     --    --


 Natural Bond Orbitals (Summary):

           NBO                  Occupancy  
 -----------------------------------------------
 Molecular unit  1  (HOCl)
     1. BD (   1) O   1 -Cl   2          1.94195
     2. BD (   1) O   1 - H   4          1.97429
     3. CR (   1) O   1                  1.99946
     4. CR (   1)Cl   2                  2.00000
     5. CR (   2)Cl   2                  1.99985
     6. CR (   3)Cl   2                  1.99997
     7. CR (   4)Cl   2                  2.00003
     8. CR (   5)Cl   2                  2.00003
    23. LP (   1) O   1                  1.96670
    24. LP (   2) O   1                  1.95416
    25. LP (   1)Cl   2                  1.97495
    26. LP (   2)Cl   2                  1.95642
    27. LP (   3)Cl   2                  1.95495
    32. RY*(   1) O   1                  0.01765
    33. RY*(   2) O   1                  0.01471
    34. RY*(   3) O   1                  0.00727
    35. RY*(   4) O   1                  0.00688
    36. RY*(   5) O   1                  0.00601
    37. RY*(   6) O   1                  0.00568
    38. RY*(   7) O   1                  0.00560
    39. RY*(   8) O   1                  0.00248
    40. RY*(   9) O   1                  0.00193
    41. RY*(  10) O   1                  0.00082
    42. RY*(  11) O   1                  0.00066
    43. RY*(  12) O   1                  0.00055
    44. RY*(  13) O   1                  0.00054
    45. RY*(  14) O   1                  0.00048
    46. RY*(  15) O   1                  0.00048
    47. RY*(  16) O   1                  0.00045
    48. RY*(  17) O   1                  0.00043
    49. RY*(  18) O   1                  0.00044
    50. RY*(  19) O   1                  0.00043
    51. RY*(  20) O   1                  0.00043
    52. RY*(  21) O   1                  0.00040
    53. RY*(  22) O   1                  0.00039
    54. RY*(  23) O   1                  0.00030
    55. RY*(  24) O   1                  0.00027
    56. RY*(  25) O   1                  0.00023
    57. RY*(  26) O   1                  0.00019
    58. RY*(  27) O   1                  0.00013
    59. RY*(  28) O   1                  0.00012
    60. RY*(  29) O   1                  0.00012
    61. RY*(  30) O   1                  0.00008
    62. RY*(  31) O   1                  0.00008
    63. RY*(  32) O   1                  0.00008
    64. RY*(  33) O   1                  0.00008
    65. RY*(  34) O   1                  0.00009
    66. RY*(  35) O   1                  0.00007
    67. RY*(  36) O   1                  0.00006
    68. RY*(  37) O   1                  0.00007
    69. RY*(  38) O   1                  0.00004
    70. RY*(  39) O   1                  0.00003
    71. RY*(  40) O   1                  0.00003
    72. RY*(  41) O   1                  0.00003
    73. RY*(   1)Cl   2                  0.02237
    74. RY*(   2)Cl   2                  0.01709
    75. RY*(   3)Cl   2                  0.01664
    76. RY*(   4)Cl   2                  0.01613
    77. RY*(   5)Cl   2                  0.01131
    78. RY*(   6)Cl   2                  0.00904
    79. RY*(   7)Cl   2                  0.00880
    80. RY*(   8)Cl   2                  0.00610
    81. RY*(   9)Cl   2                  0.00165
    82. RY*(  10)Cl   2                  0.00126
    83. RY*(  11)Cl   2                  0.00126
    84. RY*(  12)Cl   2                  0.00119
    85. RY*(  13)Cl   2                  0.00118
    86. RY*(  14)Cl   2                  0.00116
    87. RY*(  15)Cl   2                  0.00109
    88. RY*(  16)Cl   2                  0.00091
    89. RY*(  17)Cl   2                  0.00075
    90. RY*(  18)Cl   2                  0.00075
    91. RY*(  19)Cl   2                  0.00063
    92. RY*(  20)Cl   2                  0.00052
    93. RY*(  21)Cl   2                  0.00040
    94. RY*(  22)Cl   2                  0.00036
    95. RY*(  23)Cl   2                  0.00034
    96. RY*(  24)Cl   2                  0.00028
    97. RY*(  25)Cl   2                  0.00018
    98. RY*(  26)Cl   2                  0.00014
    99. RY*(  27)Cl   2                  0.00013
   100. RY*(  28)Cl   2                  0.00012
   101. RY*(  29)Cl   2                  0.00012
   102. RY*(  30)Cl   2                  0.00012
   103. RY*(  31)Cl   2                  0.00010
   104. RY*(  32)Cl   2                  0.00010
   105. RY*(  33)Cl   2                  0.00009
   106. RY*(  34)Cl   2                  0.00009
   107. RY*(  35)Cl   2                  0.00010
   108. RY*(  36)Cl   2                  0.00006
   109. RY*(  37)Cl   2                  0.00007
   110. RY*(  38)Cl   2                  0.00006
   111. RY*(  39)Cl   2                  0.00003
   112. RY*(  40)Cl   2                  0.00003
   113. RY*(  41)Cl   2                  0.00001
   155. RY*(   1) H   4                  0.01067
   156. RY*(   2) H   4                  0.00567
   157. RY*(   3) H   4                  0.00507
   158. RY*(   4) H   4                  0.00341
   159. RY*(   5) H   4                  0.00063
   160. RY*(   6) H   4                  0.00046
   161. RY*(   7) H   4                  0.00042
   162. RY*(   8) H   4                  0.00030
   163. RY*(   9) H   4                  0.00028
   164. RY*(  10) H   4                  0.00020
   165. RY*(  11) H   4                  0.00021
   166. RY*(  12) H   4                  0.00021
   167. RY*(  13) H   4                  0.00016
   168. RY*(  14) H   4                  0.00015
   169. RY*(  15) H   4                  0.00014
   170. RY*(  16) H   4                  0.00011
   171. RY*(  17) H   4                  0.00009
   172. RY*(  18) H   4                  0.00008
   173. RY*(  19) H   4                  0.00004
   174. RY*(  20) H   4                  0.00003
   175. RY*(  21) H   4                  0.00003
   176. RY*(  22) H   4                  0.00003
   177. BD*(   1) O   1 -Cl   2          0.05649
   178. BD*(   1) O   1 - H   4          0.03992
       -------------------------------
              Total Lewis   25.72275  ( 98.7546%)
        Valence non-Lewis    0.09641  (  0.3701%)
        Rydberg non-Lewis    0.22797  (  0.8752%)
       -------------------------------
            Total unit  1   26.04713  (100.0000%)
           Charge unit  1   -0.04713

 Molecular unit  2  (Br)
     9. CR (   1)Br   3                  2.00001
    10. CR (   2)Br   3                  2.00000
    11. CR (   3)Br   3                  2.00000
    12. CR (   4)Br   3                  2.00002
    13. CR (   5)Br   3                  2.00000
    14. CR (   6)Br   3                  2.00000
    15. CR (   7)Br   3                  2.00000
    16. CR (   8)Br   3                  2.00002
    17. CR (   9)Br   3                  2.00000
    18. CR (  10)Br   3                  1.99766
    19. CR (  11)Br   3                  1.99769
    20. CR (  12)Br   3                  1.99767
    21. CR (  13)Br   3                  1.99765
    22. CR (  14)Br   3                  1.99767
    28. LP (   1)Br   3                  1.97993
    29. LP (   2)Br   3                  1.95404
    30. LP (   3)Br   3                  1.95371
    31. LP (   4)Br   3                  1.92133
   114. RY*(   1)Br   3                  0.01892
   115. RY*(   2)Br   3                  0.01887
   116. RY*(   3)Br   3                  0.01872
   117. RY*(   4)Br   3                  0.01872
   118. RY*(   5)Br   3                  0.01820
   119. RY*(   6)Br   3                  0.01161
   120. RY*(   7)Br   3                  0.01154
   121. RY*(   8)Br   3                  0.01019
   122. RY*(   9)Br   3                  0.00269
   123. RY*(  10)Br   3                  0.00182
   124. RY*(  11)Br   3                  0.00181
   125. RY*(  12)Br   3                  0.00176
   126. RY*(  13)Br   3                  0.00176
   127. RY*(  14)Br   3                  0.00176
   128. RY*(  15)Br   3                  0.00176
   129. RY*(  16)Br   3                  0.00176
   130. RY*(  17)Br   3                  0.00176
   131. RY*(  18)Br   3                  0.00173
   132. RY*(  19)Br   3                  0.00150
   133. RY*(  20)Br   3                  0.00146
   134. RY*(  21)Br   3                  0.00133
   135. RY*(  22)Br   3                  0.00081
   136. RY*(  23)Br   3                  0.00080
   137. RY*(  24)Br   3                  0.00076
   138. RY*(  25)Br   3                  0.00041
   139. RY*(  26)Br   3                  0.00028
   140. RY*(  27)Br   3                  0.00026
   141. RY*(  28)Br   3                  0.00025
   142. RY*(  29)Br   3                  0.00024
   143. RY*(  30)Br   3                  0.00025
   144. RY*(  31)Br   3                  0.00024
   145. RY*(  32)Br   3                  0.00025
   146. RY*(  33)Br   3                  0.00023
   147. RY*(  34)Br   3                  0.00023
   148. RY*(  35)Br   3                  0.00018
   149. RY*(  36)Br   3                  0.00018
   150. RY*(  37)Br   3                  0.00016
   151. RY*(  38)Br   3                  0.00011
   152. RY*(  39)Br   3                  0.00007
   153. RY*(  40)Br   3                  0.00006
   154. RY*(  41)Br   3                  0.00003
       -------------------------------
              Total Lewis   35.79740  ( 99.5676%)
        Valence non-Lewis    0.00000  (  0.0000%)
        Rydberg non-Lewis    0.15547  (  0.4324%)
       -------------------------------
            Total unit  2   35.95287  (100.0000%)
           Charge unit  2   -0.95287
 Leave Link  607 at Tue Oct 12 14:23:10 2021, MaxMem=  1048576000 cpu:         5.7
 (Enter /usr/local/gaussian/g09/l9999.exe)
 1\1\GINC-KRYPTON\SP\RMP2-FC\Aug-CC-pVTZ\Br1Cl1H1O1(1-)\CGAVINH\12-Oct-
 2021\0\\#p pop=NBO SP NoSymm mp2/aug-cc-pvtz density=current\\title\\-
 1,1\O\X,1,10.\Cl,1,1.68432554,2,90.\Br,1,3.07381752,2,90.,3,103.420351
 85,0\H,1,0.8,2,90.,3,103.42035185,0\\Version=ES64L-G09RevE.01\HF=-3107
 .4418298\MP2=-3108.1336423\RMSD=8.746e-09\Dipole=1.0477231,1.2536331,0
 .\Quadrupole=8.3605743,-18.0518621,9.6912878,-6.9139645,0.,0.\PG=CS [S
 G(Br1Cl1H1O1)]\\@


 ACCORDING TO HEN3RY, LIFE IS MUCH LIKE A SEWER........
 YOU GET OUT OF IT JUST WHAT YOU PUT INTO IT...........
                         TOM LEHRER - (THE 3 IS SILENT)
 Job cpu time:       0 days  0 hours  2 minutes 30.4 seconds.
 File lengths (MBytes):  RWF=     14 Int=      0 D2E=      0 Chk=      4 Scr=      1
 Normal termination of Gaussian 09 at Tue Oct 12 14:23:10 2021.
