 Entering Gaussian System, Link 0=g16
 Input=brhocl_rOH_s_05-20.gjf
 Output=brhocl_rOH_s_05-20.log
 Initial command:
 /sw/contrib/gaussian/g16/B01/g16/l1.exe "/scr/Gau-1580.inp" -scrdir="/scr/"
 Entering Link 1 = /sw/contrib/gaussian/g16/B01/g16/l1.exe PID=      1581.
  
 Copyright (c) 1988-2017, Gaussian, Inc.  All Rights Reserved.
  
 This is part of the Gaussian(R) 16 program.  It is based on
 the Gaussian(R) 09 system (copyright 2009, Gaussian, Inc.),
 the Gaussian(R) 03 system (copyright 2003, Gaussian, Inc.),
 the Gaussian(R) 98 system (copyright 1998, Gaussian, Inc.),
 the Gaussian(R) 94 system (copyright 1995, Gaussian, Inc.),
 the Gaussian 92(TM) system (copyright 1992, Gaussian, Inc.),
 the Gaussian 90(TM) system (copyright 1990, Gaussian, Inc.),
 the Gaussian 88(TM) system (copyright 1988, Gaussian, Inc.),
 the Gaussian 86(TM) system (copyright 1986, Carnegie Mellon
 University), and the Gaussian 82(TM) system (copyright 1983,
 Carnegie Mellon University). Gaussian is a federally registered
 trademark of Gaussian, Inc.
  
 This software contains proprietary and confidential information,
 including trade secrets, belonging to Gaussian, Inc.
  
 This software is provided under written license and may be
 used, copied, transmitted, or stored only in accord with that
 written license.
  
 The following legend is applicable only to US Government
 contracts under FAR:
  
                    RESTRICTED RIGHTS LEGEND
  
 Use, reproduction and disclosure by the US Government is
 subject to restrictions as set forth in subparagraphs (a)
 and (c) of the Commercial Computer Software - Restricted
 Rights clause in FAR 52.227-19.
  
 Gaussian, Inc.
 340 Quinnipiac St., Bldg. 40, Wallingford CT 06492
  
  
 ---------------------------------------------------------------
 Warning -- This program may not be used in any manner that
 competes with the business of Gaussian, Inc. or will provide
 assistance to any competitor of Gaussian, Inc.  The licensee
 of this program is prohibited from giving any competitor of
 Gaussian, Inc. access to this program.  By using this program,
 the user acknowledges that Gaussian, Inc. is engaged in the
 business of creating and licensing software in the field of
 computational chemistry and represents and warrants to the
 licensee that it is not a competitor of Gaussian, Inc. and that
 it will not use this program in any manner prohibited above.
 ---------------------------------------------------------------
  

 Cite this work as:
 Gaussian 16, Revision B.01,
 M. J. Frisch, G. W. Trucks, H. B. Schlegel, G. E. Scuseria, 
 M. A. Robb, J. R. Cheeseman, G. Scalmani, V. Barone, 
 G. A. Petersson, H. Nakatsuji, X. Li, M. Caricato, A. V. Marenich, 
 J. Bloino, B. G. Janesko, R. Gomperts, B. Mennucci, H. P. Hratchian, 
 J. V. Ortiz, A. F. Izmaylov, J. L. Sonnenberg, D. Williams-Young, 
 F. Ding, F. Lipparini, F. Egidi, J. Goings, B. Peng, A. Petrone, 
 T. Henderson, D. Ranasinghe, V. G. Zakrzewski, J. Gao, N. Rega, 
 G. Zheng, W. Liang, M. Hada, M. Ehara, K. Toyota, R. Fukuda, 
 J. Hasegawa, M. Ishida, T. Nakajima, Y. Honda, O. Kitao, H. Nakai, 
 T. Vreven, K. Throssell, J. A. Montgomery, Jr., J. E. Peralta, 
 F. Ogliaro, M. J. Bearpark, J. J. Heyd, E. N. Brothers, K. N. Kudin, 
 V. N. Staroverov, T. A. Keith, R. Kobayashi, J. Normand, 
 K. Raghavachari, A. P. Rendell, J. C. Burant, S. S. Iyengar, 
 J. Tomasi, M. Cossi, J. M. Millam, M. Klene, C. Adamo, R. Cammi, 
 J. W. Ochterski, R. L. Martin, K. Morokuma, O. Farkas, 
 J. B. Foresman, and D. J. Fox, Gaussian, Inc., Wallingford CT, 2016.
 
 ******************************************
 Gaussian 16:  ES64L-G16RevB.01 20-Dec-2017
                 1-Dec-2021 
 ******************************************
 %nproc=28
 Will use up to   28 processors via shared memory.
 %mem=120GB
 %chk=/gscratch/ilahie/mccoygrp/coire_hocl/rOH_s_oop_0/brhocl/brhocl_rOH_s_05-20.
 chk
 -------------------------------------------------
 #p opt=(z-matrix) mp2/aug-cc-pvtz density=current
 -------------------------------------------------
 1/10=7,18=40,38=1/1,3;
 2/12=2,17=6,18=5,29=3,40=1/2;
 3/5=16,6=1,7=10,11=9,25=1,30=1,71=1/1,2,3;
 4//1;
 5/5=2,38=5/2;
 8/6=4,10=1/1;
 9/15=2,16=-3/6;
 10/5=1/2;
 6/7=2,8=2,9=2,10=2,22=-1/1;
 7/12=2,29=1/1,2,3,16;
 1/10=7,18=40/3(2);
 2/29=3/2;
 99//99;
 2/29=3/2;
 3/5=16,6=1,7=10,11=9,25=1,30=1,71=1/1,2,3;
 4/5=5,16=3,69=1/1;
 5/5=2,38=5/2;
 8/6=4,10=1/1;
 9/15=2,16=-3/6;
 10/5=1/2;
 7/12=2/1,2,3,16;
 1/18=40/3(-8);
 2/29=3/2;
 6/7=2,8=2,9=2,10=2,22=-1/1;
 99/9=10/99;
 Leave Link    1 at Wed Dec  1 11:25:25 2021, MaxMem= 16106127360 cpu:               1.2 elap:               0.1
 (Enter /sw/contrib/gaussian/g16/B01/g16/l101.exe)
 -----
 title
 -----
 Symbolic Z-matrix:
 Charge = -1 Multiplicity = 1
 O
 X                    1     10. 
 Cl                   1    r1       2     90. 
 Br                   1    r2       2     90.      3    a1       0
 H                    1    r3       2    oop      3    a1       0
       Variables:
  r1                    1.68433 -1        0.     
  r2                    3.07382 -1        0.     
  r3                    0.6    Scan 28    0.05   
  a1                  103.42035 -1        0.     
  OOP                  90.      -1        0.     
 
 ITRead=  0  0  0  0
 MicOpt= -1 -1 -1 -1
 NAtoms=      4 NQM=        4 NQMF=       0 NMMI=      0 NMMIF=      0
                NMic=       0 NMicF=      0.
                    Isotopes and Nuclear Properties:
 (Nuclear quadrupole moments (NQMom) in fm**2, nuclear magnetic moments (NMagM)
  in nuclear magnetons)

  Atom         1           2           3           4
 IAtWgt=          16          35          79           1
 AtmWgt=  15.9949146  34.9688527  78.9183361   1.0078250
 NucSpn=           0           3           3           1
 AtZEff=  -0.0000000  -0.0000000  -0.0000000  -0.0000000
 NQMom=    0.0000000  -8.1650000  31.3000000   0.0000000
 NMagM=    0.0000000   0.8218740   2.1063990   2.7928460
 AtZNuc=   8.0000000  17.0000000  35.0000000   1.0000000
 Leave Link  101 at Wed Dec  1 11:25:26 2021, MaxMem= 16106127360 cpu:               4.4 elap:               0.2
 (Enter /sw/contrib/gaussian/g16/B01/g16/l103.exe)

 GradGradGradGradGradGradGradGradGradGradGradGradGradGradGradGradGradGrad
 Berny optimization.
 Initialization pass.
                       ----------------------------
                       !    Initial Parameters    !
                       ! (Angstroms and Degrees)  !
 ----------------------                            ----------------------
 !      Name          Value   Derivative information (Atomic Units)     !
 ------------------------------------------------------------------------
 !       r1          1.6843   Frozen                                    !
 !       r2          3.0738   Frozen                                    !
 !       r3          0.6      Scan                                      !
 !       a1        103.4204   Frozen                                    !
 !       OOP        90.0      Frozen                                    !
 ------------------------------------------------------------------------
 Trust Radius=3.00D-01 FncErr=1.00D-07 GrdErr=1.00D-07 EigMax=2.50D+02 EigMin=1.00D-04
 Number of optimizations in scan=  29
 Number of steps in this run=     20 maximum allowed number of steps=    100.
 GradGradGradGradGradGradGradGradGradGradGradGradGradGradGradGradGradGrad

 Leave Link  103 at Wed Dec  1 11:25:26 2021, MaxMem= 16106127360 cpu:               0.8 elap:               0.1
 (Enter /sw/contrib/gaussian/g16/B01/g16/l202.exe)
 ---------------------------------------------------------------------------------------------------
                            Z-MATRIX (ANGSTROMS AND DEGREES)
   CD    Cent   Atom    N1       Length/X        N2       Alpha/Y        N3        Beta/Z          J
 ---------------------------------------------------------------------------------------------------
      1      1  O 
      2         X        1  10.000000(     1)
      3      2  Cl       1   1.684326(     2)      2   90.000(     5)
      4      3  Br       1   3.073818(     3)      2   90.000(     6)      3  103.420(     8)      0
      5      4  H        1   0.600000(     4)      2   90.000(     7)      3  103.420(     9)      0
 ---------------------------------------------------------------------------------------------------
                         Z-Matrix orientation:                         
 ---------------------------------------------------------------------
 Center     Atomic      Atomic             Coordinates (Angstroms)
 Number     Number       Type             X           Y           Z
 ---------------------------------------------------------------------
      1          8           0        0.000000    0.000000    0.000000
      2         -1           0        0.000000    0.000000   10.000000
      3         17           0        1.684326    0.000000    0.000000
      4         35           0       -0.713413   -2.989882    0.000000
      5          1           0       -0.139256   -0.583616    0.000000
 ---------------------------------------------------------------------
                    Distance matrix (angstroms):
                    1          2          3          4          5
     1  O    0.000000
     2  X   10.000000   0.000000
     3  Cl   1.684326  10.140856   0.000000
     4  Br   3.073818  10.461757   3.832564   0.000000
     5  H    0.600000  10.017984   1.914695   2.473818   0.000000
 Stoichiometry    BrClHO(1-)
 Framework group  CS[SG(BrClHO)]
 Deg. of freedom     5
 Full point group                 CS      NOp   2
 Largest Abelian subgroup         CS      NOp   2
 Largest concise Abelian subgroup C1      NOp   1
                         Standard orientation:                         
 ---------------------------------------------------------------------
 Center     Atomic      Atomic             Coordinates (Angstroms)
 Number     Number       Type             X           Y           Z
 ---------------------------------------------------------------------
      1          8           0        0.236503    1.709762    0.000000
      2         17           0        1.896281    1.423248    0.000000
      3         35           0       -0.975108   -1.115190    0.000000
      4          1           0       -0.000000    1.158339    0.000000
 ---------------------------------------------------------------------
 Rotational constants (GHZ):          22.4236618           1.2789617           1.2099507
 Leave Link  202 at Wed Dec  1 11:25:26 2021, MaxMem= 16106127360 cpu:               3.5 elap:               0.2
 (Enter /sw/contrib/gaussian/g16/B01/g16/l301.exe)
 Standard basis: Aug-CC-pVTZ (5D, 7F)
 Ernie: Thresh=  0.10000D-02 Tol=  0.10000D-05 Strict=F.
 Ernie:  48 primitive shells out of 228 were deleted.
 There are   142 symmetry adapted cartesian basis functions of A'  symmetry.
 There are    66 symmetry adapted cartesian basis functions of A"  symmetry.
 There are   118 symmetry adapted basis functions of A'  symmetry.
 There are    60 symmetry adapted basis functions of A"  symmetry.
   178 basis functions,   430 primitive gaussians,   208 cartesian basis functions
    31 alpha electrons       31 beta electrons
       nuclear repulsion energy       192.3269098817 Hartrees.
 IExCor=    0 DFT=F Ex=HF Corr=None ExCW=0 ScaHFX=  1.000000
 ScaDFX=  1.000000  1.000000  1.000000  1.000000 ScalE2=  1.000000  1.000000
 IRadAn=      5 IRanWt=     -1 IRanGd=            0 ICorTp=0 IEmpDi=  4
 NAtoms=    4 NActive=    4 NUniq=    4 SFac= 1.00D+00 NAtFMM=   60 NAOKFM=F Big=F
 Integral buffers will be    131072 words long.
 Raffenetti 1 integral format.
 Two-electron integral symmetry is turned on.
 Leave Link  301 at Wed Dec  1 11:25:26 2021, MaxMem= 16106127360 cpu:               1.8 elap:               0.1
 (Enter /sw/contrib/gaussian/g16/B01/g16/l302.exe)
 NPDir=0 NMtPBC=     1 NCelOv=     1 NCel=       1 NClECP=     1 NCelD=      1
         NCelK=      1 NCelE2=     1 NClLst=     1 CellRange=     0.0.
 One-electron integrals computed using PRISM.
 One-electron integral symmetry used in STVInt
 NBasis=   178 RedAO= T EigKep=  1.29D-04  NBF=   118    60
 NBsUse=   178 1.00D-06 EigRej= -1.00D+00 NBFU=   118    60
 Leave Link  302 at Wed Dec  1 11:25:27 2021, MaxMem= 16106127360 cpu:               6.9 elap:               0.4
 (Enter /sw/contrib/gaussian/g16/B01/g16/l303.exe)
 DipDrv:  MaxL=1.
 Leave Link  303 at Wed Dec  1 11:25:27 2021, MaxMem= 16106127360 cpu:               0.9 elap:               0.1
 (Enter /sw/contrib/gaussian/g16/B01/g16/l401.exe)
 ExpMin= 2.53D-02 ExpMax= 1.06D+07 ExpMxC= 1.21D+04 IAcc=3 IRadAn=         5 AccDes= 0.00D+00
 Harris functional with IExCor=  205 and IRadAn=       5 diagonalized for initial guess.
 HarFok:  IExCor=  205 AccDes= 0.00D+00 IRadAn=         5 IDoV= 1 UseB2=F ITyADJ=14
 ICtDFT=  3500011 ScaDFX=  1.000000  1.000000  1.000000  1.000000
 FoFCou: FMM=F IPFlag=           0 FMFlag=      100000 FMFlg1=           0
         NFxFlg=           0 DoJE=T BraDBF=F KetDBF=T FulRan=T
         wScrn=  0.000000 ICntrl=       500 IOpCl=  0 I1Cent=   200000004 NGrid=           0
         NMat0=    1 NMatS0=      1 NMatT0=    0 NMatD0=    1 NMtDS0=    0 NMtDT0=    0
 Petite list used in FoFCou.
 Harris En= -3106.12291595851    
 JPrj=0 DoOrth=F DoCkMO=F.
 Initial guess orbital symmetries:
       Occupied  (A') (A') (A') (A') (A') (A") (A') (A') (A') (A')
                 (A') (A") (A') (A') (A") (A') (A') (A") (A") (A')
                 (A') (A') (A') (A') (A') (A") (A') (A') (A") (A')
                 (A")
       Virtual   (A') (A') (A') (A') (A") (A') (A') (A") (A') (A")
                 (A') (A') (A") (A') (A") (A') (A') (A') (A') (A")
                 (A') (A') (A") (A') (A") (A') (A') (A") (A') (A')
                 (A') (A") (A') (A") (A') (A") (A') (A') (A") (A')
                 (A') (A') (A") (A') (A") (A') (A") (A') (A") (A')
                 (A") (A') (A') (A") (A') (A') (A') (A") (A") (A')
                 (A') (A") (A') (A') (A') (A') (A") (A') (A") (A')
                 (A") (A') (A') (A") (A') (A') (A') (A") (A') (A')
                 (A") (A') (A") (A') (A") (A") (A') (A") (A') (A')
                 (A') (A") (A') (A') (A') (A") (A") (A') (A") (A')
                 (A') (A") (A") (A') (A') (A") (A') (A') (A") (A')
                 (A') (A") (A') (A') (A") (A') (A") (A') (A') (A')
                 (A') (A') (A") (A') (A") (A") (A') (A') (A') (A")
                 (A') (A') (A') (A") (A') (A') (A") (A") (A') (A")
                 (A') (A') (A') (A") (A') (A') (A')
 The electronic state of the initial guess is 1-A'.
 Leave Link  401 at Wed Dec  1 11:25:27 2021, MaxMem= 16106127360 cpu:              10.1 elap:               0.5
 (Enter /sw/contrib/gaussian/g16/B01/g16/l502.exe)
 Keep R1 ints in memory in symmetry-blocked form, NReq=191183261.
 FoFCou: FMM=F IPFlag=           0 FMFlag=           0 FMFlg1=           0
         NFxFlg=           0 DoJE=F BraDBF=F KetDBF=F FulRan=T
         wScrn=  0.000000 ICntrl=       600 IOpCl=  0 I1Cent=           0 NGrid=           0
         NMat0=    1 NMatS0=  15931 NMatT0=    0 NMatD0=    1 NMtDS0=    0 NMtDT0=    0
 Petite list used in FoFCou.
 Closed shell SCF:
 Using DIIS extrapolation, IDIIS=  1040.
 NGot= 16106127360 LenX= 16041757360 LenY= 16041713655
 Requested convergence on RMS density matrix=1.00D-08 within 128 cycles.
 Requested convergence on MAX density matrix=1.00D-06.
 Requested convergence on             energy=1.00D-06.
 No special actions if energy rises.

 Cycle   1  Pass 1  IDiag  1:
 E= -3106.84925718328    
 DIIS: error= 6.25D-02 at cycle   1 NSaved=   1.
 NSaved= 1 IEnMin= 1 EnMin= -3106.84925718328     IErMin= 1 ErrMin= 6.25D-02
 ErrMax= 6.25D-02  0.00D+00 EMaxC= 1.00D-01 BMatC= 8.28D-01 BMatP= 8.28D-01
 IDIUse=3 WtCom= 3.75D-01 WtEn= 6.25D-01
 Coeff-Com:  0.100D+01
 Coeff-En:   0.100D+01
 Coeff:      0.100D+01
 Gap=     0.620 Goal=   None    Shift=    0.000
 GapD=    0.620 DampG=2.000 DampE=0.500 DampFc=1.0000 IDamp=-1.
 RMSDP=3.40D-03 MaxDP=9.66D-02              OVMax= 2.04D-01

 Cycle   2  Pass 1  IDiag  1:
 E= -3107.04651960288     Delta-E=       -0.197262419604 Rises=F Damp=F
 DIIS: error= 3.03D-02 at cycle   2 NSaved=   2.
 NSaved= 2 IEnMin= 2 EnMin= -3107.04651960288     IErMin= 2 ErrMin= 3.03D-02
 ErrMax= 3.03D-02  0.00D+00 EMaxC= 1.00D-01 BMatC= 1.49D-01 BMatP= 8.28D-01
 IDIUse=3 WtCom= 6.97D-01 WtEn= 3.03D-01
 Coeff-Com:  0.252D+00 0.748D+00
 Coeff-En:   0.434D-01 0.957D+00
 Coeff:      0.188D+00 0.812D+00
 Gap=     0.309 Goal=   None    Shift=    0.000
 RMSDP=1.43D-03 MaxDP=5.27D-02 DE=-1.97D-01 OVMax= 1.33D-01

 Cycle   3  Pass 1  IDiag  1:
 E= -3107.12837613519     Delta-E=       -0.081856532307 Rises=F Damp=F
 DIIS: error= 1.11D-02 at cycle   3 NSaved=   3.
 NSaved= 3 IEnMin= 3 EnMin= -3107.12837613519     IErMin= 3 ErrMin= 1.11D-02
 ErrMax= 1.11D-02  0.00D+00 EMaxC= 1.00D-01 BMatC= 2.48D-02 BMatP= 1.49D-01
 IDIUse=3 WtCom= 8.89D-01 WtEn= 1.11D-01
 Coeff-Com:  0.379D-03 0.283D+00 0.717D+00
 Coeff-En:   0.000D+00 0.000D+00 0.100D+01
 Coeff:      0.337D-03 0.252D+00 0.748D+00
 Gap=     0.308 Goal=   None    Shift=    0.000
 RMSDP=4.57D-04 MaxDP=1.89D-02 DE=-8.19D-02 OVMax= 4.93D-02

 Cycle   4  Pass 1  IDiag  1:
 E= -3107.14485106943     Delta-E=       -0.016474934239 Rises=F Damp=F
 DIIS: error= 1.77D-03 at cycle   4 NSaved=   4.
 NSaved= 4 IEnMin= 4 EnMin= -3107.14485106943     IErMin= 4 ErrMin= 1.77D-03
 ErrMax= 1.77D-03  0.00D+00 EMaxC= 1.00D-01 BMatC= 3.56D-04 BMatP= 2.48D-02
 IDIUse=3 WtCom= 9.82D-01 WtEn= 1.77D-02
 Coeff-Com: -0.557D-02-0.468D-01 0.860D-02 0.104D+01
 Coeff-En:   0.000D+00 0.000D+00 0.000D+00 0.100D+01
 Coeff:     -0.547D-02-0.460D-01 0.845D-02 0.104D+01
 Gap=     0.306 Goal=   None    Shift=    0.000
 RMSDP=7.36D-05 MaxDP=1.98D-03 DE=-1.65D-02 OVMax= 4.87D-03

 Cycle   5  Pass 1  IDiag  1:
 E= -3107.14522840314     Delta-E=       -0.000377333712 Rises=F Damp=F
 DIIS: error= 4.45D-04 at cycle   5 NSaved=   5.
 NSaved= 5 IEnMin= 5 EnMin= -3107.14522840314     IErMin= 5 ErrMin= 4.45D-04
 ErrMax= 4.45D-04  0.00D+00 EMaxC= 1.00D-01 BMatC= 1.99D-05 BMatP= 3.56D-04
 IDIUse=3 WtCom= 9.96D-01 WtEn= 4.45D-03
 Coeff-Com:  0.144D-02-0.830D-02-0.352D-01-0.231D+00 0.127D+01
 Coeff-En:   0.000D+00 0.000D+00 0.000D+00 0.000D+00 0.100D+01
 Coeff:      0.144D-02-0.826D-02-0.350D-01-0.230D+00 0.127D+01
 Gap=     0.307 Goal=   None    Shift=    0.000
 RMSDP=3.68D-05 MaxDP=1.06D-03 DE=-3.77D-04 OVMax= 3.54D-03

 Cycle   6  Pass 1  IDiag  1:
 E= -3107.14528537733     Delta-E=       -0.000056974186 Rises=F Damp=F
 DIIS: error= 1.86D-04 at cycle   6 NSaved=   6.
 NSaved= 6 IEnMin= 6 EnMin= -3107.14528537733     IErMin= 6 ErrMin= 1.86D-04
 ErrMax= 1.86D-04  0.00D+00 EMaxC= 1.00D-01 BMatC= 2.49D-06 BMatP= 1.99D-05
 IDIUse=3 WtCom= 9.98D-01 WtEn= 1.86D-03
 Coeff-Com:  0.220D-03 0.485D-02 0.583D-02-0.743D-01-0.217D+00 0.128D+01
 Coeff-En:   0.000D+00 0.000D+00 0.000D+00 0.000D+00 0.000D+00 0.100D+01
 Coeff:      0.220D-03 0.484D-02 0.582D-02-0.741D-01-0.217D+00 0.128D+01
 Gap=     0.307 Goal=   None    Shift=    0.000
 RMSDP=1.63D-05 MaxDP=4.71D-04 DE=-5.70D-05 OVMax= 1.79D-03

 Cycle   7  Pass 1  IDiag  1:
 E= -3107.14529483934     Delta-E=       -0.000009462007 Rises=F Damp=F
 DIIS: error= 6.36D-05 at cycle   7 NSaved=   7.
 NSaved= 7 IEnMin= 7 EnMin= -3107.14529483934     IErMin= 7 ErrMin= 6.36D-05
 ErrMax= 6.36D-05  0.00D+00 EMaxC= 1.00D-01 BMatC= 2.81D-07 BMatP= 2.49D-06
 IDIUse=1 WtCom= 1.00D+00 WtEn= 0.00D+00
 Coeff-Com: -0.247D-03 0.140D-03 0.478D-02 0.513D-01-0.183D+00-0.941D-01
 Coeff-Com:  0.122D+01
 Coeff:     -0.247D-03 0.140D-03 0.478D-02 0.513D-01-0.183D+00-0.941D-01
 Coeff:      0.122D+01
 Gap=     0.307 Goal=   None    Shift=    0.000
 RMSDP=6.28D-06 MaxDP=2.01D-04 DE=-9.46D-06 OVMax= 7.83D-04

 Cycle   8  Pass 1  IDiag  1:
 E= -3107.14529591385     Delta-E=       -0.000001074518 Rises=F Damp=F
 DIIS: error= 1.00D-05 at cycle   8 NSaved=   8.
 NSaved= 8 IEnMin= 8 EnMin= -3107.14529591385     IErMin= 8 ErrMin= 1.00D-05
 ErrMax= 1.00D-05  0.00D+00 EMaxC= 1.00D-01 BMatC= 2.10D-08 BMatP= 2.81D-07
 IDIUse=1 WtCom= 1.00D+00 WtEn= 0.00D+00
 Coeff-Com:  0.151D-04-0.495D-03-0.110D-02-0.152D-02 0.366D-01-0.525D-01
 Coeff-Com: -0.274D+00 0.129D+01
 Coeff:      0.151D-04-0.495D-03-0.110D-02-0.152D-02 0.366D-01-0.525D-01
 Coeff:     -0.274D+00 0.129D+01
 Gap=     0.307 Goal=   None    Shift=    0.000
 RMSDP=1.96D-06 MaxDP=6.23D-05 DE=-1.07D-06 OVMax= 2.67D-04

 Cycle   9  Pass 1  IDiag  1:
 E= -3107.14529600762     Delta-E=       -0.000000093763 Rises=F Damp=F
 DIIS: error= 4.83D-06 at cycle   9 NSaved=   9.
 NSaved= 9 IEnMin= 9 EnMin= -3107.14529600762     IErMin= 9 ErrMin= 4.83D-06
 ErrMax= 4.83D-06  0.00D+00 EMaxC= 1.00D-01 BMatC= 2.61D-09 BMatP= 2.10D-08
 IDIUse=1 WtCom= 1.00D+00 WtEn= 0.00D+00
 Coeff-Com:  0.156D-04 0.143D-03-0.469D-04-0.356D-02 0.181D-02 0.318D-01
 Coeff-Com: -0.125D-01-0.504D+00 0.149D+01
 Coeff:      0.156D-04 0.143D-03-0.469D-04-0.356D-02 0.181D-02 0.318D-01
 Coeff:     -0.125D-01-0.504D+00 0.149D+01
 Gap=     0.307 Goal=   None    Shift=    0.000
 RMSDP=7.75D-07 MaxDP=2.50D-05 DE=-9.38D-08 OVMax= 1.11D-04

 Cycle  10  Pass 1  IDiag  1:
 E= -3107.14529602148     Delta-E=       -0.000000013867 Rises=F Damp=F
 DIIS: error= 1.57D-06 at cycle  10 NSaved=  10.
 NSaved=10 IEnMin=10 EnMin= -3107.14529602148     IErMin=10 ErrMin= 1.57D-06
 ErrMax= 1.57D-06  0.00D+00 EMaxC= 1.00D-01 BMatC= 2.87D-10 BMatP= 2.61D-09
 IDIUse=1 WtCom= 1.00D+00 WtEn= 0.00D+00
 Coeff-Com: -0.339D-05 0.737D-04 0.149D-03 0.362D-03-0.544D-02 0.693D-02
 Coeff-Com:  0.351D-01-0.160D+00-0.305D-01 0.115D+01
 Coeff:     -0.339D-05 0.737D-04 0.149D-03 0.362D-03-0.544D-02 0.693D-02
 Coeff:      0.351D-01-0.160D+00-0.305D-01 0.115D+01
 Gap=     0.307 Goal=   None    Shift=    0.000
 RMSDP=2.34D-07 MaxDP=8.18D-06 DE=-1.39D-08 OVMax= 3.32D-05

 Cycle  11  Pass 1  IDiag  1:
 E= -3107.14529602265     Delta-E=       -0.000000001168 Rises=F Damp=F
 DIIS: error= 4.05D-07 at cycle  11 NSaved=  11.
 NSaved=11 IEnMin=11 EnMin= -3107.14529602265     IErMin=11 ErrMin= 4.05D-07
 ErrMax= 4.05D-07  0.00D+00 EMaxC= 1.00D-01 BMatC= 1.66D-11 BMatP= 2.87D-10
 IDIUse=1 WtCom= 1.00D+00 WtEn= 0.00D+00
 Coeff-Com: -0.103D-05-0.193D-04-0.106D-04 0.384D-03 0.128D-03-0.331D-02
 Coeff-Com: -0.131D-02 0.572D-01-0.123D+00-0.131D+00 0.120D+01
 Coeff:     -0.103D-05-0.193D-04-0.106D-04 0.384D-03 0.128D-03-0.331D-02
 Coeff:     -0.131D-02 0.572D-01-0.123D+00-0.131D+00 0.120D+01
 Gap=     0.307 Goal=   None    Shift=    0.000
 RMSDP=5.40D-08 MaxDP=1.85D-06 DE=-1.17D-09 OVMax= 6.61D-06

 Cycle  12  Pass 1  IDiag  1:
 E= -3107.14529602272     Delta-E=       -0.000000000064 Rises=F Damp=F
 DIIS: error= 9.88D-08 at cycle  12 NSaved=  12.
 NSaved=12 IEnMin=12 EnMin= -3107.14529602272     IErMin=12 ErrMin= 9.88D-08
 ErrMax= 9.88D-08  0.00D+00 EMaxC= 1.00D-01 BMatC= 8.54D-13 BMatP= 1.66D-11
 IDIUse=1 WtCom= 1.00D+00 WtEn= 0.00D+00
 Coeff-Com:  0.181D-06-0.191D-05-0.585D-05-0.579D-04 0.275D-03-0.157D-03
 Coeff-Com: -0.157D-02 0.408D-02 0.130D-01-0.640D-01-0.558D-01 0.110D+01
 Coeff:      0.181D-06-0.191D-05-0.585D-05-0.579D-04 0.275D-03-0.157D-03
 Coeff:     -0.157D-02 0.408D-02 0.130D-01-0.640D-01-0.558D-01 0.110D+01
 Gap=     0.307 Goal=   None    Shift=    0.000
 RMSDP=1.03D-08 MaxDP=3.00D-07 DE=-6.41D-11 OVMax= 9.64D-07

 Cycle  13  Pass 1  IDiag  1:
 E= -3107.14529602273     Delta-E=       -0.000000000011 Rises=F Damp=F
 DIIS: error= 3.04D-08 at cycle  13 NSaved=  13.
 NSaved=13 IEnMin=13 EnMin= -3107.14529602273     IErMin=13 ErrMin= 3.04D-08
 ErrMax= 3.04D-08  0.00D+00 EMaxC= 1.00D-01 BMatC= 8.20D-14 BMatP= 8.54D-13
 IDIUse=1 WtCom= 1.00D+00 WtEn= 0.00D+00
 Coeff-Com:  0.101D-06 0.792D-06-0.374D-06-0.201D-04-0.281D-05 0.154D-03
 Coeff-Com:  0.236D-03-0.408D-02 0.863D-02 0.818D-02-0.880D-01-0.278D-02
 Coeff-Com:  0.108D+01
 Coeff:      0.101D-06 0.792D-06-0.374D-06-0.201D-04-0.281D-05 0.154D-03
 Coeff:      0.236D-03-0.408D-02 0.863D-02 0.818D-02-0.880D-01-0.278D-02
 Coeff:      0.108D+01
 Gap=     0.307 Goal=   None    Shift=    0.000
 RMSDP=3.28D-09 MaxDP=8.41D-08 DE=-1.09D-11 OVMax= 2.92D-07

 SCF Done:  E(RHF) =  -3107.14529602     A.U. after   13 cycles
            NFock= 13  Conv=0.33D-08     -V/T= 1.9995
 KE= 3.108784277652D+03 PE=-7.827437618286D+03 EE= 1.419181134729D+03
 Leave Link  502 at Wed Dec  1 11:25:30 2021, MaxMem= 16106127360 cpu:              50.3 elap:               2.6
 (Enter /sw/contrib/gaussian/g16/B01/g16/l801.exe)
 ExpMin= 2.53D-02 ExpMax= 1.06D+07 ExpMxC= 1.21D+04 IAcc=3 IRadAn=         5 AccDes= 0.00D+00
 HarFok:  IExCor=  205 AccDes= 0.00D+00 IRadAn=         5 IDoV=-2 UseB2=F ITyADJ=14
 ICtDFT= 12500011 ScaDFX=  1.000000  1.000000  1.000000  1.000000
 Largest valence mixing into a core orbital is  4.49D-04
 Largest core mixing into a valence orbital is  1.57D-04
 Range of M.O.s used for correlation:    16   178
 NBasis=   178 NAE=    31 NBE=    31 NFC=    15 NFV=     0
 NROrb=    163 NOA=    16 NOB=    16 NVA=   147 NVB=   147

 **** Warning!!: The largest alpha MO coefficient is  0.22282295D+02

 Leave Link  801 at Wed Dec  1 11:25:30 2021, MaxMem= 16106127360 cpu:               2.8 elap:               0.1
 (Enter /sw/contrib/gaussian/g16/B01/g16/l906.exe)
 Frozen-core derivative calculation, NFC=  15 NFV=   0.
 FulOut=F Deriv=T AODrv=T NAtomX=     4
   MMem=         123  MDisk=          16 MDiskD=          16
  W3Min=     1147744 MinDsk=     1765480 NBas6D=         208
 NBas2D=       22240    NTT=       21736    LW2=     9911920
    MDV= 16105602436 MDiskM=      387105 NBas2p=       22137
 Fully direct method using O(ONN) memory.
 IMap=   1   2   3   4   5   6   7   8   9  10  11  12  13  14  15  16  17  18  19  20
 IMap=  21  22  23  24  25  26  27  28  29  30  31
 JobTyp=1 Pass  1:  I=  16 to  31 NPSUse= 28 ParTrn=T ParDer=T DoDerP=T.
 Spin components of T(2) and E(2):
     alpha-alpha T2 =       0.2799089102D-01 E2=     -0.9050477306D-01
     alpha-beta  T2 =       0.1517005393D+00 E2=     -0.5018336928D+00
     beta-beta   T2 =       0.2799089102D-01 E2=     -0.9050477306D-01
 The integrals were generated   1 times.
 ANorm=    0.1098946005D+01
 E2 =    -0.6828432389D+00 EUMP2 =    -0.31078281392617D+04
 Leave Link  906 at Wed Dec  1 11:25:46 2021, MaxMem= 16106127360 cpu:             445.6 elap:              16.0
 (Enter /sw/contrib/gaussian/g16/B01/g16/l1002.exe)
 Minotr:  Closed shell wavefunction.
          Computing MP2/KS-MP2 derivatives.
          Using Z-Vector for PSCF gradient.
          Skipping F1 and S1 gradient terms here.
          IDoAtm=1111
          Frozen-core window.
          Direct CPHF calculation.
          Differentiating once with respect to electric field.
                with respect to dipole field.
          Differentiating once with respect to nuclear coordinates.
          Using symmetry in CPHF.
          Requested convergence is 1.0D-10 RMS, and 1.0D-09 maximum.
          NewPWx=F KeepS1=T KeepF1=T KeepIn=T MapXYZ=F SortEE=F KeepMc=T.
 Keep R1 ints in memory in symmetry-blocked form, NReq=191184324.
 FoFCou: FMM=F IPFlag=           0 FMFlag=           0 FMFlg1=           0
         NFxFlg=           0 DoJE=F BraDBF=F KetDBF=F FulRan=T
         wScrn=  0.000000 ICntrl=       600 IOpCl=  0 I1Cent=           0 NGrid=           0
         NMat0=    1 NMatS0=  15931 NMatT0=    0 NMatD0=    1 NMtDS0=    0 NMtDT0=    0
 Petite list used in FoFCou.
          MDV=   16106127360 using IRadAn=       5.
          Solving linear equations separately, MaxMat=       0.
          There are     1 degrees of freedom in the 1st order CPHF.  IDoFFX=0 NUNeed=     1.
 LinEq1:  Iter=  0 NonCon=     1 RMS=2.30D-03 Max=3.62D-02 NDo=     1
 AX will form     1 AO Fock derivatives at one time.
 LinEq1:  Iter=  1 NonCon=     1 RMS=3.63D-04 Max=5.32D-03 NDo=     1
 LinEq1:  Iter=  2 NonCon=     1 RMS=1.57D-04 Max=2.99D-03 NDo=     1
 LinEq1:  Iter=  3 NonCon=     1 RMS=4.23D-05 Max=7.50D-04 NDo=     1
 LinEq1:  Iter=  4 NonCon=     1 RMS=9.30D-06 Max=2.01D-04 NDo=     1
 LinEq1:  Iter=  5 NonCon=     1 RMS=2.61D-06 Max=7.72D-05 NDo=     1
 LinEq1:  Iter=  6 NonCon=     1 RMS=7.83D-07 Max=1.20D-05 NDo=     1
 LinEq1:  Iter=  7 NonCon=     1 RMS=2.89D-07 Max=4.85D-06 NDo=     1
 LinEq1:  Iter=  8 NonCon=     1 RMS=9.79D-08 Max=2.26D-06 NDo=     1
 LinEq1:  Iter=  9 NonCon=     1 RMS=2.56D-08 Max=7.01D-07 NDo=     1
 LinEq1:  Iter= 10 NonCon=     1 RMS=7.04D-09 Max=1.74D-07 NDo=     1
 LinEq1:  Iter= 11 NonCon=     1 RMS=1.66D-09 Max=2.29D-08 NDo=     1
 LinEq1:  Iter= 12 NonCon=     1 RMS=3.57D-10 Max=7.19D-09 NDo=     1
 LinEq1:  Iter= 13 NonCon=     1 RMS=8.52D-11 Max=1.63D-09 NDo=     1
 LinEq1:  Iter= 14 NonCon=     0 RMS=1.42D-11 Max=2.63D-10 NDo=     1
 Linear equations converged to 1.000D-10 1.000D-09 after    14 iterations.
 End of Minotr F.D. properties file   721 does not exist.
 End of Minotr F.D. properties file   722 does not exist.
 End of Minotr F.D. properties file   788 does not exist.
 Leave Link 1002 at Wed Dec  1 11:25:50 2021, MaxMem= 16106127360 cpu:              53.0 elap:               3.1
 (Enter /sw/contrib/gaussian/g16/B01/g16/l601.exe)
 Copying SCF densities to generalized density rwf, IOpCl= 0 IROHF=0.

 **********************************************************************

            Population analysis using the MP2 Density.

 **********************************************************************

 Orbital symmetries:
       Occupied  (A') (A') (A') (A") (A') (A') (A') (A') (A') (A')
                 (A') (A") (A') (A") (A') (A') (A") (A') (A") (A')
                 (A') (A') (A') (A') (A") (A') (A') (A") (A') (A')
                 (A")
       Virtual   (A') (A') (A') (A") (A') (A') (A") (A') (A') (A")
                 (A') (A') (A') (A') (A") (A") (A') (A') (A') (A")
                 (A') (A") (A') (A') (A") (A') (A') (A') (A') (A")
                 (A") (A') (A') (A') (A') (A") (A') (A") (A") (A')
                 (A') (A") (A') (A') (A") (A') (A") (A') (A") (A')
                 (A') (A') (A") (A') (A") (A') (A") (A') (A") (A')
                 (A') (A") (A') (A') (A') (A') (A") (A') (A") (A")
                 (A') (A') (A') (A') (A") (A') (A') (A") (A") (A')
                 (A') (A') (A") (A') (A') (A") (A') (A") (A") (A')
                 (A') (A') (A") (A") (A') (A") (A') (A') (A") (A")
                 (A') (A") (A') (A') (A') (A") (A') (A") (A') (A')
                 (A") (A') (A') (A") (A') (A') (A") (A') (A') (A')
                 (A') (A') (A") (A') (A") (A') (A") (A') (A') (A")
                 (A') (A') (A') (A") (A') (A') (A") (A") (A') (A')
                 (A") (A') (A") (A') (A') (A') (A')
 The electronic state is 1-A'.
 Alpha  occ. eigenvalues -- -489.73630-104.75920 -64.87657 -58.23106 -58.23106
 Alpha  occ. eigenvalues --  -58.23102 -20.45099 -10.47817  -9.54902  -7.94537
 Alpha  occ. eigenvalues --   -7.94248  -7.94236  -7.15648  -7.15643  -7.15641
 Alpha  occ. eigenvalues --   -2.89811  -2.89810  -2.89807  -2.89803  -2.89802
 Alpha  occ. eigenvalues --   -1.40507  -0.96533  -0.70747  -0.65230  -0.48017
 Alpha  occ. eigenvalues --   -0.47189  -0.34051  -0.31140  -0.16363  -0.15728
 Alpha  occ. eigenvalues --   -0.15725
 Alpha virt. eigenvalues --    0.15012   0.17286   0.21925   0.22438   0.24206
 Alpha virt. eigenvalues --    0.24973   0.25297   0.26658   0.29252   0.29707
 Alpha virt. eigenvalues --    0.31194   0.32867   0.35851   0.41725   0.43876
 Alpha virt. eigenvalues --    0.47836   0.48813   0.49198   0.51915   0.53802
 Alpha virt. eigenvalues --    0.55279   0.55747   0.57653   0.59612   0.59830
 Alpha virt. eigenvalues --    0.61262   0.63931   0.70896   0.73851   0.74931
 Alpha virt. eigenvalues --    0.76420   0.77122   0.80584   0.86492   0.87852
 Alpha virt. eigenvalues --    0.88169   0.92386   0.94647   0.98035   0.99940
 Alpha virt. eigenvalues --    1.01491   1.01848   1.02495   1.03314   1.05605
 Alpha virt. eigenvalues --    1.06990   1.10267   1.10956   1.12837   1.13044
 Alpha virt. eigenvalues --    1.17457   1.18574   1.19555   1.19926   1.20034
 Alpha virt. eigenvalues --    1.21123   1.24971   1.28147   1.33049   1.33285
 Alpha virt. eigenvalues --    1.34900   1.37037   1.46535   1.51164   1.52569
 Alpha virt. eigenvalues --    1.58253   1.60972   1.64214   1.64484   1.64871
 Alpha virt. eigenvalues --    1.70689   1.73145   1.76609   1.92514   1.98666
 Alpha virt. eigenvalues --    2.03497   2.11276   2.36101   2.39986   2.41989
 Alpha virt. eigenvalues --    2.42923   2.47813   2.50263   2.51815   2.54381
 Alpha virt. eigenvalues --    2.54506   2.55890   2.56196   2.56832   2.57333
 Alpha virt. eigenvalues --    2.59547   2.60606   2.63096   2.65257   2.67131
 Alpha virt. eigenvalues --    2.68405   2.68434   2.69327   2.70563   2.71228
 Alpha virt. eigenvalues --    2.75041   2.76681   2.77246   2.80765   2.85295
 Alpha virt. eigenvalues --    2.94369   3.04072   3.08209   3.11971   3.17568
 Alpha virt. eigenvalues --    3.20157   3.20291   3.29239   3.32070   3.33247
 Alpha virt. eigenvalues --    3.47741   3.53210   3.56954   3.80629   4.07575
 Alpha virt. eigenvalues --    4.40298   4.53199   4.57333   4.79400   4.81850
 Alpha virt. eigenvalues --    5.06082   5.09106   5.14206   5.56567   6.03435
 Alpha virt. eigenvalues --    6.18690   6.51274   6.71964   6.87416   6.88879
 Alpha virt. eigenvalues --    7.04353   7.08721   7.13500   7.16252   7.28080
 Alpha virt. eigenvalues --    7.31897   7.94174   9.44298   9.45610   9.53138
 Alpha virt. eigenvalues --   11.68074  23.77186
          Condensed to atoms (all electrons):
               1          2          3          4
     1  O    8.137485  -0.046794  -0.052955   0.168411
     2  Cl  -0.046794  16.993829  -0.000303  -0.052506
     3  Br  -0.052955  -0.000303  35.983794   0.028895
     4  H    0.168411  -0.052506   0.028895   0.795398
 Mulliken charges:
               1
     1  O   -0.206147
     2  Cl   0.105775
     3  Br  -0.959430
     4  H    0.059802
 Sum of Mulliken charges =  -1.00000
 Mulliken charges with hydrogens summed into heavy atoms:
               1
     1  O   -0.146345
     2  Cl   0.105775
     3  Br  -0.959430
 Electronic spatial extent (au):  <R**2>=            811.3741
 Charge=             -1.0000 electrons
 Dipole moment (field-independent basis, Debye):
    X=              3.6631    Y=              3.2042    Z=              0.0000  Tot=              4.8667
 Quadrupole moment (field-independent basis, Debye-Ang):
   XX=            -46.7395   YY=            -52.6971   ZZ=            -43.0247
   XY=             -6.4671   XZ=              0.0000   YZ=              0.0000
 Traceless Quadrupole moment (field-independent basis, Debye-Ang):
   XX=              0.7476   YY=             -5.2100   ZZ=              4.4624
   XY=             -6.4671   XZ=              0.0000   YZ=              0.0000
 Octapole moment (field-independent basis, Debye-Ang**2):
  XXX=             -0.2363  YYY=            -11.3061  ZZZ=              0.0000  XYY=             -1.4682
  XXY=              0.9894  XXZ=              0.0000  XZZ=             -3.6130  YZZ=             -2.8159
  YYZ=              0.0000  XYZ=              0.0000
 Hexadecapole moment (field-independent basis, Debye-Ang**3):
 XXXX=           -458.6641 YYYY=           -524.6658 ZZZZ=            -63.5924 XXXY=           -192.8535
 XXXZ=              0.0000 YYYX=           -201.9512 YYYZ=              0.0000 ZZZX=              0.0000
 ZZZY=              0.0000 XXYY=           -173.1219 XXZZ=            -92.7576 YYZZ=            -95.0197
 XXYZ=              0.0000 YYXZ=              0.0000 ZZXY=            -64.3577
 N-N= 1.923269098817D+02 E-N=-7.825974857390D+03  KE= 3.108754502027D+03
 Symmetry A'   KE= 2.682564454376D+03
 Symmetry A"   KE= 4.261900476515D+02
 No NMR shielding tensors so no spin-rotation constants.
 Leave Link  601 at Wed Dec  1 11:25:50 2021, MaxMem= 16106127360 cpu:               8.9 elap:               0.4
 (Enter /sw/contrib/gaussian/g16/B01/g16/l701.exe)
 ... and contract with generalized density number  2.
 Compute integral first derivatives.
 Leave Link  701 at Wed Dec  1 11:25:51 2021, MaxMem= 16106127360 cpu:               7.6 elap:               0.3
 (Enter /sw/contrib/gaussian/g16/B01/g16/l702.exe)
 L702 exits ... SP integral derivatives will be done elsewhere.
 Leave Link  702 at Wed Dec  1 11:25:51 2021, MaxMem= 16106127360 cpu:               1.5 elap:               0.1
 (Enter /sw/contrib/gaussian/g16/B01/g16/l703.exe)
 Integral derivatives from FoFJK, PRISM(SPDF).
 Compute integral first derivatives, UseDBF=F ICtDFT=           0.
 Calling FoFJK, ICntrl=  10002127 FMM=F ISym2X=1 I1Cent= 0 IOpClX= 0 NMat=1 NMatS=1 NMatT=0.
 FoFJK:  IHMeth= 1 ICntrl=10002127 DoSepK=F KAlg= 0 I1Cent=           0 FoldK=F
 IRaf=         0 NMat=       1 IRICut=       1 DoRegI=T DoRafI=F ISym2E= 1 IDoP0=0 IntGTp=1.
 FoFCou: FMM=F IPFlag=           0 FMFlag=      100000 FMFlg1=         800
         NFxFlg=           0 DoJE=F BraDBF=F KetDBF=F FulRan=T
         wScrn=  0.000000 ICntrl=  10002127 IOpCl=  0 I1Cent=           0 NGrid=           0
         NMat0=    1 NMatS0=      1 NMatT0=    0 NMatD0=    1 NMtDS0=    0 NMtDT0=    0
 Petite list used in FoFCou.
 Leave Link  703 at Wed Dec  1 11:25:53 2021, MaxMem= 16106127360 cpu:              64.7 elap:               2.4
 (Enter /sw/contrib/gaussian/g16/B01/g16/l716.exe)
 Dipole        = 1.44118401D+00 1.26061049D+00 0.00000000D+00
 ***** Axes restored to original set *****
 -------------------------------------------------------------------
 Center     Atomic                   Forces (Hartrees/Bohr)
 Number     Number              X              Y              Z
 -------------------------------------------------------------------
      1        8           0.374217968    1.531251619   -0.000000000
      2       17          -0.009566522    0.000195149   -0.000000000
      3       35          -0.000366184   -0.000183914   -0.000000000
      4        1          -0.364285261   -1.531262854   -0.000000000
 -------------------------------------------------------------------
 Cartesian Forces:  Max     1.531262854 RMS     0.643061170
 -----------------------------------------------------------------------------------------------
                       Internal Coordinate Forces (Hartree/Bohr or radian)
  Cent   Atom   N1       Length/X         N2         Alpha/Y        N3         Beta/Z          J
 -----------------------------------------------------------------------------------------------
      1  O 
         X        1   0.000000(     1)
      2  Cl       1  -0.009567(     2)      2  -0.000000(     5)
      3  Br       1   0.000264(     3)      2   0.000000(     6)      3   0.001821(     8)     0
      4  H        1   1.573998(     4)      2   0.000000(     7)      3  -0.001200(     9)     0
 -----------------------------------------------------------------------------------------------
 Internal  Forces:  Max     1.573997637 RMS     0.524676080
 Force constants in Cartesian coordinates: 
                1             2             3             4             5 
      1  0.776074D+00
      2  0.719665D+00  0.353174D+01
      3  0.000000D+00  0.000000D+00  0.954406D-01
      4 -0.378449D+00  0.000000D+00  0.000000D+00  0.378449D+00
      5  0.562769D-01 -0.538982D-01  0.000000D+00  0.000000D+00  0.404701D-01
      6  0.000000D+00  0.000000D+00  0.000000D+00  0.000000D+00  0.000000D+00
      7  0.103424D-01  0.561011D-02  0.000000D+00  0.000000D+00 -0.131527D-01
      8 -0.754256D-02 -0.226067D-01  0.000000D+00  0.000000D+00  0.313835D-02
      9  0.000000D+00  0.000000D+00  0.231482D-01  0.000000D+00  0.000000D+00
     10 -0.407968D+00 -0.725275D+00  0.000000D+00  0.000000D+00 -0.431242D-01
     11 -0.768399D+00 -0.345524D+01  0.000000D+00  0.000000D+00  0.102898D-01
     12  0.000000D+00  0.000000D+00 -0.118589D+00  0.000000D+00  0.000000D+00
                6             7             8             9            10 
      6  0.100000D+01
      7  0.000000D+00  0.126426D-01
      8  0.000000D+00  0.205813D-02  0.207770D-01
      9  0.000000D+00  0.000000D+00  0.000000D+00  0.561436D-02
     10  0.000000D+00 -0.229850D-01  0.548443D-02  0.000000D+00  0.430953D+00
     11  0.000000D+00  0.548443D-02 -0.130864D-02  0.000000D+00  0.762915D+00
     12  0.000000D+00  0.000000D+00  0.000000D+00 -0.287625D-01  0.000000D+00
               11            12 
     11  0.344626D+01
     12  0.000000D+00  0.147351D+00
 Force constants in internal coordinates: 
                1             2             3             4             5 
      1  0.000000D+00
      2  0.000000D+00  0.378449D+00
      3  0.000000D+00  0.000000D+00  0.212681D-01
      4  0.000000D+00  0.000000D+00  0.000000D+00  0.362830D+01
      5  0.000000D+00  0.000000D+00  0.000000D+00  0.000000D+00  0.101309D+02
      6  0.000000D+00  0.000000D+00  0.000000D+00  0.000000D+00  0.000000D+00
      7  0.000000D+00  0.000000D+00  0.000000D+00  0.000000D+00  0.000000D+00
      8  0.000000D+00  0.000000D+00  0.000000D+00  0.000000D+00  0.000000D+00
      9  0.000000D+00  0.000000D+00  0.000000D+00  0.000000D+00  0.000000D+00
                6             7             8             9 
      6  0.189432D+00
      7 -0.189432D+00  0.189432D+00
      8  0.000000D+00  0.000000D+00  0.410000D+00
      9  0.000000D+00  0.000000D+00 -0.160000D+00  0.320000D+00
 Leave Link  716 at Wed Dec  1 11:25:53 2021, MaxMem= 16106127360 cpu:               1.1 elap:               0.1
 (Enter /sw/contrib/gaussian/g16/B01/g16/l103.exe)

 GradGradGradGradGradGradGradGradGradGradGradGradGradGradGradGradGradGrad
 Berny optimization.
 Search for a local minimum.
 Step number   1 out of a maximum of   20 on scan point     1 out of    29
 All quantities printed in internal units (Hartrees-Bohrs-Radians)
 Second derivative matrix not updated -- first step.
 The second derivative matrix:
                          r1        r2        r3        a1        OOP
           r1           0.37845
           r2          -0.00000   0.02127
           r3          -0.00000  -0.00000   3.62830
           a1          -0.00000   0.00000   0.00000   0.41000
           OOP         -0.00000   0.00000   0.00000   0.00000   0.18943
 ITU=  0
     Eigenvalues --- 1000.000001000.000001000.000001000.000001000.00000
 RFO step:  Lambda= 0.00000000D+00 EMin= 1.00000000D+03
 Linear search not attempted -- first point.
 Variable       Old X    -DE/DX   Delta X   Delta X   Delta X     New X
                                 (Linear)    (Quad)   (Total)
    r1        3.18291  -0.00957   0.00000   0.00000   0.00000   3.18291
    r2        5.80867   0.00026   0.00000   0.00000   0.00000   5.80867
    r3        1.13384   1.57400   0.00000   0.00000   0.00000   1.13384
    a1        1.80503   0.00062   0.00000   0.00000   0.00000   1.80503
   OOP        1.57080   0.00000   0.00000   0.00000   0.00000   1.57080
         Item               Value     Threshold  Converged?
 Maximum Force            0.000000     0.000450     YES
 RMS     Force            0.000000     0.000300     YES
 Maximum Displacement     0.000000     0.001800     YES
 RMS     Displacement     0.000000     0.001200     YES
 Predicted change in Energy=-0.000000D+00
 Optimization completed.
    -- Stationary point found.
                       ----------------------------
                       !   Optimized Parameters   !
                       ! (Angstroms and Degrees)  !
 ----------------------                            ----------------------
 !      Name          Value   Derivative information (Atomic Units)     !
 ------------------------------------------------------------------------
 !       r1          1.6843   -DE/DX =   -0.0096                        !
 !       r2          3.0738   -DE/DX =    0.0003                        !
 !       r3          0.6      -DE/DX =    1.574                         !
 !       a1        103.4204   -DE/DX =    0.0006                        !
 !       OOP        90.0      -DE/DX =    0.0                           !
 ------------------------------------------------------------------------
 Lowest energy point so far.  Saving SCF results.
 GradGradGradGradGradGradGradGradGradGradGradGradGradGradGradGradGradGrad

 Leave Link  103 at Wed Dec  1 11:25:54 2021, MaxMem= 16106127360 cpu:               3.8 elap:               0.2
 (Enter /sw/contrib/gaussian/g16/B01/g16/l202.exe)
 ---------------------------------------------------------------------------------------------------
                            Z-MATRIX (ANGSTROMS AND DEGREES)
   CD    Cent   Atom    N1       Length/X        N2       Alpha/Y        N3        Beta/Z          J
 ---------------------------------------------------------------------------------------------------
      1      1  O 
      2         X        1  10.000000(     1)
      3      2  Cl       1   1.684326(     2)      2   90.000(     5)
      4      3  Br       1   3.073818(     3)      2   90.000(     6)      3  103.420(     8)      0
      5      4  H        1   0.650000(     4)      2   90.000(     7)      3  103.420(     9)      0
 ---------------------------------------------------------------------------------------------------
                         Z-Matrix orientation:                         
 ---------------------------------------------------------------------
 Center     Atomic      Atomic             Coordinates (Angstroms)
 Number     Number       Type             X           Y           Z
 ---------------------------------------------------------------------
      1          8           0        0.000000    0.000000    0.000000
      2         -1           0        0.000000    0.000000   10.000000
      3         17           0        1.684326    0.000000    0.000000
      4         35           0       -0.713413   -2.989882    0.000000
      5          1           0       -0.150861   -0.632251    0.000000
 ---------------------------------------------------------------------
                    Distance matrix (angstroms):
                    1          2          3          4          5
     1  O    0.000000
     2  X   10.000000   0.000000
     3  Cl   1.684326  10.140856   0.000000
     4  Br   3.073818  10.461757   3.832564   0.000000
     5  H    0.650000  10.021103   1.941043   2.423818   0.000000
 Stoichiometry    BrClHO(1-)
 Framework group  CS[SG(BrClHO)]
 Deg. of freedom     5
 Full point group                 CS      NOp   2
 RotChk:  IX=0 Diff= 2.46D-02
 Largest Abelian subgroup         CS      NOp   2
 Largest concise Abelian subgroup C1      NOp   1
                         Standard orientation:                         
 ---------------------------------------------------------------------
 Center     Atomic      Atomic             Coordinates (Angstroms)
 Number     Number       Type             X           Y           Z
 ---------------------------------------------------------------------
      1          8           0        0.266574    1.706132    0.000000
      2         17           0        1.921112    1.390761    0.000000
      3         35           0       -0.994043   -1.097294    0.000000
      4          1           0       -0.000000    1.113310    0.000000
 ---------------------------------------------------------------------
 Rotational constants (GHZ):          22.4522240           1.2792372           1.2102803
 Leave Link  202 at Wed Dec  1 11:25:54 2021, MaxMem= 16106127360 cpu:               0.7 elap:               0.0
 (Enter /sw/contrib/gaussian/g16/B01/g16/l301.exe)
 Standard basis: Aug-CC-pVTZ (5D, 7F)
 Ernie: Thresh=  0.10000D-02 Tol=  0.10000D-05 Strict=F.
 Ernie:  48 primitive shells out of 228 were deleted.
 There are   142 symmetry adapted cartesian basis functions of A'  symmetry.
 There are    66 symmetry adapted cartesian basis functions of A"  symmetry.
 There are   118 symmetry adapted basis functions of A'  symmetry.
 There are    60 symmetry adapted basis functions of A"  symmetry.
   178 basis functions,   430 primitive gaussians,   208 cartesian basis functions
    31 alpha electrons       31 beta electrons
       nuclear repulsion energy       191.8748307280 Hartrees.
 IExCor=    0 DFT=F Ex=HF Corr=None ExCW=0 ScaHFX=  1.000000
 ScaDFX=  1.000000  1.000000  1.000000  1.000000 ScalE2=  1.000000  1.000000
 IRadAn=      5 IRanWt=     -1 IRanGd=            0 ICorTp=0 IEmpDi=  4
 NAtoms=    4 NActive=    4 NUniq=    4 SFac= 1.00D+00 NAtFMM=   60 NAOKFM=F Big=F
 Integral buffers will be    131072 words long.
 Raffenetti 1 integral format.
 Two-electron integral symmetry is turned on.
 Leave Link  301 at Wed Dec  1 11:25:54 2021, MaxMem= 16106127360 cpu:               1.7 elap:               0.1
 (Enter /sw/contrib/gaussian/g16/B01/g16/l302.exe)
 NPDir=0 NMtPBC=     1 NCelOv=     1 NCel=       1 NClECP=     1 NCelD=      1
         NCelK=      1 NCelE2=     1 NClLst=     1 CellRange=     0.0.
 One-electron integrals computed using PRISM.
 One-electron integral symmetry used in STVInt
 NBasis=   178 RedAO= T EigKep=  1.39D-04  NBF=   118    60
 NBsUse=   178 1.00D-06 EigRej= -1.00D+00 NBFU=   118    60
 Leave Link  302 at Wed Dec  1 11:25:54 2021, MaxMem= 16106127360 cpu:               6.2 elap:               0.3
 (Enter /sw/contrib/gaussian/g16/B01/g16/l303.exe)
 DipDrv:  MaxL=1.
 Leave Link  303 at Wed Dec  1 11:25:54 2021, MaxMem= 16106127360 cpu:               2.2 elap:               0.1
 (Enter /sw/contrib/gaussian/g16/B01/g16/l401.exe)
 Initial guess from the checkpoint file:  "/gscratch/ilahie/mccoygrp/coire_hocl/rOH_s_oop_0/brhocl/brhocl_rOH_s_05-20.chk"
 B after Tr=    -0.000000   -0.000000    0.000000
         Rot=    0.999963    0.000000    0.000000    0.008649 Ang=   0.99 deg.
 Guess basis will be translated and rotated to current coordinates.
 JPrj=2 DoOrth=T DoCkMO=T.
 Initial guess orbital symmetries:
       Occupied  (A') (A') (A') (A") (A') (A') (A') (A') (A') (A')
                 (A') (A") (A') (A") (A') (A') (A") (A') (A") (A')
                 (A') (A') (A') (A') (A") (A') (A') (A") (A') (A')
                 (A")
       Virtual   (A') (A') (A') (A") (A') (A') (A") (A') (A') (A")
                 (A') (A') (A') (A') (A") (A") (A') (A') (A') (A")
                 (A') (A") (A') (A') (A") (A') (A') (A') (A') (A")
                 (A") (A') (A') (A') (A') (A") (A') (A") (A") (A')
                 (A') (A") (A') (A') (A") (A') (A") (A') (A") (A')
                 (A') (A') (A") (A') (A") (A') (A") (A') (A") (A')
                 (A') (A") (A') (A') (A') (A') (A") (A') (A") (A")
                 (A') (A') (A') (A') (A") (A') (A') (A") (A") (A')
                 (A') (A') (A") (A') (A') (A") (A') (A") (A") (A')
                 (A') (A') (A") (A") (A') (A") (A') (A') (A") (A")
                 (A') (A") (A') (A') (A') (A") (A') (A") (A') (A')
                 (A") (A') (A') (A") (A') (A') (A") (A') (A') (A')
                 (A') (A') (A") (A') (A") (A') (A") (A') (A') (A")
                 (A') (A') (A') (A") (A') (A') (A") (A") (A') (A')
                 (A") (A') (A") (A') (A') (A') (A')
 The electronic state of the initial guess is 1-A'.
 Generating alternative initial guess.
 ExpMin= 2.53D-02 ExpMax= 1.06D+07 ExpMxC= 1.21D+04 IAcc=3 IRadAn=         5 AccDes= 0.00D+00
 Harris functional with IExCor=  205 and IRadAn=       5 diagonalized for initial guess.
 HarFok:  IExCor=  205 AccDes= 0.00D+00 IRadAn=         5 IDoV= 1 UseB2=F ITyADJ=14
 ICtDFT=  3500011 ScaDFX=  1.000000  1.000000  1.000000  1.000000
 FoFCou: FMM=F IPFlag=           0 FMFlag=      100000 FMFlg1=           0
         NFxFlg=           0 DoJE=T BraDBF=F KetDBF=T FulRan=T
         wScrn=  0.000000 ICntrl=       500 IOpCl=  0 I1Cent=   200000004 NGrid=           0
         NMat0=    1 NMatS0=      1 NMatT0=    0 NMatD0=    1 NMtDS0=    0 NMtDT0=    0
 Petite list used in FoFCou.
 Harris En= -3106.22351006644    
 Leave Link  401 at Wed Dec  1 11:25:55 2021, MaxMem= 16106127360 cpu:              13.4 elap:               0.5
 (Enter /sw/contrib/gaussian/g16/B01/g16/l502.exe)
 Keep R1 ints in memory in symmetry-blocked form, NReq=191183261.
 FoFCou: FMM=F IPFlag=           0 FMFlag=           0 FMFlg1=           0
         NFxFlg=           0 DoJE=F BraDBF=F KetDBF=F FulRan=T
         wScrn=  0.000000 ICntrl=       600 IOpCl=  0 I1Cent=           0 NGrid=           0
         NMat0=    1 NMatS0=  15931 NMatT0=    0 NMatD0=    1 NMtDS0=    0 NMtDT0=    0
 Petite list used in FoFCou.
 Closed shell SCF:
 Using DIIS extrapolation, IDIIS=  1040.
 NGot= 16106127360 LenX= 16041757360 LenY= 16041713655
 Requested convergence on RMS density matrix=1.00D-08 within 128 cycles.
 Requested convergence on MAX density matrix=1.00D-06.
 Requested convergence on             energy=1.00D-06.
 No special actions if energy rises.

 Cycle   1  Pass 1  IDiag  1:
 E= -3107.26391365050    
 DIIS: error= 8.31D-03 at cycle   1 NSaved=   1.
 NSaved= 1 IEnMin= 1 EnMin= -3107.26391365050     IErMin= 1 ErrMin= 8.31D-03
 ErrMax= 8.31D-03  0.00D+00 EMaxC= 1.00D-01 BMatC= 8.42D-03 BMatP= 8.42D-03
 IDIUse=3 WtCom= 9.17D-01 WtEn= 8.31D-02
 Coeff-Com:  0.100D+01
 Coeff-En:   0.100D+01
 Coeff:      0.100D+01
 Gap=     0.310 Goal=   None    Shift=    0.000
 GapD=    0.310 DampG=1.000 DampE=1.000 DampFc=1.0000 IDamp=-1.
 RMSDP=5.97D-04 MaxDP=3.51D-02              OVMax= 1.32D-02

 Cycle   2  Pass 1  IDiag  1:
 E= -3107.26745672197     Delta-E=       -0.003543071475 Rises=F Damp=F
 DIIS: error= 1.09D-03 at cycle   2 NSaved=   2.
 NSaved= 2 IEnMin= 2 EnMin= -3107.26745672197     IErMin= 2 ErrMin= 1.09D-03
 ErrMax= 1.09D-03  0.00D+00 EMaxC= 1.00D-01 BMatC= 3.04D-04 BMatP= 8.42D-03
 IDIUse=3 WtCom= 9.89D-01 WtEn= 1.09D-02
 Coeff-Com:  0.187D-01 0.981D+00
 Coeff-En:   0.000D+00 0.100D+01
 Coeff:      0.185D-01 0.981D+00
 Gap=     0.310 Goal=   None    Shift=    0.000
 RMSDP=6.35D-05 MaxDP=2.37D-03 DE=-3.54D-03 OVMax= 6.05D-03

 Cycle   3  Pass 1  IDiag  1:
 E= -3107.26760496081     Delta-E=       -0.000148238838 Rises=F Damp=F
 DIIS: error= 6.04D-04 at cycle   3 NSaved=   3.
 NSaved= 3 IEnMin= 3 EnMin= -3107.26760496081     IErMin= 3 ErrMin= 6.04D-04
 ErrMax= 6.04D-04  0.00D+00 EMaxC= 1.00D-01 BMatC= 8.41D-05 BMatP= 3.04D-04
 IDIUse=3 WtCom= 9.94D-01 WtEn= 6.04D-03
 Coeff-Com: -0.298D-01 0.313D+00 0.717D+00
 Coeff-En:   0.000D+00 0.000D+00 0.100D+01
 Coeff:     -0.296D-01 0.311D+00 0.719D+00
 Gap=     0.309 Goal=   None    Shift=    0.000
 RMSDP=2.64D-05 MaxDP=1.21D-03 DE=-1.48D-04 OVMax= 2.38D-03

 Cycle   4  Pass 1  IDiag  1:
 E= -3107.26765857480     Delta-E=       -0.000053613988 Rises=F Damp=F
 DIIS: error= 9.59D-05 at cycle   4 NSaved=   4.
 NSaved= 4 IEnMin= 4 EnMin= -3107.26765857480     IErMin= 4 ErrMin= 9.59D-05
 ErrMax= 9.59D-05  0.00D+00 EMaxC= 1.00D-01 BMatC= 1.99D-06 BMatP= 8.41D-05
 IDIUse=1 WtCom= 1.00D+00 WtEn= 0.00D+00
 Coeff-Com: -0.333D-02-0.284D-01 0.799D-01 0.952D+00
 Coeff:     -0.333D-02-0.284D-01 0.799D-01 0.952D+00
 Gap=     0.309 Goal=   None    Shift=    0.000
 RMSDP=5.79D-06 MaxDP=2.96D-04 DE=-5.36D-05 OVMax= 4.44D-04

 Cycle   5  Pass 1  IDiag  1:
 E= -3107.26766045574     Delta-E=       -0.000001880938 Rises=F Damp=F
 DIIS: error= 1.92D-05 at cycle   5 NSaved=   5.
 NSaved= 5 IEnMin= 5 EnMin= -3107.26766045574     IErMin= 5 ErrMin= 1.92D-05
 ErrMax= 1.92D-05  0.00D+00 EMaxC= 1.00D-01 BMatC= 7.53D-08 BMatP= 1.99D-06
 IDIUse=1 WtCom= 1.00D+00 WtEn= 0.00D+00
 Coeff-Com:  0.129D-02-0.138D-01-0.364D-01 0.488D-02 0.104D+01
 Coeff:      0.129D-02-0.138D-01-0.364D-01 0.488D-02 0.104D+01
 Gap=     0.309 Goal=   None    Shift=    0.000
 RMSDP=1.62D-06 MaxDP=4.01D-05 DE=-1.88D-06 OVMax= 1.12D-04

 Cycle   6  Pass 1  IDiag  1:
 E= -3107.26766055650     Delta-E=       -0.000000100767 Rises=F Damp=F
 DIIS: error= 4.50D-06 at cycle   6 NSaved=   6.
 NSaved= 6 IEnMin= 6 EnMin= -3107.26766055650     IErMin= 6 ErrMin= 4.50D-06
 ErrMax= 4.50D-06  0.00D+00 EMaxC= 1.00D-01 BMatC= 3.44D-09 BMatP= 7.53D-08
 IDIUse=1 WtCom= 1.00D+00 WtEn= 0.00D+00
 Coeff-Com:  0.979D-04 0.118D-02-0.472D-02-0.348D-01-0.127D-01 0.105D+01
 Coeff:      0.979D-04 0.118D-02-0.472D-02-0.348D-01-0.127D-01 0.105D+01
 Gap=     0.309 Goal=   None    Shift=    0.000
 RMSDP=4.83D-07 MaxDP=1.04D-05 DE=-1.01D-07 OVMax= 3.76D-05

 Cycle   7  Pass 1  IDiag  1:
 E= -3107.26766056439     Delta-E=       -0.000000007883 Rises=F Damp=F
 DIIS: error= 1.38D-06 at cycle   7 NSaved=   7.
 NSaved= 7 IEnMin= 7 EnMin= -3107.26766056439     IErMin= 7 ErrMin= 1.38D-06
 ErrMax= 1.38D-06  0.00D+00 EMaxC= 1.00D-01 BMatC= 4.01D-10 BMatP= 3.44D-09
 IDIUse=1 WtCom= 1.00D+00 WtEn= 0.00D+00
 Coeff-Com: -0.117D-03 0.105D-02 0.307D-02 0.482D-02-0.892D-01-0.946D-01
 Coeff-Com:  0.118D+01
 Coeff:     -0.117D-03 0.105D-02 0.307D-02 0.482D-02-0.892D-01-0.946D-01
 Coeff:      0.118D+01
 Gap=     0.309 Goal=   None    Shift=    0.000
 RMSDP=2.20D-07 MaxDP=5.83D-06 DE=-7.88D-09 OVMax= 1.82D-05

 Cycle   8  Pass 1  IDiag  1:
 E= -3107.26766056557     Delta-E=       -0.000000001185 Rises=F Damp=F
 DIIS: error= 4.88D-07 at cycle   8 NSaved=   8.
 NSaved= 8 IEnMin= 8 EnMin= -3107.26766056557     IErMin= 8 ErrMin= 4.88D-07
 ErrMax= 4.88D-07  0.00D+00 EMaxC= 1.00D-01 BMatC= 4.21D-11 BMatP= 4.01D-10
 IDIUse=1 WtCom= 1.00D+00 WtEn= 0.00D+00
 Coeff-Com: -0.865D-06-0.179D-03 0.480D-04 0.294D-02 0.784D-02-0.637D-01
 Coeff-Com: -0.164D+00 0.122D+01
 Coeff:     -0.865D-06-0.179D-03 0.480D-04 0.294D-02 0.784D-02-0.637D-01
 Coeff:     -0.164D+00 0.122D+01
 Gap=     0.309 Goal=   None    Shift=    0.000
 RMSDP=8.14D-08 MaxDP=2.36D-06 DE=-1.18D-09 OVMax= 8.15D-06

 Cycle   9  Pass 1  IDiag  1:
 E= -3107.26766056572     Delta-E=       -0.000000000152 Rises=F Damp=F
 DIIS: error= 2.21D-07 at cycle   9 NSaved=   9.
 NSaved= 9 IEnMin= 9 EnMin= -3107.26766056572     IErMin= 9 ErrMin= 2.21D-07
 ErrMax= 2.21D-07  0.00D+00 EMaxC= 1.00D-01 BMatC= 5.40D-12 BMatP= 4.21D-11
 IDIUse=1 WtCom= 1.00D+00 WtEn= 0.00D+00
 Coeff-Com:  0.142D-04-0.130D-03-0.355D-03-0.561D-03 0.991D-02 0.187D-01
 Coeff-Com: -0.149D+00-0.645D-01 0.119D+01
 Coeff:      0.142D-04-0.130D-03-0.355D-03-0.561D-03 0.991D-02 0.187D-01
 Coeff:     -0.149D+00-0.645D-01 0.119D+01
 Gap=     0.309 Goal=   None    Shift=    0.000
 RMSDP=2.97D-08 MaxDP=8.90D-07 DE=-1.52D-10 OVMax= 3.75D-06

 Cycle  10  Pass 1  IDiag  1:
 E= -3107.26766056574     Delta-E=       -0.000000000018 Rises=F Damp=F
 DIIS: error= 7.32D-08 at cycle  10 NSaved=  10.
 NSaved=10 IEnMin=10 EnMin= -3107.26766056574     IErMin=10 ErrMin= 7.32D-08
 ErrMax= 7.32D-08  0.00D+00 EMaxC= 1.00D-01 BMatC= 6.68D-13 BMatP= 5.40D-12
 IDIUse=1 WtCom= 1.00D+00 WtEn= 0.00D+00
 Coeff-Com: -0.113D-05 0.200D-04 0.454D-04-0.110D-03-0.216D-02 0.620D-02
 Coeff-Com:  0.261D-01-0.121D+00-0.545D-01 0.115D+01
 Coeff:     -0.113D-05 0.200D-04 0.454D-04-0.110D-03-0.216D-02 0.620D-02
 Coeff:      0.261D-01-0.121D+00-0.545D-01 0.115D+01
 Gap=     0.309 Goal=   None    Shift=    0.000
 RMSDP=1.06D-08 MaxDP=3.33D-07 DE=-1.77D-11 OVMax= 1.35D-06

 Cycle  11  Pass 1  IDiag  1:
 E= -3107.26766056574     Delta-E=       -0.000000000003 Rises=F Damp=F
 DIIS: error= 3.07D-08 at cycle  11 NSaved=  11.
 NSaved=11 IEnMin=11 EnMin= -3107.26766056574     IErMin=11 ErrMin= 3.07D-08
 ErrMax= 3.07D-08  0.00D+00 EMaxC= 1.00D-01 BMatC= 1.05D-13 BMatP= 6.68D-13
 IDIUse=1 WtCom= 1.00D+00 WtEn= 0.00D+00
 Coeff-Com: -0.235D-05 0.176D-04 0.653D-04 0.138D-03-0.176D-02-0.256D-02
 Coeff-Com:  0.226D-01 0.126D-01-0.191D+00-0.630D-01 0.122D+01
 Coeff:     -0.235D-05 0.176D-04 0.653D-04 0.138D-03-0.176D-02-0.256D-02
 Coeff:      0.226D-01 0.126D-01-0.191D+00-0.630D-01 0.122D+01
 Gap=     0.309 Goal=   None    Shift=    0.000
 RMSDP=5.34D-09 MaxDP=1.69D-07 DE=-2.73D-12 OVMax= 6.90D-07

 SCF Done:  E(RHF) =  -3107.26766057     A.U. after   11 cycles
            NFock= 11  Conv=0.53D-08     -V/T= 1.9996
 KE= 3.108462300224D+03 PE=-7.826554249306D+03 EE= 1.418949457788D+03
 Leave Link  502 at Wed Dec  1 11:25:57 2021, MaxMem= 16106127360 cpu:              49.4 elap:               2.4
 (Enter /sw/contrib/gaussian/g16/B01/g16/l801.exe)
 ExpMin= 2.53D-02 ExpMax= 1.06D+07 ExpMxC= 1.21D+04 IAcc=3 IRadAn=         5 AccDes= 0.00D+00
 HarFok:  IExCor=  205 AccDes= 0.00D+00 IRadAn=         5 IDoV=-2 UseB2=F ITyADJ=14
 ICtDFT= 12500011 ScaDFX=  1.000000  1.000000  1.000000  1.000000
 DSYEVD-2 returned Info=          89 IAlg= 4 N=    59 NDim=    59 NE2=   272983353 trying  DSYEV.
 Largest valence mixing into a core orbital is  4.49D-04
 Largest core mixing into a valence orbital is  1.58D-04
 Range of M.O.s used for correlation:    16   178
 NBasis=   178 NAE=    31 NBE=    31 NFC=    15 NFV=     0
 NROrb=    163 NOA=    16 NOB=    16 NVA=   147 NVB=   147

 **** Warning!!: The largest alpha MO coefficient is  0.21489000D+02

 Leave Link  801 at Wed Dec  1 11:25:57 2021, MaxMem= 16106127360 cpu:               2.6 elap:               0.1
 (Enter /sw/contrib/gaussian/g16/B01/g16/l906.exe)
 Frozen-core derivative calculation, NFC=  15 NFV=   0.
 FulOut=F Deriv=T AODrv=T NAtomX=     4
   MMem=         123  MDisk=          16 MDiskD=          16
  W3Min=     1147744 MinDsk=     1765480 NBas6D=         208
 NBas2D=       22240    NTT=       21736    LW2=     9911920
    MDV= 16105602464 MDiskM=      387105 NBas2p=       22137
 Fully direct method using O(ONN) memory.
 IMap=   1   2   3   4   5   6   7   8   9  10  11  12  13  14  15  16  17  18  19  20
 IMap=  21  22  23  24  25  26  27  28  29  30  31
 JobTyp=1 Pass  1:  I=  16 to  31 NPSUse= 28 ParTrn=T ParDer=T DoDerP=T.
 Spin components of T(2) and E(2):
     alpha-alpha T2 =       0.2820674351D-01 E2=     -0.9083212578D-01
     alpha-beta  T2 =       0.1525814665D+00 E2=     -0.5030936088D+00
     beta-beta   T2 =       0.2820674351D-01 E2=     -0.9083212578D-01
 The integrals were generated   1 times.
 ANorm=    0.1099543066D+01
 E2 =    -0.6847578604D+00 EUMP2 =    -0.31079524184261D+04
 Leave Link  906 at Wed Dec  1 11:26:13 2021, MaxMem= 16106127360 cpu:             436.7 elap:              15.7
 (Enter /sw/contrib/gaussian/g16/B01/g16/l1002.exe)
 Minotr:  Closed shell wavefunction.
          Computing MP2/KS-MP2 derivatives.
          Using Z-Vector for PSCF gradient.
          Skipping F1 and S1 gradient terms here.
          IDoAtm=1111
          Frozen-core window.
          Direct CPHF calculation.
          Differentiating once with respect to electric field.
                with respect to dipole field.
          Differentiating once with respect to nuclear coordinates.
          Using symmetry in CPHF.
          Requested convergence is 1.0D-10 RMS, and 1.0D-09 maximum.
          NewPWx=F KeepS1=T KeepF1=T KeepIn=T MapXYZ=F SortEE=F KeepMc=T.
 Keep R1 ints in memory in symmetry-blocked form, NReq=191184324.
 FoFCou: FMM=F IPFlag=           0 FMFlag=           0 FMFlg1=           0
         NFxFlg=           0 DoJE=F BraDBF=F KetDBF=F FulRan=T
         wScrn=  0.000000 ICntrl=       600 IOpCl=  0 I1Cent=           0 NGrid=           0
         NMat0=    1 NMatS0=  15931 NMatT0=    0 NMatD0=    1 NMtDS0=    0 NMtDT0=    0
 Petite list used in FoFCou.
          MDV=   16106127360 using IRadAn=       5.
          Solving linear equations separately, MaxMat=       0.
          There are     1 degrees of freedom in the 1st order CPHF.  IDoFFX=0 NUNeed=     1.
 LinEq1:  Iter=  0 NonCon=     1 RMS=2.32D-03 Max=3.71D-02 NDo=     1
 AX will form     1 AO Fock derivatives at one time.
 LinEq1:  Iter=  1 NonCon=     1 RMS=3.65D-04 Max=5.14D-03 NDo=     1
 LinEq1:  Iter=  2 NonCon=     1 RMS=1.59D-04 Max=2.97D-03 NDo=     1
 LinEq1:  Iter=  3 NonCon=     1 RMS=4.32D-05 Max=7.41D-04 NDo=     1
 LinEq1:  Iter=  4 NonCon=     1 RMS=9.68D-06 Max=2.88D-04 NDo=     1
 LinEq1:  Iter=  5 NonCon=     1 RMS=2.25D-06 Max=3.12D-05 NDo=     1
 LinEq1:  Iter=  6 NonCon=     1 RMS=9.32D-07 Max=2.41D-05 NDo=     1
 LinEq1:  Iter=  7 NonCon=     1 RMS=3.07D-07 Max=5.94D-06 NDo=     1
 LinEq1:  Iter=  8 NonCon=     1 RMS=9.56D-08 Max=2.16D-06 NDo=     1
 LinEq1:  Iter=  9 NonCon=     1 RMS=2.52D-08 Max=6.83D-07 NDo=     1
 LinEq1:  Iter= 10 NonCon=     1 RMS=7.09D-09 Max=1.94D-07 NDo=     1
 LinEq1:  Iter= 11 NonCon=     1 RMS=1.69D-09 Max=2.73D-08 NDo=     1
 LinEq1:  Iter= 12 NonCon=     1 RMS=3.66D-10 Max=7.39D-09 NDo=     1
 LinEq1:  Iter= 13 NonCon=     1 RMS=8.89D-11 Max=1.69D-09 NDo=     1
 LinEq1:  Iter= 14 NonCon=     0 RMS=1.53D-11 Max=2.93D-10 NDo=     1
 Linear equations converged to 1.000D-10 1.000D-09 after    14 iterations.
 End of Minotr F.D. properties file   721 does not exist.
 End of Minotr F.D. properties file   722 does not exist.
 End of Minotr F.D. properties file   788 does not exist.
 Leave Link 1002 at Wed Dec  1 11:26:16 2021, MaxMem= 16106127360 cpu:              52.3 elap:               2.9
 (Enter /sw/contrib/gaussian/g16/B01/g16/l701.exe)
 ... and contract with generalized density number  2.
 Compute integral first derivatives.
 Leave Link  701 at Wed Dec  1 11:26:16 2021, MaxMem= 16106127360 cpu:               5.5 elap:               0.2
 (Enter /sw/contrib/gaussian/g16/B01/g16/l702.exe)
 L702 exits ... SP integral derivatives will be done elsewhere.
 Leave Link  702 at Wed Dec  1 11:26:16 2021, MaxMem= 16106127360 cpu:               0.5 elap:               0.0
 (Enter /sw/contrib/gaussian/g16/B01/g16/l703.exe)
 Integral derivatives from FoFJK, PRISM(SPDF).
 Compute integral first derivatives, UseDBF=F ICtDFT=           0.
 Calling FoFJK, ICntrl=  10002127 FMM=F ISym2X=1 I1Cent= 0 IOpClX= 0 NMat=1 NMatS=1 NMatT=0.
 FoFJK:  IHMeth= 1 ICntrl=10002127 DoSepK=F KAlg= 0 I1Cent=           0 FoldK=F
 IRaf=         0 NMat=       1 IRICut=       1 DoRegI=T DoRafI=F ISym2E= 1 IDoP0=0 IntGTp=1.
 FoFCou: FMM=F IPFlag=           0 FMFlag=      100000 FMFlg1=         800
         NFxFlg=           0 DoJE=F BraDBF=F KetDBF=F FulRan=T
         wScrn=  0.000000 ICntrl=  10002127 IOpCl=  0 I1Cent=           0 NGrid=           0
         NMat0=    1 NMatS0=      1 NMatT0=    0 NMatD0=    1 NMtDS0=    0 NMtDT0=    0
 Petite list used in FoFCou.
 Leave Link  703 at Wed Dec  1 11:26:19 2021, MaxMem= 16106127360 cpu:              62.8 elap:               2.3
 (Enter /sw/contrib/gaussian/g16/B01/g16/l716.exe)
 Dipole        = 1.41868111D+00 1.19604519D+00 0.00000000D+00
 ***** Axes restored to original set *****
 -------------------------------------------------------------------
 Center     Atomic                   Forces (Hartrees/Bohr)
 Number     Number              X              Y              Z
 -------------------------------------------------------------------
      1        8           0.259094586    1.056212459   -0.000000000
      2       17          -0.007614521    0.000300539   -0.000000000
      3       35          -0.000528167   -0.000624189   -0.000000000
      4        1          -0.250951898   -1.055888810   -0.000000000
 -------------------------------------------------------------------
 Cartesian Forces:  Max     1.056212459 RMS     0.443532368
 -----------------------------------------------------------------------------------------------
                       Internal Coordinate Forces (Hartree/Bohr or radian)
  Cent   Atom   N1       Length/X         N2         Alpha/Y        N3         Beta/Z          J
 -----------------------------------------------------------------------------------------------
      1  O 
         X        1   0.000000(     1)
      2  Cl       1  -0.007615(     2)      2  -0.000000(     5)
      3  Br       1   0.000730(     3)      2   0.000000(     6)      3   0.002143(     8)     0
      4  H        1   1.085300(     4)      2   0.000000(     7)      3  -0.001186(     9)     0
 -----------------------------------------------------------------------------------------------
 Internal  Forces:  Max     1.085300466 RMS     0.361776729
 Leave Link  716 at Wed Dec  1 11:26:19 2021, MaxMem= 16106127360 cpu:               0.9 elap:               0.1
 (Enter /sw/contrib/gaussian/g16/B01/g16/l103.exe)

 GradGradGradGradGradGradGradGradGradGradGradGradGradGradGradGradGradGrad
 Berny optimization.
 Search for a local minimum.
 Step number   1 out of a maximum of   20 on scan point     2 out of    29
 All quantities printed in internal units (Hartrees-Bohrs-Radians)
 Second derivative matrix not updated -- first step.
 The second derivative matrix:
                          r1        r2        r3        a1        OOP
           r1           0.37845
           r2          -0.00000   0.02127
           r3          -0.00000  -0.00000   3.62830
           a1          -0.00000   0.00000   0.00000   0.41000
           OOP         -0.00000   0.00000   0.00000   0.00000   0.18943
 ITU=  0
     Eigenvalues --- 1000.000001000.000001000.000001000.000001000.00000
 RFO step:  Lambda= 0.00000000D+00 EMin= 1.00000000D+03
 Linear search not attempted -- first point.
 Variable       Old X    -DE/DX   Delta X   Delta X   Delta X     New X
                                 (Linear)    (Quad)   (Total)
    r1        3.18291  -0.00761   0.00000   0.00000   0.00000   3.18291
    r2        5.80867   0.00073   0.00000   0.00000   0.00000   5.80867
    r3        1.22832   1.08530   0.00000   0.00000   0.00000   1.22832
    a1        1.80503   0.00096   0.00000   0.00000   0.00000   1.80503
   OOP        1.57080   0.00000   0.00000   0.00000   0.00000   1.57080
         Item               Value     Threshold  Converged?
 Maximum Force            0.000000     0.000450     YES
 RMS     Force            0.000000     0.000300     YES
 Maximum Displacement     0.000000     0.001800     YES
 RMS     Displacement     0.000000     0.001200     YES
 Predicted change in Energy=-0.000000D+00
 Optimization completed.
    -- Stationary point found.
                       ----------------------------
                       !   Optimized Parameters   !
                       ! (Angstroms and Degrees)  !
 ----------------------                            ----------------------
 !      Name          Value   Derivative information (Atomic Units)     !
 ------------------------------------------------------------------------
 !       r1          1.6843   -DE/DX =   -0.0076                        !
 !       r2          3.0738   -DE/DX =    0.0007                        !
 !       r3          0.65     -DE/DX =    1.0853                        !
 !       a1        103.4204   -DE/DX =    0.001                         !
 !       OOP        90.0      -DE/DX =    0.0                           !
 ------------------------------------------------------------------------
 Lowest energy point so far.  Saving SCF results.
 GradGradGradGradGradGradGradGradGradGradGradGradGradGradGradGradGradGrad

 Leave Link  103 at Wed Dec  1 11:26:19 2021, MaxMem= 16106127360 cpu:               0.6 elap:               0.0
 (Enter /sw/contrib/gaussian/g16/B01/g16/l202.exe)
 ---------------------------------------------------------------------------------------------------
                            Z-MATRIX (ANGSTROMS AND DEGREES)
   CD    Cent   Atom    N1       Length/X        N2       Alpha/Y        N3        Beta/Z          J
 ---------------------------------------------------------------------------------------------------
      1      1  O 
      2         X        1  10.000000(     1)
      3      2  Cl       1   1.684326(     2)      2   90.000(     5)
      4      3  Br       1   3.073818(     3)      2   90.000(     6)      3  103.420(     8)      0
      5      4  H        1   0.700000(     4)      2   90.000(     7)      3  103.420(     9)      0
 ---------------------------------------------------------------------------------------------------
                         Z-Matrix orientation:                         
 ---------------------------------------------------------------------
 Center     Atomic      Atomic             Coordinates (Angstroms)
 Number     Number       Type             X           Y           Z
 ---------------------------------------------------------------------
      1          8           0        0.000000    0.000000    0.000000
      2         -1           0        0.000000    0.000000   10.000000
      3         17           0        1.684326    0.000000    0.000000
      4         35           0       -0.713413   -2.989882    0.000000
      5          1           0       -0.162465   -0.680885    0.000000
 ---------------------------------------------------------------------
                    Distance matrix (angstroms):
                    1          2          3          4          5
     1  O    0.000000
     2  X   10.000000   0.000000
     3  Cl   1.684326  10.140856   0.000000
     4  Br   3.073818  10.461757   3.832564   0.000000
     5  H    0.700000  10.024470   1.968309   2.373818   0.000000
 Stoichiometry    BrClHO(1-)
 Framework group  CS[SG(BrClHO)]
 Deg. of freedom     5
 Full point group                 CS      NOp   2
 RotChk:  IX=0 Diff= 2.67D-02
 Largest Abelian subgroup         CS      NOp   2
 Largest concise Abelian subgroup C1      NOp   1
                         Standard orientation:                         
 ---------------------------------------------------------------------
 Center     Atomic      Atomic             Coordinates (Angstroms)
 Number     Number       Type             X           Y           Z
 ---------------------------------------------------------------------
      1          8           0        0.299079    1.701538    0.000000
      2         17           0        1.947369    1.354995    0.000000
      3         35           0       -1.014226   -1.077596    0.000000
      4          1           0       -0.000000    1.068646    0.000000
 ---------------------------------------------------------------------
 Rotational constants (GHZ):          22.4802531           1.2794985           1.2105956
 Leave Link  202 at Wed Dec  1 11:26:19 2021, MaxMem= 16106127360 cpu:               0.4 elap:               0.0
 (Enter /sw/contrib/gaussian/g16/B01/g16/l301.exe)
 Standard basis: Aug-CC-pVTZ (5D, 7F)
 Ernie: Thresh=  0.10000D-02 Tol=  0.10000D-05 Strict=F.
 Ernie:  48 primitive shells out of 228 were deleted.
 There are   142 symmetry adapted cartesian basis functions of A'  symmetry.
 There are    66 symmetry adapted cartesian basis functions of A"  symmetry.
 There are   118 symmetry adapted basis functions of A'  symmetry.
 There are    60 symmetry adapted basis functions of A"  symmetry.
   178 basis functions,   430 primitive gaussians,   208 cartesian basis functions
    31 alpha electrons       31 beta electrons
       nuclear repulsion energy       191.5063693821 Hartrees.
 IExCor=    0 DFT=F Ex=HF Corr=None ExCW=0 ScaHFX=  1.000000
 ScaDFX=  1.000000  1.000000  1.000000  1.000000 ScalE2=  1.000000  1.000000
 IRadAn=      5 IRanWt=     -1 IRanGd=            0 ICorTp=0 IEmpDi=  4
 NAtoms=    4 NActive=    4 NUniq=    4 SFac= 1.00D+00 NAtFMM=   60 NAOKFM=F Big=F
 Integral buffers will be    131072 words long.
 Raffenetti 1 integral format.
 Two-electron integral symmetry is turned on.
 Leave Link  301 at Wed Dec  1 11:26:19 2021, MaxMem= 16106127360 cpu:               2.3 elap:               0.1
 (Enter /sw/contrib/gaussian/g16/B01/g16/l302.exe)
 NPDir=0 NMtPBC=     1 NCelOv=     1 NCel=       1 NClECP=     1 NCelD=      1
         NCelK=      1 NCelE2=     1 NClLst=     1 CellRange=     0.0.
 One-electron integrals computed using PRISM.
 One-electron integral symmetry used in STVInt
 NBasis=   178 RedAO= T EigKep=  1.51D-04  NBF=   118    60
 NBsUse=   178 1.00D-06 EigRej= -1.00D+00 NBFU=   118    60
 Leave Link  302 at Wed Dec  1 11:26:19 2021, MaxMem= 16106127360 cpu:               4.6 elap:               0.2
 (Enter /sw/contrib/gaussian/g16/B01/g16/l303.exe)
 DipDrv:  MaxL=1.
 Leave Link  303 at Wed Dec  1 11:26:19 2021, MaxMem= 16106127360 cpu:               0.8 elap:               0.1
 (Enter /sw/contrib/gaussian/g16/B01/g16/l401.exe)
 Initial guess from the checkpoint file:  "/gscratch/ilahie/mccoygrp/coire_hocl/rOH_s_oop_0/brhocl/brhocl_rOH_s_05-20.chk"
 B after Tr=    -0.000000    0.000000    0.000000
         Rot=    0.999956    0.000000    0.000000    0.009380 Ang=   1.07 deg.
 Guess basis will be translated and rotated to current coordinates.
 JPrj=2 DoOrth=T DoCkMO=T.
 Initial guess orbital symmetries:
       Occupied  (A') (A') (A') (A") (A') (A') (A') (A') (A') (A')
                 (A') (A") (A') (A") (A') (A') (A") (A') (A") (A')
                 (A') (A') (A') (A') (A") (A') (A') (A") (A') (A')
                 (A")
       Virtual   (A') (A') (A') (A") (A') (A') (A") (A') (A') (A")
                 (A') (A') (A') (A') (A") (A") (A') (A') (A') (A")
                 (A') (A") (A') (A') (A") (A') (A') (A') (A') (A")
                 (A") (A') (A') (A') (A') (A") (A') (A") (A") (A')
                 (A') (A") (A') (A') (A") (A') (A") (A') (A") (A')
                 (A') (A') (A") (A') (A") (A') (A") (A') (A") (A')
                 (A') (A") (A') (A') (A') (A') (A") (A') (A") (A")
                 (A') (A') (A') (A') (A") (A') (A') (A") (A") (A')
                 (A') (A') (A") (A') (A") (A') (A') (A") (A") (A')
                 (A') (A') (A") (A") (A') (A') (A") (A') (A") (A")
                 (A') (A') (A") (A') (A') (A") (A') (A") (A') (A')
                 (A") (A') (A') (A") (A') (A') (A") (A') (A') (A')
                 (A') (A") (A') (A") (A') (A") (A') (A') (A') (A")
                 (A') (A') (A') (A") (A') (A') (A") (A') (A") (A')
                 (A") (A') (A") (A') (A') (A') (A')
 The electronic state of the initial guess is 1-A'.
 Generating alternative initial guess.
 ExpMin= 2.53D-02 ExpMax= 1.06D+07 ExpMxC= 1.21D+04 IAcc=3 IRadAn=         5 AccDes= 0.00D+00
 Harris functional with IExCor=  205 and IRadAn=       5 diagonalized for initial guess.
 HarFok:  IExCor=  205 AccDes= 0.00D+00 IRadAn=         5 IDoV= 1 UseB2=F ITyADJ=14
 ICtDFT=  3500011 ScaDFX=  1.000000  1.000000  1.000000  1.000000
 FoFCou: FMM=F IPFlag=           0 FMFlag=      100000 FMFlg1=           0
         NFxFlg=           0 DoJE=T BraDBF=F KetDBF=T FulRan=T
         wScrn=  0.000000 ICntrl=       500 IOpCl=  0 I1Cent=   200000004 NGrid=           0
         NMat0=    1 NMatS0=      1 NMatT0=    0 NMatD0=    1 NMtDS0=    0 NMtDT0=    0
 Petite list used in FoFCou.
 Harris En= -3106.29110038635    
 Leave Link  401 at Wed Dec  1 11:26:20 2021, MaxMem= 16106127360 cpu:               8.6 elap:               0.3
 (Enter /sw/contrib/gaussian/g16/B01/g16/l502.exe)
 Keep R1 ints in memory in symmetry-blocked form, NReq=191183261.
 FoFCou: FMM=F IPFlag=           0 FMFlag=           0 FMFlg1=           0
         NFxFlg=           0 DoJE=F BraDBF=F KetDBF=F FulRan=T
         wScrn=  0.000000 ICntrl=       600 IOpCl=  0 I1Cent=           0 NGrid=           0
         NMat0=    1 NMatS0=  15931 NMatT0=    0 NMatD0=    1 NMtDS0=    0 NMtDT0=    0
 Petite list used in FoFCou.
 Closed shell SCF:
 Using DIIS extrapolation, IDIIS=  1040.
 NGot= 16106127360 LenX= 16041757360 LenY= 16041713655
 Requested convergence on RMS density matrix=1.00D-08 within 128 cycles.
 Requested convergence on MAX density matrix=1.00D-06.
 Requested convergence on             energy=1.00D-06.
 No special actions if energy rises.

 Cycle   1  Pass 1  IDiag  1:
 E= -3107.34776170627    
 DIIS: error= 7.96D-03 at cycle   1 NSaved=   1.
 NSaved= 1 IEnMin= 1 EnMin= -3107.34776170627     IErMin= 1 ErrMin= 7.96D-03
 ErrMax= 7.96D-03  0.00D+00 EMaxC= 1.00D-01 BMatC= 6.47D-03 BMatP= 6.47D-03
 IDIUse=3 WtCom= 9.20D-01 WtEn= 7.96D-02
 Coeff-Com:  0.100D+01
 Coeff-En:   0.100D+01
 Coeff:      0.100D+01
 Gap=     0.312 Goal=   None    Shift=    0.000
 GapD=    0.312 DampG=1.000 DampE=1.000 DampFc=1.0000 IDamp=-1.
 RMSDP=4.47D-04 MaxDP=2.49D-02              OVMax= 1.16D-02

 Cycle   2  Pass 1  IDiag  1:
 E= -3107.35067816401     Delta-E=       -0.002916457741 Rises=F Damp=F
 DIIS: error= 8.90D-04 at cycle   2 NSaved=   2.
 NSaved= 2 IEnMin= 2 EnMin= -3107.35067816401     IErMin= 2 ErrMin= 8.90D-04
 ErrMax= 8.90D-04  0.00D+00 EMaxC= 1.00D-01 BMatC= 2.09D-04 BMatP= 6.47D-03
 IDIUse=3 WtCom= 9.91D-01 WtEn= 8.90D-03
 Coeff-Com:  0.399D-02 0.996D+00
 Coeff-En:   0.000D+00 0.100D+01
[...]
         NMat0=    1 NMatS0=      1 NMatT0=    0 NMatD0=    1 NMtDS0=    0 NMtDT0=    0
 Petite list used in FoFCou.
 Leave Link  703 at Wed Dec  1 11:37:39 2021, MaxMem= 16106127360 cpu:              63.2 elap:               2.3
 (Enter /sw/contrib/gaussian/g16/B01/g16/l716.exe)
 Dipole        =-1.98869355D+00 1.45573196D+00 0.00000000D+00
 ***** Axes restored to original set *****
 -------------------------------------------------------------------
 Center     Atomic                   Forces (Hartrees/Bohr)
 Number     Number              X              Y              Z
 -------------------------------------------------------------------
      1        8           0.006163312   -0.002582143   -0.000000000
      2       17          -0.007310754   -0.000314918   -0.000000000
      3       35          -0.107828256   -0.450471070   -0.000000000
      4        1           0.108975698    0.453368132   -0.000000000
 -------------------------------------------------------------------
 Cartesian Forces:  Max     0.453368132 RMS     0.189751523
 -----------------------------------------------------------------------------------------------
                       Internal Coordinate Forces (Hartree/Bohr or radian)
  Cent   Atom   N1       Length/X         N2         Alpha/Y        N3         Beta/Z          J
 -----------------------------------------------------------------------------------------------
      1  O 
         X        1   0.000000(     1)
      2  Cl       1  -0.007311(     2)      2  -0.000000(     5)
      3  Br       1   0.463197(     3)      2   0.000000(     6)      3   0.001931(     8)     0
      4  H        1  -0.466281(     4)      2  -0.000000(     7)      3  -0.002934(     9)     0
 -----------------------------------------------------------------------------------------------
 Internal  Forces:  Max     0.466280777 RMS     0.219097785
 Leave Link  716 at Wed Dec  1 11:37:39 2021, MaxMem= 16106127360 cpu:               1.2 elap:               0.1
 (Enter /sw/contrib/gaussian/g16/B01/g16/l103.exe)

 GradGradGradGradGradGradGradGradGradGradGradGradGradGradGradGradGradGrad
 Berny optimization.
 Search for a local minimum.
 Step number   1 out of a maximum of   20 on scan point    29 out of    29
 All quantities printed in internal units (Hartrees-Bohrs-Radians)
 Second derivative matrix not updated -- first step.
 The second derivative matrix:
                          r1        r2        r3        a1        OOP
           r1           0.37845
           r2          -0.00000   0.02127
           r3          -0.00000  -0.00000   3.62830
           a1          -0.00000   0.00000   0.00000   0.41000
           OOP         -0.00000   0.00000   0.00000   0.00000   0.18943
 ITU=  0
     Eigenvalues --- 1000.000001000.000001000.000001000.000001000.00000
 RFO step:  Lambda= 0.00000000D+00 EMin= 1.00000000D+03
 Linear search not attempted -- first point.
 Variable       Old X    -DE/DX   Delta X   Delta X   Delta X     New X
                                 (Linear)    (Quad)   (Total)
    r1        3.18291  -0.00731   0.00000   0.00000   0.00000   3.18291
    r2        5.80867   0.46320   0.00000   0.00000   0.00000   5.80867
    r3        3.77945  -0.46628   0.00000   0.00000   0.00000   3.77945
    a1        1.80503  -0.00100   0.00000   0.00000   0.00000   1.80503
   OOP        1.57080  -0.00000   0.00000   0.00000   0.00000   1.57080
         Item               Value     Threshold  Converged?
 Maximum Force            0.000000     0.000450     YES
 RMS     Force            0.000000     0.000300     YES
 Maximum Displacement     0.000000     0.001800     YES
 RMS     Displacement     0.000000     0.001200     YES
 Predicted change in Energy=-0.000000D+00
 Optimization completed.
    -- Stationary point found.
                       ----------------------------
                       !   Optimized Parameters   !
                       ! (Angstroms and Degrees)  !
 ----------------------                            ----------------------
 !      Name          Value   Derivative information (Atomic Units)     !
 ------------------------------------------------------------------------
 !       r1          1.6843   -DE/DX =   -0.0073                        !
 !       r2          3.0738   -DE/DX =    0.4632                        !
 !       r3          2.0      -DE/DX =   -0.4663                        !
 !       a1        103.4204   -DE/DX =   -0.001                         !
 !       OOP        90.0      -DE/DX =    0.0                           !
 ------------------------------------------------------------------------
 Lowest energy point so far.  Saving SCF results.
 Summary of Optimized Potential Surface Scan (add -3108.0 to energies):
                           1         2         3         4         5
     Eigenvalues --     0.17186   0.04758  -0.03774  -0.09549  -0.13364
           r1           1.68433   1.68433   1.68433   1.68433   1.68433
           r2           3.07382   3.07382   3.07382   3.07382   3.07382
           r3           0.60000   0.65000   0.70000   0.75000   0.80000
           a1         103.42035 103.42035 103.42035 103.42035 103.42035
           OOP         90.00000  90.00000  90.00000  90.00000  90.00000
                           6         7         8         9        10
     Eigenvalues --    -0.15787  -0.17227  -0.17979  -0.18259  -0.18227
           r1           1.68433   1.68433   1.68433   1.68433   1.68433
           r2           3.07382   3.07382   3.07382   3.07382   3.07382
           r3           0.85000   0.90000   0.95000   1.00000   1.05000
           a1         103.42035 103.42035 103.42035 103.42035 103.42035
           OOP         90.00000  90.00000  90.00000  90.00000  90.00000
                          11        12        13        14        15
     Eigenvalues --    -0.17997  -0.17656  -0.17261  -0.16854  -0.16458
           r1           1.68433   1.68433   1.68433   1.68433   1.68433
           r2           3.07382   3.07382   3.07382   3.07382   3.07382
           r3           1.10000   1.15000   1.20000   1.25000   1.30000
           a1         103.42035 103.42035 103.42035 103.42035 103.42035
           OOP         90.00000  90.00000  90.00000  90.00000  90.00000
                          16        17        18        19        20
     Eigenvalues --    -0.16085  -0.15739  -0.15413  -0.15096  -0.14765
           r1           1.68433   1.68433   1.68433   1.68433   1.68433
           r2           3.07382   3.07382   3.07382   3.07382   3.07382
           r3           1.35000   1.40000   1.45000   1.50000   1.55000
           a1         103.42035 103.42035 103.42035 103.42035 103.42035
           OOP         90.00000  90.00000  90.00000  90.00000  90.00000
                          21        22        23        24        25
     Eigenvalues --    -0.14391  -0.13929  -0.13321  -0.12495  -0.11356
           r1           1.68433   1.68433   1.68433   1.68433   1.68433
           r2           3.07382   3.07382   3.07382   3.07382   3.07382
           r3           1.60000   1.65000   1.70000   1.75000   1.80000
           a1         103.42035 103.42035 103.42035 103.42035 103.42035
           OOP         90.00000  90.00000  90.00000  90.00000  90.00000
                          26        27        28        29
     Eigenvalues --    -0.09790  -0.07654  -0.04773  -0.00932
           r1           1.68433   1.68433   1.68433   1.68433
           r2           3.07382   3.07382   3.07382   3.07382
           r3           1.85000   1.90000   1.95000   2.00000
           a1         103.42035 103.42035 103.42035 103.42035
           OOP         90.00000  90.00000  90.00000  90.00000
 Largest change from initial coordinates is atom    2       0.605 Angstoms.
 GradGradGradGradGradGradGradGradGradGradGradGradGradGradGradGradGradGrad

 Leave Link  103 at Wed Dec  1 11:37:39 2021, MaxMem= 16106127360 cpu:               0.5 elap:               0.0
 (Enter /sw/contrib/gaussian/g16/B01/g16/l202.exe)
 ---------------------------------------------------------------------------------------------------
                            Z-MATRIX (ANGSTROMS AND DEGREES)
   CD    Cent   Atom    N1       Length/X        N2       Alpha/Y        N3        Beta/Z          J
 ---------------------------------------------------------------------------------------------------
      1      1  O 
      2         X        1  10.000000(     1)
      3      2  Cl       1   1.684326(     2)      2   90.000(     5)
      4      3  Br       1   3.073818(     3)      2   90.000(     6)      3  103.420(     8)      0
      5      4  H        1   2.000000(     4)      2   90.000(     7)      3  103.420(     9)      0
 ---------------------------------------------------------------------------------------------------
                         Z-Matrix orientation:                         
 ---------------------------------------------------------------------
 Center     Atomic      Atomic             Coordinates (Angstroms)
 Number     Number       Type             X           Y           Z
 ---------------------------------------------------------------------
      1          8           0        0.000000    0.000000    0.000000
      2         -1           0        0.000000    0.000000   10.000000
      3         17           0        1.684326    0.000000    0.000000
      4         35           0       -0.713413   -2.989882    0.000000
      5          1           0       -0.464187   -1.945387    0.000000
 ---------------------------------------------------------------------
                    Distance matrix (angstroms):
                    1          2          3          4          5
     1  O    0.000000
     2  X   10.000000   0.000000
     3  Cl   1.684326  10.140856   0.000000
     4  Br   3.073818  10.461757   3.832564   0.000000
     5  H    2.000000  10.198039   2.898385   1.073818   0.000000
 Stoichiometry    BrClHO(1-)
 Framework group  CS[SG(BrClHO)]
 Deg. of freedom     5
 Full point group                 CS      NOp   2
 RotChk:  IX=0 Diff= 5.04D-17
 Largest Abelian subgroup         CS      NOp   2
 Largest concise Abelian subgroup C1      NOp   1
                         Standard orientation:                         
 ---------------------------------------------------------------------
 Center     Atomic      Atomic             Coordinates (Angstroms)
 Number     Number       Type             X           Y           Z
 ---------------------------------------------------------------------
      1          8           0        1.650459   -0.576314    0.000000
      2         17           0        1.047731   -2.149105    0.000000
      3         35           0       -0.886146    1.159772    0.000000
      4          1           0       -0.000000    0.553282    0.000000
 ---------------------------------------------------------------------
 Rotational constants (GHZ):          23.0056004           1.2813121           1.2137135
 Leave Link  202 at Wed Dec  1 11:37:39 2021, MaxMem= 16106127360 cpu:               0.9 elap:               0.1
 (Enter /sw/contrib/gaussian/g16/B01/g16/l601.exe)
 Copying SCF densities to generalized density rwf, IOpCl= 0 IROHF=0.

 **********************************************************************

            Population analysis using the MP2 Density.

 **********************************************************************

 Orbital symmetries:
       Occupied  (A') (A') (A') (A') (A") (A') (A') (A') (A') (A')
                 (A') (A") (A') (A") (A') (A') (A") (A') (A") (A')
                 (A') (A') (A') (A') (A") (A') (A') (A") (A') (A')
                 (A")
       Virtual   (A') (A') (A') (A") (A') (A') (A") (A') (A') (A')
                 (A") (A') (A') (A') (A") (A') (A") (A') (A') (A")
                 (A') (A') (A') (A") (A") (A') (A') (A') (A") (A')
                 (A') (A") (A") (A') (A') (A') (A") (A') (A') (A")
                 (A') (A') (A") (A") (A') (A') (A") (A') (A') (A")
                 (A") (A') (A") (A') (A') (A') (A') (A') (A") (A")
                 (A') (A') (A") (A') (A') (A') (A") (A') (A") (A")
                 (A') (A') (A') (A") (A') (A') (A') (A") (A') (A')
                 (A") (A') (A") (A') (A") (A") (A') (A') (A") (A')
                 (A") (A') (A") (A') (A') (A') (A') (A") (A') (A")
                 (A") (A') (A') (A") (A') (A') (A") (A') (A") (A')
                 (A') (A") (A") (A') (A') (A') (A') (A") (A') (A')
                 (A') (A") (A') (A") (A") (A') (A") (A') (A') (A')
                 (A') (A') (A') (A") (A') (A') (A") (A") (A') (A')
                 (A") (A') (A") (A') (A') (A') (A')
 The electronic state is 1-A'.
 Alpha  occ. eigenvalues -- -489.85725-104.63150 -65.00354 -58.35757 -58.35731
 Alpha  occ. eigenvalues --  -58.35730 -20.30810 -10.35144  -9.68460  -7.81843
 Alpha  occ. eigenvalues --   -7.81671  -7.81669  -7.29868  -7.28954  -7.28952
 Alpha  occ. eigenvalues --   -3.04231  -3.03490  -3.03487  -3.02870  -3.02870
 Alpha  occ. eigenvalues --   -1.05256  -0.94153  -0.76813  -0.47128  -0.31611
 Alpha  occ. eigenvalues --   -0.31477  -0.30265  -0.28137  -0.28060  -0.16302
 Alpha  occ. eigenvalues --   -0.16142
 Alpha virt. eigenvalues --    0.14641   0.19413   0.20814   0.21346   0.23150
 Alpha virt. eigenvalues --    0.26106   0.26722   0.28346   0.32863   0.35366
 Alpha virt. eigenvalues --    0.35942   0.38387   0.39621   0.41328   0.41591
 Alpha virt. eigenvalues --    0.42962   0.43679   0.46462   0.53943   0.55220
 Alpha virt. eigenvalues --    0.56254   0.56470   0.58743   0.61415   0.63179
 Alpha virt. eigenvalues --    0.65208   0.66161   0.68382   0.69798   0.70520
 Alpha virt. eigenvalues --    0.72069   0.83539   0.86315   0.86456   0.88803
 Alpha virt. eigenvalues --    0.90272   0.90380   0.92668   0.94486   1.00700
 Alpha virt. eigenvalues --    1.01072   1.04063   1.05713   1.06923   1.07256
 Alpha virt. eigenvalues --    1.09999   1.10204   1.11865   1.17476   1.18615
 Alpha virt. eigenvalues --    1.19387   1.20783   1.21711   1.23253   1.25385
 Alpha virt. eigenvalues --    1.28744   1.31201   1.32874   1.34062   1.38324
 Alpha virt. eigenvalues --    1.39205   1.43391   1.45007   1.45960   1.51995
 Alpha virt. eigenvalues --    1.56473   1.62884   1.65396   1.66659   1.75625
 Alpha virt. eigenvalues --    1.79055   1.82370   1.88543   1.92821   1.98075
 Alpha virt. eigenvalues --    2.02504   2.13835   2.28917   2.30066   2.35809
 Alpha virt. eigenvalues --    2.44346   2.44524   2.44768   2.44945   2.45207
 Alpha virt. eigenvalues --    2.45803   2.46104   2.48683   2.51080   2.52353
 Alpha virt. eigenvalues --    2.56740   2.58124   2.63178   2.63312   2.65368
 Alpha virt. eigenvalues --    2.69040   2.70901   2.71089   2.76529   2.77387
 Alpha virt. eigenvalues --    2.80058   2.83736   2.85606   2.86695   2.94826
 Alpha virt. eigenvalues --    3.03376   3.04181   3.16741   3.18097   3.24726
 Alpha virt. eigenvalues --    3.29703   3.31157   3.35430   3.36475   3.40316
 Alpha virt. eigenvalues --    3.44834   3.59870   3.63831   3.70542   3.98019
 Alpha virt. eigenvalues --    4.10277   4.20622   4.24636   4.66177   4.85995
 Alpha virt. eigenvalues --    4.86373   4.93590   4.96734   4.99278   5.15652
 Alpha virt. eigenvalues --    5.41859   5.80730   6.50789   6.89913   6.95596
 Alpha virt. eigenvalues --    7.00001   7.01145   7.08863   7.15561   7.25051
 Alpha virt. eigenvalues --    7.42770   7.44597   7.49075   7.57268   7.95410
 Alpha virt. eigenvalues --    9.38719  12.34920
          Condensed to atoms (all electrons):
               1          2          3          4
     1  O    9.160516  -0.246940  -0.043408  -0.019500
     2  Cl  -0.246940  17.368143   0.000808  -0.003013
     3  Br  -0.043408   0.000808  35.924747  -0.613553
     4  H   -0.019500  -0.003013  -0.613553   1.397806
 Mulliken charges:
               1
     1  O   -0.850668
     2  Cl  -0.118999
     3  Br  -0.268594
     4  H    0.238261
 Sum of Mulliken charges =  -1.00000
 Mulliken charges with hydrogens summed into heavy atoms:
               1
     1  O   -0.850668
     2  Cl  -0.118999
     3  Br  -0.030333
 Electronic spatial extent (au):  <R**2>=            810.1086
 Charge=             -1.0000 electrons
 Dipole moment (field-independent basis, Debye):
    X=             -5.0548    Y=              3.7001    Z=              0.0000  Tot=              6.2643
 Quadrupole moment (field-independent basis, Debye-Ang):
   XX=            -52.2996   YY=            -51.5352   ZZ=            -41.9816
   XY=              7.4298   XZ=              0.0000   YZ=              0.0000
 Traceless Quadrupole moment (field-independent basis, Debye-Ang):
   XX=             -3.6942   YY=             -2.9297   ZZ=              6.6239
   XY=              7.4298   XZ=              0.0000   YZ=              0.0000
 Octapole moment (field-independent basis, Debye-Ang**2):
  XXX=            -45.6666  YYY=             50.4922  ZZZ=              0.0000  XYY=            -18.6348
  XXY=             21.5208  XXZ=              0.0000  XZZ=             -9.4259  YZZ=             12.5512
  YYZ=              0.0000  XYZ=              0.0000
 Hexadecapole moment (field-independent basis, Debye-Ang**3):
 XXXX=           -381.5788 YYYY=           -659.7676 ZZZZ=            -56.2207 XXXY=            185.5843
 XXXZ=              0.0000 YYYX=            199.5435 YYYZ=              0.0000 ZZZX=              0.0000
 ZZZY=              0.0000 XXYY=           -173.4813 XXZZ=            -70.0497 YYZZ=           -118.2804
 XXYZ=              0.0000 YYXZ=              0.0000 ZZXY=             59.8965
 N-N= 1.955544265424D+02 E-N=-7.831467984561D+03  KE= 3.108168597793D+03
 Symmetry A'   KE= 2.682225948495D+03
 Symmetry A"   KE= 4.259426492986D+02
 No NMR shielding tensors so no spin-rotation constants.
 Leave Link  601 at Wed Dec  1 11:37:39 2021, MaxMem= 16106127360 cpu:               4.5 elap:               0.2
 (Enter /sw/contrib/gaussian/g16/B01/g16/l9999.exe)
 1\1\GINC-N2174\Scan\RMP2-FC\Aug-CC-pVTZ\Br1Cl1H1O1(1-)\CGAVINH\01-Dec-
 2021\1\\#p opt=(z-matrix) mp2/aug-cc-pvtz density=current\\title\\-1,1
 \O\X,1,10.\Cl,1,r1,2,90.\Br,1,r2,2,90.,3,a1,0\H,1,r3,2,OOP,3,a1,0\\r1=
 1.68432554,s,-1000,0.\r2=3.07381752,s,-1000,0.\r3=2.,s,28,0.05\a1=103.
 42035185,s,-1000,0.\OOP=90.,s,-1000,0.\\Version=ES64L-G16RevB.01\State
 =1-A'\HF=-3107.145296,-3107.2676606,-3107.3508266,-3107.4062157,-3107.
 4418298,-3107.4633632,-3107.4749233,-3107.4795057,-3107.4793177,-3107.
 4760023,-3107.4707944,-3107.4646271,-3107.4582005,-3107.4520239,-3107.
 4464406,-3107.4416414,-3107.4376745,-3107.4344535,-3107.431766,-3107.4
 292812,-3107.4265556,-3107.4230331,-3107.4180382,-3107.4107602,-3107.4
 002246,-3107.3852531,-3107.3644074,-3107.335915,-3107.2975733\MP2=-310
 7.8281393,-3107.9524184,-3108.0377403,-3108.0954893,-3108.1336423,-310
 8.1578735,-3108.1722671,-3108.1797858,-3108.182591,-3108.1822667,-3108
 .1799741,-3108.1765569,-3108.1726113,-3108.1685369,-3108.1645769,-3108
 .160852,-3108.1573881,-3108.1541326,-3108.1509583,-3108.1476538,-3108.
 1439073,-3108.1392853,-3108.1332125,-3108.1249486,-3108.1135629,-3108.
 0979006,-3108.076539,-3108.0477292,-3108.0093159\RMSD=3.281e-09,5.337e
 -09,6.421e-09,6.651e-09,6.816e-09,6.845e-09,6.658e-09,6.071e-09,5.750e
 -09,5.772e-09,5.336e-09,4.830e-09,4.327e-09,4.323e-09,4.782e-09,5.383e
 -09,6.461e-09,7.348e-09,7.869e-09,8.060e-09,7.961e-09,7.584e-09,6.942e
 -09,6.063e-09,5.031e-09,4.355e-09,4.045e-09,3.604e-09,3.265e-09\PG=CS 
 [SG(Br1Cl1H1O1)]\\@


 It is also a good rule not to put too much confidence in
 experimental results until they have been confirmed by
 Theory.
                             -- Sir Arthur Eddington
 Job cpu time:       0 days  5 hours 10 minutes  6.6 seconds.
 Elapsed time:       0 days  0 hours 12 minutes  8.8 seconds.
 File lengths (MBytes):  RWF=     21 Int=      0 D2E=      0 Chk=      8 Scr=      1
 Normal termination of Gaussian 16 at Wed Dec  1 11:37:39 2021.
