title                                                                   
SP        RMP2-FC                                                     Aug-CC-pVTZ         
Number of atoms                            I                4
Info1-9                                    I   N=           9
          40          13           0           0           0         110
           1           2           1
Full Title                                 C   N=           1
title       
Route                                      C   N=           5
#p pop=NBO SP NoSymm mp2/aug-cc-pvtz density=current        
Charge                                     I               -1
Multiplicity                               I                1
Number of electrons                        I               44
Number of alpha electrons                  I               22
Number of beta electrons                   I               22
Number of basis functions                  I              169
Number of independent functions            I              169
Number of point charges in /Mol/           I                0
Number of translation vectors              I                0
Atomic numbers                             I   N=           4
           8          17          17           1
Nuclear charges                            R   N=           4
  8.00000000E+00  1.70000000E+01  1.70000000E+01  1.00000000E+00
Current cartesian coordinates              R   N=          12
  0.00000000E+00  0.00000000E+00  0.00000000E+00  5.48904212E+00  0.00000000E+00
  0.00000000E+00 -7.43959853E-01  3.09168378E+00  0.00000000E+00  1.93462489E+00
  0.00000000E+00  1.69257746E-01
Number of symbols in /Mol/                 I                0
Force Field                                I                0
Atom Types                                 C   N=           4
                                                
Int Atom Types                             I   N=           4
           0           0           0           0
MM charges                                 R   N=           4
  0.00000000E+00  0.00000000E+00  0.00000000E+00  0.00000000E+00
Integer atomic weights                     I   N=           4
          16          35          35           1
Real atomic weights                        R   N=           4
  1.59949146E+01  3.49688527E+01  3.49688527E+01  1.00782504E+00
Atom fragment info                         I   N=           4
           0           0           0           0
Atom residue num                           I   N=           4
           0           0           0           0
Nuclear spins                              I   N=           4
           0           3           3           1
Nuclear ZEff                               R   N=           4
 -5.60000000E+00 -1.42400000E+01 -1.42400000E+01 -1.00000000E+00
Nuclear ZNuc                               R   N=           4
  8.00000000E+00  1.70000000E+01  1.70000000E+01  1.00000000E+00
Nuclear QMom                               R   N=           4
  0.00000000E+00 -8.16500000E+00 -8.16500000E+00  0.00000000E+00
Nuclear GFac                               R   N=           4
  0.00000000E+00  8.21874000E-01  8.21874000E-01  2.79284600E+00
MicOpt                                     I   N=           4
          -1          -1          -1          -1
Number of residues                         I                0
Number of secondary structures             I                0
Number of contracted shells                I               55
Number of primitive shells                 I              140
Pure/Cartesian d shells                    I                0
Pure/Cartesian f shells                    I                0
Highest angular momentum                   I                3
Largest degree of contraction              I               11
Shell types                                I   N=          55
           0           0           0           0           0           1
           1           1           1          -2          -2          -2
          -3          -3           0           0           0           0
           0           0           1           1           1           1
           1          -2          -2          -2          -3          -3
           0           0           0           0           0           0
           1           1           1           1           1          -2
          -2          -2          -3          -3           0           0
           0           0           1           1           1          -2
          -2
Number of primitives per shell             I   N=          55
           7           6           1           1           1           3
           1           1           1           1           1           1
           1           1          11           9           8           1
           1           1           6           6           1           1
           1           1           1           1           1           1
          11           9           8           1           1           1
           6           6           1           1           1           1
           1           1           1           1           3           1
           1           1           1           1           1           1
           1
Shell to atom map                          I   N=          55
           1           1           1           1           1           1
           1           1           1           1           1           1
           1           1           2           2           2           2
           2           2           2           2           2           2
           2           2           2           2           2           2
           3           3           3           3           3           3
           3           3           3           3           3           3
           3           3           3           3           4           4
           4           4           4           4           4           4
           4
Primitive exponents                        R   N=         140
  1.53300000E+04  2.29900000E+03  5.22400000E+02  1.47300000E+02  4.75500000E+01
  1.67600000E+01  6.20700000E+00  5.22400000E+02  1.47300000E+02  4.75500000E+01
  1.67600000E+01  6.20700000E+00  6.88200000E-01  1.75200000E+00  2.38400000E-01
  7.37600000E-02  3.44600000E+01  7.74900000E+00  2.28000000E+00  7.15600000E-01
  2.14000000E-01  5.97400000E-02  2.31400000E+00  6.45000000E-01  2.14000000E-01
  1.42800000E+00  5.00000000E-01  4.56100000E+05  6.83300000E+04  1.55500000E+04
  4.40500000E+03  1.43900000E+03  5.20400000E+02  2.03100000E+02  8.39600000E+01
  3.62000000E+01  1.58300000E+01  6.33400000E+00  4.40500000E+03  1.43900000E+03
  5.20400000E+02  2.03100000E+02  8.39600000E+01  3.62000000E+01  1.58300000E+01
  6.33400000E+00  2.69400000E+00  1.43900000E+03  2.03100000E+02  8.39600000E+01
  3.62000000E+01  1.58300000E+01  6.33400000E+00  2.69400000E+00  4.31300000E-01
  9.76800000E-01  1.62500000E-01  5.91000000E-02  6.63300000E+02  1.56800000E+02
  4.99800000E+01  1.84200000E+01  7.24000000E+00  2.92200000E+00  1.56800000E+02
  4.99800000E+01  1.84200000E+01  7.24000000E+00  2.92200000E+00  3.81800000E-01
  1.02200000E+00  1.30100000E-01  4.19000000E-02  1.04600000E+00  3.44000000E-01
  1.35000000E-01  7.06000000E-01  3.12000000E-01  4.56100000E+05  6.83300000E+04
  1.55500000E+04  4.40500000E+03  1.43900000E+03  5.20400000E+02  2.03100000E+02
  8.39600000E+01  3.62000000E+01  1.58300000E+01  6.33400000E+00  4.40500000E+03
  1.43900000E+03  5.20400000E+02  2.03100000E+02  8.39600000E+01  3.62000000E+01
  1.58300000E+01  6.33400000E+00  2.69400000E+00  1.43900000E+03  2.03100000E+02
  8.39600000E+01  3.62000000E+01  1.58300000E+01  6.33400000E+00  2.69400000E+00
  4.31300000E-01  9.76800000E-01  1.62500000E-01  5.91000000E-02  6.63300000E+02
  1.56800000E+02  4.99800000E+01  1.84200000E+01  7.24000000E+00  2.92200000E+00
  1.56800000E+02  4.99800000E+01  1.84200000E+01  7.24000000E+00  2.92200000E+00
  3.81800000E-01  1.02200000E+00  1.30100000E-01  4.19000000E-02  1.04600000E+00
  3.44000000E-01  1.35000000E-01  7.06000000E-01  3.12000000E-01  3.38700000E+01
  5.09500000E+00  1.15900000E+00  3.25800000E-01  1.02700000E-01  2.52600000E-02
  1.40700000E+00  3.88000000E-01  1.02000000E-01  1.05700000E+00  2.47000000E-01
Contraction coefficients                   R   N=         140
  5.19808943E-04  4.02025621E-03  2.07128267E-02  8.10105536E-02  2.35962985E-01
  4.42653446E-01  3.57064423E-01 -4.42115008E-05 -1.22591041E-03 -1.05517725E-02
 -6.74452633E-02 -1.71198607E-01  1.07329856E+00  1.00000000E+00  1.00000000E+00
  1.00000000E+00  4.11634896E-02  2.57762836E-01  8.02419274E-01  1.00000000E+00
  1.00000000E+00  1.00000000E+00  1.00000000E+00  1.00000000E+00  1.00000000E+00
  1.00000000E+00  1.00000000E+00  4.93229477E-05  3.83207967E-04  2.00947816E-03
  8.38950124E-03  2.94843950E-02  8.78759948E-02  2.11589759E-01  3.65611554E-01
  3.41246350E-01  1.02162570E-01  2.14249949E-03 -2.21747925E-06 -1.71189708E-04
 -1.27922846E-03 -9.32956265E-03 -3.98910062E-02 -1.05536085E-01  9.36202446E-03
  5.10511140E-01  5.73150737E-01  4.03949245E-06  2.12481765E-04  8.59484452E-04
  4.63248159E-03  4.47343490E-04 -7.38438245E-02 -3.62271994E-01  1.16620337E+00
  1.00000000E+00  1.00000000E+00  1.00000000E+00  2.47206402E-03  1.97550234E-02
  9.09917355E-02  2.63187834E-01  4.49078073E-01  3.60183072E-01  3.03427809E-05
 -1.22475826E-03 -6.01429772E-03 -2.76401323E-02  4.35105612E-04  1.00307272E+00
  1.00000000E+00  1.00000000E+00  1.00000000E+00  1.00000000E+00  1.00000000E+00
  1.00000000E+00  1.00000000E+00  1.00000000E+00  4.93229477E-05  3.83207967E-04
  2.00947816E-03  8.38950124E-03  2.94843950E-02  8.78759948E-02  2.11589759E-01
  3.65611554E-01  3.41246350E-01  1.02162570E-01  2.14249949E-03 -2.21747925E-06
 -1.71189708E-04 -1.27922846E-03 -9.32956265E-03 -3.98910062E-02 -1.05536085E-01
  9.36202446E-03  5.10511140E-01  5.73150737E-01  4.03949245E-06  2.12481765E-04
  8.59484452E-04  4.63248159E-03  4.47343490E-04 -7.38438245E-02 -3.62271994E-01
  1.16620337E+00  1.00000000E+00  1.00000000E+00  1.00000000E+00  2.47206402E-03
  1.97550234E-02  9.09917355E-02  2.63187834E-01  4.49078073E-01  3.60183072E-01
  3.03427809E-05 -1.22475826E-03 -6.01429772E-03 -2.76401323E-02  4.35105612E-04
  1.00307272E+00  1.00000000E+00  1.00000000E+00  1.00000000E+00  1.00000000E+00
  1.00000000E+00  1.00000000E+00  1.00000000E+00  1.00000000E+00  2.54948632E-02
  1.90362766E-01  8.52162022E-01  1.00000000E+00  1.00000000E+00  1.00000000E+00
  1.00000000E+00  1.00000000E+00  1.00000000E+00  1.00000000E+00  1.00000000E+00
Coordinates of each shell                  R   N=         165
  0.00000000E+00  0.00000000E+00  0.00000000E+00  0.00000000E+00  0.00000000E+00
  0.00000000E+00  0.00000000E+00  0.00000000E+00  0.00000000E+00  0.00000000E+00
  0.00000000E+00  0.00000000E+00  0.00000000E+00  0.00000000E+00  0.00000000E+00
  0.00000000E+00  0.00000000E+00  0.00000000E+00  0.00000000E+00  0.00000000E+00
  0.00000000E+00  0.00000000E+00  0.00000000E+00  0.00000000E+00  0.00000000E+00
  0.00000000E+00  0.00000000E+00  0.00000000E+00  0.00000000E+00  0.00000000E+00
  0.00000000E+00  0.00000000E+00  0.00000000E+00  0.00000000E+00  0.00000000E+00
  0.00000000E+00  0.00000000E+00  0.00000000E+00  0.00000000E+00  0.00000000E+00
  0.00000000E+00  0.00000000E+00  5.48904212E+00  0.00000000E+00  0.00000000E+00
  5.48904212E+00  0.00000000E+00  0.00000000E+00  5.48904212E+00  0.00000000E+00
  0.00000000E+00  5.48904212E+00  0.00000000E+00  0.00000000E+00  5.48904212E+00
  0.00000000E+00  0.00000000E+00  5.48904212E+00  0.00000000E+00  0.00000000E+00
  5.48904212E+00  0.00000000E+00  0.00000000E+00  5.48904212E+00  0.00000000E+00
  0.00000000E+00  5.48904212E+00  0.00000000E+00  0.00000000E+00  5.48904212E+00
  0.00000000E+00  0.00000000E+00  5.48904212E+00  0.00000000E+00  0.00000000E+00
  5.48904212E+00  0.00000000E+00  0.00000000E+00  5.48904212E+00  0.00000000E+00
  0.00000000E+00  5.48904212E+00  0.00000000E+00  0.00000000E+00  5.48904212E+00
  0.00000000E+00  0.00000000E+00  5.48904212E+00  0.00000000E+00  0.00000000E+00
 -7.43959853E-01  3.09168378E+00  0.00000000E+00 -7.43959853E-01  3.09168378E+00
  0.00000000E+00 -7.43959853E-01  3.09168378E+00  0.00000000E+00 -7.43959853E-01
  3.09168378E+00  0.00000000E+00 -7.43959853E-01  3.09168378E+00  0.00000000E+00
 -7.43959853E-01  3.09168378E+00  0.00000000E+00 -7.43959853E-01  3.09168378E+00
  0.00000000E+00 -7.43959853E-01  3.09168378E+00  0.00000000E+00 -7.43959853E-01
  3.09168378E+00  0.00000000E+00 -7.43959853E-01  3.09168378E+00  0.00000000E+00
 -7.43959853E-01  3.09168378E+00  0.00000000E+00 -7.43959853E-01  3.09168378E+00
  0.00000000E+00 -7.43959853E-01  3.09168378E+00  0.00000000E+00 -7.43959853E-01
  3.09168378E+00  0.00000000E+00 -7.43959853E-01  3.09168378E+00  0.00000000E+00
 -7.43959853E-01  3.09168378E+00  0.00000000E+00  1.93462489E+00  0.00000000E+00
  1.69257746E-01  1.93462489E+00  0.00000000E+00  1.69257746E-01  1.93462489E+00
  0.00000000E+00  1.69257746E-01  1.93462489E+00  0.00000000E+00  1.69257746E-01
  1.93462489E+00  0.00000000E+00  1.69257746E-01  1.93462489E+00  0.00000000E+00
  1.69257746E-01  1.93462489E+00  0.00000000E+00  1.69257746E-01  1.93462489E+00
  0.00000000E+00  1.69257746E-01  1.93462489E+00  0.00000000E+00  1.69257746E-01
Num ILSW                                   I              100
ILSW                                       I   N=         100
           0           0           0           0           2           0
           0           0           0           0           0          -1
           5           0           0           0           0           0
           0           0           0           0           0           0
           1           1           0           0           0           0
           0           0      100000           0          -1           0
           0           0           0           0           0           0
           0           0           0           1           0           0
           0 -2000000000           1           0           0           0
           0           0           4          52           0           0
           0           0           0           0           0           0
           0           0           0           4           0           1
           0           0           0           0           0           0
           0           0           0           0           0           0
           0           0           0           0           0           0
           0           0           0           0           0           0
           0           0           0           0
Num RLSW                                   I               52
RLSW                                       R   N=          52
  1.00000000E+00  1.00000000E+00  1.00000000E+00  1.00000000E+00  1.00000000E+00
  0.00000000E+00  0.00000000E+00  1.00000000E+00  0.00000000E+00  0.00000000E+00
  0.00000000E+00  0.00000000E+00  1.00000000E+00  0.00000000E+00  0.00000000E+00
  0.00000000E+00  0.00000000E+00  1.00000000E+00  0.00000000E+00  0.00000000E+00
  0.00000000E+00  0.00000000E+00  1.00000000E+00  0.00000000E+00  0.00000000E+00
  0.00000000E+00  0.00000000E+00  1.00000000E+00  0.00000000E+00  0.00000000E+00
  0.00000000E+00  0.00000000E+00  1.00000000E+00  0.00000000E+00  0.00000000E+00
  0.00000000E+00  0.00000000E+00  0.00000000E+00  1.00000000E+00  1.00000000E+00
  0.00000000E+00  1.00000000E+00  0.00000000E+00  0.00000000E+00  0.00000000E+00
  0.00000000E+00  0.00000000E+00  0.00000000E+00  0.00000000E+00  0.00000000E+00
  0.00000000E+00  0.00000000E+00
MxBond                                     I                2
NBond                                      I   N=           4
           2           0           1           1
IBond                                      I   N=           8
           3           4           0           0           1           0
           1           0
RBond                                      R   N=           8
  1.00000000E+00  1.00000000E+00  0.00000000E+00  0.00000000E+00  1.00000000E+00
  0.00000000E+00  1.00000000E+00  0.00000000E+00
Virial Ratio                               R      2.000160343759299E+00
SCF Energy                                 R     -9.945235754301233E+02
MP2 Energy                                 R     -9.951917488066766E+02
Total Energy                               R     -9.951917488066766E+02
Post-SCF wavefunction norm                 R      1.103870541596348E+00
RMS Density                                R      3.902381036680063E-09
Job Status                                 I                1
Nuclear derivative order                   I                0
External E-field                           R   N=          35
  0.00000000E+00  0.00000000E+00  0.00000000E+00  0.00000000E+00  0.00000000E+00
  0.00000000E+00  0.00000000E+00  0.00000000E+00  0.00000000E+00  0.00000000E+00
  0.00000000E+00  0.00000000E+00  0.00000000E+00  0.00000000E+00  0.00000000E+00
  0.00000000E+00  0.00000000E+00  0.00000000E+00  0.00000000E+00  0.00000000E+00
  0.00000000E+00  0.00000000E+00  0.00000000E+00  0.00000000E+00  0.00000000E+00
  0.00000000E+00  0.00000000E+00  0.00000000E+00  0.00000000E+00  0.00000000E+00
  0.00000000E+00  0.00000000E+00  0.00000000E+00  0.00000000E+00  0.00000000E+00
IOpCl                                      I                0
IROHF                                      I                0
Alpha Orbital Energies                     R   N=         169
 -1.04722336E+02 -1.04549471E+02 -2.04487717E+01 -1.04418727E+01 -1.02743667E+01
 -7.90903944E+00 -7.90645541E+00 -7.90636209E+00 -7.74053913E+00 -7.74035876E+00
 -7.74035308E+00 -1.21554060E+00 -8.85611021E-01 -7.89432839E-01 -5.27176004E-01
 -4.31532728E-01 -4.23486916E-01 -3.00028099E-01 -2.70923348E-01 -2.05420818E-01
 -1.97360939E-01 -1.97232413E-01  1.61197096E-01  1.86567722E-01  2.25823713E-01
  2.35399455E-01  2.58265376E-01  2.72708123E-01  2.75149486E-01  2.96283714E-01
  3.11119749E-01  3.25677168E-01  3.37812471E-01  3.50298766E-01  3.87473949E-01
  4.50934469E-01  4.63400592E-01  5.15210876E-01  5.24214672E-01  5.39583577E-01
  5.63141608E-01  5.71534797E-01  5.86120215E-01  6.00434043E-01  6.06211435E-01
  6.52915890E-01  6.60861709E-01  6.82310984E-01  6.84903681E-01  7.50862432E-01
  7.85061871E-01  7.88181002E-01  8.31135134E-01  8.72914610E-01  8.87383436E-01
  9.00282931E-01  9.11871586E-01  9.21987533E-01  9.65316274E-01  1.00715157E+00
  1.05199525E+00  1.05269016E+00  1.06733258E+00  1.08978047E+00  1.09427549E+00
  1.10273343E+00  1.14137991E+00  1.15332308E+00  1.17253341E+00  1.18653912E+00
  1.18826225E+00  1.21485258E+00  1.22906262E+00  1.24509623E+00  1.29394851E+00
  1.32216039E+00  1.33127910E+00  1.37656970E+00  1.40819788E+00  1.42568861E+00
  1.43009764E+00  1.46783342E+00  1.48894461E+00  1.50313670E+00  1.54908104E+00
  1.61655128E+00  1.65328618E+00  1.67948440E+00  1.68338225E+00  1.72108892E+00
  1.74121591E+00  1.77611861E+00  1.82704570E+00  1.84542016E+00  1.86390162E+00
  1.91023057E+00  1.94550476E+00  2.00694572E+00  2.29204061E+00  2.39880417E+00
  2.50638881E+00  2.51859688E+00  2.53729043E+00  2.59091211E+00  2.60577888E+00
  2.63110102E+00  2.66785965E+00  2.69075278E+00  2.71271763E+00  2.72656290E+00
  2.73926471E+00  2.77216809E+00  2.78203826E+00  2.79931631E+00  2.80197148E+00
  2.82215227E+00  2.89605321E+00  2.92164404E+00  2.97809385E+00  2.99438927E+00
  3.05018604E+00  3.09689720E+00  3.14440815E+00  3.16003485E+00  3.21108587E+00
  3.22578430E+00  3.24177414E+00  3.28367980E+00  3.30350104E+00  3.32662889E+00
  3.33572878E+00  3.34919179E+00  3.39782763E+00  3.40588027E+00  3.41601041E+00
  3.48172429E+00  3.51284471E+00  3.54442115E+00  3.56469528E+00  3.59702304E+00
  3.69980991E+00  3.95377742E+00  4.26394837E+00  4.31529745E+00  4.47400640E+00
  4.54736838E+00  4.59235495E+00  4.79283684E+00  4.99197648E+00  5.16262832E+00
  5.34972782E+00  5.41386466E+00  5.66155535E+00  6.38227803E+00  6.58986558E+00
  6.66670165E+00  6.86910652E+00  6.91220813E+00  6.92904037E+00  7.01833352E+00
  7.27356793E+00  7.31919291E+00  7.35673222E+00  7.45931647E+00  7.57641535E+00
  7.77631283E+00  7.84138203E+00  8.37437344E+00  1.44341131E+01
Alpha MO coefficients                      R   N=       28561
  5.02132053E-06  2.81849464E-05  2.51140275E-06 -1.55588928E-04 -1.08317867E-04
  5.24105188E-07  2.91395442E-06  1.85297669E-07 -5.01518761E-06 -8.62668091E-06
 -9.42775262E-07  4.75331373E-05 -1.48763253E-04  1.87513244E-07  1.03280091E-05
 -3.75933175E-05  5.47553432E-07 -2.20461972E-06  6.91043747E-08  6.67609020E-11
 -3.06149460E-06 -1.53559488E-06  1.47348938E-05 -4.26074171E-07 -5.16494437E-08
  2.02316841E-05  1.02091927E-05  2.49608798E-05  1.23524898E-06 -4.66190654E-07
  5.91581919E-05  1.33051565E-05 -6.45993341E-08 -2.99343867E-07 -5.72670723E-08
 -1.29820955E-07  7.86389800E-08 -1.80950725E-06  1.02050494E-06  1.52735184E-07
 -2.53818530E-06  1.31398205E-05  4.98898020E-07 -3.65579201E-07 -4.70281133E-06
  8.87876404E-06  1.43743429E-07  1.95029620E-06  5.17817921E-06 -6.68074598E-07
 -2.18628974E-05 -1.05469654E-05  3.42215016E-07  1.83462504E-09 -5.25475174E-08
  4.40767314E-06  9.57509438E-07 -5.63862852E-07 -1.36455974E-06  2.69247857E-08
  2.21131110E-07  1.73155824E-05 -7.83755608E-06 -1.50237646E-06  3.53495314E-06
 -1.72641752E-07  1.31284557E-07 -3.10829525E-07 -1.83144495E-07 -2.41781117E-08
  1.88690001E-07 -6.48998040E-07  1.92641635E-06  9.56267943E-07  1.32946554E-07
 -2.38113172E-06  1.70824647E-06  3.21787375E-06  7.07695715E-07 -6.07722934E-07
 -4.47675238E-06  4.99183495E-06 -9.34984888E-08  1.51539762E-07 -1.23787604E-07
  1.50998359E-09 -2.36629647E-07  1.01695855E-07  6.56802487E-07  4.96970187E-07
 -1.25326375E-06  6.76790547E-07 -3.74034890E-07  5.27296237E-07  1.54897362E-07
 -2.93465722E-06  9.99534813E-01  1.95480219E-03  1.85738743E-04 -4.18600379E-04
  6.97205736E-05  7.46820148E-05  1.75968384E-05 -7.45029299E-05  3.94484519E-07
  3.80402815E-05 -1.33892918E-04  6.96030762E-07 -1.83682144E-05  7.11200707E-05
 -3.83492342E-07  1.39313109E-06 -5.54245880E-05 -1.21874507E-06  2.40940655E-06
 -1.13632827E-05 -3.19624822E-07 -3.57141350E-06  1.23883925E-08 -4.17618057E-08
 -4.81902506E-06 -3.25782790E-06 -2.85355898E-05  1.63002022E-07 -1.63441033E-07
 -4.33854793E-05 -2.42276455E-05 -3.40379301E-07 -9.91324678E-07  5.13145099E-07
 -1.02598410E-05  1.75332397E-06 -1.74237336E-07 -2.12400118E-06  6.22963091E-06
  8.98551930E-08 -2.26815608E-07 -4.60342621E-06  3.85857825E-06  3.45899127E-07
  6.11254567E-07  2.87445678E-06 -2.45687759E-07  4.84674840E-07 -4.48081036E-06
  7.58988017E-06 -1.77456220E-06 -1.61420858E-05  6.36896010E-05 -6.94453322E-06
  6.56071960E-07 -2.56281983E-06  2.97402044E-08 -1.10990593E-05  1.44846173E-05
 -5.31510400E-07  1.17394673E-07  2.56328417E-05 -9.67049197E-07 -5.51357715E-07
  3.17193959E-08  6.47680713E-09 -4.18353171E-07 -9.32779158E-07 -1.57678322E-05
  1.62223982E-06 -5.83096751E-07  1.08097185E-05  1.13244256E-06  2.40580974E-06
  1.31649467E-05 -7.59169941E-07  1.52483015E-05  7.18395641E-05 -1.16234159E-07
  7.78201865E-08 -1.37010700E-07  4.73102210E-06 -3.25799678E-07  8.34557495E-07
 -5.86268098E-05  3.89758020E-07  9.16291702E-06  4.37252361E-06 -1.12570170E-06
  5.91137607E-06 -6.65951197E-07 -2.02866177E-07 -4.58706368E-08  9.88209731E-07
  3.58342607E-08  2.65199118E-06  1.71640064E-06  1.61364271E-07 -3.79418238E-06
 -1.29307294E-07  1.69108844E-05  9.00988650E-07 -5.66261851E-07 -2.87919639E-05
 -5.09672887E-08 -3.62703611E-07 -5.84513335E-07  1.23506484E-07  3.08958995E-07
 -3.00312573E-08  3.33655605E-07 -1.09975945E-07  1.55558532E-07  4.10647856E-06
 -2.87056852E-07  2.62500332E-07  5.13758471E-08 -3.71353571E-06  9.51797244E-08
  9.99531918E-01  1.98766256E-03  2.21157310E-04 -4.29187637E-04 -1.78344644E-04
 -4.90023612E-05 -1.12415511E-05 -4.36692752E-07  1.36247222E-06 -3.46740347E-05
 -1.58092703E-07  2.50017980E-06  1.45307856E-05  3.31421385E-07 -1.40283309E-06
  9.05580225E-05 -2.00867336E-06 -4.81511114E-06  1.02562111E-05  3.40052753E-07
 -6.00276233E-07 -6.36857307E-07  9.97655551E-09 -2.43841498E-08  6.84600448E-07
 -2.07672640E-07 -1.92370164E-06 -1.05020341E-06  8.19576392E-08  4.73563989E-06
  6.54450090E-07  1.28493202E-05  3.04406689E-06 -1.50543675E-07 -2.38624445E-05
  4.99587176E-07 -3.04631319E-07  1.37765246E-06  1.14873070E-07  3.41385245E-07
 -1.37324463E-08 -1.93488419E-06  2.55746481E-08  5.42585831E-07 -3.32431060E-06
 -1.60533419E-07 -5.90651462E-07  9.16063850E-09  4.25414193E-06 -2.36276314E-07
  4.96266411E-08  9.81317871E-07  2.27517616E-06 -1.13916711E-06 -1.98737987E-06
 -1.54314782E-05  2.70291949E-07  3.80183211E-08 -6.08750877E-09  4.24689152E-06
  5.72839320E-07 -1.74958706E-08 -1.03930908E-06 -8.05569225E-08  1.88060214E-08
 -1.13250477E-05  5.18935025E-06  8.02610094E-07 -1.29197532E-06  4.30494135E-06
 -1.22792060E-06 -1.55734701E-07  6.24264828E-08  8.19465655E-09  1.08329726E-07
 -2.65596542E-07 -1.67203851E-07 -1.28471912E-07 -1.20143014E-07  4.54254752E-07
 -1.85287812E-07  3.61391779E-06  3.91939617E-07 -1.24457391E-07 -3.35882450E-06
  5.22397501E-06 -2.12528320E-07 -6.61186594E-07  7.69834547E-08  9.32199960E-08
  6.07255656E-08  5.35909501E-08 -5.20689380E-07  3.89474914E-07  1.95002640E-06
  3.26717725E-08 -2.80981074E-07 -1.39456776E-07 -4.63613269E-07  1.65869140E-06
  1.12801589E-06  7.84560031E-05  2.81445746E-05  1.33811689E-06 -5.36127389E-07
 -3.72512520E-07  4.95314189E-07 -3.88571642E-07  1.35021789E-06 -8.61260956E-06
  1.41422081E-04  1.13526959E-05 -8.85593500E-06  7.73236145E-07  1.24024129E-06
  8.19574790E-08 -8.49631943E-07 -2.34733619E-07  1.28919720E-05  3.08816808E-06
 -4.33358747E-07 -2.72584360E-05 -5.16700922E-07  9.76806119E-01 -9.24758844E-03
  4.33889431E-02  1.56479945E-03  6.53666615E-04  8.21612341E-04  1.58215370E-03
  1.32579865E-04 -1.05432011E-03 -1.20698579E-03 -1.39865159E-04 -1.93590092E-04
  3.70434807E-04 -3.20732823E-05 -1.96523408E-04  2.29363411E-04 -1.27103212E-05
  3.96581067E-05  3.85854053E-06 -6.57837941E-07  9.98159625E-05  4.05498552E-05
  4.69256342E-04 -8.09460571E-05 -3.21073423E-06  1.24005014E-05  1.58202288E-04
 -1.58302571E-04  2.20126447E-06 -1.33688727E-05 -1.33699425E-04 -1.17966162E-04
  2.50077113E-06  1.15302316E-05  1.94716183E-05 -5.75159080E-07 -1.22775157E-06
 -6.13003855E-06  9.68915917E-06  1.28308767E-05  3.09536741E-05  1.57807921E-05
 -2.21978005E-05 -8.12400071E-06 -1.19877252E-04 -5.15585521E-05 -2.08222661E-07
  3.20787934E-06  9.05252352E-06  3.81683269E-05 -1.17490817E-03 -6.67192805E-04
  1.00349669E-05  8.17172413E-07 -1.74332922E-06  3.17240923E-04  3.88539197E-07
 -2.11481037E-05 -3.59211469E-05 -3.70593533E-06  8.13705583E-06  7.34066154E-04
  6.46073168E-05 -1.59129396E-04  1.10049239E-04 -8.57258679E-06 -1.34937724E-05
  1.50273409E-05 -7.07230106E-06 -2.26092666E-07 -1.93621630E-05  9.58894599E-06
  2.75273247E-05  4.74316816E-05  2.11463779E-07 -6.89925879E-05 -2.84784303E-05
  3.67940612E-05  1.02800021E-04  4.53613247E-06 -8.13396737E-05 -3.12978681E-05
 -5.27607055E-06 -1.78863181E-05  5.32618761E-07  8.29755281E-06  2.16026132E-06
  1.35435878E-05 -7.40025331E-06  2.93173695E-05  7.15449503E-05 -5.52064225E-06
 -4.13908311E-05 -5.51895259E-06 -5.83452511E-05  3.17760899E-05  4.36620200E-06
  7.17254498E-05  7.89178153E-05 -2.93074520E-04  2.27267570E-04 -7.17765267E-04
 -8.59383637E-07 -1.26546834E-05 -4.97608589E-07  7.90121593E-05 -6.54154927E-04
 -8.36413127E-06 -4.86157760E-05  2.74516855E-04  2.20193752E-06  1.01118563E-04
  2.89551331E-04  2.65287081E-05 -1.38592768E-05  1.57824136E-04 -1.01301828E-06
  1.68983868E-05 -1.96221484E-06 -1.28729758E-07  2.03662131E-06  5.77522049E-06
 -3.37656559E-04  5.00630015E-06  5.56545573E-06 -4.76497007E-04 -1.82653515E-04
  1.18843654E-04  3.32747408E-06 -1.91918612E-05  2.25409378E-04 -3.50169500E-05
  3.41490430E-06 -2.55142361E-05  1.64352947E-04  1.07879928E-06  2.14222903E-06
 -1.25956516E-04  1.93286918E-04 -6.70598999E-06 -5.07765530E-05  1.07565247E-04
  2.71293448E-06 -5.12884678E-06 -6.60041794E-05  6.31557768E-05  2.68652817E-04
  1.15156783E-03  1.56429163E-03  1.87645346E-04 -2.43126165E-04  3.94409841E-05
 -2.27401337E-05 -1.32608210E-03  3.97125974E-05 -7.41830514E-05  1.24527686E-03
 -1.48594818E-04  7.05241569E-05 -1.46510492E-05  3.82544139E-06 -5.85257505E-06
  1.70740006E-05 -6.48845934E-05 -5.49020048E-04  1.52099887E-04  6.22211268E-07
  1.13197867E-03 -6.65764236E-05 -6.74402638E-05 -4.63711738E-05 -1.07683699E-04
  2.88526858E-03  2.60178078E-03 -2.69969425E-05  4.26824073E-05 -2.64444353E-06
 -2.74408524E-05  5.56369636E-04  1.56571817E-05 -4.80633232E-04  2.32614064E-03
  2.95756453E-05 -2.05283631E-04  9.56152790E-04 -1.19852718E-05 -2.15858584E-05
 -1.86687314E-06 -9.47008384E-07 -4.38376964E-05 -3.17408173E-05 -2.16723016E-04
  1.41066575E-05  7.83982295E-06 -2.43818377E-04 -6.19981590E-05 -2.69993989E-04
 -6.09908112E-06  6.90566516E-06 -7.47994118E-04  8.14666366E-05 -4.48771569E-07
  4.84993788E-06 -2.16300146E-05  2.94442899E-06 -2.13359739E-07  5.36018415E-05
 -4.05747525E-05 -5.14009500E-06 -9.70149508E-06 -6.00527565E-05 -3.53835711E-06
  1.65747252E-05 -8.34909244E-05  1.39951678E-04 -1.74558501E-06 -2.22409614E-05
 -6.46477183E-05  1.36618494E-06  2.37358701E-04  1.75591125E-05 -6.25246122E-06
 -1.72473457E-06  8.48096250E-07 -8.09850162E-05 -4.90087118E-05  1.03706019E-05
  2.75044232E-05  7.14692696E-06 -3.68064230E-06 -1.99913351E-04  2.64099160E-04
  6.11879022E-06 -7.89929616E-05  6.51116291E-05 -1.05175249E-05  4.04116771E-06
  3.01914940E-06  1.25810403E-06 -4.60819238E-06  8.06413609E-06 -2.77110892E-05
 -1.55653095E-05 -5.27438296E-06  4.44754458E-05 -1.41501224E-05 -7.18711707E-05
  2.56908456E-06  1.72593550E-05  7.46840827E-05 -2.17847490E-04  4.42345394E-07