title                                                                   
SP        RMP2-FC                                                     Aug-CC-pVTZ         
Number of atoms                            I                4
Info1-9                                    I   N=           9
          40          13           0           0           0         110
           1           2           1
Full Title                                 C   N=           1
title       
Route                                      C   N=           5
#p pop=NBO SP NoSymm mp2/aug-cc-pvtz density=current        
Charge                                     I               -1
Multiplicity                               I                1
Number of electrons                        I               44
Number of alpha electrons                  I               22
Number of beta electrons                   I               22
Number of basis functions                  I              169
Number of independent functions            I              169
Number of point charges in /Mol/           I                0
Number of translation vectors              I                0
Atomic numbers                             I   N=           4
           8          17          17           1
Nuclear charges                            R   N=           4
  8.00000000E+00  1.70000000E+01  1.70000000E+01  1.00000000E+00
Current cartesian coordinates              R   N=          12
  0.00000000E+00  0.00000000E+00  0.00000000E+00  5.48904212E+00  0.00000000E+00
  0.00000000E+00 -7.43959853E-01  3.09168378E+00  0.00000000E+00  1.90484389E+00
  0.00000000E+00  3.35875371E-01
Number of symbols in /Mol/                 I                0
Force Field                                I                0
Atom Types                                 C   N=           4
                                                
Int Atom Types                             I   N=           4
           0           0           0           0
MM charges                                 R   N=           4
  0.00000000E+00  0.00000000E+00  0.00000000E+00  0.00000000E+00
Integer atomic weights                     I   N=           4
          16          35          35           1
Real atomic weights                        R   N=           4
  1.59949146E+01  3.49688527E+01  3.49688527E+01  1.00782504E+00
Atom fragment info                         I   N=           4
           0           0           0           0
Atom residue num                           I   N=           4
           0           0           0           0
Nuclear spins                              I   N=           4
           0           3           3           1
Nuclear ZEff                               R   N=           4
 -5.60000000E+00 -1.42400000E+01 -1.42400000E+01 -1.00000000E+00
Nuclear ZNuc                               R   N=           4
  8.00000000E+00  1.70000000E+01  1.70000000E+01  1.00000000E+00
Nuclear QMom                               R   N=           4
  0.00000000E+00 -8.16500000E+00 -8.16500000E+00  0.00000000E+00
Nuclear GFac                               R   N=           4
  0.00000000E+00  8.21874000E-01  8.21874000E-01  2.79284600E+00
MicOpt                                     I   N=           4
          -1          -1          -1          -1
Number of residues                         I                0
Number of secondary structures             I                0
Number of contracted shells                I               55
Number of primitive shells                 I              140
Pure/Cartesian d shells                    I                0
Pure/Cartesian f shells                    I                0
Highest angular momentum                   I                3
Largest degree of contraction              I               11
Shell types                                I   N=          55
           0           0           0           0           0           1
           1           1           1          -2          -2          -2
          -3          -3           0           0           0           0
           0           0           1           1           1           1
           1          -2          -2          -2          -3          -3
           0           0           0           0           0           0
           1           1           1           1           1          -2
          -2          -2          -3          -3           0           0
           0           0           1           1           1          -2
          -2
Number of primitives per shell             I   N=          55
           7           6           1           1           1           3
           1           1           1           1           1           1
           1           1          11           9           8           1
           1           1           6           6           1           1
           1           1           1           1           1           1
          11           9           8           1           1           1
           6           6           1           1           1           1
           1           1           1           1           3           1
           1           1           1           1           1           1
           1
Shell to atom map                          I   N=          55
           1           1           1           1           1           1
           1           1           1           1           1           1
           1           1           2           2           2           2
           2           2           2           2           2           2
           2           2           2           2           2           2
           3           3           3           3           3           3
           3           3           3           3           3           3
           3           3           3           3           4           4
           4           4           4           4           4           4
           4
Primitive exponents                        R   N=         140
  1.53300000E+04  2.29900000E+03  5.22400000E+02  1.47300000E+02  4.75500000E+01
  1.67600000E+01  6.20700000E+00  5.22400000E+02  1.47300000E+02  4.75500000E+01
  1.67600000E+01  6.20700000E+00  6.88200000E-01  1.75200000E+00  2.38400000E-01
  7.37600000E-02  3.44600000E+01  7.74900000E+00  2.28000000E+00  7.15600000E-01
  2.14000000E-01  5.97400000E-02  2.31400000E+00  6.45000000E-01  2.14000000E-01
  1.42800000E+00  5.00000000E-01  4.56100000E+05  6.83300000E+04  1.55500000E+04
  4.40500000E+03  1.43900000E+03  5.20400000E+02  2.03100000E+02  8.39600000E+01
  3.62000000E+01  1.58300000E+01  6.33400000E+00  4.40500000E+03  1.43900000E+03
  5.20400000E+02  2.03100000E+02  8.39600000E+01  3.62000000E+01  1.58300000E+01
  6.33400000E+00  2.69400000E+00  1.43900000E+03  2.03100000E+02  8.39600000E+01
  3.62000000E+01  1.58300000E+01  6.33400000E+00  2.69400000E+00  4.31300000E-01
  9.76800000E-01  1.62500000E-01  5.91000000E-02  6.63300000E+02  1.56800000E+02
  4.99800000E+01  1.84200000E+01  7.24000000E+00  2.92200000E+00  1.56800000E+02
  4.99800000E+01  1.84200000E+01  7.24000000E+00  2.92200000E+00  3.81800000E-01
  1.02200000E+00  1.30100000E-01  4.19000000E-02  1.04600000E+00  3.44000000E-01
  1.35000000E-01  7.06000000E-01  3.12000000E-01  4.56100000E+05  6.83300000E+04
  1.55500000E+04  4.40500000E+03  1.43900000E+03  5.20400000E+02  2.03100000E+02
  8.39600000E+01  3.62000000E+01  1.58300000E+01  6.33400000E+00  4.40500000E+03
  1.43900000E+03  5.20400000E+02  2.03100000E+02  8.39600000E+01  3.62000000E+01
  1.58300000E+01  6.33400000E+00  2.69400000E+00  1.43900000E+03  2.03100000E+02
  8.39600000E+01  3.62000000E+01  1.58300000E+01  6.33400000E+00  2.69400000E+00
  4.31300000E-01  9.76800000E-01  1.62500000E-01  5.91000000E-02  6.63300000E+02
  1.56800000E+02  4.99800000E+01  1.84200000E+01  7.24000000E+00  2.92200000E+00
  1.56800000E+02  4.99800000E+01  1.84200000E+01  7.24000000E+00  2.92200000E+00
  3.81800000E-01  1.02200000E+00  1.30100000E-01  4.19000000E-02  1.04600000E+00
  3.44000000E-01  1.35000000E-01  7.06000000E-01  3.12000000E-01  3.38700000E+01
  5.09500000E+00  1.15900000E+00  3.25800000E-01  1.02700000E-01  2.52600000E-02
  1.40700000E+00  3.88000000E-01  1.02000000E-01  1.05700000E+00  2.47000000E-01
Contraction coefficients                   R   N=         140
  5.19808943E-04  4.02025621E-03  2.07128267E-02  8.10105536E-02  2.35962985E-01
  4.42653446E-01  3.57064423E-01 -4.42115008E-05 -1.22591041E-03 -1.05517725E-02
 -6.74452633E-02 -1.71198607E-01  1.07329856E+00  1.00000000E+00  1.00000000E+00
  1.00000000E+00  4.11634896E-02  2.57762836E-01  8.02419274E-01  1.00000000E+00
  1.00000000E+00  1.00000000E+00  1.00000000E+00  1.00000000E+00  1.00000000E+00
  1.00000000E+00  1.00000000E+00  4.93229477E-05  3.83207967E-04  2.00947816E-03
  8.38950124E-03  2.94843950E-02  8.78759948E-02  2.11589759E-01  3.65611554E-01
  3.41246350E-01  1.02162570E-01  2.14249949E-03 -2.21747925E-06 -1.71189708E-04
 -1.27922846E-03 -9.32956265E-03 -3.98910062E-02 -1.05536085E-01  9.36202446E-03
  5.10511140E-01  5.73150737E-01  4.03949245E-06  2.12481765E-04  8.59484452E-04
  4.63248159E-03  4.47343490E-04 -7.38438245E-02 -3.62271994E-01  1.16620337E+00
  1.00000000E+00  1.00000000E+00  1.00000000E+00  2.47206402E-03  1.97550234E-02
  9.09917355E-02  2.63187834E-01  4.49078073E-01  3.60183072E-01  3.03427809E-05
 -1.22475826E-03 -6.01429772E-03 -2.76401323E-02  4.35105612E-04  1.00307272E+00
  1.00000000E+00  1.00000000E+00  1.00000000E+00  1.00000000E+00  1.00000000E+00
  1.00000000E+00  1.00000000E+00  1.00000000E+00  4.93229477E-05  3.83207967E-04
  2.00947816E-03  8.38950124E-03  2.94843950E-02  8.78759948E-02  2.11589759E-01
  3.65611554E-01  3.41246350E-01  1.02162570E-01  2.14249949E-03 -2.21747925E-06
 -1.71189708E-04 -1.27922846E-03 -9.32956265E-03 -3.98910062E-02 -1.05536085E-01
  9.36202446E-03  5.10511140E-01  5.73150737E-01  4.03949245E-06  2.12481765E-04
  8.59484452E-04  4.63248159E-03  4.47343490E-04 -7.38438245E-02 -3.62271994E-01
  1.16620337E+00  1.00000000E+00  1.00000000E+00  1.00000000E+00  2.47206402E-03
  1.97550234E-02  9.09917355E-02  2.63187834E-01  4.49078073E-01  3.60183072E-01
  3.03427809E-05 -1.22475826E-03 -6.01429772E-03 -2.76401323E-02  4.35105612E-04
  1.00307272E+00  1.00000000E+00  1.00000000E+00  1.00000000E+00  1.00000000E+00
  1.00000000E+00  1.00000000E+00  1.00000000E+00  1.00000000E+00  2.54948632E-02
  1.90362766E-01  8.52162022E-01  1.00000000E+00  1.00000000E+00  1.00000000E+00
  1.00000000E+00  1.00000000E+00  1.00000000E+00  1.00000000E+00  1.00000000E+00
Coordinates of each shell                  R   N=         165
  0.00000000E+00  0.00000000E+00  0.00000000E+00  0.00000000E+00  0.00000000E+00
  0.00000000E+00  0.00000000E+00  0.00000000E+00  0.00000000E+00  0.00000000E+00
  0.00000000E+00  0.00000000E+00  0.00000000E+00  0.00000000E+00  0.00000000E+00
  0.00000000E+00  0.00000000E+00  0.00000000E+00  0.00000000E+00  0.00000000E+00
  0.00000000E+00  0.00000000E+00  0.00000000E+00  0.00000000E+00  0.00000000E+00
  0.00000000E+00  0.00000000E+00  0.00000000E+00  0.00000000E+00  0.00000000E+00
  0.00000000E+00  0.00000000E+00  0.00000000E+00  0.00000000E+00  0.00000000E+00
  0.00000000E+00  0.00000000E+00  0.00000000E+00  0.00000000E+00  0.00000000E+00
  0.00000000E+00  0.00000000E+00  5.48904212E+00  0.00000000E+00  0.00000000E+00
  5.48904212E+00  0.00000000E+00  0.00000000E+00  5.48904212E+00  0.00000000E+00
  0.00000000E+00  5.48904212E+00  0.00000000E+00  0.00000000E+00  5.48904212E+00
  0.00000000E+00  0.00000000E+00  5.48904212E+00  0.00000000E+00  0.00000000E+00
  5.48904212E+00  0.00000000E+00  0.00000000E+00  5.48904212E+00  0.00000000E+00
  0.00000000E+00  5.48904212E+00  0.00000000E+00  0.00000000E+00  5.48904212E+00
  0.00000000E+00  0.00000000E+00  5.48904212E+00  0.00000000E+00  0.00000000E+00
  5.48904212E+00  0.00000000E+00  0.00000000E+00  5.48904212E+00  0.00000000E+00
  0.00000000E+00  5.48904212E+00  0.00000000E+00  0.00000000E+00  5.48904212E+00
  0.00000000E+00  0.00000000E+00  5.48904212E+00  0.00000000E+00  0.00000000E+00
 -7.43959853E-01  3.09168378E+00  0.00000000E+00 -7.43959853E-01  3.09168378E+00
  0.00000000E+00 -7.43959853E-01  3.09168378E+00  0.00000000E+00 -7.43959853E-01
  3.09168378E+00  0.00000000E+00 -7.43959853E-01  3.09168378E+00  0.00000000E+00
 -7.43959853E-01  3.09168378E+00  0.00000000E+00 -7.43959853E-01  3.09168378E+00
  0.00000000E+00 -7.43959853E-01  3.09168378E+00  0.00000000E+00 -7.43959853E-01
  3.09168378E+00  0.00000000E+00 -7.43959853E-01  3.09168378E+00  0.00000000E+00
 -7.43959853E-01  3.09168378E+00  0.00000000E+00 -7.43959853E-01  3.09168378E+00
  0.00000000E+00 -7.43959853E-01  3.09168378E+00  0.00000000E+00 -7.43959853E-01
  3.09168378E+00  0.00000000E+00 -7.43959853E-01  3.09168378E+00  0.00000000E+00
 -7.43959853E-01  3.09168378E+00  0.00000000E+00  1.90484389E+00  0.00000000E+00
  3.35875371E-01  1.90484389E+00  0.00000000E+00  3.35875371E-01  1.90484389E+00
  0.00000000E+00  3.35875371E-01  1.90484389E+00  0.00000000E+00  3.35875371E-01
  1.90484389E+00  0.00000000E+00  3.35875371E-01  1.90484389E+00  0.00000000E+00
  3.35875371E-01  1.90484389E+00  0.00000000E+00  3.35875371E-01  1.90484389E+00
  0.00000000E+00  3.35875371E-01  1.90484389E+00  0.00000000E+00  3.35875371E-01
Num ILSW                                   I              100
ILSW                                       I   N=         100
           0           0           0           0           2           0
           0           0           0           0           0          -1
           5           0           0           0           0           0
           0           0           0           0           0           0
           1           1           0           0           0           0
           0           0      100000           0          -1           0
           0           0           0           0           0           0
           0           0           0           1           0           0
           0 -2000000000           1           0           0           0
           0           0           4          52           0           0
           0           0           0           0           0           0
           0           0           0           4           0           1
           0           0           0           0           0           0
           0           0           0           0           0           0
           0           0           0           0           0           0
           0           0           0           0           0           0
           0           0           0           0
Num RLSW                                   I               52
RLSW                                       R   N=          52
  1.00000000E+00  1.00000000E+00  1.00000000E+00  1.00000000E+00  1.00000000E+00
  0.00000000E+00  0.00000000E+00  1.00000000E+00  0.00000000E+00  0.00000000E+00
  0.00000000E+00  0.00000000E+00  1.00000000E+00  0.00000000E+00  0.00000000E+00
  0.00000000E+00  0.00000000E+00  1.00000000E+00  0.00000000E+00  0.00000000E+00
  0.00000000E+00  0.00000000E+00  1.00000000E+00  0.00000000E+00  0.00000000E+00
  0.00000000E+00  0.00000000E+00  1.00000000E+00  0.00000000E+00  0.00000000E+00
  0.00000000E+00  0.00000000E+00  1.00000000E+00  0.00000000E+00  0.00000000E+00
  0.00000000E+00  0.00000000E+00  0.00000000E+00  1.00000000E+00  1.00000000E+00
  0.00000000E+00  1.00000000E+00  0.00000000E+00  0.00000000E+00  0.00000000E+00
  0.00000000E+00  0.00000000E+00  0.00000000E+00  0.00000000E+00  0.00000000E+00
  0.00000000E+00  0.00000000E+00
MxBond                                     I                2
NBond                                      I   N=           4
           2           0           1           1
IBond                                      I   N=           8
           3           4           0           0           1           0
           1           0
RBond                                      R   N=           8
  1.00000000E+00  1.00000000E+00  0.00000000E+00  0.00000000E+00  1.00000000E+00
  0.00000000E+00  1.00000000E+00  0.00000000E+00
Virial Ratio                               R      2.000158649914539E+00
SCF Energy                                 R     -9.945227832313599E+02
MP2 Energy                                 R     -9.951906413184950E+02
Total Energy                               R     -9.951906413184950E+02
Post-SCF wavefunction norm                 R      1.103826782950788E+00
RMS Density                                R      3.860262420994023E-09
Job Status                                 I                1
Nuclear derivative order                   I                0
External E-field                           R   N=          35
  0.00000000E+00  0.00000000E+00  0.00000000E+00  0.00000000E+00  0.00000000E+00
  0.00000000E+00  0.00000000E+00  0.00000000E+00  0.00000000E+00  0.00000000E+00
  0.00000000E+00  0.00000000E+00  0.00000000E+00  0.00000000E+00  0.00000000E+00
  0.00000000E+00  0.00000000E+00  0.00000000E+00  0.00000000E+00  0.00000000E+00
  0.00000000E+00  0.00000000E+00  0.00000000E+00  0.00000000E+00  0.00000000E+00
  0.00000000E+00  0.00000000E+00  0.00000000E+00  0.00000000E+00  0.00000000E+00
  0.00000000E+00  0.00000000E+00  0.00000000E+00  0.00000000E+00  0.00000000E+00
IOpCl                                      I                0
IROHF                                      I                0
Alpha Orbital Energies                     R   N=         169
 -1.04723377E+02 -1.04547920E+02 -2.04505561E+01 -1.04429191E+01 -1.02727848E+01
 -7.91008781E+00 -7.90749428E+00 -7.90739656E+00 -7.73895007E+00 -7.73877611E+00
 -7.73877241E+00 -1.21774925E+00 -8.86884118E-01 -7.87400298E-01 -5.29076352E-01
 -4.33031629E-01 -4.24910201E-01 -3.00909985E-01 -2.72167643E-01 -2.03694331E-01
 -1.95802464E-01 -1.95513792E-01  1.60910656E-01  1.86141681E-01  2.25802556E-01
  2.34903648E-01  2.58526251E-01  2.72914458E-01  2.75970196E-01  2.95675451E-01
  3.12053245E-01  3.21544507E-01  3.38517559E-01  3.50052881E-01  3.91758341E-01
  4.45660410E-01  4.64029791E-01  5.12480848E-01  5.22850346E-01  5.41241200E-01
  5.60680206E-01  5.75069752E-01  5.87033796E-01  6.01167931E-01  6.07008051E-01
  6.54525527E-01  6.60937303E-01  6.77309594E-01  6.83233377E-01  7.44474917E-01
  7.82044896E-01  7.86898333E-01  8.33059906E-01  8.69643104E-01  8.92292613E-01
  9.01394311E-01  9.12276033E-01  9.19325410E-01  9.64340269E-01  1.00328076E+00
  1.04076394E+00  1.05785436E+00  1.07416293E+00  1.09156593E+00  1.09560962E+00
  1.10255764E+00  1.14163074E+00  1.15643808E+00  1.17774489E+00  1.18758218E+00
  1.18991951E+00  1.21381288E+00  1.22873354E+00  1.24435534E+00  1.28958395E+00
  1.31318605E+00  1.33213028E+00  1.37426637E+00  1.40637024E+00  1.42646562E+00
  1.43167890E+00  1.45458063E+00  1.49064140E+00  1.50859617E+00  1.55317394E+00
  1.60905366E+00  1.64551965E+00  1.67304638E+00  1.68589630E+00  1.70724736E+00
  1.73236249E+00  1.75848074E+00  1.82880205E+00  1.85751592E+00  1.86397593E+00
  1.89970377E+00  1.94606223E+00  1.99816468E+00  2.27920527E+00  2.40446410E+00
  2.49670093E+00  2.51794327E+00  2.53363008E+00  2.57905242E+00  2.61027015E+00
  2.63720099E+00  2.66451054E+00  2.69045198E+00  2.71260749E+00  2.72588591E+00
  2.73654650E+00  2.76691818E+00  2.78255563E+00  2.79401401E+00  2.80159761E+00
  2.82254540E+00  2.90284700E+00  2.92396835E+00  2.95850363E+00  2.98702714E+00
  3.05464905E+00  3.09880946E+00  3.13117936E+00  3.14579884E+00  3.21684178E+00
  3.22424354E+00  3.23651472E+00  3.27910785E+00  3.30125935E+00  3.32966297E+00
  3.33551142E+00  3.35880620E+00  3.39359850E+00  3.40628325E+00  3.41382049E+00
  3.49671111E+00  3.51284211E+00  3.54287760E+00  3.56619844E+00  3.59625348E+00
  3.68339670E+00  3.94540128E+00  4.26371474E+00  4.32247362E+00  4.47856894E+00
  4.54989494E+00  4.58156407E+00  4.78529862E+00  4.99104514E+00  5.14053825E+00
  5.33968724E+00  5.44681079E+00  5.66638913E+00  6.34740543E+00  6.58992925E+00
  6.60592460E+00  6.87653685E+00  6.91194311E+00  6.93085305E+00  7.01422671E+00
  7.29769016E+00  7.32497236E+00  7.35801844E+00  7.45758865E+00  7.57215485E+00
  7.77947108E+00  7.82708151E+00  8.36835729E+00  1.44372007E+01
Alpha MO coefficients                      R   N=       28561
  5.10856665E-06  2.85970926E-05  2.40389755E-06 -1.53443310E-04 -1.05902519E-04
  4.53959882E-07  2.95689700E-06  3.57866903E-07 -4.53531544E-06 -8.79502081E-06
 -1.80466374E-06  4.89446902E-05 -1.49945577E-04  3.50561105E-07  1.08821674E-05
 -3.70557565E-05  1.08464022E-06 -2.17159073E-06  1.35168179E-07  7.58391850E-09
 -3.05599547E-06 -1.49328953E-06  1.44911445E-05 -7.91092466E-07 -1.36531855E-07
  2.03794636E-05  9.99516773E-06  2.49996494E-05  2.50240541E-06 -1.21575276E-06
  5.93201419E-05  1.32957477E-05 -1.19755168E-07 -2.68882018E-07 -4.64787461E-08
 -2.62505117E-07  1.84581292E-07 -1.74676968E-06  1.00211011E-06  2.62621974E-07
 -2.65297351E-06  1.30868603E-05  1.02283877E-06 -8.30086314E-07 -4.86047865E-06
  8.89270461E-06  1.59592984E-07  2.21124572E-06  5.80144731E-06 -9.13540140E-07
 -2.10574104E-05 -1.13236483E-05  2.89466460E-07  2.65113037E-09 -8.51697994E-08
  3.51052378E-06  8.78440074E-07 -9.02309131E-07 -1.18907329E-06  1.37919303E-08
  3.62187274E-07  1.76605870E-05 -6.70988778E-06 -2.78186930E-06  3.70633286E-06
 -2.17843540E-07  2.22660853E-07 -2.63604838E-07 -3.10367971E-07 -4.92475988E-08
  2.27019611E-07 -5.53170338E-07  1.63204873E-06  1.62268953E-06  2.66514102E-07
 -2.26907488E-06  1.40370447E-06  3.25087170E-06  1.32175949E-06 -1.10280569E-06
 -4.82081834E-06  4.25146022E-06 -1.54369873E-07  8.77100241E-08 -6.94226963E-08
 -6.01390331E-09 -4.38511909E-07 -1.45039017E-08  4.89327962E-07  8.31518400E-07
 -9.94357572E-07  5.03725834E-07 -6.25172470E-07  9.54081343E-07  4.79705786E-07
 -2.35450245E-06  9.99534810E-01  1.95460378E-03  1.85370230E-04 -4.18411912E-04
  7.07039742E-05  7.49463191E-05  1.75024293E-05 -7.46465067E-05  7.76835875E-07
  3.76554931E-05 -1.34041076E-04  1.33777949E-06 -1.82044752E-05  7.12050097E-05
 -7.42253567E-07  2.35815343E-06 -5.60421966E-05 -2.18049512E-06  2.40376686E-06
 -1.14723762E-05 -5.91731218E-07 -3.58725219E-06  3.43042151E-08 -8.41057326E-08
 -4.85858855E-06 -3.28522871E-06 -2.84984169E-05  2.87595344E-07 -3.16058431E-07
 -4.34702623E-05 -2.40682402E-05 -7.04671379E-07 -1.86233932E-06  8.71813803E-07
 -1.01031968E-05  1.37229909E-06 -3.28498240E-07 -2.05707149E-06  6.20086221E-06
  1.84943140E-07 -4.47922954E-07 -4.63597366E-06  3.93101392E-06  6.55714348E-07
  4.80788013E-07  2.93571514E-06 -5.05750500E-07  9.49306061E-07 -4.36062316E-06
  7.49306504E-06 -1.67542191E-06 -1.71450884E-05  5.88726935E-05 -6.82064218E-06
  6.66610893E-07 -2.55662352E-06  6.29197522E-08 -1.03390711E-05  1.48221544E-05
 -8.98939046E-07  1.49808956E-06  2.41567342E-05 -1.77644322E-06 -5.38617659E-07
  4.11140652E-08 -2.06355112E-09 -5.06331232E-07 -9.50528616E-07 -1.49176918E-05
  2.77128301E-06 -1.00382923E-06  1.02087588E-05  8.80075372E-08  1.72395029E-06
  9.55089317E-06 -4.75742427E-07  8.36741749E-06  5.36195355E-05  6.47332055E-08
  3.39924461E-08 -1.81946151E-07  2.80328821E-06 -1.32304778E-07  1.11915459E-06
 -4.65687915E-05 -4.98022471E-07  1.59365285E-05  1.06056221E-06 -1.64044051E-06
  1.02643757E-05 -5.82518065E-07 -3.58413292E-07 -7.86805473E-08  7.75298890E-07
  6.95840690E-08  2.75902285E-06  2.82245147E-06  2.77338348E-07 -3.43653059E-06
 -2.55832811E-07  1.44847346E-05  1.96491295E-06 -7.85781112E-07 -2.13961419E-05
  1.21751662E-06 -5.70620803E-07 -2.37019635E-07  1.05565824E-07  4.60775381E-07
 -6.96434059E-08  7.08648243E-08 -1.20956642E-07  3.03817542E-07  3.60414818E-06
 -2.68077087E-07  5.09086945E-07  1.60095862E-07 -2.68823377E-06  2.22665923E-07
  9.99531846E-01  1.98593572E-03  2.17529572E-04 -4.27362016E-04 -1.74016664E-04
 -4.07226582E-05 -1.03979539E-05 -4.16508913E-07  2.54036980E-06 -3.04963777E-05
 -8.52935814E-09  4.11081071E-06  1.30645338E-05  2.64502439E-07 -2.43705937E-06
  8.59003403E-05 -2.16378141E-06 -8.41748558E-06  8.21324886E-06  3.38656065E-07
 -9.99689473E-07 -6.54641736E-07 -8.02170063E-08 -5.46638612E-08  7.66652110E-07
 -1.80578615E-07 -1.10038445E-06 -1.43569171E-06  1.79840232E-07  3.27585405E-06
  5.38152459E-07  1.23331157E-05  5.28082635E-06 -3.03308461E-07 -2.32261702E-05
  5.88917295E-07 -5.15453849E-07  1.30361928E-06  1.18015368E-07  5.80284160E-07
 -1.32467001E-08 -1.93845755E-06  4.62183100E-08  1.06438116E-06 -3.48808084E-06
 -1.76891989E-07 -1.19694599E-06 -1.95040992E-08  4.71610930E-06 -2.09826986E-07
  7.83472775E-08  1.40512907E-06  3.38464981E-06 -1.32151762E-06 -2.76436515E-06
 -1.40342398E-05  2.04132402E-07 -7.17643920E-10 -1.49445784E-08  3.56509461E-06
 -1.19850060E-07 -6.47447273E-08 -7.60247035E-07  7.83171938E-09  5.22642294E-08
 -1.24471981E-05  4.91940926E-06  1.01095671E-06 -9.94605252E-07  3.79294024E-06
 -2.15821093E-06 -1.22431694E-07  1.11478526E-07 -1.12976163E-08  1.50486874E-07
 -3.77593515E-07 -1.38954451E-07 -2.64226021E-07 -1.08302105E-07  1.20222841E-07
  3.75945293E-07  3.79071984E-06  4.70171504E-07 -8.55818446E-08 -3.84866099E-06
  5.22371190E-06 -3.56266935E-07 -4.31390667E-07  7.83384845E-08  1.38767113E-07
  8.54302899E-08  2.87871516E-08 -6.07834202E-07  6.80688831E-07  1.50984892E-06
 -1.46555775E-07 -4.34528038E-07 -1.27022861E-07 -2.84879510E-07  1.89227549E-06
  4.95196938E-07  6.00139904E-05  4.83181045E-05  9.05704137E-07 -3.97125388E-07
 -3.53774217E-07  8.71988736E-07  2.57675444E-06  8.82166830E-07 -1.46065275E-05
  1.19945738E-04  1.23533672E-05 -1.72162078E-05  9.53650025E-07  2.04377120E-06
  1.59339657E-07 -6.82733223E-07 -1.40731797E-07  9.72676863E-06  5.24904357E-06
 -8.75469288E-07 -2.06832527E-05 -9.63608754E-07  9.76806894E-01 -9.23983912E-03
  4.33877051E-02  1.63404738E-03  6.06890754E-04  8.11606442E-04  1.58006647E-03
  2.65105070E-04 -1.02675629E-03 -1.20585663E-03 -2.77435480E-04 -1.25976473E-04
  3.99792685E-04 -7.57920536E-05 -1.87914357E-04  2.17593962E-04 -2.96024949E-05
  4.09602129E-05  8.03896596E-06 -1.16392936E-06  9.93542140E-05  4.06565127E-05
  4.44933363E-04 -1.60678471E-04 -6.62894016E-06  2.55208334E-05  1.59720436E-04
 -1.66979638E-04  1.69702117E-06 -2.10434717E-05 -1.07690888E-04 -1.16483378E-04
  4.92724793E-06  9.32592973E-06  1.92811431E-05 -1.44412894E-06 -2.80104338E-06
 -7.08150683E-06  9.35701955E-06  2.50305105E-05  2.28520389E-05  1.32687891E-05
 -4.34892148E-05 -1.49243511E-05 -1.08814680E-04 -5.00162828E-05  3.55960827E-08
  6.49652565E-06  1.74839688E-05  3.31476610E-05 -1.00866822E-03 -5.74089768E-04
  8.32009621E-06  6.04750600E-07 -2.89002879E-06  2.74219542E-04 -1.35757572E-06
 -3.39762669E-05 -3.12110899E-05 -2.77916213E-06  1.38685168E-05  6.45003081E-04
  6.12274767E-05 -2.83210226E-04  9.41129539E-05 -8.51121140E-06 -2.42773040E-05
  1.48453255E-05 -1.25763079E-05 -2.38515386E-07 -1.67270233E-05  8.65198483E-06
  1.73337814E-05  8.27942699E-05 -2.60545881E-07 -6.16131739E-05 -2.49606291E-05
  2.00380343E-05  1.86259795E-04  8.77710521E-06 -8.21677891E-05 -2.78350517E-05
 -9.05573398E-06 -1.97012318E-05 -2.10702936E-07  1.53353032E-05  3.99551792E-06
  8.57336215E-06 -6.43215105E-06  5.14073306E-05  7.97799329E-05 -3.30394610E-06
 -7.54881937E-05 -9.78594856E-06 -4.28239332E-05  2.70969357E-05  4.45860290E-06
  7.29587093E-05  8.26523605E-05 -2.91991087E-04  2.00808646E-04 -6.78243543E-04
 -1.58520369E-06 -1.21873157E-05 -1.03124141E-06  7.11611468E-05 -6.46345057E-04
 -1.68641545E-05 -4.57672485E-05  2.72501727E-04  4.56608695E-06  1.14321047E-04
  2.97698812E-04  4.83684893E-05 -1.32429989E-05  1.50414485E-04 -4.16364687E-08
  1.63936025E-05 -3.47784275E-06 -4.86290135E-07  3.32596623E-06  5.97902029E-06
 -3.33025428E-04  8.52160828E-06  1.17778074E-05 -4.76079410E-04 -1.83137846E-04
  1.16850830E-04  6.96255083E-06 -3.56105627E-05  2.37602069E-04 -3.53524430E-05
  6.47452575E-06 -2.60300825E-05  1.64068841E-04  1.80924588E-06  3.95442022E-06
 -1.26956351E-04  1.92437233E-04 -1.23622550E-05 -4.93353841E-05  1.06081504E-04
  5.81431629E-06 -9.12463659E-06 -6.58781527E-05  6.14085895E-05  2.81704210E-04
  1.12006860E-03  1.35240436E-03  1.63160689E-04 -2.38967544E-04  4.08027776E-05
 -4.55673031E-05 -1.27448119E-03  3.45988674E-05 -1.37024932E-04  1.04967959E-03
 -1.61517357E-04  1.45981233E-04 -1.28031184E-05  3.38316893E-06 -1.19951778E-05
  1.37825193E-05 -6.45247003E-05 -5.26273736E-04  2.78194058E-04  1.71912334E-06
  1.07799656E-03 -5.27226792E-05 -6.84646242E-05 -5.19023075E-05 -1.07045025E-04
  2.84097220E-03  2.52841246E-03 -2.62504506E-05  4.18206580E-05 -5.08967269E-06
 -3.48828049E-05  5.61061394E-04  2.97891818E-05 -5.15962078E-04  2.36355229E-03
  5.43697358E-05 -2.20471625E-04  9.39398283E-04 -2.42021051E-05 -2.24384822E-05
 -3.54596494E-06 -2.00895500E-06 -4.39611607E-05 -3.25560197E-05 -2.10532980E-04
  2.63468208E-05  1.63915493E-05 -2.46665807E-04 -5.70157335E-05 -2.68810604E-04
 -1.51341815E-05  2.14516388E-05 -7.52598816E-04  7.78853552E-05 -9.77380797E-07
  4.79550098E-06 -2.13705815E-05  5.90306872E-06 -1.07423787E-06  5.22155939E-05
 -4.02365745E-05 -8.81370208E-06 -4.57220285E-06 -5.78183095E-05 -7.99409569E-06
  3.55019831E-05 -7.93436260E-05  1.38558396E-04 -2.09054338E-06 -2.71752554E-05
 -7.73611829E-05  5.12676642E-06  2.47980374E-04  5.84139107E-05 -5.43441994E-06
 -1.49449545E-06  1.40905617E-06 -6.68617072E-05 -4.47044032E-05  1.70747215E-05
  2.46343928E-05  6.43654333E-06 -6.18646043E-06 -2.24329097E-04  2.32424653E-04
  1.52560551E-05 -8.72510403E-05  6.55447779E-05 -1.94165872E-05  3.25492653E-06
  5.37977582E-06  2.36724194E-06 -5.20063130E-06  6.68129022E-06 -2.29466265E-05
 -2.74625590E-05 -1.00307939E-05  4.32081479E-05 -9.68371611E-06 -7.65526271E-05
  2.80500876E-06  3.14449717E-05  8.14579183E-05 -1.95517438E-04  7.03258094E-07