 Entering Gaussian System, Link 0=g16
 Input=clhocl_50_sp.gjf
 Output=clhocl_50_sp.log
 Initial command:
 /sw/contrib/gaussian/g16/B01/g16/l1.exe "/scr/Gau-30241.inp" -scrdir="/scr/"
 Entering Link 1 = /sw/contrib/gaussian/g16/B01/g16/l1.exe PID=     30242.
  
 Copyright (c) 1988-2017, Gaussian, Inc.  All Rights Reserved.
  
 This is part of the Gaussian(R) 16 program.  It is based on
 the Gaussian(R) 09 system (copyright 2009, Gaussian, Inc.),
 the Gaussian(R) 03 system (copyright 2003, Gaussian, Inc.),
 the Gaussian(R) 98 system (copyright 1998, Gaussian, Inc.),
 the Gaussian(R) 94 system (copyright 1995, Gaussian, Inc.),
 the Gaussian 92(TM) system (copyright 1992, Gaussian, Inc.),
 the Gaussian 90(TM) system (copyright 1990, Gaussian, Inc.),
 the Gaussian 88(TM) system (copyright 1988, Gaussian, Inc.),
 the Gaussian 86(TM) system (copyright 1986, Carnegie Mellon
 University), and the Gaussian 82(TM) system (copyright 1983,
 Carnegie Mellon University). Gaussian is a federally registered
 trademark of Gaussian, Inc.
  
 This software contains proprietary and confidential information,
 including trade secrets, belonging to Gaussian, Inc.
  
 This software is provided under written license and may be
 used, copied, transmitted, or stored only in accord with that
 written license.
  
 The following legend is applicable only to US Government
 contracts under FAR:
  
                    RESTRICTED RIGHTS LEGEND
  
 Use, reproduction and disclosure by the US Government is
 subject to restrictions as set forth in subparagraphs (a)
 and (c) of the Commercial Computer Software - Restricted
 Rights clause in FAR 52.227-19.
  
 Gaussian, Inc.
 340 Quinnipiac St., Bldg. 40, Wallingford CT 06492
  
  
 ---------------------------------------------------------------
 Warning -- This program may not be used in any manner that
 competes with the business of Gaussian, Inc. or will provide
 assistance to any competitor of Gaussian, Inc.  The licensee
 of this program is prohibited from giving any competitor of
 Gaussian, Inc. access to this program.  By using this program,
 the user acknowledges that Gaussian, Inc. is engaged in the
 business of creating and licensing software in the field of
 computational chemistry and represents and warrants to the
 licensee that it is not a competitor of Gaussian, Inc. and that
 it will not use this program in any manner prohibited above.
 ---------------------------------------------------------------
  

 Cite this work as:
 Gaussian 16, Revision B.01,
 M. J. Frisch, G. W. Trucks, H. B. Schlegel, G. E. Scuseria, 
 M. A. Robb, J. R. Cheeseman, G. Scalmani, V. Barone, 
 G. A. Petersson, H. Nakatsuji, X. Li, M. Caricato, A. V. Marenich, 
 J. Bloino, B. G. Janesko, R. Gomperts, B. Mennucci, H. P. Hratchian, 
 J. V. Ortiz, A. F. Izmaylov, J. L. Sonnenberg, D. Williams-Young, 
 F. Ding, F. Lipparini, F. Egidi, J. Goings, B. Peng, A. Petrone, 
 T. Henderson, D. Ranasinghe, V. G. Zakrzewski, J. Gao, N. Rega, 
 G. Zheng, W. Liang, M. Hada, M. Ehara, K. Toyota, R. Fukuda, 
 J. Hasegawa, M. Ishida, T. Nakajima, Y. Honda, O. Kitao, H. Nakai, 
 T. Vreven, K. Throssell, J. A. Montgomery, Jr., J. E. Peralta, 
 F. Ogliaro, M. J. Bearpark, J. J. Heyd, E. N. Brothers, K. N. Kudin, 
 V. N. Staroverov, T. A. Keith, R. Kobayashi, J. Normand, 
 K. Raghavachari, A. P. Rendell, J. C. Burant, S. S. Iyengar, 
 J. Tomasi, M. Cossi, J. M. Millam, M. Klene, C. Adamo, R. Cammi, 
 J. W. Ochterski, R. L. Martin, K. Morokuma, O. Farkas, 
 J. B. Foresman, and D. J. Fox, Gaussian, Inc., Wallingford CT, 2016.
 
 ******************************************
 Gaussian 16:  ES64L-G16RevB.01 20-Dec-2017
                22-Sep-2021 
 ******************************************
 %nproc=28
 Will use up to   28 processors via shared memory.
 %mem=120GB
 %chk=/gscratch/ilahie/mccoygrp/coire_hocl/clhocl/clhocl_50_sp.chk
 ----------------------------------------------------
 #p pop=NBO SP NoSymm mp2/aug-cc-pvtz density=current
 ----------------------------------------------------
 1/30=1,38=1,172=1/1;
 2/12=2,15=1,17=6,18=5,40=1/2;
 3/5=16,6=1,7=10,11=9,25=1,30=1,71=1/1,2,3;
 4//1;
 5/5=2,38=5/2;
 8/6=4,10=1/1;
 9/15=1,16=-3/6;
 10/5=1,13=10,31=1/2;
 6/7=2,8=2,9=2,10=2,22=-1,40=1/1,7;
 99/5=1,9=1/99;
 Leave Link    1 at Wed Sep 22 16:33:12 2021, MaxMem= 16106127360 cpu:               2.0 elap:               0.1
 (Enter /sw/contrib/gaussian/g16/B01/g16/l101.exe)
 -----
 title
 -----
 Symbolic Z-matrix:
 Charge = -1 Multiplicity = 1
 O                     0.        0.        0. 
 Cl                    2.90468   0.        0. 
 Cl                   -0.39369   1.63605   0. 
 H                     0.62903   0.        0.74964 
 
 ITRead=  0  0  0  0
 MicOpt= -1 -1 -1 -1
 NAtoms=      4 NQM=        4 NQMF=       0 NMMI=      0 NMMIF=      0
                NMic=       0 NMicF=      0.
                    Isotopes and Nuclear Properties:
 (Nuclear quadrupole moments (NQMom) in fm**2, nuclear magnetic moments (NMagM)
  in nuclear magnetons)

  Atom         1           2           3           4
 IAtWgt=          16          35          35           1
 AtmWgt=  15.9949146  34.9688527  34.9688527   1.0078250
 NucSpn=           0           3           3           1
 AtZEff=  -0.0000000  -0.0000000  -0.0000000  -0.0000000
 NQMom=    0.0000000  -8.1650000  -8.1650000   0.0000000
 NMagM=    0.0000000   0.8218740   0.8218740   2.7928460
 AtZNuc=   8.0000000  17.0000000  17.0000000   1.0000000
 Leave Link  101 at Wed Sep 22 16:33:12 2021, MaxMem= 16106127360 cpu:               2.6 elap:               0.1
 (Enter /sw/contrib/gaussian/g16/B01/g16/l202.exe)
                          Input orientation:                          
 ---------------------------------------------------------------------
 Center     Atomic      Atomic             Coordinates (Angstroms)
 Number     Number       Type             X           Y           Z
 ---------------------------------------------------------------------
      1          8           0        0.000000    0.000000    0.000000
      2         17           0        2.904676    0.000000    0.000000
      3         17           0       -0.393687    1.636049    0.000000
      4          1           0        0.629026    0.000000    0.749643
 ---------------------------------------------------------------------
                    Distance matrix (angstroms):
                    1          2          3          4
     1  O    0.000000
     2  Cl   2.904676   0.000000
     3  Cl   1.682749   3.681827   0.000000
     4  H    0.978590   2.395945   2.069918   0.000000
 Symmetry turned off by external request.
 Stoichiometry    Cl2HO(1-)
 Framework group  C1[X(Cl2HO)]
 Deg. of freedom     6
 Full point group                 C1      NOp   1
 Rotational constants (GHZ):          22.8676094           2.0556760           1.8938159
 Leave Link  202 at Wed Sep 22 16:33:12 2021, MaxMem= 16106127360 cpu:               1.7 elap:               0.1
 (Enter /sw/contrib/gaussian/g16/B01/g16/l301.exe)
 Standard basis: Aug-CC-pVTZ (5D, 7F)
 Ernie: Thresh=  0.10000D-02 Tol=  0.10000D-05 Strict=F.
 Ernie:  29 primitive shells out of 169 were deleted.
   169 basis functions,   327 primitive gaussians,   198 cartesian basis functions
    22 alpha electrons       22 beta electrons
       nuclear repulsion energy       121.5086468485 Hartrees.
 IExCor=    0 DFT=F Ex=HF Corr=None ExCW=0 ScaHFX=  1.000000
 ScaDFX=  1.000000  1.000000  1.000000  1.000000 ScalE2=  1.000000  1.000000
 IRadAn=      5 IRanWt=     -1 IRanGd=            0 ICorTp=0 IEmpDi=  4
 NAtoms=    4 NActive=    4 NUniq=    4 SFac= 1.00D+00 NAtFMM=   60 NAOKFM=F Big=F
 Integral buffers will be    131072 words long.
 Raffenetti 1 integral format.
 Two-electron integral symmetry is turned off.
 Leave Link  301 at Wed Sep 22 16:33:13 2021, MaxMem= 16106127360 cpu:               2.4 elap:               0.1
 (Enter /sw/contrib/gaussian/g16/B01/g16/l302.exe)
 NPDir=0 NMtPBC=     1 NCelOv=     1 NCel=       1 NClECP=     1 NCelD=      1
         NCelK=      1 NCelE2=     1 NClLst=     1 CellRange=     0.0.
 One-electron integrals computed using PRISM.
 NBasis=   169 RedAO= T EigKep=  3.00D-04  NBF=   169
 NBsUse=   169 1.00D-06 EigRej= -1.00D+00 NBFU=   169
 Leave Link  302 at Wed Sep 22 16:33:13 2021, MaxMem= 16106127360 cpu:               4.5 elap:               0.2
 (Enter /sw/contrib/gaussian/g16/B01/g16/l303.exe)
 DipDrv:  MaxL=1.
 Leave Link  303 at Wed Sep 22 16:33:13 2021, MaxMem= 16106127360 cpu:               1.1 elap:               0.1
 (Enter /sw/contrib/gaussian/g16/B01/g16/l401.exe)
 ExpMin= 2.53D-02 ExpMax= 4.56D+05 ExpMxC= 1.44D+03 IAcc=3 IRadAn=         5 AccDes= 0.00D+00
 Harris functional with IExCor=  205 and IRadAn=       5 diagonalized for initial guess.
 HarFok:  IExCor=  205 AccDes= 0.00D+00 IRadAn=         5 IDoV= 1 UseB2=F ITyADJ=14
 ICtDFT=  3500011 ScaDFX=  1.000000  1.000000  1.000000  1.000000
 FoFCou: FMM=F IPFlag=           0 FMFlag=      100000 FMFlg1=           0
         NFxFlg=           0 DoJE=T BraDBF=F KetDBF=T FulRan=T
         wScrn=  0.000000 ICntrl=       500 IOpCl=  0 I1Cent=   200000004 NGrid=           0
         NMat0=    1 NMatS0=      1 NMatT0=    0 NMatD0=    1 NMtDS0=    0 NMtDT0=    0
 Symmetry not used in FoFCou.
 Harris En= -993.808416800516    
 JPrj=0 DoOrth=F DoCkMO=F.
 Leave Link  401 at Wed Sep 22 16:33:13 2021, MaxMem= 16106127360 cpu:               6.8 elap:               0.3
 (Enter /sw/contrib/gaussian/g16/B01/g16/l502.exe)
 Keep R1 ints in memory in canonical form, NReq=117118865.
 FoFCou: FMM=F IPFlag=           0 FMFlag=           0 FMFlg1=           0
         NFxFlg=           0 DoJE=F BraDBF=F KetDBF=F FulRan=T
         wScrn=  0.000000 ICntrl=       600 IOpCl=  0 I1Cent=           0 NGrid=           0
         NMat0=    1 NMatS0=  14365 NMatT0=    0 NMatD0=    1 NMtDS0=    0 NMtDT0=    0
 Symmetry not used in FoFCou.
 Two-electron integral symmetry not used.
 Closed shell SCF:
 Using DIIS extrapolation, IDIIS=  1040.
 NGot= 16106127360 LenX= 16002858349 LenY= 16002818704
 Requested convergence on RMS density matrix=1.00D-08 within 128 cycles.
 Requested convergence on MAX density matrix=1.00D-06.
 Requested convergence on             energy=1.00D-06.
 No special actions if energy rises.

 Cycle   1  Pass 1  IDiag  1:
 E= -994.369012105668    
 DIIS: error= 3.34D-02 at cycle   1 NSaved=   1.
 NSaved= 1 IEnMin= 1 EnMin= -994.369012105668     IErMin= 1 ErrMin= 3.34D-02
 ErrMax= 3.34D-02  0.00D+00 EMaxC= 1.00D-01 BMatC= 4.23D-01 BMatP= 4.23D-01
 IDIUse=3 WtCom= 6.66D-01 WtEn= 3.34D-01
 Coeff-Com:  0.100D+01
 Coeff-En:   0.100D+01
 Coeff:      0.100D+01
 Gap=     0.534 Goal=   None    Shift=    0.000
 GapD=    0.534 DampG=2.000 DampE=0.500 DampFc=1.0000 IDamp=-1.
 RMSDP=2.14D-03 MaxDP=7.10D-02              OVMax= 1.22D-01

 Cycle   2  Pass 1  IDiag  1:
 E= -994.468732198482     Delta-E=       -0.099720092814 Rises=F Damp=F
 DIIS: error= 1.32D-02 at cycle   2 NSaved=   2.
 NSaved= 2 IEnMin= 2 EnMin= -994.468732198482     IErMin= 2 ErrMin= 1.32D-02
 ErrMax= 1.32D-02  0.00D+00 EMaxC= 1.00D-01 BMatC= 4.90D-02 BMatP= 4.23D-01
 IDIUse=3 WtCom= 8.68D-01 WtEn= 1.32D-01
 Coeff-Com:  0.167D+00 0.833D+00
 Coeff-En:   0.000D+00 0.100D+01
 Coeff:      0.145D+00 0.855D+00
 Gap=     0.339 Goal=   None    Shift=    0.000
 RMSDP=1.00D-03 MaxDP=4.09D-02 DE=-9.97D-02 OVMax= 7.68D-02

 Cycle   3  Pass 1  IDiag  1:
 E= -994.494532677677     Delta-E=       -0.025800479195 Rises=F Damp=F
 DIIS: error= 6.67D-03 at cycle   3 NSaved=   3.
 NSaved= 3 IEnMin= 3 EnMin= -994.494532677677     IErMin= 3 ErrMin= 6.67D-03
 ErrMax= 6.67D-03  0.00D+00 EMaxC= 1.00D-01 BMatC= 1.28D-02 BMatP= 4.90D-02
 IDIUse=3 WtCom= 9.33D-01 WtEn= 6.67D-02
 Coeff-Com: -0.143D-01 0.327D+00 0.687D+00
 Coeff-En:   0.000D+00 0.905D-01 0.910D+00
 Coeff:     -0.134D-01 0.311D+00 0.702D+00
 Gap=     0.325 Goal=   None    Shift=    0.000
 RMSDP=3.46D-04 MaxDP=1.34D-02 DE=-2.58D-02 OVMax= 3.41D-02

 Cycle   4  Pass 1  IDiag  1:
 E= -994.503254666730     Delta-E=       -0.008721989052 Rises=F Damp=F
 DIIS: error= 8.89D-04 at cycle   4 NSaved=   4.
 NSaved= 4 IEnMin= 4 EnMin= -994.503254666730     IErMin= 4 ErrMin= 8.89D-04
 ErrMax= 8.89D-04  0.00D+00 EMaxC= 1.00D-01 BMatC= 1.77D-04 BMatP= 1.28D-02
 IDIUse=3 WtCom= 9.91D-01 WtEn= 8.89D-03
 Coeff-Com: -0.450D-02 0.333D-01 0.133D+00 0.838D+00
 Coeff-En:   0.000D+00 0.000D+00 0.000D+00 0.100D+01
 Coeff:     -0.446D-02 0.330D-01 0.132D+00 0.839D+00
 Gap=     0.318 Goal=   None    Shift=    0.000
 RMSDP=5.47D-05 MaxDP=1.27D-03 DE=-8.72D-03 OVMax= 2.99D-03

 Cycle   5  Pass 1  IDiag  1:
 E= -994.503429064442     Delta-E=       -0.000174397712 Rises=F Damp=F
 DIIS: error= 2.43D-04 at cycle   5 NSaved=   5.
 NSaved= 5 IEnMin= 5 EnMin= -994.503429064442     IErMin= 5 ErrMin= 2.43D-04
 ErrMax= 2.43D-04  0.00D+00 EMaxC= 1.00D-01 BMatC= 1.48D-05 BMatP= 1.77D-04
 IDIUse=3 WtCom= 9.98D-01 WtEn= 2.43D-03
 Coeff-Com:  0.844D-03-0.374D-01-0.714D-01-0.112D-01 0.112D+01
 Coeff-En:   0.000D+00 0.000D+00 0.000D+00 0.000D+00 0.100D+01
 Coeff:      0.842D-03-0.373D-01-0.712D-01-0.112D-01 0.112D+01
 Gap=     0.320 Goal=   None    Shift=    0.000
 RMSDP=3.24D-05 MaxDP=1.12D-03 DE=-1.74D-04 OVMax= 3.05D-03

 Cycle   6  Pass 1  IDiag  1:
 E= -994.503466189311     Delta-E=       -0.000037124868 Rises=F Damp=F
 DIIS: error= 9.83D-05 at cycle   6 NSaved=   6.
 NSaved= 6 IEnMin= 6 EnMin= -994.503466189311     IErMin= 6 ErrMin= 9.83D-05
 ErrMax= 9.83D-05  0.00D+00 EMaxC= 1.00D-01 BMatC= 1.81D-06 BMatP= 1.48D-05
 IDIUse=1 WtCom= 1.00D+00 WtEn= 0.00D+00
 Coeff-Com:  0.320D-03 0.686D-02 0.138D-01-0.643D-01-0.384D+00 0.143D+01
 Coeff:      0.320D-03 0.686D-02 0.138D-01-0.643D-01-0.384D+00 0.143D+01
 Gap=     0.320 Goal=   None    Shift=    0.000
 RMSDP=1.52D-05 MaxDP=5.28D-04 DE=-3.71D-05 OVMax= 1.45D-03

 Cycle   7  Pass 1  IDiag  1:
 E= -994.503472326810     Delta-E=       -0.000006137499 Rises=F Damp=F
 DIIS: error= 2.15D-05 at cycle   7 NSaved=   7.
 NSaved= 7 IEnMin= 7 EnMin= -994.503472326810     IErMin= 7 ErrMin= 2.15D-05
 ErrMax= 2.15D-05  0.00D+00 EMaxC= 1.00D-01 BMatC= 1.12D-07 BMatP= 1.81D-06
 IDIUse=1 WtCom= 1.00D+00 WtEn= 0.00D+00
 Coeff-Com: -0.189D-03 0.142D-03 0.833D-03 0.218D-01 0.575D-01-0.521D+00
 Coeff-Com:  0.144D+01
 Coeff:     -0.189D-03 0.142D-03 0.833D-03 0.218D-01 0.575D-01-0.521D+00
 Coeff:      0.144D+01
 Gap=     0.320 Goal=   None    Shift=    0.000
 RMSDP=4.61D-06 MaxDP=1.62D-04 DE=-6.14D-06 OVMax= 4.50D-04

 Cycle   8  Pass 1  IDiag  1:
 E= -994.503472809133     Delta-E=       -0.000000482323 Rises=F Damp=F
 DIIS: error= 6.29D-06 at cycle   8 NSaved=   8.
 NSaved= 8 IEnMin= 8 EnMin= -994.503472809133     IErMin= 8 ErrMin= 6.29D-06
 ErrMax= 6.29D-06  0.00D+00 EMaxC= 1.00D-01 BMatC= 8.32D-09 BMatP= 1.12D-07
 IDIUse=1 WtCom= 1.00D+00 WtEn= 0.00D+00
 Coeff-Com: -0.731D-05-0.796D-03-0.143D-02 0.457D-02 0.343D-01-0.111D+00
 Coeff-Com: -0.148D-01 0.109D+01
 Coeff:     -0.731D-05-0.796D-03-0.143D-02 0.457D-02 0.343D-01-0.111D+00
 Coeff:     -0.148D-01 0.109D+01
 Gap=     0.320 Goal=   None    Shift=    0.000
 RMSDP=9.91D-07 MaxDP=2.32D-05 DE=-4.82D-07 OVMax= 1.03D-04

 Cycle   9  Pass 1  IDiag  1:
 E= -994.503472836056     Delta-E=       -0.000000026923 Rises=F Damp=F
 DIIS: error= 2.47D-06 at cycle   9 NSaved=   9.
 NSaved= 9 IEnMin= 9 EnMin= -994.503472836056     IErMin= 9 ErrMin= 2.47D-06
 ErrMax= 2.47D-06  0.00D+00 EMaxC= 1.00D-01 BMatC= 1.11D-09 BMatP= 8.32D-09
 IDIUse=1 WtCom= 1.00D+00 WtEn= 0.00D+00
 Coeff-Com:  0.195D-04 0.138D-03 0.288D-03-0.323D-02-0.147D-01 0.835D-01
 Coeff-Com: -0.163D+00-0.203D+00 0.130D+01
 Coeff:      0.195D-04 0.138D-03 0.288D-03-0.323D-02-0.147D-01 0.835D-01
 Coeff:     -0.163D+00-0.203D+00 0.130D+01
 Gap=     0.320 Goal=   None    Shift=    0.000
 RMSDP=4.73D-07 MaxDP=8.56D-06 DE=-2.69D-08 OVMax= 5.40D-05

 Cycle  10  Pass 1  IDiag  1:
 E= -994.503472840856     Delta-E=       -0.000000004800 Rises=F Damp=F
 DIIS: error= 9.34D-07 at cycle  10 NSaved=  10.
 NSaved=10 IEnMin=10 EnMin= -994.503472840856     IErMin=10 ErrMin= 9.34D-07
 ErrMax= 9.34D-07  0.00D+00 EMaxC= 1.00D-01 BMatC= 1.50D-10 BMatP= 1.11D-09
 IDIUse=1 WtCom= 1.00D+00 WtEn= 0.00D+00
 Coeff-Com: -0.143D-05 0.498D-04 0.436D-04 0.170D-03-0.168D-03-0.590D-02
 Coeff-Com:  0.373D-01-0.898D-01-0.289D+00 0.135D+01
 Coeff:     -0.143D-05 0.498D-04 0.436D-04 0.170D-03-0.168D-03-0.590D-02
 Coeff:      0.373D-01-0.898D-01-0.289D+00 0.135D+01
 Gap=     0.320 Goal=   None    Shift=    0.000
 RMSDP=2.07D-07 MaxDP=3.97D-06 DE=-4.80D-09 OVMax= 2.47D-05

 Cycle  11  Pass 1  IDiag  1:
 E= -994.503472841616     Delta-E=       -0.000000000760 Rises=F Damp=F
 DIIS: error= 2.97D-07 at cycle  11 NSaved=  11.
 NSaved=11 IEnMin=11 EnMin= -994.503472841616     IErMin=11 ErrMin= 2.97D-07
 ErrMax= 2.97D-07  0.00D+00 EMaxC= 1.00D-01 BMatC= 1.66D-11 BMatP= 1.50D-10
 IDIUse=1 WtCom= 1.00D+00 WtEn= 0.00D+00
 Coeff-Com: -0.301D-05-0.186D-04-0.314D-04 0.418D-03 0.177D-02-0.979D-02
 Coeff-Com:  0.161D-01 0.367D-01-0.115D+00-0.261D+00 0.133D+01
 Coeff:     -0.301D-05-0.186D-04-0.314D-04 0.418D-03 0.177D-02-0.979D-02
 Coeff:      0.161D-01 0.367D-01-0.115D+00-0.261D+00 0.133D+01
 Gap=     0.320 Goal=   None    Shift=    0.000
 RMSDP=7.79D-08 MaxDP=1.64D-06 DE=-7.60D-10 OVMax= 9.10D-06

 Cycle  12  Pass 1  IDiag  1:
 E= -994.503472841710     Delta-E=       -0.000000000094 Rises=F Damp=F
 DIIS: error= 6.91D-08 at cycle  12 NSaved=  12.
 NSaved=12 IEnMin=12 EnMin= -994.503472841710     IErMin=12 ErrMin= 6.91D-08
 ErrMax= 6.91D-08  0.00D+00 EMaxC= 1.00D-01 BMatC= 1.10D-12 BMatP= 1.66D-11
 IDIUse=1 WtCom= 1.00D+00 WtEn= 0.00D+00
 Coeff-Com:  0.451D-06-0.283D-05-0.153D-05-0.557D-04-0.167D-03 0.142D-02
 Coeff-Com: -0.455D-02 0.276D-02 0.354D-01-0.774D-01-0.148D+00 0.119D+01
 Coeff:      0.451D-06-0.283D-05-0.153D-05-0.557D-04-0.167D-03 0.142D-02
 Coeff:     -0.455D-02 0.276D-02 0.354D-01-0.774D-01-0.148D+00 0.119D+01
 Gap=     0.320 Goal=   None    Shift=    0.000
 RMSDP=1.72D-08 MaxDP=3.71D-07 DE=-9.39D-11 OVMax= 1.75D-06

 Cycle  13  Pass 1  IDiag  1:
 E= -994.503472841710     Delta-E=        0.000000000000 Rises=F Damp=F
 DIIS: error= 2.01D-08 at cycle  13 NSaved=  13.
 NSaved=13 IEnMin=12 EnMin= -994.503472841710     IErMin=13 ErrMin= 2.01D-08
 ErrMax= 2.01D-08  0.00D+00 EMaxC= 1.00D-01 BMatC= 1.49D-13 BMatP= 1.10D-12
 IDIUse=1 WtCom= 1.00D+00 WtEn= 0.00D+00
 Coeff-Com:  0.225D-06 0.218D-05 0.233D-05-0.299D-04-0.134D-03 0.668D-03
 Coeff-Com: -0.622D-03-0.448D-02 0.429D-02 0.483D-01-0.133D+00-0.171D+00
 Coeff-Com:  0.126D+01
 Coeff:      0.225D-06 0.218D-05 0.233D-05-0.299D-04-0.134D-03 0.668D-03
 Coeff:     -0.622D-03-0.448D-02 0.429D-02 0.483D-01-0.133D+00-0.171D+00
 Coeff:      0.126D+01
 Gap=     0.320 Goal=   None    Shift=    0.000
 RMSDP=5.90D-09 MaxDP=1.17D-07 DE= 0.00D+00 OVMax= 4.38D-07

 SCF Done:  E(RHF) =  -994.503472842     A.U. after   13 cycles
            NFock= 13  Conv=0.59D-08     -V/T= 2.0001
 KE= 9.943883327709D+02 PE=-2.620748466728D+03 EE= 5.103480142673D+02
 Leave Link  502 at Wed Sep 22 16:33:16 2021, MaxMem= 16106127360 cpu:              27.5 elap:               3.3
 (Enter /sw/contrib/gaussian/g16/B01/g16/l801.exe)
 ExpMin= 2.53D-02 ExpMax= 4.56D+05 ExpMxC= 1.44D+03 IAcc=3 IRadAn=         5 AccDes= 0.00D+00
 HarFok:  IExCor=  205 AccDes= 0.00D+00 IRadAn=         5 IDoV=-2 UseB2=F ITyADJ=14
 ICtDFT= 12500011 ScaDFX=  1.000000  1.000000  1.000000  1.000000
 Largest valence mixing into a core orbital is  4.47D-04
 Largest core mixing into a valence orbital is  1.75D-04
 Range of M.O.s used for correlation:    12   169
 NBasis=   169 NAE=    22 NBE=    22 NFC=    11 NFV=     0
 NROrb=    158 NOA=    11 NOB=    11 NVA=   147 NVB=   147

 **** Warning!!: The largest alpha MO coefficient is  0.11017073D+02

 Leave Link  801 at Wed Sep 22 16:33:17 2021, MaxMem= 16106127360 cpu:               2.0 elap:               0.1
 (Enter /sw/contrib/gaussian/g16/B01/g16/l906.exe)
 Frozen-core derivative calculation, NFC=  11 NFV=   0.
 FulOut=F Deriv=T AODrv=F NAtomX=     4
   MMem=         144  MDisk=          11 MDiskD=          11
  W3Min=      736164 MinDsk=     1250177 NBas6D=         198
 NBas2D=       20187    NTT=       19701    LW2=     3500000
    MDV= 16105751494 MDiskM=      406660 NBas2p=       19980
 Fully in-core method, ICMem=   420417501.
 IMap=   1   2   3   4   5   6   7   8   9  10  11  12  13  14  15  16  17  18  19  20
 IMap=  21  22
 JobTyp=1 Pass  1 fully in-core, NPsUse= 28.
 Compute canonical integrals.
 FoFCou: FMM=F IPFlag=           0 FMFlag=           0 FMFlg1=           0
         NFxFlg=           0 DoJE=F BraDBF=F KetDBF=F FulRan=T
         wScrn=  0.000000 ICntrl=       600 IOpCl=  1 I1Cent=           0 NGrid=           0
         NMat0=    1 NMatS0=  20187 NMatT0=    0 NMatD0=    1 NMtDS0=    0 NMtDT0=    0
 Symmetry not used in FoFCou.
 Spin components of T(2) and E(2):
     alpha-alpha T2 =       0.2904403427D-01 E2=     -0.8340108635D-01
     alpha-beta  T2 =       0.1593517850D+00 E2=     -0.4970320068D+00
     beta-beta   T2 =       0.2904403427D-01 E2=     -0.8340108635D-01
 The integrals were generated   1 times.
 ANorm=    0.1103376569D+01
 E2 =    -0.6638341795D+00 EUMP2 =    -0.99516730702121D+03
 Leave Link  906 at Wed Sep 22 16:33:21 2021, MaxMem= 16106127360 cpu:             115.1 elap:               4.1
 (Enter /sw/contrib/gaussian/g16/B01/g16/l1002.exe)
 Minotr:  Closed shell wavefunction.
          Computing MP2/KS-MP2 derivatives.
          Using Z-Vector for PSCF gradient.
          Skipping F1 and S1 gradient terms here.
          Frozen-core window.
          Direct CPHF calculation.
          Differentiating once with respect to electric field.
                with respect to dipole field.
          Electric field/nuclear overlap derivatives assumed to be zero.
          Requested convergence is 1.0D-10 RMS, and 1.0D-09 maximum.
          NewPWx=F KeepS1=T KeepF1=T KeepIn=T MapXYZ=F SortEE=F KeepMc=T.
 Keep R1 ints in memory in canonical form, NReq=117123197.
 FoFCou: FMM=F IPFlag=           0 FMFlag=           0 FMFlg1=           0
         NFxFlg=           0 DoJE=F BraDBF=F KetDBF=F FulRan=T
         wScrn=  0.000000 ICntrl=       600 IOpCl=  0 I1Cent=           0 NGrid=           0
         NMat0=    1 NMatS0=  14365 NMatT0=    0 NMatD0=    1 NMtDS0=    0 NMtDT0=    0
 Symmetry not used in FoFCou.
 Two-electron integral symmetry not used.
          MDV=   16106127360 using IRadAn=       5.
          Solving linear equations separately, MaxMat=       0.
          There are     1 degrees of freedom in the 1st order CPHF.  IDoFFX=0 NUNeed=     1.
 LinEq1:  Iter=  0 NonCon=     1 RMS=3.07D-03 Max=3.94D-02 NDo=     1
 AX will form     1 AO Fock derivatives at one time.
 LinEq1:  Iter=  1 NonCon=     1 RMS=3.96D-04 Max=3.73D-03 NDo=     1
 LinEq1:  Iter=  2 NonCon=     1 RMS=1.57D-04 Max=1.84D-03 NDo=     1
 LinEq1:  Iter=  3 NonCon=     1 RMS=6.18D-05 Max=9.25D-04 NDo=     1
 LinEq1:  Iter=  4 NonCon=     1 RMS=2.80D-05 Max=5.08D-04 NDo=     1
 LinEq1:  Iter=  5 NonCon=     1 RMS=8.30D-06 Max=1.67D-04 NDo=     1
 LinEq1:  Iter=  6 NonCon=     1 RMS=2.62D-06 Max=3.32D-05 NDo=     1
 LinEq1:  Iter=  7 NonCon=     1 RMS=7.36D-07 Max=7.58D-06 NDo=     1
 LinEq1:  Iter=  8 NonCon=     1 RMS=1.48D-07 Max=2.36D-06 NDo=     1
 LinEq1:  Iter=  9 NonCon=     1 RMS=3.94D-08 Max=6.71D-07 NDo=     1
 LinEq1:  Iter= 10 NonCon=     1 RMS=1.11D-08 Max=2.03D-07 NDo=     1
 LinEq1:  Iter= 11 NonCon=     1 RMS=2.85D-09 Max=4.58D-08 NDo=     1
 LinEq1:  Iter= 12 NonCon=     1 RMS=8.28D-10 Max=8.20D-09 NDo=     1
 LinEq1:  Iter= 13 NonCon=     1 RMS=2.28D-10 Max=2.20D-09 NDo=     1
 LinEq1:  Iter= 14 NonCon=     0 RMS=5.29D-11 Max=7.38D-10 NDo=     1
 Linear equations converged to 1.000D-10 1.000D-09 after    14 iterations.
 End of Minotr F.D. properties file   721 does not exist.
 End of Minotr F.D. properties file   722 does not exist.
 End of Minotr F.D. properties file   788 does not exist.
 Leave Link 1002 at Wed Sep 22 16:33:24 2021, MaxMem= 16106127360 cpu:              27.8 elap:               3.8
 (Enter /sw/contrib/gaussian/g16/B01/g16/l601.exe)
 Copying SCF densities to generalized density rwf, IOpCl= 0 IROHF=0.

 **********************************************************************

            Population analysis using the MP2 Density.

 **********************************************************************

 Alpha  occ. eigenvalues -- -104.73762-104.52255 -20.47757 -10.45735 -10.24701
 Alpha  occ. eigenvalues --   -7.92455  -7.92183  -7.92165  -7.71311  -7.71303
 Alpha  occ. eigenvalues --   -7.71300  -1.25018  -0.90376  -0.75603  -0.55638
 Alpha  occ. eigenvalues --   -0.45449  -0.44537  -0.31592  -0.28893  -0.17333
 Alpha  occ. eigenvalues --   -0.17017  -0.16821
 Alpha virt. eigenvalues --    0.15208   0.17925   0.22197   0.23203   0.26429
 Alpha virt. eigenvalues --    0.27565   0.27945   0.28875   0.29874   0.31772
 Alpha virt. eigenvalues --    0.32564   0.35244   0.40165   0.41537   0.45719
 Alpha virt. eigenvalues --    0.47629   0.52792   0.53838   0.55693   0.57158
 Alpha virt. eigenvalues --    0.58182   0.58710   0.61068   0.62231   0.64919
 Alpha virt. eigenvalues --    0.66279   0.66990   0.68171   0.75835   0.79958
 Alpha virt. eigenvalues --    0.84847   0.86930   0.88446   0.89691   0.90454
 Alpha virt. eigenvalues --    0.92568   0.95208   0.97226   1.02268   1.05383
 Alpha virt. eigenvalues --    1.07768   1.08588   1.10426   1.11888   1.12479
 Alpha virt. eigenvalues --    1.16363   1.19338   1.20127   1.20180   1.21834
 Alpha virt. eigenvalues --    1.22711   1.23152   1.25781   1.27250   1.28792
 Alpha virt. eigenvalues --    1.32146   1.33032   1.39048   1.40966   1.43861
 Alpha virt. eigenvalues --    1.44431   1.48192   1.49773   1.52210   1.54774
 Alpha virt. eigenvalues --    1.56298   1.64623   1.66853   1.69024   1.70548
 Alpha virt. eigenvalues --    1.75426   1.78571   1.82952   1.86643   1.95536
 Alpha virt. eigenvalues --    1.98461   2.11833   2.35050   2.42707   2.47939
 Alpha virt. eigenvalues --    2.49262   2.52977   2.59503   2.60777   2.64037
 Alpha virt. eigenvalues --    2.67598   2.69006   2.69895   2.71785   2.74376
 Alpha virt. eigenvalues --    2.77494   2.81095   2.82366   2.82520   2.88325
 Alpha virt. eigenvalues --    2.89784   2.92357   2.97874   2.98604   2.99893
 Alpha virt. eigenvalues --    3.00349   3.09772   3.15873   3.20166   3.21147
 Alpha virt. eigenvalues --    3.23042   3.25048   3.29344   3.31352   3.35868
 Alpha virt. eigenvalues --    3.35999   3.40210   3.42922   3.46514   3.48758
 Alpha virt. eigenvalues --    3.52251   3.56376   3.57750   3.63058   3.91491
 Alpha virt. eigenvalues --    4.02203   4.36999   4.47907   4.53981   4.63308
 Alpha virt. eigenvalues --    4.74050   4.91365   5.01912   5.37790   5.47062
 Alpha virt. eigenvalues --    5.69015   6.04703   6.39087   6.65420   6.85035
 Alpha virt. eigenvalues --    6.90604   6.92163   6.98528   7.34149   7.37176
 Alpha virt. eigenvalues --    7.38223   7.46081   7.48475   7.70531   7.71937
 Alpha virt. eigenvalues --    8.40739  14.66678
          Condensed to atoms (all electrons):
               1          2          3          4
     1  O    8.492400  -0.084582  -0.124252   0.089872
     2  Cl  -0.084582  17.962008  -0.000201   0.058310
     3  Cl  -0.124252  -0.000201  17.051033   0.001286
     4  H    0.089872   0.058310   0.001286   0.613692
 Mulliken charges:
               1
     1  O   -0.373439
     2  Cl  -0.935535
     3  Cl   0.072134
     4  H    0.236840
 Sum of Mulliken charges =  -1.00000
 Mulliken charges with hydrogens summed into heavy atoms:
               1
     1  O   -0.136599
     2  Cl  -0.935535
     3  Cl   0.072134
 Electronic spatial extent (au):  <R**2>=            797.0716
 Charge=             -1.0000 electrons
 Dipole moment (field-independent basis, Debye):
    X=            -11.4583    Y=             -0.5583    Z=              0.7715  Tot=             11.4978
 Quadrupole moment (field-independent basis, Debye-Ang):
   XX=            -74.7553   YY=            -36.9189   ZZ=            -35.6677
   XY=              0.4994   XZ=              0.3711   YZ=             -0.2618
 Traceless Quadrupole moment (field-independent basis, Debye-Ang):
   XX=            -25.6414   YY=             12.1951   ZZ=             13.4463
   XY=              0.4994   XZ=              0.3711   YZ=             -0.2618
 Octapole moment (field-independent basis, Debye-Ang**2):
  XXX=           -244.2056  YYY=            -61.8702  ZZZ=             -1.5252  XYY=            -44.8978
  XXY=            -21.8953  XXZ=             -2.7304  XZZ=            -43.9176  YZZ=            -22.1363
  YYZ=             -1.1996  XYZ=              0.1332
 Hexadecapole moment (field-independent basis, Debye-Ang**3):
 XXXX=          -1255.6306 YYYY=           -245.0359 ZZZZ=            -52.6319 XXXY=             28.1232
 XXXZ=             -9.0567 YYYX=             22.3969 YYYZ=             -1.1239 ZZZX=             -1.9243
 ZZZY=             -0.3680 XXYY=           -200.2950 XXZZ=           -164.7030 YYZZ=            -54.2612
 XXYZ=             -0.2374 YYXZ=             -0.4662 ZZXY=              9.2748
 N-N= 1.215086468485D+02 E-N=-2.620793971790D+03  KE= 9.950509748977D+02
 No NMR shielding tensors so no spin-rotation constants.
 Leave Link  601 at Wed Sep 22 16:33:25 2021, MaxMem= 16106127360 cpu:               4.1 elap:               0.2
 (Enter /sw/contrib/gaussian/g16/B01/g16/l607.exe)
 ******************************Gaussian NBO Version 3.1******************************
             N A T U R A L   A T O M I C   O R B I T A L   A N D
          N A T U R A L   B O N D   O R B I T A L   A N A L Y S I S
 ******************************Gaussian NBO Version 3.1******************************
       /RESON  / : Allow strongly delocalized NBO set

 Analyzing the MP2 density

 Job title: title                                                           

 Storage needed:     86521 in NPA,    114817 in NBO (********** available)
 GSVD:  LWork=        1191 too small for GESVD, short by       52514 words or       52514 for optimal perf.


 NATURAL POPULATIONS:  Natural atomic orbital occupancies 
                                                          
   NAO  Atom  No  lang   Type(AO)    Occupancy
 --------------------------------------------
     1    O    1  S      Cor( 1S)     1.99971
     2    O    1  S      Val( 2S)     1.79461
     3    O    1  S      Ryd( 3S)     0.00934
     4    O    1  S      Ryd( 4S)     0.00107
     5    O    1  S      Ryd( 5S)     0.00015
     6    O    1  px     Val( 2p)     1.76634
     7    O    1  px     Ryd( 3p)     0.01557
     8    O    1  px     Ryd( 4p)     0.00070
     9    O    1  px     Ryd( 5p)     0.00037
    10    O    1  py     Val( 2p)     1.27714
    11    O    1  py     Ryd( 3p)     0.00763
    12    O    1  py     Ryd( 4p)     0.00060
    13    O    1  py     Ryd( 5p)     0.00031
    14    O    1  pz     Val( 2p)     1.74357
    15    O    1  pz     Ryd( 3p)     0.01452
    16    O    1  pz     Ryd( 4p)     0.00072
    17    O    1  pz     Ryd( 5p)     0.00024
    18    O    1  dxy    Ryd( 3d)     0.00914
    19    O    1  dxy    Ryd( 4d)     0.00052
    20    O    1  dxy    Ryd( 5d)     0.00019
    21    O    1  dxz    Ryd( 3d)     0.01099
    22    O    1  dxz    Ryd( 4d)     0.00054
    23    O    1  dxz    Ryd( 5d)     0.00012
    24    O    1  dyz    Ryd( 3d)     0.01011
    25    O    1  dyz    Ryd( 4d)     0.00054
    26    O    1  dyz    Ryd( 5d)     0.00009
    27    O    1  dx2y2  Ryd( 3d)     0.01028
    28    O    1  dx2y2  Ryd( 4d)     0.00055
    29    O    1  dx2y2  Ryd( 5d)     0.00022
    30    O    1  dz2    Ryd( 3d)     0.01038
    31    O    1  dz2    Ryd( 4d)     0.00055
    32    O    1  dz2    Ryd( 5d)     0.00020
    33    O    1  f(0)   Ryd( 4f)     0.00056
    34    O    1  f(0)   Ryd( 5f)     0.00012
    35    O    1  f(C1)  Ryd( 4f)     0.00057
    36    O    1  f(C1)  Ryd( 5f)     0.00012
    37    O    1  f(S1)  Ryd( 4f)     0.00059
    38    O    1  f(S1)  Ryd( 5f)     0.00012
    39    O    1  f(C2)  Ryd( 4f)     0.00066
    40    O    1  f(C2)  Ryd( 5f)     0.00014
    41    O    1  f(S2)  Ryd( 4f)     0.00059
    42    O    1  f(S2)  Ryd( 5f)     0.00012
    43    O    1  f(C3)  Ryd( 4f)     0.00069
    44    O    1  f(C3)  Ryd( 5f)     0.00014
    45    O    1  f(S3)  Ryd( 4f)     0.00065
    46    O    1  f(S3)  Ryd( 5f)     0.00011

    47   Cl    2  S      Cor( 1S)     2.00001
    48   Cl    2  S      Cor( 2S)     2.00000
    49   Cl    2  S      Val( 3S)     1.97987
    50   Cl    2  S      Ryd( 4S)     0.00362
    51   Cl    2  S      Ryd( 5S)     0.00034
    52   Cl    2  S      Ryd( 6S)     0.00011
    53   Cl    2  px     Cor( 2p)     2.00002
    54   Cl    2  px     Val( 3p)     1.93383
    55   Cl    2  px     Ryd( 4p)     0.01249
    56   Cl    2  px     Ryd( 5p)     0.00058
    57   Cl    2  px     Ryd( 6p)     0.00004
    58   Cl    2  py     Cor( 2p)     2.00003
    59   Cl    2  py     Val( 3p)     1.95180
    60   Cl    2  py     Ryd( 4p)     0.01375
    61   Cl    2  py     Ryd( 5p)     0.00059
    62   Cl    2  py     Ryd( 6p)     0.00006
    63   Cl    2  pz     Cor( 2p)     2.00002
    64   Cl    2  pz     Val( 3p)     1.94652
    65   Cl    2  pz     Ryd( 4p)     0.01367
    66   Cl    2  pz     Ryd( 5p)     0.00059
    67   Cl    2  pz     Ryd( 6p)     0.00003
    68   Cl    2  dxy    Ryd( 3d)     0.01865
    69   Cl    2  dxy    Ryd( 4d)     0.00091
    70   Cl    2  dxy    Ryd( 5d)     0.00013
    71   Cl    2  dxz    Ryd( 3d)     0.01885
    72   Cl    2  dxz    Ryd( 4d)     0.00095
    73   Cl    2  dxz    Ryd( 5d)     0.00015
    74   Cl    2  dyz    Ryd( 3d)     0.01843
    75   Cl    2  dyz    Ryd( 4d)     0.00101
    76   Cl    2  dyz    Ryd( 5d)     0.00011
    77   Cl    2  dx2y2  Ryd( 3d)     0.01838
    78   Cl    2  dx2y2  Ryd( 4d)     0.00095
    79   Cl    2  dx2y2  Ryd( 5d)     0.00014
    80   Cl    2  dz2    Ryd( 3d)     0.01841
    81   Cl    2  dz2    Ryd( 4d)     0.00097
    82   Cl    2  dz2    Ryd( 5d)     0.00011
    83   Cl    2  f(0)   Ryd( 4f)     0.00130
    84   Cl    2  f(0)   Ryd( 5f)     0.00015
    85   Cl    2  f(C1)  Ryd( 4f)     0.00129
    86   Cl    2  f(C1)  Ryd( 5f)     0.00016
    87   Cl    2  f(S1)  Ryd( 4f)     0.00130
    88   Cl    2  f(S1)  Ryd( 5f)     0.00015
    89   Cl    2  f(C2)  Ryd( 4f)     0.00130
    90   Cl    2  f(C2)  Ryd( 5f)     0.00016
    91   Cl    2  f(S2)  Ryd( 4f)     0.00131
    92   Cl    2  f(S2)  Ryd( 5f)     0.00015
    93   Cl    2  f(C3)  Ryd( 4f)     0.00129
    94   Cl    2  f(C3)  Ryd( 5f)     0.00017
    95   Cl    2  f(S3)  Ryd( 4f)     0.00130
    96   Cl    2  f(S3)  Ryd( 5f)     0.00016

    97   Cl    3  S      Cor( 1S)     2.00000
    98   Cl    3  S      Cor( 2S)     1.99981
    99   Cl    3  S      Val( 3S)     1.88363
   100   Cl    3  S      Ryd( 4S)     0.00865
   101   Cl    3  S      Ryd( 5S)     0.00056
   102   Cl    3  S      Ryd( 6S)     0.00018
   103   Cl    3  px     Cor( 2p)     2.00003
   104   Cl    3  px     Val( 3p)     1.89396
   105   Cl    3  px     Ryd( 4p)     0.00996
   106   Cl    3  px     Ryd( 5p)     0.00062
   107   Cl    3  px     Ryd( 6p)     0.00008
   108   Cl    3  py     Cor( 2p)     1.99997
   109   Cl    3  py     Val( 3p)     0.96200
   110   Cl    3  py     Ryd( 4p)     0.00716
   111   Cl    3  py     Ryd( 5p)     0.00051
   112   Cl    3  py     Ryd( 6p)     0.00020
   113   Cl    3  pz     Cor( 2p)     2.00003
   114   Cl    3  pz     Val( 3p)     1.95394
   115   Cl    3  pz     Ryd( 4p)     0.01016
   116   Cl    3  pz     Ryd( 5p)     0.00058
   117   Cl    3  pz     Ryd( 6p)     0.00003
   118   Cl    3  dxy    Ryd( 3d)     0.01926
   119   Cl    3  dxy    Ryd( 4d)     0.00078
   120   Cl    3  dxy    Ryd( 5d)     0.00027
   121   Cl    3  dxz    Ryd( 3d)     0.01713
   122   Cl    3  dxz    Ryd( 4d)     0.00083
   123   Cl    3  dxz    Ryd( 5d)     0.00021
   124   Cl    3  dyz    Ryd( 3d)     0.01830
   125   Cl    3  dyz    Ryd( 4d)     0.00082
   126   Cl    3  dyz    Ryd( 5d)     0.00033
   127   Cl    3  dx2y2  Ryd( 3d)     0.01907
   128   Cl    3  dx2y2  Ryd( 4d)     0.00074
   129   Cl    3  dx2y2  Ryd( 5d)     0.00025
   130   Cl    3  dz2    Ryd( 3d)     0.01739
   131   Cl    3  dz2    Ryd( 4d)     0.00063
   132   Cl    3  dz2    Ryd( 5d)     0.00018
   133   Cl    3  f(0)   Ryd( 4f)     0.00126
   134   Cl    3  f(0)   Ryd( 5f)     0.00013
   135   Cl    3  f(C1)  Ryd( 4f)     0.00127
   136   Cl    3  f(C1)  Ryd( 5f)     0.00013
   137   Cl    3  f(S1)  Ryd( 4f)     0.00139
   138   Cl    3  f(S1)  Ryd( 5f)     0.00013
   139   Cl    3  f(C2)  Ryd( 4f)     0.00127
   140   Cl    3  f(C2)  Ryd( 5f)     0.00014
   141   Cl    3  f(S2)  Ryd( 4f)     0.00122
   142   Cl    3  f(S2)  Ryd( 5f)     0.00013
   143   Cl    3  f(C3)  Ryd( 4f)     0.00148
   144   Cl    3  f(C3)  Ryd( 5f)     0.00014
   145   Cl    3  f(S3)  Ryd( 4f)     0.00148
   146   Cl    3  f(S3)  Ryd( 5f)     0.00015

   147    H    4  S      Val( 1S)     0.48368
   148    H    4  S      Ryd( 2S)     0.00393
   149    H    4  S      Ryd( 3S)     0.00028
   150    H    4  S      Ryd( 4S)     0.00015
   151    H    4  px     Ryd( 2p)     0.00580
   152    H    4  px     Ryd( 3p)     0.00059
   153    H    4  px     Ryd( 4p)     0.00024
   154    H    4  py     Ryd( 2p)     0.00231
   155    H    4  py     Ryd( 3p)     0.00041
   156    H    4  py     Ryd( 4p)     0.00011
   157    H    4  pz     Ryd( 2p)     0.00304
   158    H    4  pz     Ryd( 3p)     0.00059
   159    H    4  pz     Ryd( 4p)     0.00020
   160    H    4  dxy    Ryd( 3d)     0.00023
   161    H    4  dxy    Ryd( 4d)     0.00008
   162    H    4  dxz    Ryd( 3d)     0.00033
   163    H    4  dxz    Ryd( 4d)     0.00009
   164    H    4  dyz    Ryd( 3d)     0.00013
   165    H    4  dyz    Ryd( 4d)     0.00007
   166    H    4  dx2y2  Ryd( 3d)     0.00029
   167    H    4  dx2y2  Ryd( 4d)     0.00011
   168    H    4  dz2    Ryd( 3d)     0.00021
   169    H    4  dz2    Ryd( 4d)     0.00011


 Summary of Natural Population Analysis:                  
                                                          
                                       Natural Population 
                Natural  -----------------------------------------------
    Atom  No    Charge         Core      Valence    Rydberg      Total
 -----------------------------------------------------------------------
      O    1   -0.69217      1.99971     6.58166    0.11080     8.69217
     Cl    2   -0.96631     10.00008     7.81202    0.15421    17.96631
     Cl    3    0.16144      9.99984     6.69352    0.14520    16.83856
      H    4    0.49704      0.00000     0.48368    0.01928     0.50296
 =======================================================================
   * Total *   -1.00000     21.99963    21.57087    0.42950    44.00000

                                 Natural Population      
 --------------------------------------------------------
   Core                      21.99963 ( 99.9983% of  22)
   Valence                   21.57087 ( 98.0494% of  22)
   Natural Minimal Basis     43.57050 ( 99.0239% of  44)
   Natural Rydberg Basis      0.42950 (  0.9761% of  44)
 --------------------------------------------------------

    Atom  No          Natural Electron Configuration
 ----------------------------------------------------------------------------
      O    1      [core]2S( 1.79)2p( 4.79)3S( 0.01)3p( 0.04)3d( 0.05)
     Cl    2      [core]3S( 1.98)3p( 5.83)3d( 0.09)4p( 0.04)4f( 0.01)
     Cl    3      [core]3S( 1.88)3p( 4.81)4S( 0.01)3d( 0.09)4p( 0.03)4f( 0.01)
      H    4            1S( 0.48)2p( 0.01)


 NATURAL BOND ORBITAL ANALYSIS:

                       Occupancies       Lewis Structure    Low   High
           Occ.    -------------------  -----------------   occ   occ
  Cycle   Thresh.   Lewis   Non-Lewis     CR  BD  3C  LP    (L)   (NL)   Dev
 =============================================================================
   1(1)    1.90    43.52487   0.47513     11   2   0   9     0      0    0.03
 -----------------------------------------------------------------------------

 Structure accepted: No low occupancy Lewis orbitals

 --------------------------------------------------------
   Core                     21.99963 ( 99.998% of  22)
   Valence Lewis            21.52524 ( 97.842% of  22)
  ==================       ============================
   Total Lewis              43.52487 ( 98.920% of  44)
  -----------------------------------------------------
   Valence non-Lewis         0.09630 (  0.219% of  44)
   Rydberg non-Lewis         0.37883 (  0.861% of  44)
  ==================       ============================
   Total non-Lewis           0.47513 (  1.080% of  44)
 --------------------------------------------------------


       (Occupancy)   Bond orbital/ Coefficients/ Hybrids
 ---------------------------------------------------------------------------------
     1. (1.94035) BD ( 1) O   1 -Cl   3  
                ( 59.11%)   0.7688* O   1 s(  9.93%)p 9.01( 89.48%)d 0.06(  0.57%)
                                                  f 0.00(  0.02%)
                                            0.0003  0.3120 -0.0426 -0.0115 -0.0021
                                           -0.2350  0.0227  0.0053  0.0020  0.9152
                                           -0.0161 -0.0076 -0.0089  0.0233  0.0225
                                            0.0041 -0.0008 -0.0186 -0.0025 -0.0023
                                            0.0077  0.0007 -0.0011  0.0260  0.0035
                                           -0.0005 -0.0598 -0.0044  0.0004 -0.0317
                                           -0.0024 -0.0006 -0.0003  0.0006  0.0011
                                            0.0008 -0.0053 -0.0004 -0.0038  0.0020
                                            0.0055 -0.0009  0.0064  0.0006 -0.0081
                                            0.0012
                ( 40.89%)   0.6395*Cl   3 s(  8.51%)p10.60( 90.20%)d 0.14(  1.18%)
                                                  f 0.01(  0.11%)
                                           -0.0000  0.0005  0.2848 -0.0620 -0.0100
                                           -0.0028  0.0001  0.2239 -0.0143 -0.0038
                                            0.0009 -0.0004 -0.9203  0.0667  0.0126
                                           -0.0029  0.0000  0.0035 -0.0006 -0.0026
                                            0.0014 -0.0449  0.0060  0.0002  0.0084
                                            0.0007 -0.0009 -0.0130 -0.0018 -0.0010
                                           -0.0819  0.0096  0.0005 -0.0521  0.0061
                                           -0.0005 -0.0008  0.0002 -0.0043  0.0004
                                            0.0188 -0.0019  0.0001 -0.0006 -0.0021
                                            0.0014 -0.0177  0.0028  0.0200 -0.0025
     2. (1.96382) BD ( 1) O   1 - H   4  
                ( 76.84%)   0.8766* O   1 s( 23.27%)p 3.27( 76.17%)d 0.02(  0.55%)
                                                  f 0.00(  0.01%)
                                            0.0002  0.4823 -0.0028 -0.0064  0.0021
                                            0.5419 -0.0136 -0.0057 -0.0003 -0.0406
                                            0.0146  0.0012  0.0015  0.6825 -0.0087
                                           -0.0069 -0.0036  0.0158  0.0033  0.0010
                                            0.0569  0.0024 -0.0007  0.0223  0.0040
                                            0.0003  0.0143  0.0007  0.0018  0.0355
                                            0.0041  0.0022 -0.0043  0.0011  0.0086
                                            0.0010  0.0020 -0.0010  0.0016  0.0026
                                           -0.0006 -0.0007 -0.0032  0.0019 -0.0017
                                            0.0002
                ( 23.16%)   0.4813* H   4 s( 99.80%)p 0.00(  0.20%)d 0.00(  0.00%)
                                            0.9989  0.0133  0.0007 -0.0003 -0.0049
                                           -0.0198 -0.0040  0.0091  0.0021 -0.0043
                                            0.0294 -0.0231 -0.0063  0.0009  0.0005
                                            0.0026 -0.0006  0.0018  0.0019 -0.0010
                                           -0.0023  0.0000 -0.0015
     3. (1.99971) CR ( 1) O   1           s(100.00%)p 0.00(  0.00%)
                                            1.0000 -0.0004  0.0000  0.0000  0.0000
                                           -0.0000 -0.0000  0.0000  0.0000 -0.0002
                                            0.0000  0.0000  0.0000 -0.0001 -0.0000
                                            0.0000  0.0000  0.0000 -0.0000 -0.0000
                                           -0.0000 -0.0000  0.0000 -0.0000 -0.0000
                                           -0.0000  0.0000  0.0000 -0.0000  0.0000
                                           -0.0000 -0.0000  0.0000 -0.0000 -0.0000
                                           -0.0000  0.0000 -0.0000 -0.0000 -0.0000
                                           -0.0000  0.0000 -0.0000 -0.0000  0.0000
                                           -0.0000
     4. (2.00001) CR ( 1)Cl   2           s(100.00%)
                                            1.0000  0.0000  0.0000 -0.0000 -0.0000
                                           -0.0000  0.0000  0.0000  0.0000 -0.0000
                                           -0.0000  0.0000  0.0000  0.0000 -0.0000
                                            0.0000 -0.0000 -0.0000 -0.0000  0.0000
                                            0.0000 -0.0000  0.0000  0.0000  0.0000
                                            0.0000  0.0000  0.0000  0.0000  0.0000
                                           -0.0000 -0.0000  0.0000  0.0000  0.0000
                                           -0.0000  0.0000  0.0000  0.0000  0.0000
                                            0.0000  0.0000 -0.0000 -0.0000 -0.0000
                                            0.0000  0.0000  0.0000 -0.0000 -0.0000
     5. (2.00000) CR ( 2)Cl   2           s(100.00%)
                                            0.0000  1.0000  0.0000  0.0000  0.0000
                                           -0.0000 -0.0000 -0.0000 -0.0000  0.0000
                                            0.0000 -0.0000  0.0000 -0.0000  0.0000
                                           -0.0000  0.0000  0.0000  0.0000 -0.0000
                                           -0.0000 -0.0000 -0.0000 -0.0000 -0.0000
                                           -0.0000 -0.0000  0.0000  0.0000  0.0000
                                            0.0000  0.0000 -0.0000  0.0000  0.0000
                                            0.0000 -0.0000 -0.0000 -0.0000 -0.0000
                                           -0.0000 -0.0000  0.0000  0.0000 -0.0000
                                           -0.0000 -0.0000 -0.0000  0.0000  0.0000
     6. (2.00002) CR ( 3)Cl   2           s(  0.00%)p 1.00(100.00%)
                                            0.0000 -0.0000  0.0000  0.0000  0.0000
                                           -0.0000  1.0000 -0.0000 -0.0000  0.0000
                                            0.0000 -0.0000 -0.0000 -0.0000  0.0000
                                           -0.0000  0.0000  0.0000  0.0000 -0.0000
                                           -0.0000  0.0000 -0.0000 -0.0000 -0.0000
                                           -0.0000 -0.0000 -0.0000 -0.0000  0.0000
                                            0.0000  0.0000  0.0000  0.0000  0.0000
                                            0.0000 -0.0000 -0.0000 -0.0000 -0.0000
                                           -0.0000 -0.0000  0.0000  0.0000  0.0000
                                           -0.0000 -0.0000 -0.0000  0.0000  0.0000
     7. (2.00003) CR ( 4)Cl   2           s(  0.00%)p 1.00(100.00%)
                                            0.0000 -0.0000  0.0000  0.0000 -0.0000
                                            0.0000 -0.0000 -0.0000 -0.0000  0.0000
                                           -0.0000  1.0000  0.0000 -0.0000  0.0000
                                           -0.0000  0.0000  0.0000  0.0000 -0.0000
                                           -0.0000 -0.0000 -0.0000 -0.0000 -0.0000
                                           -0.0000 -0.0000  0.0000  0.0000  0.0000
                                            0.0000  0.0000  0.0000 -0.0000 -0.0000
                                            0.0000 -0.0000 -0.0000  0.0000  0.0000
                                           -0.0000 -0.0000  0.0000  0.0000 -0.0000
                                           -0.0000 -0.0000 -0.0000  0.0000  0.0000
     8. (2.00002) CR ( 5)Cl   2           s(  0.00%)p 1.00(100.00%)
                                           -0.0000  0.0000 -0.0000 -0.0000  0.0000
                                           -0.0000  0.0000  0.0000 -0.0000 -0.0000
                                           -0.0000  0.0000  0.0000 -0.0000 -0.0000
                                            0.0000  1.0000  0.0000 -0.0000  0.0000
                                            0.0000  0.0000  0.0000  0.0000  0.0000
                                            0.0000  0.0000  0.0000  0.0000  0.0000
                                           -0.0000 -0.0000  0.0000  0.0000  0.0000
                                            0.0000  0.0000  0.0000 -0.0000 -0.0000
                                            0.0000  0.0000 -0.0000 -0.0000 -0.0000
                                           -0.0000  0.0000  0.0000 -0.0000 -0.0000
     9. (2.00000) CR ( 1)Cl   3           s(100.00%)
                                            1.0000  0.0000  0.0000 -0.0000 -0.0000
                                           -0.0000  0.0000  0.0000 -0.0000 -0.0000
                                            0.0000 -0.0000 -0.0000  0.0000  0.0000
                                           -0.0000  0.0000  0.0000 -0.0000 -0.0000
                                            0.0000 -0.0000  0.0000  0.0000  0.0000
                                            0.0000 -0.0000 -0.0000 -0.0000 -0.0000
                                           -0.0000  0.0000  0.0000 -0.0000  0.0000
                                           -0.0000 -0.0000  0.0000 -0.0000  0.0000
                                            0.0000 -0.0000 -0.0000 -0.0000 -0.0000
                                            0.0000 -0.0000  0.0000  0.0000 -0.0000
    10. (1.99981) CR ( 2)Cl   3           s(100.00%)p 0.00(  0.00%)
                                            0.0000  1.0000 -0.0004  0.0000  0.0000
                                            0.0000 -0.0000 -0.0001  0.0000  0.0000
                                           -0.0000  0.0000  0.0004 -0.0000 -0.0000
                                            0.0000 -0.0000 -0.0000  0.0000  0.0000
                                           -0.0000  0.0000 -0.0000 -0.0000 -0.0000
                                           -0.0000  0.0000  0.0000  0.0000  0.0000
                                            0.0000 -0.0000 -0.0000  0.0000 -0.0000
                                            0.0000  0.0000 -0.0000  0.0000 -0.0000
                                           -0.0000  0.0000 -0.0000  0.0000  0.0000
                                           -0.0000  0.0000 -0.0000 -0.0000  0.0000
    11. (2.00003) CR ( 3)Cl   3           s(  0.00%)p 1.00(100.00%)
                                            0.0000 -0.0000 -0.0000  0.0000  0.0000
                                            0.0000  1.0000  0.0001  0.0000  0.0000
                                           -0.0000  0.0000  0.0001 -0.0000 -0.0000
                                            0.0000 -0.0000  0.0000  0.0000  0.0000
                                           -0.0000  0.0000  0.0000  0.0000 -0.0000
                                            0.0000  0.0000  0.0000 -0.0000  0.0000
                                            0.0000 -0.0000 -0.0000  0.0000  0.0000
                                            0.0000 -0.0000  0.0000  0.0000 -0.0000
                                           -0.0000  0.0000  0.0000 -0.0000  0.0000
                                           -0.0000  0.0000 -0.0000 -0.0000  0.0000
    12. (1.99997) CR ( 4)Cl   3           s(  0.00%)p 1.00(100.00%)
                                           -0.0000  0.0000  0.0001 -0.0000 -0.0000
                                           -0.0000  0.0000  0.0001 -0.0000 -0.0000
                                            0.0000  1.0000 -0.0003  0.0000  0.0000
                                           -0.0000  0.0000  0.0000 -0.0000 -0.0000
                                            0.0000 -0.0000  0.0000  0.0000  0.0000
                                            0.0000 -0.0000 -0.0000 -0.0000 -0.0000
                                           -0.0000  0.0000 -0.0000 -0.0000  0.0000
                                           -0.0000 -0.0000  0.0000 -0.0000  0.0000
                                            0.0000 -0.0000  0.0000 -0.0000 -0.0000
                                            0.0000 -0.0000  0.0000  0.0000 -0.0000
    13. (2.00003) CR ( 5)Cl   3           s(  0.00%)p 1.00(100.00%)
                                            0.0000 -0.0000 -0.0000  0.0000  0.0000
                                           -0.0000 -0.0000  0.0000  0.0000 -0.0000
                                            0.0000  0.0000  0.0000 -0.0000  0.0000
                                           -0.0000  1.0000  0.0002  0.0000  0.0000
                                           -0.0000 -0.0000 -0.0000 -0.0000 -0.0000
                                           -0.0000 -0.0000 -0.0000  0.0000  0.0000
                                            0.0000 -0.0000 -0.0000  0.0000  0.0000
                                           -0.0000 -0.0000 -0.0000  0.0000 -0.0000
                                           -0.0000  0.0000 -0.0000  0.0000 -0.0000
                                            0.0000  0.0000  0.0000 -0.0000 -0.0000
    14. (1.96914) LP ( 1) O   1           s( 66.91%)p 0.49( 32.99%)d 0.00(  0.09%)
                                                  f 0.00(  0.00%)
                                            0.0002  0.8179  0.0106  0.0056 -0.0006
                                           -0.2380 -0.0058 -0.0030 -0.0028 -0.3284
                                           -0.0037 -0.0051 -0.0022 -0.4065 -0.0056
                                           -0.0044 -0.0016 -0.0129 -0.0003  0.0035
                                           -0.0073  0.0008  0.0013 -0.0241 -0.0027
                                            0.0017  0.0036  0.0004  0.0011 -0.0087
                                           -0.0007  0.0012  0.0022 -0.0004 -0.0009
                                           -0.0004 -0.0027  0.0014  0.0031 -0.0013
                                           -0.0015  0.0006  0.0032 -0.0014  0.0004
                                            0.0004
    15. (1.95311) LP ( 2) O   1           s(  0.04%)p99.99( 99.70%)d 6.04(  0.24%)
                                                  f 0.40(  0.02%)
                                           -0.0000 -0.0076  0.0171  0.0067 -0.0015
                                           -0.7676 -0.0140 -0.0044 -0.0028 -0.2087
                                           -0.0067 -0.0017 -0.0027  0.6031  0.0144
                                            0.0048  0.0041 -0.0278 -0.0018  0.0039
                                           -0.0216 -0.0037 -0.0017  0.0156  0.0025
                                           -0.0007  0.0050  0.0053  0.0055  0.0275
                                           -0.0011 -0.0064  0.0016  0.0004  0.0041
                                           -0.0003  0.0005 -0.0006 -0.0079  0.0006
                                           -0.0036  0.0002  0.0058 -0.0023  0.0050
                                           -0.0005
    16. (1.98034) LP ( 1)Cl   2           s( 99.14%)p 0.01(  0.86%)d 0.00(  0.00%)
                                                  f 0.00(  0.00%)
                                           -0.0000  0.0000  0.9957 -0.0001 -0.0000
                                           -0.0001 -0.0000  0.0853 -0.0012  0.0003
                                            0.0003 -0.0000  0.0001  0.0000  0.0000
                                            0.0000  0.0000 -0.0367  0.0009 -0.0001
                                           -0.0003 -0.0001 -0.0001 -0.0001 -0.0016
                                           -0.0007 -0.0000 -0.0000 -0.0000 -0.0000
                                            0.0014  0.0007  0.0000 -0.0006 -0.0003
                                           -0.0000 -0.0004 -0.0003  0.0001  0.0001
                                           -0.0000 -0.0000  0.0005  0.0005  0.0000
                                            0.0000 -0.0004 -0.0003  0.0001  0.0001
    17. (1.95201) LP ( 2)Cl   2           s(  0.00%)p 1.00( 99.99%)d 0.00(  0.01%)
                                                  f 0.00(  0.00%)
                                           -0.0000 -0.0000  0.0032  0.0003 -0.0007
                                            0.0008  0.0000 -0.1093  0.0001 -0.0001
                                           -0.0001 -0.0000  0.9804 -0.0002  0.0006
                                           -0.0001  0.0000 -0.1637  0.0003 -0.0000
                                           -0.0002 -0.0064 -0.0024 -0.0006  0.0001
                                           -0.0004 -0.0004  0.0041  0.0023  0.0013
                                            0.0010  0.0005  0.0003 -0.0010 -0.0004
                                           -0.0002 -0.0001 -0.0002  0.0003  0.0002
                                           -0.0000 -0.0000  0.0002  0.0002 -0.0015
                                           -0.0011 -0.0001  0.0000  0.0014  0.0011
    18. (1.95101) LP ( 3)Cl   2           s(  0.00%)p 1.00( 99.99%)d 0.00(  0.00%)
                                                  f 0.00(  0.00%)
                                           -0.0000  0.0000  0.0052  0.0002 -0.0022
                                            0.0021  0.0000 -0.4385  0.0018 -0.0002
                                           -0.0001  0.0000 -0.1954  0.0003  0.0000
                                           -0.0000  0.0000 -0.8772  0.0015 -0.0003
                                           -0.0005  0.0010  0.0002 -0.0001  0.0021
                                           -0.0004 -0.0009 -0.0009 -0.0005 -0.0003
                                            0.0008  0.0002 -0.0005 -0.0047 -0.0025
                                           -0.0012 -0.0004 -0.0004  0.0018  0.0012
                                            0.0000  0.0000  0.0000  0.0003  0.0004
                                            0.0004 -0.0003 -0.0002 -0.0002 -0.0001
    19. (1.92954) LP ( 4)Cl   2           s(  0.86%)p99.99( 99.11%)d 0.03(  0.03%)
                                                  f 0.00(  0.00%)
                                            0.0000 -0.0000  0.0926  0.0013  0.0002
                                            0.0006 -0.0001 -0.8878 -0.0009  0.0009
                                            0.0000 -0.0000 -0.0242 -0.0001  0.0002
                                           -0.0003  0.0000  0.4497  0.0040 -0.0004
                                           -0.0009 -0.0000 -0.0005 -0.0004 -0.0137
                                           -0.0044 -0.0016 -0.0002 -0.0000  0.0000
                                            0.0077  0.0018 -0.0001 -0.0011 -0.0002
                                            0.0002 -0.0018 -0.0013 -0.0002  0.0001
                                           -0.0001 -0.0001  0.0027  0.0018  0.0000
                                           -0.0001 -0.0014 -0.0009  0.0001  0.0002
    20. (1.97468) LP ( 1)Cl   3           s( 91.76%)p 0.09(  8.21%)d 0.00(  0.02%)
                                                  f 0.00(  0.00%)
                                            0.0000  0.0003  0.9579  0.0075  0.0012
                                            0.0003 -0.0000 -0.0638 -0.0008  0.0002
                                            0.0001  0.0000  0.2782 -0.0065 -0.0027
                                            0.0010  0.0000  0.0246  0.0009  0.0001
                                            0.0002  0.0048 -0.0002  0.0002  0.0008
                                            0.0001 -0.0003  0.0006  0.0006  0.0006
                                            0.0107 -0.0005  0.0001  0.0088  0.0009
                                            0.0002 -0.0003  0.0001  0.0008 -0.0001
                                           -0.0024 -0.0002 -0.0000 -0.0001 -0.0006
                                            0.0003  0.0017  0.0004 -0.0026 -0.0001
    21. (1.95619) LP ( 2)Cl   3           s(  0.03%)p99.99( 99.91%)d 2.08(  0.06%)
                                                  f 0.34(  0.01%)
                                            0.0000  0.0000  0.0127 -0.0096 -0.0043
                                            0.0020 -0.0001  0.7471  0.0100  0.0031
                                           -0.0007 -0.0000  0.1845  0.0027 -0.0002
                                            0.0012  0.0001 -0.6376 -0.0100 -0.0029
                                            0.0012  0.0031  0.0111  0.0051  0.0068
                                            0.0077  0.0026 -0.0027 -0.0101 -0.0053
                                           -0.0067 -0.0096 -0.0050  0.0006  0.0018
                                            0.0003  0.0021  0.0006 -0.0015 -0.0001
                                            0.0001 -0.0003  0.0052 -0.0017  0.0019
                                           -0.0002 -0.0048  0.0010 -0.0051  0.0013
    22. (1.95505) LP ( 3)Cl   3           s(  0.05%)p99.99( 99.90%)d 0.88(  0.04%)
                                                  f 0.19(  0.01%)
                                            0.0000  0.0000  0.0213  0.0034  0.0029
                                           -0.0012  0.0001 -0.6204 -0.0081 -0.0008
                                            0.0003  0.0000 -0.1480 -0.0021 -0.0007
                                           -0.0006  0.0001 -0.7694 -0.0123 -0.0018
                                            0.0004  0.0046 -0.0066 -0.0035  0.0013
                                            0.0058  0.0030  0.0031 -0.0101 -0.0059
                                            0.0059  0.0084  0.0044 -0.0036 -0.0033
                                            0.0000  0.0040 -0.0002 -0.0003  0.0010
                                            0.0012 -0.0000  0.0046 -0.0006  0.0032
                                           -0.0006  0.0043 -0.0009  0.0044 -0.0006
    23. (0.01951) RY*( 1) O   1           s(  0.28%)p99.99( 97.79%)d 6.57(  1.87%)
                                                  f 0.19(  0.06%)
                                           -0.0000 -0.0011  0.0531  0.0054  0.0007
                                            0.0206 -0.7632  0.0312  0.0078  0.0099
                                           -0.2100  0.0069 -0.0050 -0.0170  0.5907
                                           -0.0215 -0.0003 -0.0812 -0.0183 -0.0016
                                           -0.0560 -0.0134 -0.0062  0.0420  0.0153
                                            0.0048  0.0053  0.0093  0.0066  0.0787
                                            0.0038 -0.0069 -0.0022  0.0017  0.0041
                                           -0.0050  0.0030 -0.0016 -0.0087  0.0074
                                           -0.0049  0.0031  0.0128 -0.0092  0.0063
                                           -0.0061
    24. (0.01496) RY*( 2) O   1           s( 28.99%)p 2.31( 67.10%)d 0.12(  3.59%)
                                                  f 0.01(  0.31%)
                                           -0.0000  0.0007  0.5333 -0.0743 -0.0010
                                            0.0025 -0.2936  0.0084  0.0176  0.0441
                                           -0.4777 -0.0019  0.0369  0.0073 -0.5936
                                            0.0103  0.0215 -0.0659 -0.0134 -0.0057
                                           -0.0189 -0.0025  0.0073 -0.1626 -0.0268
                                           -0.0088  0.0568  0.0004 -0.0031 -0.0213
                                           -0.0027  0.0002  0.0160 -0.0105  0.0218
                                           -0.0089 -0.0223  0.0106  0.0259 -0.0115
                                           -0.0066  0.0046  0.0227 -0.0112 -0.0090
                                            0.0026
    25. (0.00767) RY*( 3) O   1           s( 13.08%)p 0.44(  5.70%)d 6.08( 79.53%)
                                                  f 0.13(  1.69%)
                                            0.0000  0.0131  0.3585 -0.0453  0.0069
                                            0.0075  0.1527 -0.0065  0.0497 -0.0159
                                           -0.1154  0.0019  0.0311 -0.0049  0.1265
                                           -0.0113  0.0213  0.5596 -0.0136 -0.0047
                                           -0.3372  0.0029 -0.0147  0.4277  0.0052
                                            0.0033 -0.4113 -0.0051 -0.0190  0.1240
                                           -0.0047 -0.0003 -0.0093  0.0004 -0.0261
                                            0.0041  0.0199 -0.0051 -0.0792  0.0325
                                            0.0215 -0.0089 -0.0689  0.0238 -0.0447
                                            0.0222
    26. (0.00711) RY*( 4) O   1           s(  1.67%)p 0.34(  0.57%)d57.55( 96.01%)
                                                  f 1.05(  1.75%)
                                           -0.0000  0.0079  0.1286 -0.0087 -0.0037
                                            0.0173  0.0674  0.0118 -0.0039  0.0005
                                           -0.0108  0.0076  0.0115 -0.0086 -0.0013
                                           -0.0085  0.0163 -0.3217  0.0265  0.0008
                                           -0.1884  0.0118 -0.0022  0.6918 -0.0346
                                           -0.0007  0.4696 -0.0267  0.0069 -0.3445
                                            0.0203 -0.0100 -0.0798  0.0325 -0.0120
                                            0.0053  0.0240 -0.0092 -0.0460  0.0174
                                           -0.0169  0.0082  0.0534 -0.0265  0.0505
                                           -0.0186
    27. (0.00628) RY*( 5) O   1           s(  0.05%)p60.17(  3.13%)d99.99( 95.31%)
                                                  f29.11(  1.51%)
                                            0.0000 -0.0005  0.0172 -0.0149 -0.0013
                                            0.0379  0.1615 -0.0129  0.0032 -0.0025
                                           -0.0511 -0.0014  0.0197 -0.0185 -0.0127
                                           -0.0000  0.0063 -0.6350  0.0478 -0.0078
                                           -0.2709  0.0185 -0.0054  0.0970 -0.0199
                                           -0.0079 -0.2628  0.0118 -0.0145  0.6257
                                           -0.0524  0.0143  0.0503 -0.0244  0.0256
                                           -0.0124  0.0296 -0.0134 -0.0466  0.0229
                                           -0.0558  0.0249  0.0515 -0.0192 -0.0244
                                            0.0093
    28. (0.00620) RY*( 6) O   1           s(  2.00%)p15.51( 31.08%)d32.61( 65.36%)
                                                  f 0.78(  1.56%)
                                           -0.0000  0.0135  0.1388 -0.0120 -0.0213
                                            0.0441  0.3390 -0.0103 -0.0180 -0.0040
                                           -0.2583 -0.0048  0.0281  0.0524  0.3498
                                           -0.0262 -0.0121 -0.1320  0.0016 -0.0032
                                           -0.5136  0.0360 -0.0188 -0.4801  0.0313
                                           -0.0106  0.0508  0.0017  0.0170 -0.3682
                                            0.0257 -0.0069  0.0184 -0.0106 -0.0634
                                            0.0333 -0.0689  0.0268  0.0155 -0.0042
                                           -0.0526  0.0219  0.0254 -0.0106 -0.0154
                                            0.0037
    29. (0.00572) RY*( 7) O   1           s(  0.90%)p15.65( 14.09%)d91.91( 82.73%)
                                                  f 2.53(  2.28%)
                                           -0.0000  0.0185  0.0910 -0.0157  0.0112
                                           -0.0110 -0.1029  0.0062  0.0113  0.0736
                                            0.3420 -0.0044 -0.0492 -0.0092 -0.0713
                                            0.0016  0.0054  0.2765 -0.0196  0.0014
                                           -0.4268  0.0660 -0.0009 -0.1763  0.0340
                                            0.0126  0.5887 -0.0613 -0.0117  0.4239
                                           -0.0372 -0.0082  0.0408 -0.0192 -0.0180
                                            0.0055  0.0751 -0.0278  0.0308 -0.0110
                                           -0.0198  0.0070 -0.0511  0.0181  0.0914
                                           -0.0345
    30. (0.00278) RY*( 8) O   1           s(  5.69%)p 7.30( 41.55%)d 9.09( 51.78%)
                                                  f 0.17(  0.98%)
                                            0.0000 -0.0042  0.2370 -0.0249  0.0110
                                           -0.0202  0.3778 -0.0164  0.0582  0.0178
                                           -0.3777  0.0219  0.0366 -0.0270  0.3393
                                           -0.0599  0.0665  0.0830  0.0165  0.0245
                                            0.4883 -0.1399  0.0325 -0.0021  0.0038
                                            0.0019  0.3708 -0.0133  0.0794  0.3229
                                           -0.0330  0.0400  0.0278 -0.0105  0.0463
                                           -0.0428  0.0402 -0.0202  0.0125 -0.0150
                                            0.0310 -0.0074 -0.0138  0.0044  0.0338
                                           -0.0125
    31. (0.00240) RY*( 9) O   1           s( 42.24%)p 1.00( 42.28%)d 0.35( 14.65%)
                                                  f 0.02(  0.83%)
                                           -0.0000 -0.0030  0.6369 -0.1290 -0.0119
                                           -0.0032 -0.0105 -0.0025  0.1322  0.0208
                                            0.6087 -0.0217  0.0552 -0.0034  0.1577
                                           -0.0532  0.0553 -0.1961  0.0516 -0.0301
                                            0.1968 -0.1292 -0.0073 -0.1160  0.0296
                                            0.0004 -0.1257  0.0079 -0.0394 -0.1194
                                            0.0535 -0.0093  0.0315 -0.0202  0.0412
                                           -0.0406 -0.0265  0.0315 -0.0015 -0.0010
                                            0.0031  0.0008  0.0179 -0.0268 -0.0116
                                            0.0259
    32. (0.00078) RY*(10) O   1           s( 60.07%)p 0.40( 23.96%)d 0.18( 10.61%)
                                                  f 0.09(  5.37%)
                                           -0.0000 -0.0012  0.0593  0.7727  0.0111
                                            0.0058 -0.0114 -0.0262  0.2142  0.0138
                                           -0.0031 -0.1564 -0.1684  0.0014 -0.0488
                                           -0.3638  0.0711 -0.0139  0.0752  0.0770
                                           -0.0232 -0.0261 -0.1267 -0.0076  0.0488
                                            0.0073 -0.0115 -0.0062  0.0979 -0.0129
                                            0.2489  0.0521  0.1307 -0.0665  0.0824
                                           -0.0236  0.0594 -0.0118 -0.1300  0.0304
                                            0.0197 -0.0098 -0.0521 -0.0080 -0.0018
                                           -0.0080
    33. (0.00072) RY*(11) O   1           s(  4.59%)p 4.78( 21.96%)d14.61( 67.08%)
                                                  f 1.39(  6.36%)
                                           -0.0000  0.0017  0.0820  0.1976 -0.0123
                                            0.0052 -0.0010  0.2672 -0.3139  0.0088
                                            0.0491  0.0624 -0.0745  0.0012  0.0112
                                           -0.0361  0.1906  0.0354  0.3356  0.1019
                                            0.0024  0.0736  0.0072  0.0059 -0.1110
                                           -0.0100 -0.0012  0.4837  0.0989 -0.0180
                                           -0.5325 -0.0320  0.0402 -0.0141  0.0224
                                            0.0047 -0.2184  0.0436  0.0198 -0.0132
                                            0.0154 -0.0002  0.0143 -0.0049  0.1020
                                           -0.0166
    34. (0.00064) RY*(12) O   1           s(  0.48%)p99.99( 68.76%)d33.10( 15.96%)
                                                  f30.68( 14.79%)
                                            0.0000 -0.0023  0.0242  0.0635  0.0139
                                            0.0032 -0.0243 -0.7076  0.1922  0.0010
                                           -0.0153 -0.2151 -0.0862 -0.0016  0.0262
                                            0.3046 -0.0442 -0.0338  0.2258 -0.0119
                                            0.0117  0.1566  0.0042  0.0100  0.0195
                                            0.0105  0.0160 -0.0351 -0.0040 -0.0287
                                           -0.2817 -0.0197  0.0550  0.0109 -0.0038
                                           -0.0176 -0.1753  0.0173 -0.0072  0.0196
                                            0.2349 -0.0242 -0.2334 -0.0142  0.0375
                                           -0.0339
    35. (0.00057) RY*(13) O   1           s(  3.34%)p 5.62( 18.78%)d12.61( 42.13%)
                                                  f10.70( 35.75%)
                                           -0.0000  0.0044 -0.0115  0.1637  0.0803
                                            0.0055 -0.0107 -0.1468  0.0516  0.0098
                                            0.0122  0.0106  0.0621  0.0001 -0.0049
                                            0.3904 -0.0821  0.0391 -0.0527  0.0587
                                           -0.0611 -0.4955 -0.0350  0.0459 -0.2280
                                            0.0585  0.0160  0.2849  0.0620  0.0044
                                            0.1413  0.0144  0.1810  0.0059 -0.0105
                                           -0.0041 -0.0416 -0.0004  0.3158 -0.0011
                                           -0.4701  0.0312 -0.0123 -0.0084 -0.0293
                                           -0.0070
    36. (0.00052) RY*(14) O   1           s(  0.39%)p18.60(  7.23%)d99.99( 48.33%)
                                                  f99.99( 44.05%)
                                           -0.0000  0.0007  0.0303  0.0465 -0.0284
                                            0.0098  0.0153 -0.1208 -0.0086 -0.0003
                                            0.0208 -0.0776 -0.0057 -0.0034  0.0055
                                            0.2211  0.0433  0.0076 -0.4526  0.0658
                                           -0.0004  0.0540 -0.0218 -0.0002  0.2619
                                           -0.0329  0.0359  0.4430  0.0328 -0.0152
                                           -0.0467 -0.0007  0.2090  0.0060  0.0204
                                            0.0089  0.2500  0.0051 -0.2101 -0.0003
                                            0.2670 -0.0033  0.4492  0.0071 -0.1283
                                           -0.0075
    37. (0.00051) RY*(15) O   1           s(  0.17%)p39.56(  6.83%)d99.99( 23.60%)
                                                  f99.99( 69.41%)
                                            0.0000 -0.0014  0.0311  0.0222 -0.0162
                                           -0.0037 -0.0126  0.0440 -0.1249 -0.0011
                                            0.0099 -0.1962 -0.0329  0.0042  0.0229
                                            0.0933  0.0404  0.0277  0.4092 -0.0237
                                            0.0193  0.0759  0.0151 -0.0148 -0.1919
                                            0.0180  0.0284 -0.1366  0.0618 -0.0125
                                            0.0006  0.0002  0.0469  0.0045 -0.2429
                                           -0.0022  0.4532  0.0017  0.1785 -0.0007
                                            0.0656  0.0013  0.1775 -0.0133 -0.5990
                                           -0.0282
    38. (0.00050) RY*(16) O   1           s(  0.19%)p99.99( 28.21%)d99.99( 23.48%)
                                                  f99.99( 48.11%)
                                           -0.0000  0.0040  0.0250  0.0336 -0.0126
                                            0.0018  0.0187  0.1905  0.0174 -0.0016
                                            0.0007  0.4011 -0.0369  0.0031  0.0299
                                            0.2799 -0.0609 -0.0184  0.0854  0.0019
                                           -0.0060  0.1565 -0.0577  0.0145 -0.3062
                                            0.0735 -0.0026 -0.1041  0.0527 -0.0045
                                            0.2855 -0.0693  0.5053  0.0383  0.0796
                                            0.0057 -0.1062 -0.0135  0.0389  0.0229
                                            0.4379  0.0196 -0.0333 -0.0040  0.1057
                                            0.0079
    39. (0.00048) RY*(17) O   1           s(  0.64%)p77.48( 49.74%)d 8.94(  5.74%)
                                                  f68.35( 43.88%)
                                           -0.0000  0.0020  0.0280  0.0552  0.0508
                                           -0.0018 -0.0096 -0.3542  0.0324  0.0069
                                           -0.0045  0.5621 -0.1316  0.0016 -0.0001
                                           -0.1789  0.0738  0.0149  0.0927  0.0330
                                            0.0243  0.0747  0.0066 -0.0246 -0.0698
                                           -0.0089 -0.0786 -0.0129 -0.1305 -0.0432
                                           -0.1020 -0.0101 -0.0480 -0.0022 -0.2166
                                           -0.0333  0.4126  0.0401  0.1170 -0.0010
                                           -0.1419 -0.0126  0.2532  0.0279  0.3401
                                            0.0452
    40. (0.00047) RY*(18) O   1           s(  3.60%)p10.38( 37.35%)d 8.87( 31.93%)
                                                  f 7.54( 27.12%)
                                           -0.0000  0.0039  0.0698  0.1646  0.0633
                                            0.0028  0.0174  0.1988 -0.0539 -0.0003
                                           -0.0182  0.2229 -0.1344 -0.0045  0.0115
                                            0.4978 -0.1213 -0.0184  0.2330 -0.0059
                                            0.0277  0.0002 -0.0108 -0.0307  0.4833
                                           -0.0897 -0.0180 -0.1358  0.0127 -0.0321
                                           -0.0196 -0.0288 -0.1517 -0.0164  0.2749
                                            0.0397  0.2574  0.0418 -0.2109 -0.0199
                                           -0.1759 -0.0188 -0.1596 -0.0297  0.0144
[...]
                                            0.0259 -0.0052  0.0232
   151. (0.00043) RY*( 6) H   4           s(  2.42%)p34.68( 84.08%)d 5.57( 13.49%)
                                           -0.0008  0.1258  0.0050 -0.0916  0.0885
                                            0.6778 -0.3475 -0.0105 -0.3631 -0.0738
                                            0.1617 -0.2859 -0.0867  0.2452  0.0234
                                            0.1615  0.0369 -0.0151  0.0356  0.0856
                                            0.0734 -0.1422  0.1112
   152. (0.00033) RY*( 7) H   4           s(  0.83%)p91.38( 75.74%)d28.27( 23.43%)
                                            0.0084  0.0361  0.0259  0.0790 -0.0531
                                            0.1231 -0.4857  0.0424  0.6450 -0.0296
                                           -0.1457  0.2343 -0.0935  0.1447 -0.1221
                                           -0.1376  0.1674 -0.1091 -0.1316  0.2564
                                            0.1636 -0.1716 -0.0172
   153. (0.00026) RY*( 8) H   4           s( 22.59%)p 0.79( 17.90%)d 2.63( 59.51%)
                                            0.0052 -0.0306  0.4502 -0.1491 -0.0167
                                            0.3224  0.0483  0.0002  0.1684 -0.0250
                                            0.0213  0.0471 -0.2020 -0.5586 -0.0461
                                           -0.0625  0.0757  0.4286 -0.0938 -0.2414
                                           -0.0778 -0.0728  0.0960
   154. (0.00023) RY*( 9) H   4           s(  6.87%)p 2.48( 17.02%)d11.08( 76.11%)
                                           -0.0002  0.0652 -0.1663  0.1918 -0.0773
                                            0.0237 -0.1105  0.0825 -0.2038  0.0524
                                           -0.0223 -0.1253  0.2902 -0.3956  0.0735
                                           -0.4402 -0.0194  0.2507  0.1050  0.5713
                                            0.0131 -0.0557 -0.0399
   155. (0.00020) RY*(10) H   4           s( 13.07%)p 2.72( 35.53%)d 3.93( 51.39%)
                                            0.0148  0.0406 -0.0215  0.3583 -0.0654
                                            0.3883  0.2877 -0.0946  0.0387 -0.1512
                                           -0.0029  0.1966  0.2135  0.2885  0.0207
                                           -0.5447 -0.0462 -0.0301  0.0055 -0.3371
                                           -0.1263 -0.0297 -0.0072
   156. (0.00017) RY*(11) H   4           s( 20.16%)p 2.18( 43.92%)d 1.78( 35.92%)
                                           -0.0133 -0.0786  0.4142  0.1539 -0.1324
                                           -0.0949  0.2498 -0.0209  0.1807  0.0295
                                           -0.0074 -0.5299 -0.1883  0.1996  0.0121
                                           -0.1095 -0.0950 -0.1573 -0.0504  0.3053
                                           -0.2383 -0.0750  0.3395
   157. (0.00015) RY*(12) H   4           s( 15.43%)p 3.89( 59.99%)d 1.59( 24.58%)
                                           -0.0120 -0.0137  0.3499  0.1776  0.0312
                                           -0.2687 -0.3534 -0.0381 -0.0111 -0.3069
                                           -0.1004 -0.3880  0.3814  0.0410  0.0790
                                            0.0181  0.0653  0.0988  0.0485 -0.3169
                                            0.1051 -0.1374 -0.3013
   158. (0.00013) RY*(13) H   4           s( 38.18%)p 0.79( 30.07%)d 0.83( 31.75%)
                                           -0.0071 -0.0598 -0.4050  0.4628 -0.0199
                                           -0.1477 -0.0709 -0.0175 -0.0580 -0.3080
                                           -0.0456 -0.0944 -0.4048 -0.0547  0.0152
                                            0.1036  0.3807  0.2443  0.0056 -0.1256
                                           -0.1379 -0.0707  0.2431
   159. (0.00010) RY*(14) H   4           s(  0.69%)p25.97( 17.91%)d99.99( 81.40%)
                                            0.0066  0.0647 -0.0345  0.0385  0.0498
                                           -0.0803  0.0372 -0.0237 -0.1054  0.2822
                                           -0.1210  0.1510  0.2000  0.0942 -0.2168
                                            0.2017 -0.0675  0.1633 -0.1533 -0.0048
                                           -0.3554 -0.7319  0.0282
   160. (0.00009) RY*(15) H   4           s(  2.30%)p17.47( 40.15%)d25.03( 57.55%)
   161. (0.00006) RY*(16) H   4           s(  0.49%)p31.69( 15.43%)d99.99( 84.08%)
   162. (0.00006) RY*(17) H   4           s(  0.77%)p 9.57(  7.35%)d99.99( 91.88%)
   163. (0.00006) RY*(18) H   4           s(  1.23%)p 1.23(  1.52%)d78.95( 97.25%)
   164. (0.00003) RY*(19) H   4           s(  0.74%)p37.68( 27.93%)d96.24( 71.33%)
   165. (0.00003) RY*(20) H   4           s(  2.28%)p13.45( 30.73%)d29.32( 66.98%)
   166. (0.00004) RY*(21) H   4           s( 50.95%)p 0.22( 11.14%)d 0.74( 37.91%)
   167. (0.00004) RY*(22) H   4           s(  1.28%)p23.44( 30.06%)d53.54( 68.66%)
   168. (0.05777) BD*( 1) O   1 -Cl   3  
                ( 40.89%)   0.6395* O   1 s(  9.93%)p 9.01( 89.48%)d 0.06(  0.57%)
                                                  f 0.00(  0.02%)
                                           -0.0003 -0.3120  0.0426  0.0115  0.0021
                                            0.2350 -0.0227 -0.0053 -0.0020 -0.9152
                                            0.0161  0.0076  0.0089 -0.0233 -0.0225
                                           -0.0041  0.0008  0.0186  0.0025  0.0023
                                           -0.0077 -0.0007  0.0011 -0.0260 -0.0035
                                            0.0005  0.0598  0.0044 -0.0004  0.0317
                                            0.0024  0.0006  0.0003 -0.0006 -0.0011
                                           -0.0008  0.0053  0.0004  0.0038 -0.0020
                                           -0.0055  0.0009 -0.0064 -0.0006  0.0081
                                           -0.0012
                ( 59.11%)  -0.7688*Cl   3 s(  8.51%)p10.60( 90.20%)d 0.14(  1.18%)
                                                  f 0.01(  0.11%)
                                            0.0000 -0.0005 -0.2848  0.0620  0.0100
                                            0.0028 -0.0001 -0.2239  0.0143  0.0038
                                           -0.0009  0.0004  0.9203 -0.0667 -0.0126
                                            0.0029 -0.0000 -0.0035  0.0006  0.0026
                                           -0.0014  0.0449 -0.0060 -0.0002 -0.0084
                                           -0.0007  0.0009  0.0130  0.0018  0.0010
                                            0.0819 -0.0096 -0.0005  0.0521 -0.0061
                                            0.0005  0.0008 -0.0002  0.0043 -0.0004
                                           -0.0188  0.0019 -0.0001  0.0006  0.0021
                                           -0.0014  0.0177 -0.0028 -0.0200  0.0025
   169. (0.03852) BD*( 1) O   1 - H   4  
                ( 23.16%)   0.4813* O   1 s( 23.27%)p 3.27( 76.17%)d 0.02(  0.55%)
                                                  f 0.00(  0.01%)
                                           -0.0002 -0.4823  0.0028  0.0064 -0.0021
                                           -0.5419  0.0136  0.0057  0.0003  0.0406
                                           -0.0146 -0.0012 -0.0015 -0.6825  0.0087
                                            0.0069  0.0036 -0.0158 -0.0033 -0.0010
                                           -0.0569 -0.0024  0.0007 -0.0223 -0.0040
                                           -0.0003 -0.0143 -0.0007 -0.0018 -0.0355
                                           -0.0041 -0.0022  0.0043 -0.0011 -0.0086
                                           -0.0010 -0.0020  0.0010 -0.0016 -0.0026
                                            0.0006  0.0007  0.0032 -0.0019  0.0017
                                           -0.0002
                ( 76.84%)  -0.8766* H   4 s( 99.80%)p 0.00(  0.20%)d 0.00(  0.00%)
                                           -0.9989 -0.0133 -0.0007  0.0003  0.0049
                                            0.0198  0.0040 -0.0091 -0.0021  0.0043
                                           -0.0294  0.0231  0.0063 -0.0009 -0.0005
                                           -0.0026  0.0006 -0.0018 -0.0019  0.0010
                                            0.0023 -0.0000  0.0015


 NHO Directionality and "Bond Bending" (deviations from line of nuclear centers)

         [Thresholds for printing:  angular deviation  >  1.0 degree]
                                    hybrid p-character > 25.0%
                                    orbital occupancy  >  0.10e

                                Line of Centers        Hybrid 1              Hybrid 2
                                ---------------  -------------------   ------------------
                NBO               Theta   Phi    Theta   Phi    Dev    Theta   Phi    Dev
 ========================================================================================
     1. BD (   1) O   1 -Cl   3    90.0  103.5    86.9  103.1   3.1      --     --    --
     2. BD (   1) O   1 - H   4    40.0    0.0    38.2  357.5   2.4      --     --    --
    14. LP (   1) O   1             --     --    134.8  233.7   --       --     --    --
    15. LP (   2) O   1             --     --     52.6  195.6   --       --     --    --
    17. LP (   2)Cl   2             --     --     99.4   96.4   --       --     --    --
    18. LP (   3)Cl   2             --     --    151.4  204.1   --       --     --    --
    19. LP (   4)Cl   2             --     --     63.0  181.6   --       --     --    --
    21. LP (   2)Cl   3             --     --    129.7   13.9   --       --     --    --
    22. LP (   3)Cl   3             --     --    140.4  193.5   --       --     --    --


 Natural Bond Orbitals (Summary):

           NBO                  Occupancy  
 -----------------------------------------------
 Molecular unit  1  (HOCl)
     1. BD (   1) O   1 -Cl   3          1.94035
     2. BD (   1) O   1 - H   4          1.96382
     3. CR (   1) O   1                  1.99971
     9. CR (   1)Cl   3                  2.00000
    10. CR (   2)Cl   3                  1.99981
    11. CR (   3)Cl   3                  2.00003
    12. CR (   4)Cl   3                  1.99997
    13. CR (   5)Cl   3                  2.00003
    14. LP (   1) O   1                  1.96914
    15. LP (   2) O   1                  1.95311
    20. LP (   1)Cl   3                  1.97468
    21. LP (   2)Cl   3                  1.95619
    22. LP (   3)Cl   3                  1.95505
    23. RY*(   1) O   1                  0.01951
    24. RY*(   2) O   1                  0.01496
    25. RY*(   3) O   1                  0.00767
    26. RY*(   4) O   1                  0.00711
    27. RY*(   5) O   1                  0.00628
    28. RY*(   6) O   1                  0.00620
    29. RY*(   7) O   1                  0.00572
    30. RY*(   8) O   1                  0.00278
    31. RY*(   9) O   1                  0.00240
    32. RY*(  10) O   1                  0.00078
    33. RY*(  11) O   1                  0.00072
    34. RY*(  12) O   1                  0.00064
    35. RY*(  13) O   1                  0.00057
    36. RY*(  14) O   1                  0.00052
    37. RY*(  15) O   1                  0.00051
    38. RY*(  16) O   1                  0.00050
    39. RY*(  17) O   1                  0.00048
    40. RY*(  18) O   1                  0.00047
    41. RY*(  19) O   1                  0.00045
    42. RY*(  20) O   1                  0.00045
    43. RY*(  21) O   1                  0.00043
    44. RY*(  22) O   1                  0.00041
    45. RY*(  23) O   1                  0.00034
    46. RY*(  24) O   1                  0.00031
    47. RY*(  25) O   1                  0.00024
    48. RY*(  26) O   1                  0.00018
    49. RY*(  27) O   1                  0.00015
    50. RY*(  28) O   1                  0.00012
    51. RY*(  29) O   1                  0.00012
    52. RY*(  30) O   1                  0.00013
    53. RY*(  31) O   1                  0.00010
    54. RY*(  32) O   1                  0.00007
    55. RY*(  33) O   1                  0.00008
    56. RY*(  34) O   1                  0.00008
    57. RY*(  35) O   1                  0.00008
    58. RY*(  36) O   1                  0.00007
    59. RY*(  37) O   1                  0.00006
    60. RY*(  38) O   1                  0.00005
    61. RY*(  39) O   1                  0.00003
    62. RY*(  40) O   1                  0.00004
    63. RY*(  41) O   1                  0.00002
   105. RY*(   1)Cl   3                  0.02266
   106. RY*(   2)Cl   3                  0.01761
   107. RY*(   3)Cl   3                  0.01684
   108. RY*(   4)Cl   3                  0.01636
   109. RY*(   5)Cl   3                  0.01167
   110. RY*(   6)Cl   3                  0.00917
   111. RY*(   7)Cl   3                  0.00898
   112. RY*(   8)Cl   3                  0.00629
   113. RY*(   9)Cl   3                  0.00178
   114. RY*(  10)Cl   3                  0.00126
   115. RY*(  11)Cl   3                  0.00127
   116. RY*(  12)Cl   3                  0.00119
   117. RY*(  13)Cl   3                  0.00119
   118. RY*(  14)Cl   3                  0.00116
   119. RY*(  15)Cl   3                  0.00109
   120. RY*(  16)Cl   3                  0.00094
   121. RY*(  17)Cl   3                  0.00076
   122. RY*(  18)Cl   3                  0.00074
   123. RY*(  19)Cl   3                  0.00063
   124. RY*(  20)Cl   3                  0.00055
   125. RY*(  21)Cl   3                  0.00041
   126. RY*(  22)Cl   3                  0.00037
   127. RY*(  23)Cl   3                  0.00032
   128. RY*(  24)Cl   3                  0.00030
   129. RY*(  25)Cl   3                  0.00019
   130. RY*(  26)Cl   3                  0.00016
   131. RY*(  27)Cl   3                  0.00015
   132. RY*(  28)Cl   3                  0.00013
   133. RY*(  29)Cl   3                  0.00011
   134. RY*(  30)Cl   3                  0.00012
   135. RY*(  31)Cl   3                  0.00012
   136. RY*(  32)Cl   3                  0.00010
   137. RY*(  33)Cl   3                  0.00009
   138. RY*(  34)Cl   3                  0.00010
   139. RY*(  35)Cl   3                  0.00009
   140. RY*(  36)Cl   3                  0.00010
   141. RY*(  37)Cl   3                  0.00006
   142. RY*(  38)Cl   3                  0.00005
   143. RY*(  39)Cl   3                  0.00003
   144. RY*(  40)Cl   3                  0.00003
   145. RY*(  41)Cl   3                  0.00001
   146. RY*(   1) H   4                  0.00679
   147. RY*(   2) H   4                  0.00413
   148. RY*(   3) H   4                  0.00241
   149. RY*(   4) H   4                  0.00216
   150. RY*(   5) H   4                  0.00058
   151. RY*(   6) H   4                  0.00043
   152. RY*(   7) H   4                  0.00033
   153. RY*(   8) H   4                  0.00026
   154. RY*(   9) H   4                  0.00023
   155. RY*(  10) H   4                  0.00020
   156. RY*(  11) H   4                  0.00017
   157. RY*(  12) H   4                  0.00015
   158. RY*(  13) H   4                  0.00013
   159. RY*(  14) H   4                  0.00010
   160. RY*(  15) H   4                  0.00009
   161. RY*(  16) H   4                  0.00006
   162. RY*(  17) H   4                  0.00006
   163. RY*(  18) H   4                  0.00006
   164. RY*(  19) H   4                  0.00003
   165. RY*(  20) H   4                  0.00003
   166. RY*(  21) H   4                  0.00004
   167. RY*(  22) H   4                  0.00004
   168. BD*(   1) O   1 -Cl   3          0.05777
   169. BD*(   1) O   1 - H   4          0.03852
       -------------------------------
              Total Lewis   25.71189  ( 98.7639%)
        Valence non-Lewis    0.09630  (  0.3699%)
        Rydberg non-Lewis    0.22551  (  0.8662%)
       -------------------------------
            Total unit  1   26.03369  (100.0000%)
           Charge unit  1   -0.03369

 Molecular unit  2  (Cl)
     4. CR (   1)Cl   2                  2.00001
     5. CR (   2)Cl   2                  2.00000
     6. CR (   3)Cl   2                  2.00002
     7. CR (   4)Cl   2                  2.00003
     8. CR (   5)Cl   2                  2.00002
    16. LP (   1)Cl   2                  1.98034
    17. LP (   2)Cl   2                  1.95201
    18. LP (   3)Cl   2                  1.95101
    19. LP (   4)Cl   2                  1.92954
    64. RY*(   1)Cl   2                  0.01858
    65. RY*(   2)Cl   2                  0.01852
    66. RY*(   3)Cl   2                  0.01840
    67. RY*(   4)Cl   2                  0.01839
    68. RY*(   5)Cl   2                  0.01833
    69. RY*(   6)Cl   2                  0.01374
    70. RY*(   7)Cl   2                  0.01367
    71. RY*(   8)Cl   2                  0.01239
    72. RY*(   9)Cl   2                  0.00387
    73. RY*(  10)Cl   2                  0.00130
    74. RY*(  11)Cl   2                  0.00130
    75. RY*(  12)Cl   2                  0.00130
    76. RY*(  13)Cl   2                  0.00130
    77. RY*(  14)Cl   2                  0.00130
    78. RY*(  15)Cl   2                  0.00130
    79. RY*(  16)Cl   2                  0.00129
    80. RY*(  17)Cl   2                  0.00102
    81. RY*(  18)Cl   2                  0.00101
    82. RY*(  19)Cl   2                  0.00089
    83. RY*(  20)Cl   2                  0.00084
    84. RY*(  21)Cl   2                  0.00082
    85. RY*(  22)Cl   2                  0.00058
    86. RY*(  23)Cl   2                  0.00056
    87. RY*(  24)Cl   2                  0.00054
    88. RY*(  25)Cl   2                  0.00027
    89. RY*(  26)Cl   2                  0.00018
    90. RY*(  27)Cl   2                  0.00017
    91. RY*(  28)Cl   2                  0.00015
    92. RY*(  29)Cl   2                  0.00015
    93. RY*(  30)Cl   2                  0.00015
    94. RY*(  31)Cl   2                  0.00014
    95. RY*(  32)Cl   2                  0.00014
    96. RY*(  33)Cl   2                  0.00013
    97. RY*(  34)Cl   2                  0.00010
    98. RY*(  35)Cl   2                  0.00010
    99. RY*(  36)Cl   2                  0.00011
   100. RY*(  37)Cl   2                  0.00011
   101. RY*(  38)Cl   2                  0.00008
   102. RY*(  39)Cl   2                  0.00004
   103. RY*(  40)Cl   2                  0.00002
   104. RY*(  41)Cl   2                  0.00002
       -------------------------------
              Total Lewis   17.81299  ( 99.1466%)
        Valence non-Lewis    0.00000  (  0.0000%)
        Rydberg non-Lewis    0.15332  (  0.8534%)
       -------------------------------
            Total unit  2   17.96631  (100.0000%)
           Charge unit  2   -0.96631
 Leave Link  607 at Wed Sep 22 16:33:27 2021, MaxMem= 16106127360 cpu:              68.1 elap:               2.5
 (Enter /sw/contrib/gaussian/g16/B01/g16/l9999.exe)
 1\1\GINC-N2096\SP\RMP2-FC\Aug-CC-pVTZ\Cl2H1O1(1-)\CGAVINH\22-Sep-2021\
 0\\#p pop=NBO SP NoSymm mp2/aug-cc-pvtz density=current\\title\\-1,1\O
 ,0,0.,0.,0.\Cl,0,2.904676,0.,0.\Cl,0,-0.3936866,1.6360486,0.\H,0,0.629
 025527,0.,0.749643432\\Version=ES64L-G16RevB.01\HF=-994.5034728\MP2=-9
 95.167307\RMSD=5.904e-09\Dipole=-2.6044296,1.0026354,0.3364883\Quadrup
 ole=-19.0637318,9.0667627,9.9969691,0.3713062,0.2758898,-0.1946142\PG=
 C01 [X(Cl2H1O1)]\\@


 FESTINA LENTE!
     - IMPERATOR AUGUSTUS 
 Job cpu time:       0 days  0 hours  4 minutes 27.4 seconds.
 Elapsed time:       0 days  0 hours  0 minutes 15.0 seconds.
 File lengths (MBytes):  RWF=     14 Int=      0 D2E=      0 Chk=      8 Scr=      1
 Normal termination of Gaussian 16 at Wed Sep 22 16:33:28 2021.
