 Entering Gaussian System, Link 0=g16
 Input=clhocl_35_sp.gjf
 Output=clhocl_35_sp.log
 Initial command:
 /sw/contrib/gaussian/g16/B01/g16/l1.exe "/scr/Gau-28958.inp" -scrdir="/scr/"
 Entering Link 1 = /sw/contrib/gaussian/g16/B01/g16/l1.exe PID=     28959.
  
 Copyright (c) 1988-2017, Gaussian, Inc.  All Rights Reserved.
  
 This is part of the Gaussian(R) 16 program.  It is based on
 the Gaussian(R) 09 system (copyright 2009, Gaussian, Inc.),
 the Gaussian(R) 03 system (copyright 2003, Gaussian, Inc.),
 the Gaussian(R) 98 system (copyright 1998, Gaussian, Inc.),
 the Gaussian(R) 94 system (copyright 1995, Gaussian, Inc.),
 the Gaussian 92(TM) system (copyright 1992, Gaussian, Inc.),
 the Gaussian 90(TM) system (copyright 1990, Gaussian, Inc.),
 the Gaussian 88(TM) system (copyright 1988, Gaussian, Inc.),
 the Gaussian 86(TM) system (copyright 1986, Carnegie Mellon
 University), and the Gaussian 82(TM) system (copyright 1983,
 Carnegie Mellon University). Gaussian is a federally registered
 trademark of Gaussian, Inc.
  
 This software contains proprietary and confidential information,
 including trade secrets, belonging to Gaussian, Inc.
  
 This software is provided under written license and may be
 used, copied, transmitted, or stored only in accord with that
 written license.
  
 The following legend is applicable only to US Government
 contracts under FAR:
  
                    RESTRICTED RIGHTS LEGEND
  
 Use, reproduction and disclosure by the US Government is
 subject to restrictions as set forth in subparagraphs (a)
 and (c) of the Commercial Computer Software - Restricted
 Rights clause in FAR 52.227-19.
  
 Gaussian, Inc.
 340 Quinnipiac St., Bldg. 40, Wallingford CT 06492
  
  
 ---------------------------------------------------------------
 Warning -- This program may not be used in any manner that
 competes with the business of Gaussian, Inc. or will provide
 assistance to any competitor of Gaussian, Inc.  The licensee
 of this program is prohibited from giving any competitor of
 Gaussian, Inc. access to this program.  By using this program,
 the user acknowledges that Gaussian, Inc. is engaged in the
 business of creating and licensing software in the field of
 computational chemistry and represents and warrants to the
 licensee that it is not a competitor of Gaussian, Inc. and that
 it will not use this program in any manner prohibited above.
 ---------------------------------------------------------------
  

 Cite this work as:
 Gaussian 16, Revision B.01,
 M. J. Frisch, G. W. Trucks, H. B. Schlegel, G. E. Scuseria, 
 M. A. Robb, J. R. Cheeseman, G. Scalmani, V. Barone, 
 G. A. Petersson, H. Nakatsuji, X. Li, M. Caricato, A. V. Marenich, 
 J. Bloino, B. G. Janesko, R. Gomperts, B. Mennucci, H. P. Hratchian, 
 J. V. Ortiz, A. F. Izmaylov, J. L. Sonnenberg, D. Williams-Young, 
 F. Ding, F. Lipparini, F. Egidi, J. Goings, B. Peng, A. Petrone, 
 T. Henderson, D. Ranasinghe, V. G. Zakrzewski, J. Gao, N. Rega, 
 G. Zheng, W. Liang, M. Hada, M. Ehara, K. Toyota, R. Fukuda, 
 J. Hasegawa, M. Ishida, T. Nakajima, Y. Honda, O. Kitao, H. Nakai, 
 T. Vreven, K. Throssell, J. A. Montgomery, Jr., J. E. Peralta, 
 F. Ogliaro, M. J. Bearpark, J. J. Heyd, E. N. Brothers, K. N. Kudin, 
 V. N. Staroverov, T. A. Keith, R. Kobayashi, J. Normand, 
 K. Raghavachari, A. P. Rendell, J. C. Burant, S. S. Iyengar, 
 J. Tomasi, M. Cossi, J. M. Millam, M. Klene, C. Adamo, R. Cammi, 
 J. W. Ochterski, R. L. Martin, K. Morokuma, O. Farkas, 
 J. B. Foresman, and D. J. Fox, Gaussian, Inc., Wallingford CT, 2016.
 
 ******************************************
 Gaussian 16:  ES64L-G16RevB.01 20-Dec-2017
                22-Sep-2021 
 ******************************************
 %nproc=28
 Will use up to   28 processors via shared memory.
 %mem=120GB
 %chk=/gscratch/ilahie/mccoygrp/coire_hocl/clhocl/clhocl_35_sp.chk
 ----------------------------------------------------
 #p pop=NBO SP NoSymm mp2/aug-cc-pvtz density=current
 ----------------------------------------------------
 1/30=1,38=1,172=1/1;
 2/12=2,15=1,17=6,18=5,40=1/2;
 3/5=16,6=1,7=10,11=9,25=1,30=1,71=1/1,2,3;
 4//1;
 5/5=2,38=5/2;
 8/6=4,10=1/1;
 9/15=1,16=-3/6;
 10/5=1,13=10,31=1/2;
 6/7=2,8=2,9=2,10=2,22=-1,40=1/1,7;
 99/5=1,9=1/99;
 Leave Link    1 at Wed Sep 22 16:32:26 2021, MaxMem= 16106127360 cpu:               1.9 elap:               0.1
 (Enter /sw/contrib/gaussian/g16/B01/g16/l101.exe)
 -----
 title
 -----
 Symbolic Z-matrix:
 Charge = -1 Multiplicity = 1
 O                     0.        0.        0. 
 Cl                    2.90468   0.        0. 
 Cl                   -0.39369   1.63605   0. 
 H                     0.81295   0.        0.56923 
 
 ITRead=  0  0  0  0
 MicOpt= -1 -1 -1 -1
 NAtoms=      4 NQM=        4 NQMF=       0 NMMI=      0 NMMIF=      0
                NMic=       0 NMicF=      0.
                    Isotopes and Nuclear Properties:
 (Nuclear quadrupole moments (NQMom) in fm**2, nuclear magnetic moments (NMagM)
  in nuclear magnetons)

  Atom         1           2           3           4
 IAtWgt=          16          35          35           1
 AtmWgt=  15.9949146  34.9688527  34.9688527   1.0078250
 NucSpn=           0           3           3           1
 AtZEff=  -0.0000000  -0.0000000  -0.0000000  -0.0000000
 NQMom=    0.0000000  -8.1650000  -8.1650000   0.0000000
 NMagM=    0.0000000   0.8218740   0.8218740   2.7928460
 AtZNuc=   8.0000000  17.0000000  17.0000000   1.0000000
 Leave Link  101 at Wed Sep 22 16:32:26 2021, MaxMem= 16106127360 cpu:               2.0 elap:               0.1
 (Enter /sw/contrib/gaussian/g16/B01/g16/l202.exe)
                          Input orientation:                          
 ---------------------------------------------------------------------
 Center     Atomic      Atomic             Coordinates (Angstroms)
 Number     Number       Type             X           Y           Z
 ---------------------------------------------------------------------
      1          8           0        0.000000    0.000000    0.000000
      2         17           0        2.904676    0.000000    0.000000
      3         17           0       -0.393687    1.636049    0.000000
      4          1           0        0.812951    0.000000    0.569234
 ---------------------------------------------------------------------
                    Distance matrix (angstroms):
                    1          2          3          4
     1  O    0.000000
     2  Cl   2.904676   0.000000
     3  Cl   1.682749   3.681827   0.000000
     4  H    0.992430   2.167796   2.111080   0.000000
 Symmetry turned off by external request.
 Stoichiometry    Cl2HO(1-)
 Framework group  C1[X(Cl2HO)]
 Deg. of freedom     6
 Full point group                 C1      NOp   1
 Rotational constants (GHZ):          23.2270794           2.0576341           1.8946573
 Leave Link  202 at Wed Sep 22 16:32:26 2021, MaxMem= 16106127360 cpu:               0.4 elap:               0.0
 (Enter /sw/contrib/gaussian/g16/B01/g16/l301.exe)
 Standard basis: Aug-CC-pVTZ (5D, 7F)
 Ernie: Thresh=  0.10000D-02 Tol=  0.10000D-05 Strict=F.
 Ernie:  29 primitive shells out of 169 were deleted.
   169 basis functions,   327 primitive gaussians,   198 cartesian basis functions
    22 alpha electrons       22 beta electrons
       nuclear repulsion energy       121.7587373283 Hartrees.
 IExCor=    0 DFT=F Ex=HF Corr=None ExCW=0 ScaHFX=  1.000000
 ScaDFX=  1.000000  1.000000  1.000000  1.000000 ScalE2=  1.000000  1.000000
 IRadAn=      5 IRanWt=     -1 IRanGd=            0 ICorTp=0 IEmpDi=  4
 NAtoms=    4 NActive=    4 NUniq=    4 SFac= 1.00D+00 NAtFMM=   60 NAOKFM=F Big=F
 Integral buffers will be    131072 words long.
 Raffenetti 1 integral format.
 Two-electron integral symmetry is turned off.
 Leave Link  301 at Wed Sep 22 16:32:26 2021, MaxMem= 16106127360 cpu:               1.8 elap:               0.1
 (Enter /sw/contrib/gaussian/g16/B01/g16/l302.exe)
 NPDir=0 NMtPBC=     1 NCelOv=     1 NCel=       1 NClECP=     1 NCelD=      1
         NCelK=      1 NCelE2=     1 NClLst=     1 CellRange=     0.0.
 One-electron integrals computed using PRISM.
 NBasis=   169 RedAO= T EigKep=  2.88D-04  NBF=   169
 NBsUse=   169 1.00D-06 EigRej= -1.00D+00 NBFU=   169
 Leave Link  302 at Wed Sep 22 16:32:26 2021, MaxMem= 16106127360 cpu:               4.0 elap:               0.2
 (Enter /sw/contrib/gaussian/g16/B01/g16/l303.exe)
 DipDrv:  MaxL=1.
 Leave Link  303 at Wed Sep 22 16:32:26 2021, MaxMem= 16106127360 cpu:               0.7 elap:               0.1
 (Enter /sw/contrib/gaussian/g16/B01/g16/l401.exe)
 ExpMin= 2.53D-02 ExpMax= 4.56D+05 ExpMxC= 1.44D+03 IAcc=3 IRadAn=         5 AccDes= 0.00D+00
 Harris functional with IExCor=  205 and IRadAn=       5 diagonalized for initial guess.
 HarFok:  IExCor=  205 AccDes= 0.00D+00 IRadAn=         5 IDoV= 1 UseB2=F ITyADJ=14
 ICtDFT=  3500011 ScaDFX=  1.000000  1.000000  1.000000  1.000000
 FoFCou: FMM=F IPFlag=           0 FMFlag=      100000 FMFlg1=           0
         NFxFlg=           0 DoJE=T BraDBF=F KetDBF=T FulRan=T
         wScrn=  0.000000 ICntrl=       500 IOpCl=  0 I1Cent=   200000004 NGrid=           0
         NMat0=    1 NMatS0=      1 NMatT0=    0 NMatD0=    1 NMtDS0=    0 NMtDT0=    0
 Symmetry not used in FoFCou.
 Harris En= -993.813521979675    
 JPrj=0 DoOrth=F DoCkMO=F.
 Leave Link  401 at Wed Sep 22 16:32:27 2021, MaxMem= 16106127360 cpu:               6.3 elap:               0.3
 (Enter /sw/contrib/gaussian/g16/B01/g16/l502.exe)
 Keep R1 ints in memory in canonical form, NReq=117118997.
 FoFCou: FMM=F IPFlag=           0 FMFlag=           0 FMFlg1=           0
         NFxFlg=           0 DoJE=F BraDBF=F KetDBF=F FulRan=T
         wScrn=  0.000000 ICntrl=       600 IOpCl=  0 I1Cent=           0 NGrid=           0
         NMat0=    1 NMatS0=  14365 NMatT0=    0 NMatD0=    1 NMtDS0=    0 NMtDT0=    0
 Symmetry not used in FoFCou.
 Two-electron integral symmetry not used.
 Closed shell SCF:
 Using DIIS extrapolation, IDIIS=  1040.
 NGot= 16106127360 LenX= 16002858349 LenY= 16002818704
 Requested convergence on RMS density matrix=1.00D-08 within 128 cycles.
 Requested convergence on MAX density matrix=1.00D-06.
 Requested convergence on             energy=1.00D-06.
 No special actions if energy rises.

 Cycle   1  Pass 1  IDiag  1:
 E= -994.381426613849    
 DIIS: error= 2.31D-02 at cycle   1 NSaved=   1.
 NSaved= 1 IEnMin= 1 EnMin= -994.381426613849     IErMin= 1 ErrMin= 2.31D-02
 ErrMax= 2.31D-02  0.00D+00 EMaxC= 1.00D-01 BMatC= 4.22D-01 BMatP= 4.22D-01
 IDIUse=3 WtCom= 7.69D-01 WtEn= 2.31D-01
 Coeff-Com:  0.100D+01
 Coeff-En:   0.100D+01
 Coeff:      0.100D+01
 Gap=     0.544 Goal=   None    Shift=    0.000
 GapD=    0.544 DampG=2.000 DampE=0.500 DampFc=1.0000 IDamp=-1.
 RMSDP=2.13D-03 MaxDP=7.08D-02              OVMax= 1.21D-01

 Cycle   2  Pass 1  IDiag  1:
 E= -994.478205724865     Delta-E=       -0.096779111016 Rises=F Damp=F
 DIIS: error= 1.10D-02 at cycle   2 NSaved=   2.
 NSaved= 2 IEnMin= 2 EnMin= -994.478205724865     IErMin= 2 ErrMin= 1.10D-02
 ErrMax= 1.10D-02  0.00D+00 EMaxC= 1.00D-01 BMatC= 4.84D-02 BMatP= 4.22D-01
 IDIUse=3 WtCom= 8.90D-01 WtEn= 1.10D-01
 Coeff-Com:  0.165D+00 0.835D+00
 Coeff-En:   0.000D+00 0.100D+01
 Coeff:      0.147D+00 0.853D+00
 Gap=     0.353 Goal=   None    Shift=    0.000
 RMSDP=9.73D-04 MaxDP=3.94D-02 DE=-9.68D-02 OVMax= 7.65D-02

 Cycle   3  Pass 1  IDiag  1:
 E= -994.503412914359     Delta-E=       -0.025207189494 Rises=F Damp=F
 DIIS: error= 6.49D-03 at cycle   3 NSaved=   3.
 NSaved= 3 IEnMin= 3 EnMin= -994.503412914359     IErMin= 3 ErrMin= 6.49D-03
 ErrMax= 6.49D-03  0.00D+00 EMaxC= 1.00D-01 BMatC= 1.26D-02 BMatP= 4.84D-02
 IDIUse=3 WtCom= 9.35D-01 WtEn= 6.49D-02
 Coeff-Com: -0.147D-01 0.327D+00 0.687D+00
 Coeff-En:   0.000D+00 0.948D-01 0.905D+00
 Coeff:     -0.137D-01 0.312D+00 0.702D+00
 Gap=     0.340 Goal=   None    Shift=    0.000
 RMSDP=3.41D-04 MaxDP=1.32D-02 DE=-2.52D-02 OVMax= 3.39D-02

 Cycle   4  Pass 1  IDiag  1:
 E= -994.512049259088     Delta-E=       -0.008636344729 Rises=F Damp=F
 DIIS: error= 6.54D-04 at cycle   4 NSaved=   4.
 NSaved= 4 IEnMin= 4 EnMin= -994.512049259088     IErMin= 4 ErrMin= 6.54D-04
 ErrMax= 6.54D-04  0.00D+00 EMaxC= 1.00D-01 BMatC= 1.68D-04 BMatP= 1.26D-02
 IDIUse=3 WtCom= 9.93D-01 WtEn= 6.54D-03
 Coeff-Com: -0.434D-02 0.288D-01 0.123D+00 0.852D+00
 Coeff-En:   0.000D+00 0.000D+00 0.000D+00 0.100D+01
 Coeff:     -0.431D-02 0.286D-01 0.123D+00 0.853D+00
 Gap=     0.333 Goal=   None    Shift=    0.000
 RMSDP=5.42D-05 MaxDP=1.37D-03 DE=-8.64D-03 OVMax= 2.92D-03

 Cycle   5  Pass 1  IDiag  1:
 E= -994.512222020343     Delta-E=       -0.000172761255 Rises=F Damp=F
 DIIS: error= 2.20D-04 at cycle   5 NSaved=   5.
 NSaved= 5 IEnMin= 5 EnMin= -994.512222020343     IErMin= 5 ErrMin= 2.20D-04
 ErrMax= 2.20D-04  0.00D+00 EMaxC= 1.00D-01 BMatC= 1.51D-05 BMatP= 1.68D-04
 IDIUse=3 WtCom= 9.98D-01 WtEn= 2.20D-03
 Coeff-Com:  0.927D-03-0.380D-01-0.719D-01-0.370D-02 0.111D+01
 Coeff-En:   0.000D+00 0.000D+00 0.000D+00 0.000D+00 0.100D+01
 Coeff:      0.925D-03-0.379D-01-0.717D-01-0.369D-02 0.111D+01
 Gap=     0.335 Goal=   None    Shift=    0.000
 RMSDP=3.25D-05 MaxDP=1.14D-03 DE=-1.73D-04 OVMax= 3.06D-03

 Cycle   6  Pass 1  IDiag  1:
 E= -994.512260243175     Delta-E=       -0.000038222832 Rises=F Damp=F
 DIIS: error= 7.63D-05 at cycle   6 NSaved=   6.
 NSaved= 6 IEnMin= 6 EnMin= -994.512260243175     IErMin= 6 ErrMin= 7.63D-05
 ErrMax= 7.63D-05  0.00D+00 EMaxC= 1.00D-01 BMatC= 1.88D-06 BMatP= 1.51D-05
 IDIUse=1 WtCom= 1.00D+00 WtEn= 0.00D+00
 Coeff-Com:  0.283D-03 0.765D-02 0.153D-01-0.677D-01-0.403D+00 0.145D+01
 Coeff:      0.283D-03 0.765D-02 0.153D-01-0.677D-01-0.403D+00 0.145D+01
 Gap=     0.335 Goal=   None    Shift=    0.000
 RMSDP=1.59D-05 MaxDP=5.64D-04 DE=-3.82D-05 OVMax= 1.52D-03

 Cycle   7  Pass 1  IDiag  1:
 E= -994.512266857551     Delta-E=       -0.000006614376 Rises=F Damp=F
 DIIS: error= 2.19D-05 at cycle   7 NSaved=   7.
 NSaved= 7 IEnMin= 7 EnMin= -994.512266857551     IErMin= 7 ErrMin= 2.19D-05
 ErrMax= 2.19D-05  0.00D+00 EMaxC= 1.00D-01 BMatC= 1.17D-07 BMatP= 1.88D-06
 IDIUse=1 WtCom= 1.00D+00 WtEn= 0.00D+00
 Coeff-Com: -0.183D-03-0.400D-03-0.221D-03 0.250D-01 0.777D-01-0.576D+00
 Coeff-Com:  0.147D+01
 Coeff:     -0.183D-03-0.400D-03-0.221D-03 0.250D-01 0.777D-01-0.576D+00
 Coeff:      0.147D+01
 Gap=     0.335 Goal=   None    Shift=    0.000
 RMSDP=4.90D-06 MaxDP=1.72D-04 DE=-6.61D-06 OVMax= 4.68D-04

 Cycle   8  Pass 1  IDiag  1:
 E= -994.512267379888     Delta-E=       -0.000000522338 Rises=F Damp=F
 DIIS: error= 5.69D-06 at cycle   8 NSaved=   8.
 NSaved= 8 IEnMin= 8 EnMin= -994.512267379888     IErMin= 8 ErrMin= 5.69D-06
 ErrMax= 5.69D-06  0.00D+00 EMaxC= 1.00D-01 BMatC= 8.19D-09 BMatP= 1.17D-07
 IDIUse=1 WtCom= 1.00D+00 WtEn= 0.00D+00
 Coeff-Com:  0.617D-05-0.731D-03-0.128D-02 0.266D-02 0.251D-01-0.588D-01
 Coeff-Com: -0.118D+00 0.115D+01
 Coeff:      0.617D-05-0.731D-03-0.128D-02 0.266D-02 0.251D-01-0.588D-01
 Coeff:     -0.118D+00 0.115D+01
 Gap=     0.335 Goal=   None    Shift=    0.000
 RMSDP=1.06D-06 MaxDP=2.34D-05 DE=-5.22D-07 OVMax= 1.18D-04

 Cycle   9  Pass 1  IDiag  1:
 E= -994.512267409130     Delta-E=       -0.000000029242 Rises=F Damp=F
 DIIS: error= 2.67D-06 at cycle   9 NSaved=   9.
 NSaved= 9 IEnMin= 9 EnMin= -994.512267409130     IErMin= 9 ErrMin= 2.67D-06
 ErrMax= 2.67D-06  0.00D+00 EMaxC= 1.00D-01 BMatC= 1.18D-09 BMatP= 8.19D-09
 IDIUse=1 WtCom= 1.00D+00 WtEn= 0.00D+00
 Coeff-Com:  0.178D-04 0.197D-03 0.370D-03-0.350D-02-0.158D-01 0.852D-01
 Coeff-Com: -0.159D+00-0.215D+00 0.131D+01
 Coeff:      0.178D-04 0.197D-03 0.370D-03-0.350D-02-0.158D-01 0.852D-01
 Coeff:     -0.159D+00-0.215D+00 0.131D+01
 Gap=     0.335 Goal=   None    Shift=    0.000
 RMSDP=5.14D-07 MaxDP=1.02D-05 DE=-2.92D-08 OVMax= 6.03D-05

 Cycle  10  Pass 1  IDiag  1:
 E= -994.512267414602     Delta-E=       -0.000000005472 Rises=F Damp=F
 DIIS: error= 1.26D-06 at cycle  10 NSaved=  10.
 NSaved=10 IEnMin=10 EnMin= -994.512267414602     IErMin=10 ErrMin= 1.26D-06
 ErrMax= 1.26D-06  0.00D+00 EMaxC= 1.00D-01 BMatC= 1.72D-10 BMatP= 1.18D-09
 IDIUse=1 WtCom= 1.00D+00 WtEn= 0.00D+00
 Coeff-Com: -0.228D-05 0.388D-04 0.173D-04 0.399D-03 0.794D-03-0.111D-01
 Coeff-Com:  0.497D-01-0.126D+00-0.243D+00 0.133D+01
 Coeff:     -0.228D-05 0.388D-04 0.173D-04 0.399D-03 0.794D-03-0.111D-01
 Coeff:      0.497D-01-0.126D+00-0.243D+00 0.133D+01
 Gap=     0.335 Goal=   None    Shift=    0.000
 RMSDP=2.25D-07 MaxDP=5.06D-06 DE=-5.47D-09 OVMax= 2.67D-05

 Cycle  11  Pass 1  IDiag  1:
 E= -994.512267415463     Delta-E=       -0.000000000862 Rises=F Damp=F
 DIIS: error= 3.98D-07 at cycle  11 NSaved=  11.
 NSaved=11 IEnMin=11 EnMin= -994.512267415463     IErMin=11 ErrMin= 3.98D-07
 ErrMax= 3.98D-07  0.00D+00 EMaxC= 1.00D-01 BMatC= 1.62D-11 BMatP= 1.72D-10
 IDIUse=1 WtCom= 1.00D+00 WtEn= 0.00D+00
 Coeff-Com: -0.294D-05-0.196D-04-0.281D-04 0.424D-03 0.161D-02-0.908D-02
 Coeff-Com:  0.147D-01 0.377D-01-0.116D+00-0.236D+00 0.131D+01
 Coeff:     -0.294D-05-0.196D-04-0.281D-04 0.424D-03 0.161D-02-0.908D-02
 Coeff:      0.147D-01 0.377D-01-0.116D+00-0.236D+00 0.131D+01
 Gap=     0.335 Goal=   None    Shift=    0.000
 RMSDP=7.66D-08 MaxDP=1.85D-06 DE=-8.62D-10 OVMax= 8.64D-06

 Cycle  12  Pass 1  IDiag  1:
 E= -994.512267415548     Delta-E=       -0.000000000085 Rises=F Damp=F
 DIIS: error= 8.23D-08 at cycle  12 NSaved=  12.
 NSaved=12 IEnMin=12 EnMin= -994.512267415548     IErMin=12 ErrMin= 8.23D-08
 ErrMax= 8.23D-08  0.00D+00 EMaxC= 1.00D-01 BMatC= 9.83D-13 BMatP= 1.62D-11
 IDIUse=1 WtCom= 1.00D+00 WtEn= 0.00D+00
 Coeff-Com:  0.575D-06-0.177D-05-0.786D-06-0.747D-04-0.217D-03 0.172D-02
 Coeff-Com: -0.496D-02 0.334D-02 0.317D-01-0.601D-01-0.161D+00 0.119D+01
 Coeff:      0.575D-06-0.177D-05-0.786D-06-0.747D-04-0.217D-03 0.172D-02
 Coeff:     -0.496D-02 0.334D-02 0.317D-01-0.601D-01-0.161D+00 0.119D+01
 Gap=     0.335 Goal=   None    Shift=    0.000
 RMSDP=1.52D-08 MaxDP=3.44D-07 DE=-8.50D-11 OVMax= 1.35D-06

 Cycle  13  Pass 1  IDiag  1:
 E= -994.512267415549     Delta-E=       -0.000000000000 Rises=F Damp=F
 DIIS: error= 2.04D-08 at cycle  13 NSaved=  13.
 NSaved=13 IEnMin=13 EnMin= -994.512267415549     IErMin=13 ErrMin= 2.04D-08
 ErrMax= 2.04D-08  0.00D+00 EMaxC= 1.00D-01 BMatC= 1.53D-13 BMatP= 9.83D-13
 IDIUse=1 WtCom= 1.00D+00 WtEn= 0.00D+00
 Coeff-Com:  0.219D-06 0.235D-05 0.249D-05-0.316D-04-0.131D-03 0.660D-03
 Coeff-Com: -0.622D-03-0.518D-02 0.787D-02 0.396D-01-0.140D+00-0.126D+00
 Coeff-Com:  0.122D+01
 Coeff:      0.219D-06 0.235D-05 0.249D-05-0.316D-04-0.131D-03 0.660D-03
 Coeff:     -0.622D-03-0.518D-02 0.787D-02 0.396D-01-0.140D+00-0.126D+00
 Coeff:      0.122D+01
 Gap=     0.335 Goal=   None    Shift=    0.000
 RMSDP=5.78D-09 MaxDP=1.13D-07 DE=-2.27D-13 OVMax= 4.54D-07

 SCF Done:  E(RHF) =  -994.512267416     A.U. after   13 cycles
            NFock= 13  Conv=0.58D-08     -V/T= 2.0001
 KE= 9.943758902271D+02 PE=-2.621243801516D+03 EE= 5.105969065446D+02
 Leave Link  502 at Wed Sep 22 16:32:30 2021, MaxMem= 16106127360 cpu:              24.3 elap:               3.0
 (Enter /sw/contrib/gaussian/g16/B01/g16/l801.exe)
 ExpMin= 2.53D-02 ExpMax= 4.56D+05 ExpMxC= 1.44D+03 IAcc=3 IRadAn=         5 AccDes= 0.00D+00
 HarFok:  IExCor=  205 AccDes= 0.00D+00 IRadAn=         5 IDoV=-2 UseB2=F ITyADJ=14
 ICtDFT= 12500011 ScaDFX=  1.000000  1.000000  1.000000  1.000000
 Largest valence mixing into a core orbital is  4.47D-04
 Largest core mixing into a valence orbital is  1.75D-04
 Range of M.O.s used for correlation:    12   169
 NBasis=   169 NAE=    22 NBE=    22 NFC=    11 NFV=     0
 NROrb=    158 NOA=    11 NOB=    11 NVA=   147 NVB=   147

 **** Warning!!: The largest alpha MO coefficient is  0.10746784D+02

 Leave Link  801 at Wed Sep 22 16:32:30 2021, MaxMem= 16106127360 cpu:               1.9 elap:               0.1
 (Enter /sw/contrib/gaussian/g16/B01/g16/l906.exe)
 Frozen-core derivative calculation, NFC=  11 NFV=   0.
 FulOut=F Deriv=T AODrv=F NAtomX=     4
   MMem=         144  MDisk=          11 MDiskD=          11
  W3Min=      736164 MinDsk=     1250177 NBas6D=         198
 NBas2D=       20187    NTT=       19701    LW2=     3500000
    MDV= 16105751270 MDiskM=      406660 NBas2p=       19980
 Fully in-core method, ICMem=   420417501.
 IMap=   1   2   3   4   5   6   7   8   9  10  11  12  13  14  15  16  17  18  19  20
 IMap=  21  22
 JobTyp=1 Pass  1 fully in-core, NPsUse= 28.
 Compute canonical integrals.
 FoFCou: FMM=F IPFlag=           0 FMFlag=           0 FMFlg1=           0
         NFxFlg=           0 DoJE=F BraDBF=F KetDBF=F FulRan=T
         wScrn=  0.000000 ICntrl=       600 IOpCl=  1 I1Cent=           0 NGrid=           0
         NMat0=    1 NMatS0=  20187 NMatT0=    0 NMatD0=    1 NMtDS0=    0 NMtDT0=    0
 Symmetry not used in FoFCou.
 Spin components of T(2) and E(2):
     alpha-alpha T2 =       0.2914700860D-01 E2=     -0.8372142674D-01
     alpha-beta  T2 =       0.1594153214D+00 E2=     -0.4976664436D+00
     beta-beta   T2 =       0.2914700860D-01 E2=     -0.8372142674D-01
 The integrals were generated   1 times.
 ANorm=    0.1103498681D+01
 E2 =    -0.6651092971D+00 EUMP2 =    -0.99517737671264D+03
 Leave Link  906 at Wed Sep 22 16:32:34 2021, MaxMem= 16106127360 cpu:             114.7 elap:               4.1
 (Enter /sw/contrib/gaussian/g16/B01/g16/l1002.exe)
 Minotr:  Closed shell wavefunction.
          Computing MP2/KS-MP2 derivatives.
          Using Z-Vector for PSCF gradient.
          Skipping F1 and S1 gradient terms here.
          Frozen-core window.
          Direct CPHF calculation.
          Differentiating once with respect to electric field.
                with respect to dipole field.
          Electric field/nuclear overlap derivatives assumed to be zero.
          Requested convergence is 1.0D-10 RMS, and 1.0D-09 maximum.
          NewPWx=F KeepS1=T KeepF1=T KeepIn=T MapXYZ=F SortEE=F KeepMc=T.
 Keep R1 ints in memory in canonical form, NReq=117123153.
 FoFCou: FMM=F IPFlag=           0 FMFlag=           0 FMFlg1=           0
         NFxFlg=           0 DoJE=F BraDBF=F KetDBF=F FulRan=T
         wScrn=  0.000000 ICntrl=       600 IOpCl=  0 I1Cent=           0 NGrid=           0
         NMat0=    1 NMatS0=  14365 NMatT0=    0 NMatD0=    1 NMtDS0=    0 NMtDT0=    0
 Symmetry not used in FoFCou.
 Two-electron integral symmetry not used.
          MDV=   16106127360 using IRadAn=       5.
          Solving linear equations separately, MaxMat=       0.
          There are     1 degrees of freedom in the 1st order CPHF.  IDoFFX=0 NUNeed=     1.
 LinEq1:  Iter=  0 NonCon=     1 RMS=3.08D-03 Max=3.89D-02 NDo=     1
 AX will form     1 AO Fock derivatives at one time.
 LinEq1:  Iter=  1 NonCon=     1 RMS=3.90D-04 Max=4.18D-03 NDo=     1
 LinEq1:  Iter=  2 NonCon=     1 RMS=1.58D-04 Max=2.12D-03 NDo=     1
 LinEq1:  Iter=  3 NonCon=     1 RMS=6.21D-05 Max=9.65D-04 NDo=     1
 LinEq1:  Iter=  4 NonCon=     1 RMS=2.71D-05 Max=4.76D-04 NDo=     1
 LinEq1:  Iter=  5 NonCon=     1 RMS=7.55D-06 Max=1.45D-04 NDo=     1
 LinEq1:  Iter=  6 NonCon=     1 RMS=2.46D-06 Max=3.54D-05 NDo=     1
 LinEq1:  Iter=  7 NonCon=     1 RMS=7.08D-07 Max=7.86D-06 NDo=     1
 LinEq1:  Iter=  8 NonCon=     1 RMS=1.37D-07 Max=1.47D-06 NDo=     1
 LinEq1:  Iter=  9 NonCon=     1 RMS=3.24D-08 Max=3.99D-07 NDo=     1
 LinEq1:  Iter= 10 NonCon=     1 RMS=8.55D-09 Max=1.29D-07 NDo=     1
 LinEq1:  Iter= 11 NonCon=     1 RMS=2.13D-09 Max=3.73D-08 NDo=     1
 LinEq1:  Iter= 12 NonCon=     1 RMS=5.57D-10 Max=7.18D-09 NDo=     1
 LinEq1:  Iter= 13 NonCon=     1 RMS=1.16D-10 Max=1.23D-09 NDo=     1
 LinEq1:  Iter= 14 NonCon=     0 RMS=2.40D-11 Max=3.09D-10 NDo=     1
 Linear equations converged to 1.000D-10 1.000D-09 after    14 iterations.
 End of Minotr F.D. properties file   721 does not exist.
 End of Minotr F.D. properties file   722 does not exist.
 End of Minotr F.D. properties file   788 does not exist.
 Leave Link 1002 at Wed Sep 22 16:32:37 2021, MaxMem= 16106127360 cpu:              26.7 elap:               3.5
 (Enter /sw/contrib/gaussian/g16/B01/g16/l601.exe)
 Copying SCF densities to generalized density rwf, IOpCl= 0 IROHF=0.

 **********************************************************************

            Population analysis using the MP2 Density.

 **********************************************************************

 Alpha  occ. eigenvalues -- -104.73266-104.53249 -20.46757 -10.45229 -10.25709
 Alpha  occ. eigenvalues --   -7.91948  -7.91680  -7.91666  -7.72320  -7.72309
 Alpha  occ. eigenvalues --   -7.72308  -1.23809  -0.89803  -0.76785  -0.54635
 Alpha  occ. eigenvalues --   -0.44677  -0.43799  -0.31008  -0.28316  -0.18534
 Alpha  occ. eigenvalues --   -0.18019  -0.17881
 Alpha virt. eigenvalues --    0.15642   0.18195   0.22405   0.23218   0.26207
 Alpha virt. eigenvalues --    0.27467   0.28138   0.28858   0.30247   0.31896
 Alpha virt. eigenvalues --    0.33593   0.34864   0.40893   0.41404   0.46263
 Alpha virt. eigenvalues --    0.48762   0.52552   0.54184   0.55637   0.58102
 Alpha virt. eigenvalues --    0.58630   0.60329   0.61347   0.62216   0.65760
 Alpha virt. eigenvalues --    0.66606   0.67572   0.69062   0.76223   0.79525
 Alpha virt. eigenvalues --    0.85240   0.87087   0.88439   0.89721   0.90664
 Alpha virt. eigenvalues --    0.92483   0.95891   0.98556   0.99783   1.06328
 Alpha virt. eigenvalues --    1.08339   1.09632   1.10410   1.11187   1.12842
 Alpha virt. eigenvalues --    1.14795   1.19451   1.19922   1.20499   1.21697
 Alpha virt. eigenvalues --    1.22485   1.23929   1.26957   1.28927   1.31436
 Alpha virt. eigenvalues --    1.34023   1.37889   1.39594   1.42541   1.43341
 Alpha virt. eigenvalues --    1.44672   1.48994   1.49920   1.54634   1.59072
 Alpha virt. eigenvalues --    1.61468   1.65515   1.68375   1.71929   1.73261
 Alpha virt. eigenvalues --    1.76113   1.84149   1.85771   1.87306   1.96642
 Alpha virt. eigenvalues --    1.97985   2.15763   2.37561   2.42635   2.50763
 Alpha virt. eigenvalues --    2.51333   2.53831   2.60332   2.62395   2.64726
 Alpha virt. eigenvalues --    2.68101   2.69625   2.70800   2.72328   2.75099
 Alpha virt. eigenvalues --    2.77702   2.80460   2.81979   2.82559   2.88794
 Alpha virt. eigenvalues --    2.90526   2.93419   2.95107   2.99178   3.01407
 Alpha virt. eigenvalues --    3.05569   3.11191   3.17474   3.20499   3.22130
 Alpha virt. eigenvalues --    3.24337   3.28612   3.29752   3.33380   3.35084
 Alpha virt. eigenvalues --    3.35500   3.39730   3.42999   3.48141   3.50714
 Alpha virt. eigenvalues --    3.52538   3.56332   3.59211   3.62849   3.91466
 Alpha virt. eigenvalues --    4.13746   4.36414   4.49297   4.57519   4.63500
 Alpha virt. eigenvalues --    4.73455   4.96195   5.01965   5.37302   5.43596
 Alpha virt. eigenvalues --    5.68603   6.19691   6.43291   6.67208   6.87936
 Alpha virt. eigenvalues --    6.90448   6.91875   6.99187   7.33892   7.35712
 Alpha virt. eigenvalues --    7.35975   7.45758   7.52329   7.74042   7.75592
 Alpha virt. eigenvalues --    8.38071  14.47677
          Condensed to atoms (all electrons):
               1          2          3          4
     1  O    8.534425  -0.083191  -0.118160   0.073450
     2  Cl  -0.083191  17.903433   0.000986   0.077267
     3  Cl  -0.118160   0.000986  17.053884   0.000659
     4  H    0.073450   0.077267   0.000659   0.606232
 Mulliken charges:
               1
     1  O   -0.406525
     2  Cl  -0.898496
     3  Cl   0.062630
     4  H    0.242391
 Sum of Mulliken charges =  -1.00000
 Mulliken charges with hydrogens summed into heavy atoms:
               1
     1  O   -0.164134
     2  Cl  -0.898496
     3  Cl   0.062630
 Electronic spatial extent (au):  <R**2>=            795.7072
 Charge=             -1.0000 electrons
 Dipole moment (field-independent basis, Debye):
    X=            -10.7269    Y=             -0.6246    Z=              0.5158  Tot=             10.7575
 Quadrupole moment (field-independent basis, Debye-Ang):
   XX=            -72.2974   YY=            -36.9461   ZZ=            -36.1323
   XY=              0.4760   XZ=              0.3296   YZ=             -0.1895
 Traceless Quadrupole moment (field-independent basis, Debye-Ang):
   XX=            -23.8388   YY=             11.5125   ZZ=             12.3263
   XY=              0.4760   XZ=              0.3296   YZ=             -0.1895
 Octapole moment (field-independent basis, Debye-Ang**2):
  XXX=           -235.9437  YYY=            -62.5568  ZZZ=             -1.5875  XYY=            -44.2826
  XXY=            -21.8896  XXZ=             -2.4035  XZZ=            -43.4165  YZZ=            -22.2294
  YYZ=             -0.9648  XYZ=              0.1093
 Hexadecapole moment (field-independent basis, Debye-Ang**3):
 XXXX=          -1219.8993 YYYY=           -245.9547 ZZZZ=            -51.6767 XXXY=             28.1016
 XXXZ=             -8.8806 YYYX=             22.3042 YYYZ=             -0.8938 ZZZX=             -2.0103
 ZZZY=             -0.2805 XXYY=           -197.6485 XXZZ=           -161.8970 YYZZ=            -54.1154
 XXYZ=             -0.2029 YYXZ=             -0.4430 ZZXY=              9.2895
 N-N= 1.217587373283D+02 E-N=-2.621294277391D+03  KE= 9.950366449917D+02
 No NMR shielding tensors so no spin-rotation constants.
 Leave Link  601 at Wed Sep 22 16:32:38 2021, MaxMem= 16106127360 cpu:               4.4 elap:               0.2
 (Enter /sw/contrib/gaussian/g16/B01/g16/l607.exe)
 ******************************Gaussian NBO Version 3.1******************************
             N A T U R A L   A T O M I C   O R B I T A L   A N D
          N A T U R A L   B O N D   O R B I T A L   A N A L Y S I S
 ******************************Gaussian NBO Version 3.1******************************
       /RESON  / : Allow strongly delocalized NBO set

 Analyzing the MP2 density

 Job title: title                                                           

 Storage needed:     86521 in NPA,    114817 in NBO (********** available)
 GSVD:  LWork=        1191 too small for GESVD, short by       52514 words or       52514 for optimal perf.


 NATURAL POPULATIONS:  Natural atomic orbital occupancies 
                                                          
   NAO  Atom  No  lang   Type(AO)    Occupancy
 --------------------------------------------
     1    O    1  S      Cor( 1S)     1.99970
     2    O    1  S      Val( 2S)     1.79254
     3    O    1  S      Ryd( 3S)     0.00928
     4    O    1  S      Ryd( 4S)     0.00112
     5    O    1  S      Ryd( 5S)     0.00017
     6    O    1  px     Val( 2p)     1.71129
     7    O    1  px     Ryd( 3p)     0.01363
     8    O    1  px     Ryd( 4p)     0.00071
     9    O    1  px     Ryd( 5p)     0.00038
    10    O    1  py     Val( 2p)     1.27194
    11    O    1  py     Ryd( 3p)     0.00774
    12    O    1  py     Ryd( 4p)     0.00062
    13    O    1  py     Ryd( 5p)     0.00033
    14    O    1  pz     Val( 2p)     1.83985
    15    O    1  pz     Ryd( 3p)     0.01697
    16    O    1  pz     Ryd( 4p)     0.00071
    17    O    1  pz     Ryd( 5p)     0.00025
    18    O    1  dxy    Ryd( 3d)     0.00919
    19    O    1  dxy    Ryd( 4d)     0.00049
    20    O    1  dxy    Ryd( 5d)     0.00018
    21    O    1  dxz    Ryd( 3d)     0.01115
    22    O    1  dxz    Ryd( 4d)     0.00056
    23    O    1  dxz    Ryd( 5d)     0.00017
    24    O    1  dyz    Ryd( 3d)     0.00974
    25    O    1  dyz    Ryd( 4d)     0.00056
    26    O    1  dyz    Ryd( 5d)     0.00010
    27    O    1  dx2y2  Ryd( 3d)     0.01071
    28    O    1  dx2y2  Ryd( 4d)     0.00046
    29    O    1  dx2y2  Ryd( 5d)     0.00019
    30    O    1  dz2    Ryd( 3d)     0.00899
    31    O    1  dz2    Ryd( 4d)     0.00057
    32    O    1  dz2    Ryd( 5d)     0.00020
    33    O    1  f(0)   Ryd( 4f)     0.00061
    34    O    1  f(0)   Ryd( 5f)     0.00011
    35    O    1  f(C1)  Ryd( 4f)     0.00060
    36    O    1  f(C1)  Ryd( 5f)     0.00012
    37    O    1  f(S1)  Ryd( 4f)     0.00061
    38    O    1  f(S1)  Ryd( 5f)     0.00011
    39    O    1  f(C2)  Ryd( 4f)     0.00063
    40    O    1  f(C2)  Ryd( 5f)     0.00014
    41    O    1  f(S2)  Ryd( 4f)     0.00060
    42    O    1  f(S2)  Ryd( 5f)     0.00012
    43    O    1  f(C3)  Ryd( 4f)     0.00062
    44    O    1  f(C3)  Ryd( 5f)     0.00014
    45    O    1  f(S3)  Ryd( 4f)     0.00060
    46    O    1  f(S3)  Ryd( 5f)     0.00011

    47   Cl    2  S      Cor( 1S)     2.00001
    48   Cl    2  S      Cor( 2S)     2.00000
    49   Cl    2  S      Val( 3S)     1.97628
    50   Cl    2  S      Ryd( 4S)     0.00270
    51   Cl    2  S      Ryd( 5S)     0.00029
    52   Cl    2  S      Ryd( 6S)     0.00012
    53   Cl    2  px     Cor( 2p)     2.00002
    54   Cl    2  px     Val( 3p)     1.90995
    55   Cl    2  px     Ryd( 4p)     0.01159
    56   Cl    2  px     Ryd( 5p)     0.00055
    57   Cl    2  px     Ryd( 6p)     0.00007
    58   Cl    2  py     Cor( 2p)     2.00003
    59   Cl    2  py     Val( 3p)     1.95180
    60   Cl    2  py     Ryd( 4p)     0.01326
    61   Cl    2  py     Ryd( 5p)     0.00058
    62   Cl    2  py     Ryd( 6p)     0.00006
    63   Cl    2  pz     Cor( 2p)     2.00002
    64   Cl    2  pz     Val( 3p)     1.94430
    65   Cl    2  pz     Ryd( 4p)     0.01311
    66   Cl    2  pz     Ryd( 5p)     0.00058
    67   Cl    2  pz     Ryd( 6p)     0.00004
    68   Cl    2  dxy    Ryd( 3d)     0.01864
    69   Cl    2  dxy    Ryd( 4d)     0.00082
    70   Cl    2  dxy    Ryd( 5d)     0.00013
    71   Cl    2  dxz    Ryd( 3d)     0.01874
    72   Cl    2  dxz    Ryd( 4d)     0.00087
    73   Cl    2  dxz    Ryd( 5d)     0.00013
    74   Cl    2  dyz    Ryd( 3d)     0.01837
    75   Cl    2  dyz    Ryd( 4d)     0.00098
    76   Cl    2  dyz    Ryd( 5d)     0.00011
    77   Cl    2  dx2y2  Ryd( 3d)     0.01830
    78   Cl    2  dx2y2  Ryd( 4d)     0.00092
    79   Cl    2  dx2y2  Ryd( 5d)     0.00013
    80   Cl    2  dz2    Ryd( 3d)     0.01835
    81   Cl    2  dz2    Ryd( 4d)     0.00094
    82   Cl    2  dz2    Ryd( 5d)     0.00011
    83   Cl    2  f(0)   Ryd( 4f)     0.00129
    84   Cl    2  f(0)   Ryd( 5f)     0.00015
    85   Cl    2  f(C1)  Ryd( 4f)     0.00129
    86   Cl    2  f(C1)  Ryd( 5f)     0.00016
    87   Cl    2  f(S1)  Ryd( 4f)     0.00129
    88   Cl    2  f(S1)  Ryd( 5f)     0.00014
    89   Cl    2  f(C2)  Ryd( 4f)     0.00129
    90   Cl    2  f(C2)  Ryd( 5f)     0.00016
    91   Cl    2  f(S2)  Ryd( 4f)     0.00130
    92   Cl    2  f(S2)  Ryd( 5f)     0.00015
    93   Cl    2  f(C3)  Ryd( 4f)     0.00129
    94   Cl    2  f(C3)  Ryd( 5f)     0.00017
    95   Cl    2  f(S3)  Ryd( 4f)     0.00128
    96   Cl    2  f(S3)  Ryd( 5f)     0.00016

    97   Cl    3  S      Cor( 1S)     2.00000
    98   Cl    3  S      Cor( 2S)     1.99980
    99   Cl    3  S      Val( 3S)     1.88240
   100   Cl    3  S      Ryd( 4S)     0.00835
   101   Cl    3  S      Ryd( 5S)     0.00054
   102   Cl    3  S      Ryd( 6S)     0.00017
   103   Cl    3  px     Cor( 2p)     2.00003
   104   Cl    3  px     Val( 3p)     1.89214
   105   Cl    3  px     Ryd( 4p)     0.00978
   106   Cl    3  px     Ryd( 5p)     0.00057
   107   Cl    3  px     Ryd( 6p)     0.00007
   108   Cl    3  py     Cor( 2p)     1.99997
   109   Cl    3  py     Val( 3p)     0.96769
   110   Cl    3  py     Ryd( 4p)     0.00708
   111   Cl    3  py     Ryd( 5p)     0.00052
   112   Cl    3  py     Ryd( 6p)     0.00021
   113   Cl    3  pz     Cor( 2p)     2.00003
   114   Cl    3  pz     Val( 3p)     1.95416
   115   Cl    3  pz     Ryd( 4p)     0.01042
   116   Cl    3  pz     Ryd( 5p)     0.00062
   117   Cl    3  pz     Ryd( 6p)     0.00003
   118   Cl    3  dxy    Ryd( 3d)     0.01840
   119   Cl    3  dxy    Ryd( 4d)     0.00075
   120   Cl    3  dxy    Ryd( 5d)     0.00026
   121   Cl    3  dxz    Ryd( 3d)     0.01717
   122   Cl    3  dxz    Ryd( 4d)     0.00079
   123   Cl    3  dxz    Ryd( 5d)     0.00020
   124   Cl    3  dyz    Ryd( 3d)     0.01948
   125   Cl    3  dyz    Ryd( 4d)     0.00094
   126   Cl    3  dyz    Ryd( 5d)     0.00035
   127   Cl    3  dx2y2  Ryd( 3d)     0.01864
   128   Cl    3  dx2y2  Ryd( 4d)     0.00070
   129   Cl    3  dx2y2  Ryd( 5d)     0.00025
   130   Cl    3  dz2    Ryd( 3d)     0.01742
   131   Cl    3  dz2    Ryd( 4d)     0.00062
   132   Cl    3  dz2    Ryd( 5d)     0.00017
   133   Cl    3  f(0)   Ryd( 4f)     0.00129
   134   Cl    3  f(0)   Ryd( 5f)     0.00013
   135   Cl    3  f(C1)  Ryd( 4f)     0.00127
   136   Cl    3  f(C1)  Ryd( 5f)     0.00013
   137   Cl    3  f(S1)  Ryd( 4f)     0.00141
   138   Cl    3  f(S1)  Ryd( 5f)     0.00013
   139   Cl    3  f(C2)  Ryd( 4f)     0.00128
   140   Cl    3  f(C2)  Ryd( 5f)     0.00014
   141   Cl    3  f(S2)  Ryd( 4f)     0.00123
   142   Cl    3  f(S2)  Ryd( 5f)     0.00013
   143   Cl    3  f(C3)  Ryd( 4f)     0.00145
   144   Cl    3  f(C3)  Ryd( 5f)     0.00014
   145   Cl    3  f(S3)  Ryd( 4f)     0.00146
   146   Cl    3  f(S3)  Ryd( 5f)     0.00015

   147    H    4  S      Val( 1S)     0.47704
   148    H    4  S      Ryd( 2S)     0.00627
   149    H    4  S      Ryd( 3S)     0.00026
   150    H    4  S      Ryd( 4S)     0.00014
   151    H    4  px     Ryd( 2p)     0.00606
   152    H    4  px     Ryd( 3p)     0.00077
   153    H    4  px     Ryd( 4p)     0.00029
   154    H    4  py     Ryd( 2p)     0.00287
   155    H    4  py     Ryd( 3p)     0.00040
   156    H    4  py     Ryd( 4p)     0.00011
   157    H    4  pz     Ryd( 2p)     0.00365
   158    H    4  pz     Ryd( 3p)     0.00053
   159    H    4  pz     Ryd( 4p)     0.00020
   160    H    4  dxy    Ryd( 3d)     0.00024
   161    H    4  dxy    Ryd( 4d)     0.00008
   162    H    4  dxz    Ryd( 3d)     0.00033
   163    H    4  dxz    Ryd( 4d)     0.00009
   164    H    4  dyz    Ryd( 3d)     0.00018
   165    H    4  dyz    Ryd( 4d)     0.00007
   166    H    4  dx2y2  Ryd( 3d)     0.00026
   167    H    4  dx2y2  Ryd( 4d)     0.00012
   168    H    4  dz2    Ryd( 3d)     0.00024
   169    H    4  dz2    Ryd( 4d)     0.00010


 Summary of Natural Population Analysis:                  
                                                          
                                       Natural Population 
                Natural  -----------------------------------------------
    Atom  No    Charge         Core      Valence    Rydberg      Total
 -----------------------------------------------------------------------
      O    1   -0.72559      1.99970     6.61561    0.11028     8.72559
     Cl    2   -0.93304     10.00008     7.78233    0.15063    17.93304
     Cl    3    0.15892      9.99983     6.69640    0.14485    16.84108
      H    4    0.49971      0.00000     0.47704    0.02326     0.50029
 =======================================================================
   * Total *   -1.00000     21.99961    21.57137    0.42902    44.00000

                                 Natural Population      
 --------------------------------------------------------
   Core                      21.99961 ( 99.9982% of  22)
   Valence                   21.57137 ( 98.0517% of  22)
   Natural Minimal Basis     43.57098 ( 99.0250% of  44)
   Natural Rydberg Basis      0.42902 (  0.9750% of  44)
 --------------------------------------------------------

    Atom  No          Natural Electron Configuration
 ----------------------------------------------------------------------------
      O    1      [core]2S( 1.79)2p( 4.82)3S( 0.01)3p( 0.04)3d( 0.05)
     Cl    2      [core]3S( 1.98)3p( 5.81)3d( 0.09)4p( 0.04)4f( 0.01)
     Cl    3      [core]3S( 1.88)3p( 4.81)4S( 0.01)3d( 0.09)4p( 0.03)4f( 0.01)
      H    4            1S( 0.48)2S( 0.01)2p( 0.01)


 NATURAL BOND ORBITAL ANALYSIS:

                       Occupancies       Lewis Structure    Low   High
           Occ.    -------------------  -----------------   occ   occ
  Cycle   Thresh.   Lewis   Non-Lewis     CR  BD  3C  LP    (L)   (NL)   Dev
 =============================================================================
   1(1)    1.90    43.49382   0.50618     11   2   0   9     0      0    0.07
 -----------------------------------------------------------------------------

 Structure accepted: No low occupancy Lewis orbitals

 --------------------------------------------------------
   Core                     21.99961 ( 99.998% of  22)
   Valence Lewis            21.49421 ( 97.701% of  22)
  ==================       ============================
   Total Lewis              43.49382 ( 98.850% of  44)
  -----------------------------------------------------
   Valence non-Lewis         0.12590 (  0.286% of  44)
   Rydberg non-Lewis         0.38029 (  0.864% of  44)
  ==================       ============================
   Total non-Lewis           0.50618 (  1.150% of  44)
 --------------------------------------------------------


       (Occupancy)   Bond orbital/ Coefficients/ Hybrids
 ---------------------------------------------------------------------------------
     1. (1.94006) BD ( 1) O   1 -Cl   3  
                ( 58.95%)   0.7678* O   1 s( 10.24%)p 8.71( 89.19%)d 0.05(  0.54%)
                                                  f 0.00(  0.02%)
                                            0.0003  0.3170 -0.0425 -0.0131 -0.0016
                                           -0.2169  0.0288  0.0064  0.0022  0.9178
                                           -0.0197 -0.0084 -0.0096  0.0282  0.0175
                                            0.0032 -0.0005 -0.0123 -0.0017 -0.0027
                                            0.0078  0.0007 -0.0013  0.0196  0.0026
                                           -0.0005 -0.0585 -0.0044 -0.0001 -0.0370
                                           -0.0030 -0.0003 -0.0001  0.0002  0.0020
                                            0.0004 -0.0079  0.0002 -0.0033  0.0018
                                            0.0051 -0.0010  0.0051  0.0012 -0.0066
                                            0.0010
                ( 41.05%)   0.6407*Cl   3 s(  8.58%)p10.50( 90.14%)d 0.14(  1.17%)
                                                  f 0.01(  0.11%)
                                           -0.0000  0.0005  0.2866 -0.0597 -0.0101
                                           -0.0025  0.0001  0.2276 -0.0144 -0.0047
                                            0.0014 -0.0004 -0.9191  0.0658  0.0129
                                           -0.0037  0.0000  0.0054 -0.0003 -0.0022
                                            0.0011 -0.0480  0.0056 -0.0001  0.0075
                                            0.0003 -0.0009 -0.0104 -0.0014 -0.0009
                                           -0.0782  0.0096  0.0006 -0.0540  0.0060
                                            0.0001 -0.0008  0.0001 -0.0048  0.0007
                                            0.0195 -0.0025  0.0001 -0.0006 -0.0018
                                            0.0011 -0.0177  0.0024  0.0193 -0.0023
     2. (1.96408) BD ( 1) O   1 - H   4  
                ( 78.41%)   0.8855* O   1 s( 25.61%)p 2.88( 73.86%)d 0.02(  0.52%)
                                                  f 0.00(  0.01%)
                                            0.0002  0.5060 -0.0051 -0.0078  0.0025
                                            0.6831 -0.0123 -0.0067 -0.0023 -0.0271
                                            0.0156  0.0015  0.0019  0.5203 -0.0037
                                           -0.0050 -0.0039  0.0208  0.0040  0.0010
                                            0.0593  0.0037 -0.0007  0.0176  0.0032
                                            0.0003  0.0301  0.0019  0.0017  0.0054
                                            0.0018  0.0020 -0.0080  0.0005  0.0028
                                            0.0006  0.0011 -0.0003  0.0046  0.0022
                                            0.0001 -0.0009 -0.0018  0.0024 -0.0019
                                           -0.0001
                ( 21.59%)   0.4646* H   4 s( 99.80%)p 0.00(  0.20%)d 0.00(  0.00%)
                                            0.9987  0.0267  0.0010 -0.0000  0.0005
                                           -0.0266 -0.0066  0.0121  0.0017 -0.0041
                                            0.0260 -0.0190 -0.0033  0.0010  0.0013
                                            0.0011 -0.0009  0.0017  0.0014  0.0006
                                           -0.0016 -0.0017 -0.0016
     3. (1.99970) CR ( 1) O   1           s(100.00%)p 0.00(  0.00%)
                                            1.0000 -0.0004  0.0000  0.0000  0.0000
                                           -0.0001 -0.0000  0.0000  0.0000 -0.0002
                                            0.0000  0.0000  0.0000 -0.0000 -0.0000
                                            0.0000  0.0000  0.0000 -0.0000 -0.0000
                                           -0.0000 -0.0000  0.0000 -0.0000 -0.0000
                                           -0.0000  0.0000  0.0000 -0.0000  0.0000
                                            0.0000 -0.0000  0.0000 -0.0000 -0.0000
                                           -0.0000  0.0000 -0.0000 -0.0000 -0.0000
                                           -0.0000  0.0000 -0.0000 -0.0000  0.0000
                                           -0.0000
     4. (2.00001) CR ( 1)Cl   2           s(100.00%)
                                            1.0000 -0.0000  0.0000  0.0000 -0.0000
                                            0.0000 -0.0000 -0.0001  0.0000  0.0000
                                           -0.0000 -0.0000  0.0000  0.0000  0.0000
                                            0.0000  0.0000  0.0000  0.0000 -0.0000
                                            0.0000 -0.0000 -0.0000 -0.0000 -0.0000
                                           -0.0000 -0.0000  0.0000  0.0000  0.0000
                                            0.0000  0.0000 -0.0000 -0.0000 -0.0000
                                           -0.0000 -0.0000 -0.0000  0.0000  0.0000
                                           -0.0000 -0.0000  0.0000  0.0000 -0.0000
                                           -0.0000 -0.0000 -0.0000  0.0000  0.0000
     5. (2.00000) CR ( 2)Cl   2           s(100.00%)
                                           -0.0000  1.0000  0.0000  0.0000 -0.0000
                                            0.0000 -0.0000 -0.0000  0.0000  0.0000
                                           -0.0000 -0.0000  0.0000  0.0000  0.0000
                                            0.0000  0.0000  0.0000  0.0000 -0.0000
                                            0.0000 -0.0000 -0.0000 -0.0000 -0.0000
                                           -0.0000 -0.0000 -0.0000  0.0000  0.0000
                                            0.0000  0.0000 -0.0000 -0.0000 -0.0000
                                           -0.0000 -0.0000 -0.0000  0.0000  0.0000
                                           -0.0000 -0.0000  0.0000  0.0000 -0.0000
                                           -0.0000 -0.0000 -0.0000  0.0000  0.0000
     6. (2.00002) CR ( 3)Cl   2           s(  0.00%)p 1.00(100.00%)
                                           -0.0000 -0.0000  0.0000  0.0000 -0.0000
                                            0.0000  1.0000 -0.0001  0.0000  0.0000
                                           -0.0000 -0.0000 -0.0000  0.0000  0.0000
                                            0.0000  0.0000  0.0000  0.0000 -0.0000
                                            0.0000  0.0000 -0.0000 -0.0000 -0.0000
                                           -0.0000 -0.0000 -0.0000 -0.0000  0.0000
                                            0.0000  0.0000  0.0000 -0.0000 -0.0000
                                            0.0000 -0.0000 -0.0000  0.0000  0.0000
                                           -0.0000 -0.0000  0.0000  0.0000  0.0000
                                           -0.0000 -0.0000 -0.0000  0.0000  0.0000
     7. (2.00003) CR ( 4)Cl   2           s(  0.00%)p 1.00(100.00%)
                                           -0.0000 -0.0000  0.0000  0.0000 -0.0000
                                            0.0000 -0.0000 -0.0000 -0.0000  0.0000
                                            0.0000  1.0000  0.0000  0.0000  0.0000
                                           -0.0000  0.0000  0.0000  0.0000 -0.0000
                                            0.0000 -0.0000 -0.0000  0.0000 -0.0000
                                           -0.0000 -0.0000  0.0000  0.0000  0.0000
                                            0.0000  0.0000  0.0000 -0.0000 -0.0000
                                            0.0000 -0.0000 -0.0000  0.0000  0.0000
                                           -0.0000 -0.0000  0.0000  0.0000 -0.0000
                                           -0.0000 -0.0000 -0.0000  0.0000  0.0000
     8. (2.00002) CR ( 5)Cl   2           s(  0.00%)p 1.00(100.00%)
                                            0.0000  0.0000 -0.0000 -0.0000  0.0000
                                           -0.0000  0.0000  0.0001 -0.0000 -0.0000
                                            0.0000  0.0000  0.0000 -0.0000 -0.0000
                                           -0.0000  1.0000  0.0000 -0.0000  0.0000
                                           -0.0000  0.0000  0.0000  0.0000  0.0000
                                            0.0000  0.0000  0.0000  0.0000  0.0000
                                           -0.0000 -0.0000  0.0000  0.0000  0.0000
                                            0.0000  0.0000  0.0000 -0.0000 -0.0000
                                            0.0000  0.0000 -0.0000 -0.0000 -0.0000
                                           -0.0000  0.0000  0.0000 -0.0000 -0.0000
     9. (2.00000) CR ( 1)Cl   3           s(100.00%)
                                            1.0000  0.0000  0.0000 -0.0000 -0.0000
                                           -0.0000  0.0000  0.0000 -0.0000 -0.0000
                                            0.0000 -0.0000 -0.0000  0.0000  0.0000
                                           -0.0000 -0.0000  0.0000 -0.0000 -0.0000
                                            0.0000 -0.0000  0.0000 -0.0000  0.0000
                                            0.0000 -0.0000 -0.0000 -0.0000 -0.0000
                                           -0.0000  0.0000  0.0000 -0.0000  0.0000
                                            0.0000 -0.0000  0.0000 -0.0000  0.0000
                                            0.0000 -0.0000 -0.0000 -0.0000 -0.0000
                                            0.0000 -0.0000  0.0000  0.0000 -0.0000
    10. (1.99981) CR ( 2)Cl   3           s(100.00%)p 0.00(  0.00%)
                                            0.0000  1.0000 -0.0004  0.0000  0.0000
                                            0.0000 -0.0000 -0.0001  0.0000  0.0000
                                           -0.0000  0.0000  0.0004 -0.0000 -0.0000
                                            0.0000 -0.0000 -0.0000 -0.0000  0.0000
                                           -0.0000  0.0000 -0.0000 -0.0000 -0.0000
                                           -0.0000  0.0000  0.0000  0.0000  0.0000
                                            0.0000 -0.0000 -0.0000  0.0000 -0.0000
                                           -0.0000  0.0000 -0.0000  0.0000 -0.0000
                                           -0.0000  0.0000 -0.0000  0.0000  0.0000
                                           -0.0000  0.0000 -0.0000 -0.0000  0.0000
    11. (2.00003) CR ( 3)Cl   3           s(  0.00%)p 1.00(100.00%)
                                            0.0000 -0.0000 -0.0000  0.0000  0.0000
                                            0.0000  1.0000  0.0001  0.0000  0.0000
                                           -0.0000  0.0000  0.0001 -0.0000 -0.0000
                                            0.0000 -0.0000  0.0000  0.0000  0.0000
                                            0.0000  0.0000  0.0000  0.0000 -0.0000
                                            0.0000  0.0000  0.0000 -0.0000  0.0000
                                            0.0000 -0.0000 -0.0000  0.0000 -0.0000
                                            0.0000 -0.0000  0.0000  0.0000 -0.0000
                                           -0.0000  0.0000  0.0000 -0.0000  0.0000
                                           -0.0000  0.0000 -0.0000 -0.0000  0.0000
    12. (1.99997) CR ( 4)Cl   3           s(  0.00%)p 1.00(100.00%)
                                           -0.0000  0.0000  0.0001 -0.0000 -0.0000
                                           -0.0000  0.0000  0.0001 -0.0000 -0.0000
                                            0.0000  1.0000 -0.0003  0.0000  0.0000
                                           -0.0000 -0.0000  0.0000  0.0000 -0.0000
                                            0.0000 -0.0000  0.0000  0.0000  0.0000
                                            0.0000 -0.0000 -0.0000 -0.0000 -0.0000
                                           -0.0000  0.0000 -0.0000 -0.0000  0.0000
                                            0.0000 -0.0000  0.0000 -0.0000  0.0000
                                            0.0000 -0.0000  0.0000 -0.0000 -0.0000
                                            0.0000 -0.0000  0.0000  0.0000 -0.0000
    13. (2.00003) CR ( 5)Cl   3           s(  0.00%)p 1.00(100.00%)
                                           -0.0000 -0.0000 -0.0000  0.0000  0.0000
                                           -0.0000 -0.0000  0.0000  0.0000 -0.0000
                                            0.0000 -0.0000  0.0000 -0.0000  0.0000
                                           -0.0000  1.0000  0.0002  0.0000  0.0000
                                           -0.0000 -0.0000 -0.0000 -0.0000 -0.0000
                                           -0.0000 -0.0000  0.0000  0.0000  0.0000
                                            0.0000 -0.0000 -0.0000  0.0000  0.0000
                                            0.0000 -0.0000  0.0000  0.0000 -0.0000
                                           -0.0000  0.0000 -0.0000  0.0000 -0.0000
                                            0.0000  0.0000  0.0000 -0.0000 -0.0000
    14. (1.96827) LP ( 1) O   1           s( 64.27%)p 0.55( 35.63%)d 0.00(  0.09%)
                                                  f 0.00(  0.00%)
                                            0.0002  0.8016  0.0115  0.0071 -0.0011
                                           -0.3422 -0.0061 -0.0038 -0.0020 -0.3460
                                           -0.0045 -0.0054 -0.0023 -0.3455 -0.0048
                                           -0.0034 -0.0009 -0.0188 -0.0010  0.0040
                                           -0.0116  0.0000  0.0011 -0.0199 -0.0024
                                            0.0013  0.0017  0.0007  0.0015 -0.0021
                                           -0.0003  0.0012  0.0029 -0.0004 -0.0001
                                           -0.0004 -0.0013  0.0010  0.0020 -0.0011
                                           -0.0017  0.0006  0.0040 -0.0019  0.0001
                                            0.0005
    15. (1.95279) LP ( 2) O   1           s(  0.02%)p99.99( 99.76%)d10.52(  0.21%)
                                                  f 0.75(  0.01%)
                                           -0.0000  0.0056  0.0118  0.0052 -0.0009
                                           -0.6028 -0.0109 -0.0032 -0.0024 -0.1675
                                           -0.0047 -0.0013 -0.0022  0.7782  0.0162
                                            0.0057  0.0057 -0.0230 -0.0013  0.0036
                                           -0.0066 -0.0044 -0.0052  0.0245  0.0032
                                           -0.0017 -0.0007  0.0041  0.0052  0.0274
                                           -0.0009 -0.0065 -0.0023  0.0006  0.0068
                                            0.0001  0.0009 -0.0005 -0.0071  0.0012
                                           -0.0036 -0.0000  0.0038 -0.0021  0.0036
                                           -0.0005
    16. (1.97919) LP ( 1)Cl   2           s( 96.37%)p 0.04(  3.63%)d 0.00(  0.00%)
                                                  f 0.00(  0.00%)
                                            0.0000  0.0000  0.9817 -0.0001  0.0002
                                           -0.0002 -0.0000  0.1761 -0.0012  0.0005
                                           -0.0004  0.0000 -0.0028 -0.0001 -0.0000
                                           -0.0001  0.0000 -0.0724  0.0005 -0.0001
                                            0.0002 -0.0001 -0.0000 -0.0000 -0.0003
                                           -0.0004  0.0002 -0.0000 -0.0000 -0.0000
                                            0.0011  0.0005 -0.0001 -0.0007 -0.0003
                                            0.0001 -0.0003 -0.0002  0.0003  0.0001
                                           -0.0000 -0.0000  0.0004  0.0003  0.0000
                                            0.0000 -0.0004 -0.0003  0.0000  0.0000
    17. (1.95207) LP ( 2)Cl   2           s(  0.00%)p 1.00( 99.99%)d 0.00(  0.01%)
                                                  f 0.00(  0.00%)
                                           -0.0000  0.0000  0.0044  0.0006 -0.0008
                                            0.0011  0.0000 -0.1383 -0.0000 -0.0000
                                            0.0001 -0.0000  0.9397  0.0010  0.0009
                                           -0.0001  0.0000 -0.3126  0.0001 -0.0002
                                            0.0003 -0.0079 -0.0020  0.0000  0.0012
                                           -0.0003 -0.0005  0.0039  0.0018  0.0009
                                            0.0016  0.0006  0.0001 -0.0020 -0.0007
                                           -0.0002  0.0000 -0.0001  0.0008  0.0005
                                           -0.0002 -0.0002 -0.0001  0.0001 -0.0016
                                           -0.0010 -0.0003 -0.0001  0.0020  0.0013
    18. (1.95159) LP ( 3)Cl   2           s(  0.00%)p 1.00( 99.99%)d 0.00(  0.01%)
                                                  f 0.00(  0.00%)
                                            0.0000  0.0000 -0.0007  0.0008 -0.0016
                                            0.0017  0.0000 -0.3585  0.0007  0.0000
                                           -0.0000  0.0000 -0.3417 -0.0002 -0.0002
                                            0.0000  0.0000 -0.8687  0.0003 -0.0007
                                            0.0005  0.0027  0.0005 -0.0002  0.0037
                                            0.0001 -0.0009 -0.0015 -0.0007 -0.0004
                                            0.0019  0.0000 -0.0008 -0.0054 -0.0022
                                           -0.0008  0.0002  0.0000  0.0022  0.0014
                                            0.0001  0.0000 -0.0006 -0.0002  0.0007
                                            0.0005 -0.0006 -0.0002 -0.0007 -0.0004
    19. (1.90071) LP ( 4)Cl   2           s(  3.62%)p26.59( 96.33%)d 0.01(  0.04%)
                                                  f 0.00(  0.00%)
                                           -0.0001 -0.0000  0.1903  0.0007 -0.0009
                                            0.0010 -0.0001 -0.9060  0.0012  0.0017
                                           -0.0003 -0.0000 -0.0088  0.0001  0.0002
                                            0.0002  0.0001  0.3773  0.0024 -0.0007
                                            0.0009 -0.0001 -0.0005 -0.0005 -0.0145
                                           -0.0041 -0.0011 -0.0001 -0.0000  0.0000
                                            0.0122  0.0029 -0.0001 -0.0043 -0.0012
                                           -0.0001 -0.0022 -0.0013  0.0008  0.0008
                                           -0.0001 -0.0001  0.0031  0.0017  0.0000
                                           -0.0000 -0.0026 -0.0015  0.0001  0.0003
    20. (1.97435) LP ( 1)Cl   3           s( 91.62%)p 0.09(  8.35%)d 0.00(  0.02%)
                                                  f 0.00(  0.00%)
                                            0.0000  0.0003  0.9572  0.0071  0.0012
                                            0.0003 -0.0000 -0.0508 -0.0004  0.0003
                                            0.0001  0.0000  0.2833 -0.0064 -0.0029
                                            0.0012  0.0000  0.0259  0.0008  0.0002
                                            0.0001  0.0051  0.0000  0.0003  0.0007
                                            0.0001 -0.0003  0.0006  0.0006  0.0005
                                            0.0107 -0.0006 -0.0001  0.0084  0.0007
                                            0.0003 -0.0003  0.0001  0.0006 -0.0000
                                           -0.0023 -0.0003  0.0000 -0.0001 -0.0005
                                            0.0003  0.0017  0.0003 -0.0028  0.0000
    21. (1.95614) LP ( 2)Cl   3           s(  0.02%)p99.99( 99.92%)d 2.67(  0.05%)
                                                  f 0.42(  0.01%)
                                            0.0000  0.0000  0.0121 -0.0066 -0.0030
                                            0.0016 -0.0001  0.5313  0.0071  0.0024
                                           -0.0004 -0.0000  0.1312  0.0020 -0.0002
                                            0.0008  0.0001 -0.8363 -0.0131 -0.0039
                                            0.0017  0.0032  0.0083  0.0037  0.0064
                                            0.0082  0.0030 -0.0047 -0.0137 -0.0068
                                           -0.0045 -0.0063 -0.0033 -0.0002  0.0006
                                            0.0001  0.0036  0.0001 -0.0019  0.0006
                                            0.0002 -0.0003  0.0058 -0.0015  0.0029
                                           -0.0006 -0.0031  0.0004 -0.0035  0.0010
    22. (1.95495) LP ( 3)Cl   3           s(  0.09%)p99.99( 99.86%)d 0.45(  0.04%)
                                                  f 0.10(  0.01%)
                                            0.0000 -0.0000  0.0296  0.0052  0.0035
                                           -0.0015  0.0001 -0.8129 -0.0106 -0.0012
                                            0.0003  0.0001 -0.1963 -0.0028 -0.0006
                                           -0.0008  0.0001 -0.5468 -0.0088 -0.0014
                                            0.0004  0.0044 -0.0093 -0.0047  0.0002
                                            0.0035  0.0020  0.0018 -0.0072 -0.0041
                                            0.0068  0.0105  0.0055 -0.0023 -0.0033
                                           -0.0002  0.0033 -0.0005  0.0007  0.0007
                                            0.0009  0.0000  0.0027 -0.0001  0.0024
                                           -0.0005  0.0053 -0.0011  0.0056 -0.0009
    23. (0.01960) RY*( 1) O   1           s(  0.24%)p99.99( 98.15%)d 6.43(  1.55%)
                                                  f 0.23(  0.06%)
                                           -0.0000 -0.0006  0.0489  0.0046  0.0015
                                            0.0147 -0.5962  0.0244  0.0096  0.0075
                                           -0.1674  0.0053 -0.0027 -0.0202  0.7718
                                           -0.0303 -0.0032 -0.0644 -0.0140 -0.0009
                                           -0.0125 -0.0101 -0.0102  0.0668  0.0208
                                            0.0062 -0.0040  0.0078  0.0071  0.0755
                                            0.0056 -0.0058 -0.0057  0.0047  0.0064
                                           -0.0065  0.0028 -0.0014 -0.0103  0.0087
                                           -0.0040  0.0033  0.0100 -0.0073  0.0047
                                           -0.0049
    24. (0.01550) RY*( 2) O   1           s( 28.46%)p 2.41( 68.58%)d 0.09(  2.70%)
                                                  f 0.01(  0.26%)
                                           -0.0000  0.0017  0.5302 -0.0586 -0.0040
                                            0.0058 -0.4519  0.0062  0.0272  0.0422
                                           -0.4894 -0.0022  0.0342  0.0071 -0.4875
                                            0.0084  0.0239 -0.0937 -0.0189 -0.0072
                                           -0.0327  0.0008  0.0098 -0.1178 -0.0218
                                           -0.0085  0.0452  0.0023 -0.0017  0.0112
                                            0.0025 -0.0002  0.0039 -0.0046  0.0176
                                           -0.0093 -0.0139  0.0058  0.0262 -0.0122
                                           -0.0074  0.0049  0.0282 -0.0133 -0.0098
                                            0.0033
    25. (0.00783) RY*( 3) O   1           s( 14.20%)p 0.49(  6.96%)d 5.45( 77.32%)
                                                  f 0.11(  1.53%)
                                           -0.0000  0.0142  0.3725 -0.0537  0.0110
                                            0.0092  0.2038 -0.0124  0.0580 -0.0152
                                           -0.1015  0.0017  0.0374 -0.0018  0.1107
                                           -0.0098  0.0124  0.6022 -0.0047  0.0004
                                           -0.1798  0.0017 -0.0104  0.2678  0.0099
                                            0.0074 -0.4987 -0.0084 -0.0278  0.2377
                                           -0.0059  0.0053  0.0010 -0.0014  0.0025
                                           -0.0080  0.0022  0.0020 -0.0552  0.0229
                                            0.0278 -0.0126 -0.0872  0.0336 -0.0400
                                            0.0200
    26. (0.00707) RY*( 4) O   1           s(  1.02%)p 0.33(  0.33%)d95.35( 96.91%)
                                                  f 1.71(  1.74%)
                                           -0.0000  0.0062  0.1001 -0.0096 -0.0025
                                            0.0107  0.0339  0.0071  0.0011 -0.0015
                                           -0.0026  0.0061  0.0085 -0.0146 -0.0390
                                           -0.0088  0.0095 -0.1410  0.0152 -0.0006
                                           -0.3611  0.0188 -0.0050  0.7908 -0.0351
                                            0.0065  0.3252 -0.0227  0.0015 -0.2918
                                            0.0150 -0.0093 -0.0719  0.0306 -0.0318
                                            0.0143  0.0144 -0.0059 -0.0740  0.0302
                                           -0.0150  0.0066  0.0338 -0.0181  0.0383
                                           -0.0142
    27. (0.00634) RY*( 5) O   1           s(  0.29%)p23.51(  6.82%)d99.99( 91.35%)
                                                  f 5.32(  1.54%)
                                           -0.0000  0.0017  0.0494 -0.0212 -0.0031
                                            0.0431  0.2345 -0.0151  0.0042 -0.0029
                                           -0.0969 -0.0014  0.0282 -0.0131  0.0252
                                           -0.0043  0.0046 -0.6762  0.0372 -0.0167
                                           -0.0508  0.0024 -0.0020  0.1658 -0.0262
                                           -0.0086 -0.2642  0.0129 -0.0130  0.5929
                                           -0.0428  0.0185  0.0255 -0.0141  0.0574
                                           -0.0285  0.0333 -0.0166 -0.0397  0.0204
                                           -0.0428  0.0202  0.0492 -0.0174 -0.0426
                                            0.0175
    28. (0.00609) RY*( 6) O   1           s(  1.30%)p17.50( 22.73%)d57.26( 74.36%)
                                                  f 1.24(  1.61%)
                                           -0.0000  0.0102  0.1091 -0.0262 -0.0171
                                            0.0466  0.3240 -0.0145 -0.0187 -0.0124
                                           -0.2436 -0.0012  0.0330  0.0458  0.2371
                                           -0.0200 -0.0186 -0.1622 -0.0041 -0.0124
                                           -0.6399  0.0429 -0.0229 -0.4405  0.0311
                                           -0.0101 -0.0427 -0.0048  0.0042 -0.3282
                                            0.0233 -0.0056  0.0421 -0.0226 -0.0536
                                            0.0273 -0.0558  0.0216 -0.0055  0.0059
                                           -0.0629  0.0275  0.0233 -0.0089 -0.0328
                                            0.0118
    29. (0.00573) RY*( 7) O   1           s(  1.15%)p10.71( 12.36%)d73.11( 84.34%)
                                                  f 1.87(  2.15%)
                                           -0.0000  0.0199  0.1028 -0.0199  0.0132
                                           -0.0098 -0.0929 -0.0002  0.0147  0.0725
                                            0.3254 -0.0052 -0.0473 -0.0032 -0.0346
                                           -0.0015  0.0044  0.1958 -0.0062  0.0048
                                           -0.4245  0.0629 -0.0021 -0.1769  0.0297
                                            0.0093  0.5217 -0.0476 -0.0129  0.5575
                                           -0.0561 -0.0052  0.0331 -0.0152 -0.0110
                                            0.0023  0.0843 -0.0319  0.0259 -0.0103
                                           -0.0234  0.0083 -0.0376  0.0136  0.0881
                                           -0.0347
    30. (0.00289) RY*( 8) O   1           s( 23.70%)p 1.37( 32.57%)d 1.81( 42.99%)
                                                  f 0.03(  0.74%)
                                            0.0000 -0.0057  0.4688 -0.1305  0.0149
                                           -0.0257  0.4360 -0.0505  0.1383  0.0212
                                           -0.1262  0.0183  0.0791 -0.0164  0.2901
                                           -0.0616  0.0450 -0.0085  0.0134 -0.0040
                                            0.4489 -0.1231  0.0307 -0.0460  0.0087
                                           -0.0005  0.4464 -0.0670  0.0452 -0.0057
                                            0.0610  0.0172 -0.0109  0.0175  0.0413
                                           -0.0329  0.0104 -0.0031  0.0386 -0.0307
                                            0.0196 -0.0036  0.0060 -0.0078  0.0334
                                           -0.0045
    31. (0.00249) RY*( 9) O   1           s( 24.58%)p 2.25( 55.42%)d 0.79( 19.37%)
                                                  f 0.03(  0.63%)
                                           -0.0000 -0.0006  0.4823 -0.1144 -0.0108
                                            0.0034 -0.1564 -0.0095  0.1021  0.0145
                                            0.7188 -0.0286  0.0270  0.0049  0.0116
                                           -0.0179  0.0174 -0.2335  0.0389 -0.0398
                                           -0.0075 -0.0275 -0.0107 -0.0775  0.0163
                                            0.0000 -0.2510  0.0042 -0.0802 -0.2304
                                            0.0756 -0.0255  0.0025 -0.0042  0.0284
                                           -0.0244 -0.0334  0.0338  0.0067 -0.0011
                                           -0.0108  0.0036  0.0206 -0.0225 -0.0263
                                            0.0286
    32. (0.00078) RY*(10) O   1           s( 50.16%)p 0.68( 34.10%)d 0.22( 11.24%)
                                                  f 0.09(  4.50%)
                                           -0.0000 -0.0017  0.0563  0.7050  0.0374
                                            0.0065 -0.0022 -0.3013  0.2356  0.0140
                                           -0.0116 -0.1959 -0.1830  0.0023 -0.0191
                                           -0.3316  0.1105 -0.0223  0.1124  0.0835
                                           -0.0202  0.0047 -0.1088 -0.0092  0.0418
                                            0.0022 -0.0096 -0.0942  0.0199 -0.0113
                                            0.2395  0.1063  0.0328 -0.0379  0.1463
                                           -0.0528  0.0545 -0.0120 -0.0434  0.0118
                                            0.0379 -0.0141 -0.1025  0.0139  0.0230
                                           -0.0180
    33. (0.00067) RY*(11) O   1           s(  3.24%)p 2.11(  6.81%)d22.47( 72.72%)
                                                  f 5.32( 17.23%)
                                           -0.0000  0.0002  0.0824  0.1587 -0.0194
                                            0.0049  0.0118 -0.0955 -0.1363  0.0078
                                            0.0214 -0.0274 -0.0968 -0.0012  0.0303
                                            0.0444  0.1636  0.0087  0.3849  0.0721
                                           -0.0068 -0.2785 -0.0078  0.0013 -0.2224
                                           -0.0213  0.0142  0.3180  0.0473 -0.0254
                                           -0.5845 -0.0192  0.0481 -0.0001  0.0038
                                           -0.0057 -0.3251  0.0492  0.0950 -0.0158
                                           -0.0910  0.0180 -0.1254  0.0006  0.1648
                                           -0.0322
    34. (0.00063) RY*(12) O   1           s(  0.96%)p88.14( 84.68%)d 6.44(  6.18%)
                                                  f 8.52(  8.18%)
                                           -0.0000  0.0023  0.0309  0.0929 -0.0024
                                           -0.0006  0.0240  0.6190 -0.2299  0.0050
                                            0.0270  0.1575  0.0172  0.0027 -0.0220
                                           -0.5895  0.1907  0.0356 -0.0230  0.0368
                                           -0.0013 -0.1698 -0.0048 -0.0193 -0.0621
                                           -0.0182 -0.0094  0.1299  0.0235  0.0171
                                            0.0796  0.0334 -0.0670 -0.0197  0.0187
                                            0.0076  0.0882 -0.0065 -0.0470 -0.0309
                                           -0.1992  0.0152  0.1578  0.0072 -0.0047
                                            0.0252
    35. (0.00058) RY*(13) O   1           s(  2.72%)p 5.26( 14.32%)d16.55( 45.10%)
                                                  f13.90( 37.86%)
                                           -0.0000  0.0040 -0.0108  0.1369  0.0915
                                            0.0044 -0.0095 -0.0487  0.0244  0.0093
                                            0.0135  0.0111  0.0631 -0.0001  0.0016
                                            0.3600 -0.0786  0.0430 -0.1220  0.0560
                                           -0.0538 -0.5019 -0.0451  0.0335 -0.2057
                                            0.0358 -0.0030  0.1316  0.0377  0.0247
                                            0.3296  0.0382  0.1296  0.0064 -0.0287
                                            0.0010  0.1730 -0.0139  0.3068 -0.0076
                                           -0.4612  0.0385  0.0857 -0.0097 -0.1226
                                            0.0046
    36. (0.00051) RY*(14) O   1           s(  0.12%)p35.30(  4.35%)d99.99( 57.22%)
                                                  f99.99( 38.31%)
                                           -0.0000  0.0002  0.0271  0.0199 -0.0100
                                           -0.0050 -0.0019  0.1700 -0.0968 -0.0010
                                           -0.0001  0.0261 -0.0413  0.0072  0.0293
                                            0.0377  0.0220  0.0026  0.4617 -0.0328
                                            0.0048  0.1786 -0.0189 -0.0018 -0.4900
                                            0.0607  0.0162 -0.2635  0.0520 -0.0108
                                            0.0930 -0.0248  0.2280  0.0171 -0.1766
                                            0.0021  0.1978 -0.0072  0.2235  0.0126
                                            0.2819  0.0078 -0.0533 -0.0188 -0.3570
                                           -0.0113
    37. (0.00049) RY*(15) O   1           s(  0.47%)p 4.33(  2.05%)d73.63( 34.87%)
                                                  f99.99( 62.61%)
                                            0.0000  0.0000  0.0282  0.0460  0.0427
                                           -0.0053 -0.0107 -0.0097 -0.0562  0.0012
                                           -0.0166  0.0426 -0.0884 -0.0029 -0.0074
                                            0.0704 -0.0467 -0.0174  0.3501 -0.0509
                                            0.0375 -0.0774  0.0623 -0.0328  0.3459
                                           -0.0721 -0.0216 -0.2461 -0.0237 -0.0185
                                           -0.1551  0.0035 -0.5087 -0.0403 -0.2834
                                           -0.0181  0.3190  0.0270 -0.0504 -0.0141
                                           -0.3316 -0.0159 -0.1936 -0.0296 -0.1767
                                           -0.0045
    38. (0.00050) RY*(16) O   1           s(  0.44%)p21.78(  9.50%)d42.71( 18.64%)
                                                  f99.99( 71.42%)
                                            0.0000  0.0015 -0.0359 -0.0371  0.0412
                                           -0.0040 -0.0038  0.1962  0.0717 -0.0027
                                           -0.0210  0.1886  0.0195  0.0005 -0.0094
                                           -0.0159 -0.1210 -0.0404  0.0573 -0.0548
                                            0.0099  0.1901 -0.0426  0.0272 -0.0944
                                            0.0378 -0.0256 -0.2944  0.0020  0.0148
                                            0.1987 -0.0481 -0.0540 -0.0057  0.2025
                                            0.0035 -0.3997 -0.0110  0.2518  0.0244
                                           -0.3136 -0.0101 -0.5160 -0.0165  0.2849
                                            0.0125
    39. (0.00048) RY*(17) O   1           s(  2.50%)p25.06( 62.65%)d 1.20(  3.01%)
                                                  f12.74( 31.84%)
                                           -0.0000  0.0056  0.0576  0.1323  0.0644
                                            0.0023  0.0179 -0.0941  0.0089  0.0057
                                           -0.0090  0.7517 -0.1833  0.0003  0.0129
                                            0.1350  0.0080 -0.0165  0.0638  0.0273
                                            0.0083  0.0669 -0.0295 -0.0194  0.0019
                                           -0.0131 -0.0654  0.0216 -0.0999 -0.0522
                                           -0.0262 -0.0297  0.1015  0.0081  0.0467
                                           -0.0023  0.3338  0.0403 -0.0138 -0.0010
                                            0.1011  0.0015  0.1343  0.0111  0.4038
                                            0.0349
    40. (0.00047) RY*(18) O   1           s(  6.34%)p 8.28( 52.48%)d 2.14( 13.57%)
                                                  f 4.35( 27.60%)
                                           -0.0000  0.0028  0.0811  0.2234  0.0831
                                            0.0095  0.0450  0.4967 -0.0885 -0.0022
                                           -0.0068 -0.1724 -0.0705 -0.0029  0.0219
                                            0.4738 -0.0918 -0.0023  0.1903  0.0373
                                           -0.0177 -0.0799 -0.0528 -0.0138  0.2827
                                           -0.0386  0.0276 -0.0040  0.0536 -0.0115
                                            0.0571  0.0060 -0.0238 -0.0070  0.4404
                                            0.0517 -0.0172  0.0124 -0.1137 -0.0040
                                            0.2455  0.0230  0.0600 -0.0079  0.0277
[...]
                                            0.1520 -0.1552  0.0059
   151. (0.00050) RY*( 6) H   4           s( 18.39%)p 3.25( 59.69%)d 1.19( 21.92%)
                                            0.0035  0.0680  0.4114  0.1001  0.0091
                                            0.0009 -0.2906 -0.0003 -0.5888 -0.1757
                                           -0.0619  0.3280 -0.1531  0.3236  0.0599
                                           -0.2510  0.1654  0.0222  0.0583  0.0619
                                            0.1019  0.0189 -0.0454
   152. (0.00037) RY*( 7) H   4           s(  3.20%)p19.88( 63.57%)d10.39( 33.23%)
                                           -0.0033 -0.0549 -0.0595  0.1594  0.0747
                                            0.0504  0.3519 -0.0145 -0.6023  0.0506
                                            0.1497 -0.2429 -0.2383 -0.1535  0.1073
                                            0.3982 -0.0457  0.1551  0.0538 -0.2084
                                           -0.1807  0.1200  0.1382
   153. (0.00027) RY*( 8) H   4           s(  1.57%)p26.66( 41.80%)d36.11( 56.63%)
                                            0.0030 -0.0498 -0.0049  0.1147  0.0470
                                           -0.1014 -0.1112 -0.0505  0.2763 -0.0499
                                           -0.0312  0.3087 -0.4642  0.3018 -0.1141
                                            0.5573  0.0781 -0.2897 -0.0564 -0.2361
                                            0.0325 -0.0246  0.0323
   154. (0.00026) RY*( 9) H   4           s( 20.70%)p 0.98( 20.30%)d 2.85( 59.00%)
                                            0.0090 -0.0198  0.4286  0.1509 -0.0220
                                            0.2501  0.0161  0.0143  0.2847 -0.0323
                                           -0.0157  0.1431 -0.1916 -0.4012 -0.0920
                                           -0.1182  0.1492  0.4653 -0.1154 -0.3918
                                            0.0033  0.0306  0.0004
   155. (0.00023) RY*(10) H   4           s(  9.38%)p 3.44( 32.27%)d 6.22( 58.35%)
                                            0.0016 -0.0218  0.2974 -0.0697 -0.0548
                                            0.1682  0.3466 -0.1197  0.1122 -0.1579
                                            0.0376 -0.3200  0.1248  0.4534  0.0113
                                           -0.2532 -0.0289 -0.3030 -0.0082 -0.4234
                                           -0.1476  0.0223  0.1394
   156. (0.00019) RY*(11) H   4           s( 15.04%)p 4.52( 67.93%)d 1.13( 17.04%)
                                           -0.0227 -0.0908  0.3757 -0.0211 -0.0894
                                           -0.3822 -0.2664  0.0089  0.1136 -0.0889
                                           -0.0198 -0.6226 -0.2127 -0.0084  0.0051
                                            0.1216  0.1714  0.0946 -0.0543  0.2824
                                           -0.0360 -0.0821  0.1626
   157. (0.00016) RY*(12) H   4           s(  0.78%)p40.69( 31.56%)d87.24( 67.67%)
                                            0.0053 -0.0313 -0.0083  0.0817 -0.0840
                                            0.1916  0.1664  0.0540  0.1290  0.1882
                                            0.1146  0.0465 -0.4170 -0.0339 -0.0149
                                           -0.2716  0.0662 -0.2108 -0.0008  0.3957
                                           -0.0574  0.5938  0.2006
   158. (0.00013) RY*(13) H   4           s( 17.99%)p 0.89( 15.96%)d 3.67( 66.05%)
                                           -0.0062 -0.0298  0.1913  0.3774  0.0413
                                           -0.0951 -0.1814  0.0252  0.0461 -0.1018
                                            0.0370 -0.1467  0.2826 -0.1049  0.1181
                                            0.1633 -0.2673 -0.1757  0.0862 -0.1271
                                            0.2764  0.5299 -0.3547
   159. (0.00011) RY*(14) H   4           s( 44.34%)p 0.30( 13.19%)d 0.96( 42.47%)
                                            0.0051  0.0448  0.3097  0.5877  0.0191
                                            0.0532  0.2049  0.0209  0.0583  0.2115
                                           -0.0598  0.1250  0.1378  0.0186 -0.0779
                                            0.0635 -0.3073 -0.0990 -0.0315  0.3344
                                           -0.2169 -0.3767  0.0909
   160. (0.00009) RY*(15) H   4           s(  0.06%)p99.99( 49.30%)d99.99( 50.64%)
   161. (0.00009) RY*(16) H   4           s(  1.08%)p 6.12(  6.60%)d85.60( 92.32%)
   162. (0.00006) RY*(17) H   4           s( 36.77%)p 0.46( 16.83%)d 1.26( 46.40%)
   163. (0.00005) RY*(18) H   4           s(  2.49%)p 7.66( 19.07%)d31.50( 78.44%)
   164. (0.00006) RY*(19) H   4           s(  0.10%)p27.89(  2.69%)d99.99( 97.21%)
   165. (0.00005) RY*(20) H   4           s(  5.81%)p 3.86( 22.46%)d12.34( 71.73%)
   166. (0.00003) RY*(21) H   4           s(  5.77%)p 6.43( 37.13%)d 9.89( 57.10%)
   167. (0.00004) RY*(22) H   4           s( 13.99%)p 1.38( 19.25%)d 4.77( 66.76%)
   168. (0.05776) BD*( 1) O   1 -Cl   3  
                ( 41.05%)   0.6407* O   1 s( 10.24%)p 8.71( 89.19%)d 0.05(  0.54%)
                                                  f 0.00(  0.02%)
                                           -0.0003 -0.3170  0.0425  0.0131  0.0016
                                            0.2169 -0.0288 -0.0064 -0.0022 -0.9178
                                            0.0197  0.0084  0.0096 -0.0282 -0.0175
                                           -0.0032  0.0005  0.0123  0.0017  0.0027
                                           -0.0078 -0.0007  0.0013 -0.0196 -0.0026
                                            0.0005  0.0585  0.0044  0.0001  0.0370
                                            0.0030  0.0003  0.0001 -0.0002 -0.0020
                                           -0.0004  0.0079 -0.0002  0.0033 -0.0018
                                           -0.0051  0.0010 -0.0051 -0.0012  0.0066
                                           -0.0010
                ( 58.95%)  -0.7678*Cl   3 s(  8.58%)p10.50( 90.14%)d 0.14(  1.17%)
                                                  f 0.01(  0.11%)
                                            0.0000 -0.0005 -0.2866  0.0597  0.0101
                                            0.0025 -0.0001 -0.2276  0.0144  0.0047
                                           -0.0014  0.0004  0.9191 -0.0658 -0.0129
                                            0.0037 -0.0000 -0.0054  0.0003  0.0022
                                           -0.0011  0.0480 -0.0056  0.0001 -0.0075
                                           -0.0003  0.0009  0.0104  0.0014  0.0009
                                            0.0782 -0.0096 -0.0006  0.0540 -0.0060
                                           -0.0001  0.0008 -0.0001  0.0048 -0.0007
                                           -0.0195  0.0025 -0.0001  0.0006  0.0018
                                           -0.0011  0.0177 -0.0024 -0.0193  0.0023
   169. (0.06814) BD*( 1) O   1 - H   4  
                ( 21.59%)   0.4646* O   1 s( 25.61%)p 2.88( 73.86%)d 0.02(  0.52%)
                                                  f 0.00(  0.01%)
                                           -0.0002 -0.5060  0.0051  0.0078 -0.0025
                                           -0.6831  0.0123  0.0067  0.0023  0.0271
                                           -0.0156 -0.0015 -0.0019 -0.5203  0.0037
                                            0.0050  0.0039 -0.0208 -0.0040 -0.0010
                                           -0.0593 -0.0037  0.0007 -0.0176 -0.0032
                                           -0.0003 -0.0301 -0.0019 -0.0017 -0.0054
                                           -0.0018 -0.0020  0.0080 -0.0005 -0.0028
                                           -0.0006 -0.0011  0.0003 -0.0046 -0.0022
                                           -0.0001  0.0009  0.0018 -0.0024  0.0019
                                            0.0001
                ( 78.41%)  -0.8855* H   4 s( 99.80%)p 0.00(  0.20%)d 0.00(  0.00%)
                                           -0.9987 -0.0267 -0.0010  0.0000 -0.0005
                                            0.0266  0.0066 -0.0121 -0.0017  0.0041
                                           -0.0260  0.0190  0.0033 -0.0010 -0.0013
                                           -0.0011  0.0009 -0.0017 -0.0014 -0.0006
                                            0.0016  0.0017  0.0016


 NHO Directionality and "Bond Bending" (deviations from line of nuclear centers)

         [Thresholds for printing:  angular deviation  >  1.0 degree]
                                    hybrid p-character > 25.0%
                                    orbital occupancy  >  0.10e

                                Line of Centers        Hybrid 1              Hybrid 2
                                ---------------  -------------------   ------------------
                NBO               Theta   Phi    Theta   Phi    Dev    Theta   Phi    Dev
 ========================================================================================
     1. BD (   1) O   1 -Cl   3    90.0  103.5    86.9  101.5   3.7      --     --    --
     2. BD (   1) O   1 - H   4    55.0    0.0    52.5  359.3   2.6      --     --    --
    14. LP (   1) O   1             --     --    125.1  225.3   --       --     --    --
    15. LP (   2) O   1             --     --     38.6  195.8   --       --     --    --
    17. LP (   2)Cl   2             --     --    108.2   98.4   --       --     --    --
    18. LP (   3)Cl   2             --     --    150.3  223.7   --       --     --    --
    19. LP (   4)Cl   2             --     --     67.2  180.5   --       --     --    --
    21. LP (   2)Cl   3             --     --    146.8   13.9   --       --     --    --
    22. LP (   3)Cl   3             --     --    123.3  193.7   --       --     --    --


 Natural Bond Orbitals (Summary):

           NBO                  Occupancy  
 -----------------------------------------------
 Molecular unit  1  (HOCl)
     1. BD (   1) O   1 -Cl   3          1.94006
     2. BD (   1) O   1 - H   4          1.96408
     3. CR (   1) O   1                  1.99970
     9. CR (   1)Cl   3                  2.00000
    10. CR (   2)Cl   3                  1.99981
    11. CR (   3)Cl   3                  2.00003
    12. CR (   4)Cl   3                  1.99997
    13. CR (   5)Cl   3                  2.00003
    14. LP (   1) O   1                  1.96827
    15. LP (   2) O   1                  1.95279
    20. LP (   1)Cl   3                  1.97435
    21. LP (   2)Cl   3                  1.95614
    22. LP (   3)Cl   3                  1.95495
    23. RY*(   1) O   1                  0.01960
    24. RY*(   2) O   1                  0.01550
    25. RY*(   3) O   1                  0.00783
    26. RY*(   4) O   1                  0.00707
    27. RY*(   5) O   1                  0.00634
    28. RY*(   6) O   1                  0.00609
    29. RY*(   7) O   1                  0.00573
    30. RY*(   8) O   1                  0.00289
    31. RY*(   9) O   1                  0.00249
    32. RY*(  10) O   1                  0.00078
    33. RY*(  11) O   1                  0.00067
    34. RY*(  12) O   1                  0.00063
    35. RY*(  13) O   1                  0.00058
    36. RY*(  14) O   1                  0.00051
    37. RY*(  15) O   1                  0.00049
    38. RY*(  16) O   1                  0.00050
    39. RY*(  17) O   1                  0.00048
    40. RY*(  18) O   1                  0.00047
    41. RY*(  19) O   1                  0.00045
    42. RY*(  20) O   1                  0.00045
    43. RY*(  21) O   1                  0.00044
    44. RY*(  22) O   1                  0.00042
    45. RY*(  23) O   1                  0.00035
    46. RY*(  24) O   1                  0.00030
    47. RY*(  25) O   1                  0.00024
    48. RY*(  26) O   1                  0.00019
    49. RY*(  27) O   1                  0.00015
    50. RY*(  28) O   1                  0.00013
    51. RY*(  29) O   1                  0.00013
    52. RY*(  30) O   1                  0.00011
    53. RY*(  31) O   1                  0.00009
    54. RY*(  32) O   1                  0.00008
    55. RY*(  33) O   1                  0.00007
    56. RY*(  34) O   1                  0.00007
    57. RY*(  35) O   1                  0.00007
    58. RY*(  36) O   1                  0.00008
    59. RY*(  37) O   1                  0.00007
    60. RY*(  38) O   1                  0.00004
    61. RY*(  39) O   1                  0.00004
    62. RY*(  40) O   1                  0.00005
    63. RY*(  41) O   1                  0.00002
   105. RY*(   1)Cl   3                  0.02273
   106. RY*(   2)Cl   3                  0.01756
   107. RY*(   3)Cl   3                  0.01683
   108. RY*(   4)Cl   3                  0.01645
   109. RY*(   5)Cl   3                  0.01164
   110. RY*(   6)Cl   3                  0.00922
   111. RY*(   7)Cl   3                  0.00904
   112. RY*(   8)Cl   3                  0.00631
   113. RY*(   9)Cl   3                  0.00171
   114. RY*(  10)Cl   3                  0.00126
   115. RY*(  11)Cl   3                  0.00126
   116. RY*(  12)Cl   3                  0.00120
   117. RY*(  13)Cl   3                  0.00119
   118. RY*(  14)Cl   3                  0.00116
   119. RY*(  15)Cl   3                  0.00110
   120. RY*(  16)Cl   3                  0.00094
   121. RY*(  17)Cl   3                  0.00077
   122. RY*(  18)Cl   3                  0.00074
   123. RY*(  19)Cl   3                  0.00063
   124. RY*(  20)Cl   3                  0.00055
   125. RY*(  21)Cl   3                  0.00042
   126. RY*(  22)Cl   3                  0.00038
   127. RY*(  23)Cl   3                  0.00032
   128. RY*(  24)Cl   3                  0.00031
   129. RY*(  25)Cl   3                  0.00019
   130. RY*(  26)Cl   3                  0.00016
   131. RY*(  27)Cl   3                  0.00013
   132. RY*(  28)Cl   3                  0.00013
   133. RY*(  29)Cl   3                  0.00012
   134. RY*(  30)Cl   3                  0.00013
   135. RY*(  31)Cl   3                  0.00011
   136. RY*(  32)Cl   3                  0.00010
   137. RY*(  33)Cl   3                  0.00010
   138. RY*(  34)Cl   3                  0.00009
   139. RY*(  35)Cl   3                  0.00010
   140. RY*(  36)Cl   3                  0.00010
   141. RY*(  37)Cl   3                  0.00006
   142. RY*(  38)Cl   3                  0.00004
   143. RY*(  39)Cl   3                  0.00003
   144. RY*(  40)Cl   3                  0.00003
   145. RY*(  41)Cl   3                  0.00001
   146. RY*(   1) H   4                  0.00867
   147. RY*(   2) H   4                  0.00496
   148. RY*(   3) H   4                  0.00336
   149. RY*(   4) H   4                  0.00267
   150. RY*(   5) H   4                  0.00050
   151. RY*(   6) H   4                  0.00050
   152. RY*(   7) H   4                  0.00037
   153. RY*(   8) H   4                  0.00027
   154. RY*(   9) H   4                  0.00026
   155. RY*(  10) H   4                  0.00023
   156. RY*(  11) H   4                  0.00019
   157. RY*(  12) H   4                  0.00016
   158. RY*(  13) H   4                  0.00013
   159. RY*(  14) H   4                  0.00011
   160. RY*(  15) H   4                  0.00009
   161. RY*(  16) H   4                  0.00009
   162. RY*(  17) H   4                  0.00006
   163. RY*(  18) H   4                  0.00005
   164. RY*(  19) H   4                  0.00006
   165. RY*(  20) H   4                  0.00005
   166. RY*(  21) H   4                  0.00003
   167. RY*(  22) H   4                  0.00004
   168. BD*(   1) O   1 -Cl   3          0.05776
   169. BD*(   1) O   1 - H   4          0.06814
       -------------------------------
              Total Lewis   25.71018  ( 98.6313%)
        Valence non-Lewis    0.12590  (  0.4830%)
        Rydberg non-Lewis    0.23089  (  0.8857%)
       -------------------------------
            Total unit  1   26.06696  (100.0000%)
           Charge unit  1   -0.06696

 Molecular unit  2  (Cl)
     4. CR (   1)Cl   2                  2.00001
     5. CR (   2)Cl   2                  2.00000
     6. CR (   3)Cl   2                  2.00002
     7. CR (   4)Cl   2                  2.00003
     8. CR (   5)Cl   2                  2.00002
    16. LP (   1)Cl   2                  1.97919
    17. LP (   2)Cl   2                  1.95207
    18. LP (   3)Cl   2                  1.95159
    19. LP (   4)Cl   2                  1.90071
    64. RY*(   1)Cl   2                  0.01852
    65. RY*(   2)Cl   2                  0.01847
    66. RY*(   3)Cl   2                  0.01834
    67. RY*(   4)Cl   2                  0.01834
    68. RY*(   5)Cl   2                  0.01804
    69. RY*(   6)Cl   2                  0.01326
    70. RY*(   7)Cl   2                  0.01323
    71. RY*(   8)Cl   2                  0.01132
    72. RY*(   9)Cl   2                  0.00291
    73. RY*(  10)Cl   2                  0.00131
    74. RY*(  11)Cl   2                  0.00131
    75. RY*(  12)Cl   2                  0.00129
    76. RY*(  13)Cl   2                  0.00128
    77. RY*(  14)Cl   2                  0.00129
    78. RY*(  15)Cl   2                  0.00128
    79. RY*(  16)Cl   2                  0.00126
    80. RY*(  17)Cl   2                  0.00100
    81. RY*(  18)Cl   2                  0.00100
    82. RY*(  19)Cl   2                  0.00080
    83. RY*(  20)Cl   2                  0.00079
    84. RY*(  21)Cl   2                  0.00074
    85. RY*(  22)Cl   2                  0.00055
    86. RY*(  23)Cl   2                  0.00056
    87. RY*(  24)Cl   2                  0.00053
    88. RY*(  25)Cl   2                  0.00024
    89. RY*(  26)Cl   2                  0.00017
    90. RY*(  27)Cl   2                  0.00016
    91. RY*(  28)Cl   2                  0.00015
    92. RY*(  29)Cl   2                  0.00014
    93. RY*(  30)Cl   2                  0.00015
    94. RY*(  31)Cl   2                  0.00014
    95. RY*(  32)Cl   2                  0.00014
    96. RY*(  33)Cl   2                  0.00012
    97. RY*(  34)Cl   2                  0.00012
    98. RY*(  35)Cl   2                  0.00009
    99. RY*(  36)Cl   2                  0.00010
   100. RY*(  37)Cl   2                  0.00010
   101. RY*(  38)Cl   2                  0.00007
   102. RY*(  39)Cl   2                  0.00004
   103. RY*(  40)Cl   2                  0.00002
   104. RY*(  41)Cl   2                  0.00003
       -------------------------------
              Total Lewis   17.78363  ( 99.1669%)
        Valence non-Lewis    0.00000  (  0.0000%)
        Rydberg non-Lewis    0.14940  (  0.8331%)
       -------------------------------
            Total unit  2   17.93304  (100.0000%)
           Charge unit  2   -0.93304
 Leave Link  607 at Wed Sep 22 16:32:40 2021, MaxMem= 16106127360 cpu:              68.8 elap:               2.5
 (Enter /sw/contrib/gaussian/g16/B01/g16/l9999.exe)
 1\1\GINC-N2096\SP\RMP2-FC\Aug-CC-pVTZ\Cl2H1O1(1-)\CGAVINH\22-Sep-2021\
 0\\#p pop=NBO SP NoSymm mp2/aug-cc-pvtz density=current\\title\\-1,1\O
 ,0,0.,0.,0.\Cl,0,2.904676,0.,0.\Cl,0,-0.3936866,1.6360486,0.\H,0,0.812
 951063,0.,0.569234463\\Version=ES64L-G16RevB.01\HF=-994.5122674\MP2=-9
 95.1773767\RMSD=5.784e-09\Dipole=-2.3086008,0.9765476,0.2279567\Quadru
 pole=-17.7235799,8.5592509,9.164329,0.3538669,0.2450774,-0.1408665\PG=
 C01 [X(Cl2H1O1)]\\@


 TRUST EVERYONE, BUT CUT THE CARDS.
 Job cpu time:       0 days  0 hours  4 minutes 19.9 seconds.
 Elapsed time:       0 days  0 hours  0 minutes 14.4 seconds.
 File lengths (MBytes):  RWF=     14 Int=      0 D2E=      0 Chk=      8 Scr=      1
 Normal termination of Gaussian 16 at Wed Sep 22 16:32:41 2021.
