 Entering Gaussian System, Link 0=g16
 Input=clhocl_15_sp.gjf
 Output=clhocl_15_sp.log
 Initial command:
 /sw/contrib/gaussian/g16/B01/g16/l1.exe "/scr/Gau-27217.inp" -scrdir="/scr/"
 Entering Link 1 = /sw/contrib/gaussian/g16/B01/g16/l1.exe PID=     27218.
  
 Copyright (c) 1988-2017, Gaussian, Inc.  All Rights Reserved.
  
 This is part of the Gaussian(R) 16 program.  It is based on
 the Gaussian(R) 09 system (copyright 2009, Gaussian, Inc.),
 the Gaussian(R) 03 system (copyright 2003, Gaussian, Inc.),
 the Gaussian(R) 98 system (copyright 1998, Gaussian, Inc.),
 the Gaussian(R) 94 system (copyright 1995, Gaussian, Inc.),
 the Gaussian 92(TM) system (copyright 1992, Gaussian, Inc.),
 the Gaussian 90(TM) system (copyright 1990, Gaussian, Inc.),
 the Gaussian 88(TM) system (copyright 1988, Gaussian, Inc.),
 the Gaussian 86(TM) system (copyright 1986, Carnegie Mellon
 University), and the Gaussian 82(TM) system (copyright 1983,
 Carnegie Mellon University). Gaussian is a federally registered
 trademark of Gaussian, Inc.
  
 This software contains proprietary and confidential information,
 including trade secrets, belonging to Gaussian, Inc.
  
 This software is provided under written license and may be
 used, copied, transmitted, or stored only in accord with that
 written license.
  
 The following legend is applicable only to US Government
 contracts under FAR:
  
                    RESTRICTED RIGHTS LEGEND
  
 Use, reproduction and disclosure by the US Government is
 subject to restrictions as set forth in subparagraphs (a)
 and (c) of the Commercial Computer Software - Restricted
 Rights clause in FAR 52.227-19.
  
 Gaussian, Inc.
 340 Quinnipiac St., Bldg. 40, Wallingford CT 06492
  
  
 ---------------------------------------------------------------
 Warning -- This program may not be used in any manner that
 competes with the business of Gaussian, Inc. or will provide
 assistance to any competitor of Gaussian, Inc.  The licensee
 of this program is prohibited from giving any competitor of
 Gaussian, Inc. access to this program.  By using this program,
 the user acknowledges that Gaussian, Inc. is engaged in the
 business of creating and licensing software in the field of
 computational chemistry and represents and warrants to the
 licensee that it is not a competitor of Gaussian, Inc. and that
 it will not use this program in any manner prohibited above.
 ---------------------------------------------------------------
  

 Cite this work as:
 Gaussian 16, Revision B.01,
 M. J. Frisch, G. W. Trucks, H. B. Schlegel, G. E. Scuseria, 
 M. A. Robb, J. R. Cheeseman, G. Scalmani, V. Barone, 
 G. A. Petersson, H. Nakatsuji, X. Li, M. Caricato, A. V. Marenich, 
 J. Bloino, B. G. Janesko, R. Gomperts, B. Mennucci, H. P. Hratchian, 
 J. V. Ortiz, A. F. Izmaylov, J. L. Sonnenberg, D. Williams-Young, 
 F. Ding, F. Lipparini, F. Egidi, J. Goings, B. Peng, A. Petrone, 
 T. Henderson, D. Ranasinghe, V. G. Zakrzewski, J. Gao, N. Rega, 
 G. Zheng, W. Liang, M. Hada, M. Ehara, K. Toyota, R. Fukuda, 
 J. Hasegawa, M. Ishida, T. Nakajima, Y. Honda, O. Kitao, H. Nakai, 
 T. Vreven, K. Throssell, J. A. Montgomery, Jr., J. E. Peralta, 
 F. Ogliaro, M. J. Bearpark, J. J. Heyd, E. N. Brothers, K. N. Kudin, 
 V. N. Staroverov, T. A. Keith, R. Kobayashi, J. Normand, 
 K. Raghavachari, A. P. Rendell, J. C. Burant, S. S. Iyengar, 
 J. Tomasi, M. Cossi, J. M. Millam, M. Klene, C. Adamo, R. Cammi, 
 J. W. Ochterski, R. L. Martin, K. Morokuma, O. Farkas, 
 J. B. Foresman, and D. J. Fox, Gaussian, Inc., Wallingford CT, 2016.
 
 ******************************************
 Gaussian 16:  ES64L-G16RevB.01 20-Dec-2017
                22-Sep-2021 
 ******************************************
 %nproc=28
 Will use up to   28 processors via shared memory.
 %mem=120GB
 %chk=/gscratch/ilahie/mccoygrp/coire_hocl/clhocl/clhocl_15_sp.chk
 ----------------------------------------------------
 #p pop=NBO SP NoSymm mp2/aug-cc-pvtz density=current
 ----------------------------------------------------
 1/30=1,38=1,172=1/1;
 2/12=2,15=1,17=6,18=5,40=1/2;
 3/5=16,6=1,7=10,11=9,25=1,30=1,71=1/1,2,3;
 4//1;
 5/5=2,38=5/2;
 8/6=4,10=1/1;
 9/15=1,16=-3/6;
 10/5=1,13=10,31=1/2;
 6/7=2,8=2,9=2,10=2,22=-1,40=1/1,7;
 99/5=1,9=1/99;
 Leave Link    1 at Wed Sep 22 16:31:23 2021, MaxMem= 16106127360 cpu:               2.6 elap:               0.1
 (Enter /sw/contrib/gaussian/g16/B01/g16/l101.exe)
 -----
 title
 -----
 Symbolic Z-matrix:
 Charge = -1 Multiplicity = 1
 O                     0.        0.        0. 
 Cl                    2.90468   0.        0. 
 Cl                   -0.39369   1.63605   0. 
 H                     0.9834    0.        0.2635 
 
 ITRead=  0  0  0  0
 MicOpt= -1 -1 -1 -1
 NAtoms=      4 NQM=        4 NQMF=       0 NMMI=      0 NMMIF=      0
                NMic=       0 NMicF=      0.
                    Isotopes and Nuclear Properties:
 (Nuclear quadrupole moments (NQMom) in fm**2, nuclear magnetic moments (NMagM)
  in nuclear magnetons)

  Atom         1           2           3           4
 IAtWgt=          16          35          35           1
 AtmWgt=  15.9949146  34.9688527  34.9688527   1.0078250
 NucSpn=           0           3           3           1
 AtZEff=  -0.0000000  -0.0000000  -0.0000000  -0.0000000
 NQMom=    0.0000000  -8.1650000  -8.1650000   0.0000000
 NMagM=    0.0000000   0.8218740   0.8218740   2.7928460
 AtZNuc=   8.0000000  17.0000000  17.0000000   1.0000000
 Leave Link  101 at Wed Sep 22 16:31:23 2021, MaxMem= 16106127360 cpu:               2.4 elap:               0.1
 (Enter /sw/contrib/gaussian/g16/B01/g16/l202.exe)
                          Input orientation:                          
 ---------------------------------------------------------------------
 Center     Atomic      Atomic             Coordinates (Angstroms)
 Number     Number       Type             X           Y           Z
 ---------------------------------------------------------------------
      1          8           0        0.000000    0.000000    0.000000
      2         17           0        2.904676    0.000000    0.000000
      3         17           0       -0.393687    1.636049    0.000000
      4          1           0        0.983399    0.000000    0.263501
 ---------------------------------------------------------------------
                    Distance matrix (angstroms):
                    1          2          3          4
     1  O    0.000000
     2  Cl   2.904676   0.000000
     3  Cl   1.682749   3.681827   0.000000
     4  H    1.018090   1.939262   2.154635   0.000000
 Symmetry turned off by external request.
 Stoichiometry    Cl2HO(1-)
 Framework group  C1[X(Cl2HO)]
 Deg. of freedom     6
 Full point group                 C1      NOp   1
 Rotational constants (GHZ):          23.5977530           2.0593225           1.8949985
 Leave Link  202 at Wed Sep 22 16:31:23 2021, MaxMem= 16106127360 cpu:               1.0 elap:               0.1
 (Enter /sw/contrib/gaussian/g16/B01/g16/l301.exe)
 Standard basis: Aug-CC-pVTZ (5D, 7F)
 Ernie: Thresh=  0.10000D-02 Tol=  0.10000D-05 Strict=F.
 Ernie:  29 primitive shells out of 169 were deleted.
   169 basis functions,   327 primitive gaussians,   198 cartesian basis functions
    22 alpha electrons       22 beta electrons
       nuclear repulsion energy       122.0541245851 Hartrees.
 IExCor=    0 DFT=F Ex=HF Corr=None ExCW=0 ScaHFX=  1.000000
 ScaDFX=  1.000000  1.000000  1.000000  1.000000 ScalE2=  1.000000  1.000000
 IRadAn=      5 IRanWt=     -1 IRanGd=            0 ICorTp=0 IEmpDi=  4
 NAtoms=    4 NActive=    4 NUniq=    4 SFac= 1.00D+00 NAtFMM=   60 NAOKFM=F Big=F
 Integral buffers will be    131072 words long.
 Raffenetti 1 integral format.
 Two-electron integral symmetry is turned off.
 Leave Link  301 at Wed Sep 22 16:31:23 2021, MaxMem= 16106127360 cpu:               1.5 elap:               0.1
 (Enter /sw/contrib/gaussian/g16/B01/g16/l302.exe)
 NPDir=0 NMtPBC=     1 NCelOv=     1 NCel=       1 NClECP=     1 NCelD=      1
         NCelK=      1 NCelE2=     1 NClLst=     1 CellRange=     0.0.
 One-electron integrals computed using PRISM.
 NBasis=   169 RedAO= T EigKep=  2.52D-04  NBF=   169
 NBsUse=   169 1.00D-06 EigRej= -1.00D+00 NBFU=   169
 Leave Link  302 at Wed Sep 22 16:31:24 2021, MaxMem= 16106127360 cpu:               4.4 elap:               0.2
 (Enter /sw/contrib/gaussian/g16/B01/g16/l303.exe)
 DipDrv:  MaxL=1.
 Leave Link  303 at Wed Sep 22 16:31:24 2021, MaxMem= 16106127360 cpu:               1.2 elap:               0.1
 (Enter /sw/contrib/gaussian/g16/B01/g16/l401.exe)
 ExpMin= 2.53D-02 ExpMax= 4.56D+05 ExpMxC= 1.44D+03 IAcc=3 IRadAn=         5 AccDes= 0.00D+00
 Harris functional with IExCor=  205 and IRadAn=       5 diagonalized for initial guess.
 HarFok:  IExCor=  205 AccDes= 0.00D+00 IRadAn=         5 IDoV= 1 UseB2=F ITyADJ=14
 ICtDFT=  3500011 ScaDFX=  1.000000  1.000000  1.000000  1.000000
 FoFCou: FMM=F IPFlag=           0 FMFlag=      100000 FMFlg1=           0
         NFxFlg=           0 DoJE=T BraDBF=F KetDBF=T FulRan=T
         wScrn=  0.000000 ICntrl=       500 IOpCl=  0 I1Cent=   200000004 NGrid=           0
         NMat0=    1 NMatS0=      1 NMatT0=    0 NMatD0=    1 NMtDS0=    0 NMtDT0=    0
 Symmetry not used in FoFCou.
 Harris En= -993.820226121775    
 JPrj=0 DoOrth=F DoCkMO=F.
 Leave Link  401 at Wed Sep 22 16:31:24 2021, MaxMem= 16106127360 cpu:               6.7 elap:               0.3
 (Enter /sw/contrib/gaussian/g16/B01/g16/l502.exe)
 Keep R1 ints in memory in canonical form, NReq=117119217.
 FoFCou: FMM=F IPFlag=           0 FMFlag=           0 FMFlg1=           0
         NFxFlg=           0 DoJE=F BraDBF=F KetDBF=F FulRan=T
         wScrn=  0.000000 ICntrl=       600 IOpCl=  0 I1Cent=           0 NGrid=           0
         NMat0=    1 NMatS0=  14365 NMatT0=    0 NMatD0=    1 NMtDS0=    0 NMtDT0=    0
 Symmetry not used in FoFCou.
 Two-electron integral symmetry not used.
 Closed shell SCF:
 Using DIIS extrapolation, IDIIS=  1040.
 NGot= 16106127360 LenX= 16002858349 LenY= 16002818704
 Requested convergence on RMS density matrix=1.00D-08 within 128 cycles.
 Requested convergence on MAX density matrix=1.00D-06.
 Requested convergence on             energy=1.00D-06.
 No special actions if energy rises.

 Cycle   1  Pass 1  IDiag  1:
 E= -994.393677987713    
 DIIS: error= 3.41D-02 at cycle   1 NSaved=   1.
 NSaved= 1 IEnMin= 1 EnMin= -994.393677987713     IErMin= 1 ErrMin= 3.41D-02
 ErrMax= 3.41D-02  0.00D+00 EMaxC= 1.00D-01 BMatC= 4.23D-01 BMatP= 4.23D-01
 IDIUse=3 WtCom= 6.59D-01 WtEn= 3.41D-01
 Coeff-Com:  0.100D+01
 Coeff-En:   0.100D+01
 Coeff:      0.100D+01
 Gap=     0.555 Goal=   None    Shift=    0.000
 GapD=    0.555 DampG=2.000 DampE=0.500 DampFc=1.0000 IDamp=-1.
 RMSDP=2.14D-03 MaxDP=7.08D-02              OVMax= 1.22D-01

 Cycle   2  Pass 1  IDiag  1:
 E= -994.486723464614     Delta-E=       -0.093045476902 Rises=F Damp=F
 DIIS: error= 2.06D-02 at cycle   2 NSaved=   2.
 NSaved= 2 IEnMin= 2 EnMin= -994.486723464614     IErMin= 2 ErrMin= 2.06D-02
 ErrMax= 2.06D-02  0.00D+00 EMaxC= 1.00D-01 BMatC= 4.95D-02 BMatP= 4.23D-01
 IDIUse=3 WtCom= 7.94D-01 WtEn= 2.06D-01
 Coeff-Com:  0.168D+00 0.832D+00
 Coeff-En:   0.000D+00 0.100D+01
 Coeff:      0.133D+00 0.867D+00
 Gap=     0.377 Goal=   None    Shift=    0.000
 RMSDP=9.83D-04 MaxDP=3.94D-02 DE=-9.30D-02 OVMax= 8.00D-02

 Cycle   3  Pass 1  IDiag  1:
 E= -994.511107746578     Delta-E=       -0.024384281964 Rises=F Damp=F
 DIIS: error= 9.33D-03 at cycle   3 NSaved=   3.
 NSaved= 3 IEnMin= 3 EnMin= -994.511107746578     IErMin= 3 ErrMin= 9.33D-03
 ErrMax= 9.33D-03  0.00D+00 EMaxC= 1.00D-01 BMatC= 1.49D-02 BMatP= 4.95D-02
 IDIUse=3 WtCom= 9.07D-01 WtEn= 9.33D-02
 Coeff-Com: -0.155D-01 0.344D+00 0.672D+00
 Coeff-En:   0.000D+00 0.139D+00 0.861D+00
 Coeff:     -0.141D-01 0.325D+00 0.689D+00
 Gap=     0.359 Goal=   None    Shift=    0.000
 RMSDP=3.70D-04 MaxDP=1.41D-02 DE=-2.44D-02 OVMax= 3.65D-02

 Cycle   4  Pass 1  IDiag  1:
 E= -994.521220162186     Delta-E=       -0.010112415608 Rises=F Damp=F
 DIIS: error= 1.36D-03 at cycle   4 NSaved=   4.
 NSaved= 4 IEnMin= 4 EnMin= -994.521220162186     IErMin= 4 ErrMin= 1.36D-03
 ErrMax= 1.36D-03  0.00D+00 EMaxC= 1.00D-01 BMatC= 1.79D-04 BMatP= 1.49D-02
 IDIUse=3 WtCom= 9.86D-01 WtEn= 1.36D-02
 Coeff-Com: -0.405D-02 0.199D-01 0.107D+00 0.878D+00
 Coeff-En:   0.000D+00 0.000D+00 0.000D+00 0.100D+01
 Coeff:     -0.400D-02 0.196D-01 0.105D+00 0.879D+00
 Gap=     0.351 Goal=   None    Shift=    0.000
 RMSDP=5.59D-05 MaxDP=1.46D-03 DE=-1.01D-02 OVMax= 3.07D-03

 Cycle   5  Pass 1  IDiag  1:
 E= -994.521407226916     Delta-E=       -0.000187064730 Rises=F Damp=F
 DIIS: error= 2.63D-04 at cycle   5 NSaved=   5.
 NSaved= 5 IEnMin= 5 EnMin= -994.521407226916     IErMin= 5 ErrMin= 2.63D-04
 ErrMax= 2.63D-04  0.00D+00 EMaxC= 1.00D-01 BMatC= 1.59D-05 BMatP= 1.79D-04
 IDIUse=3 WtCom= 9.97D-01 WtEn= 2.63D-03
 Coeff-Com:  0.103D-02-0.397D-01-0.696D-01 0.182D-01 0.109D+01
 Coeff-En:   0.000D+00 0.000D+00 0.000D+00 0.000D+00 0.100D+01
 Coeff:      0.103D-02-0.396D-01-0.694D-01 0.181D-01 0.109D+01
 Gap=     0.353 Goal=   None    Shift=    0.000
 RMSDP=3.23D-05 MaxDP=1.16D-03 DE=-1.87D-04 OVMax= 3.08D-03

 Cycle   6  Pass 1  IDiag  1:
 E= -994.521447001049     Delta-E=       -0.000039774133 Rises=F Damp=F
 DIIS: error= 1.36D-04 at cycle   6 NSaved=   6.
 NSaved= 6 IEnMin= 6 EnMin= -994.521447001049     IErMin= 6 ErrMin= 1.36D-04
 ErrMax= 1.36D-04  0.00D+00 EMaxC= 1.00D-01 BMatC= 2.05D-06 BMatP= 1.59D-05
 IDIUse=3 WtCom= 9.99D-01 WtEn= 1.36D-03
 Coeff-Com:  0.228D-03 0.902D-02 0.161D-01-0.781D-01-0.415D+00 0.147D+01
 Coeff-En:   0.000D+00 0.000D+00 0.000D+00 0.000D+00 0.000D+00 0.100D+01
 Coeff:      0.227D-03 0.901D-02 0.161D-01-0.780D-01-0.415D+00 0.147D+01
 Gap=     0.353 Goal=   None    Shift=    0.000
 RMSDP=1.68D-05 MaxDP=6.10D-04 DE=-3.98D-05 OVMax= 1.64D-03

 Cycle   7  Pass 1  IDiag  1:
 E= -994.521454397138     Delta-E=       -0.000007396088 Rises=F Damp=F
 DIIS: error= 3.41D-05 at cycle   7 NSaved=   7.
 NSaved= 7 IEnMin= 7 EnMin= -994.521454397138     IErMin= 7 ErrMin= 3.41D-05
 ErrMax= 3.41D-05  0.00D+00 EMaxC= 1.00D-01 BMatC= 1.28D-07 BMatP= 2.05D-06
 IDIUse=1 WtCom= 1.00D+00 WtEn= 0.00D+00
 Coeff-Com: -0.160D-03-0.110D-02-0.129D-02 0.301D-01 0.940D-01-0.622D+00
 Coeff-Com:  0.150D+01
 Coeff:     -0.160D-03-0.110D-02-0.129D-02 0.301D-01 0.940D-01-0.622D+00
 Coeff:      0.150D+01
 Gap=     0.353 Goal=   None    Shift=    0.000
 RMSDP=5.21D-06 MaxDP=1.86D-04 DE=-7.40D-06 OVMax= 5.04D-04

 Cycle   8  Pass 1  IDiag  1:
 E= -994.521454985232     Delta-E=       -0.000000588094 Rises=F Damp=F
 DIIS: error= 6.96D-06 at cycle   8 NSaved=   8.
 NSaved= 8 IEnMin= 8 EnMin= -994.521454985232     IErMin= 8 ErrMin= 6.96D-06
 ErrMax= 6.96D-06  0.00D+00 EMaxC= 1.00D-01 BMatC= 8.66D-09 BMatP= 1.28D-07
 IDIUse=1 WtCom= 1.00D+00 WtEn= 0.00D+00
 Coeff-Com:  0.143D-04-0.499D-03-0.714D-03-0.475D-03 0.865D-02 0.207D-01
 Coeff-Com: -0.275D+00 0.125D+01
 Coeff:      0.143D-04-0.499D-03-0.714D-03-0.475D-03 0.865D-02 0.207D-01
 Coeff:     -0.275D+00 0.125D+01
 Gap=     0.353 Goal=   None    Shift=    0.000
 RMSDP=1.19D-06 MaxDP=2.51D-05 DE=-5.88D-07 OVMax= 1.34D-04

 Cycle   9  Pass 1  IDiag  1:
 E= -994.521455019526     Delta-E=       -0.000000034293 Rises=F Damp=F
 DIIS: error= 3.30D-06 at cycle   9 NSaved=   9.
 NSaved= 9 IEnMin= 9 EnMin= -994.521455019526     IErMin= 9 ErrMin= 3.30D-06
 ErrMax= 3.30D-06  0.00D+00 EMaxC= 1.00D-01 BMatC= 1.17D-09 BMatP= 8.66D-09
 IDIUse=1 WtCom= 1.00D+00 WtEn= 0.00D+00
 Coeff-Com:  0.156D-04 0.233D-03 0.314D-03-0.331D-02-0.129D-01 0.666D-01
 Coeff-Com: -0.966D-01-0.353D+00 0.140D+01
 Coeff:      0.156D-04 0.233D-03 0.314D-03-0.331D-02-0.129D-01 0.666D-01
 Coeff:     -0.966D-01-0.353D+00 0.140D+01
 Gap=     0.353 Goal=   None    Shift=    0.000
 RMSDP=5.69D-07 MaxDP=1.27D-05 DE=-3.43D-08 OVMax= 6.61D-05

 Cycle  10  Pass 1  IDiag  1:
 E= -994.521455025681     Delta-E=       -0.000000006155 Rises=F Damp=F
 DIIS: error= 1.49D-06 at cycle  10 NSaved=  10.
 NSaved=10 IEnMin=10 EnMin= -994.521455025681     IErMin=10 ErrMin= 1.49D-06
 ErrMax= 1.49D-06  0.00D+00 EMaxC= 1.00D-01 BMatC= 1.75D-10 BMatP= 1.17D-09
 IDIUse=1 WtCom= 1.00D+00 WtEn= 0.00D+00
 Coeff-Com: -0.436D-05 0.195D-04-0.816D-05 0.850D-03 0.194D-02-0.182D-01
 Coeff-Com:  0.632D-01-0.139D+00-0.209D+00 0.130D+01
 Coeff:     -0.436D-05 0.195D-04-0.816D-05 0.850D-03 0.194D-02-0.182D-01
 Coeff:      0.632D-01-0.139D+00-0.209D+00 0.130D+01
 Gap=     0.353 Goal=   None    Shift=    0.000
 RMSDP=2.25D-07 MaxDP=5.43D-06 DE=-6.16D-09 OVMax= 2.55D-05

 Cycle  11  Pass 1  IDiag  1:
 E= -994.521455026517     Delta-E=       -0.000000000836 Rises=F Damp=F
 DIIS: error= 4.51D-07 at cycle  11 NSaved=  11.
 NSaved=11 IEnMin=11 EnMin= -994.521455026517     IErMin=11 ErrMin= 4.51D-07
 ErrMax= 4.51D-07  0.00D+00 EMaxC= 1.00D-01 BMatC= 1.28D-11 BMatP= 1.75D-10
 IDIUse=1 WtCom= 1.00D+00 WtEn= 0.00D+00
 Coeff-Com: -0.237D-05-0.221D-04-0.216D-04 0.380D-03 0.125D-02-0.684D-02
 Coeff-Com:  0.868D-02 0.473D-01-0.132D+00-0.167D+00 0.125D+01
 Coeff:     -0.237D-05-0.221D-04-0.216D-04 0.380D-03 0.125D-02-0.684D-02
 Coeff:      0.868D-02 0.473D-01-0.132D+00-0.167D+00 0.125D+01
 Gap=     0.353 Goal=   None    Shift=    0.000
 RMSDP=6.62D-08 MaxDP=1.69D-06 DE=-8.36D-10 OVMax= 7.02D-06

 Cycle  12  Pass 1  IDiag  1:
 E= -994.521455026580     Delta-E=       -0.000000000063 Rises=F Damp=F
 DIIS: error= 9.60D-08 at cycle  12 NSaved=  12.
 NSaved=12 IEnMin=12 EnMin= -994.521455026580     IErMin=12 ErrMin= 9.60D-08
 ErrMax= 9.60D-08  0.00D+00 EMaxC= 1.00D-01 BMatC= 7.62D-13 BMatP= 1.28D-11
 IDIUse=1 WtCom= 1.00D+00 WtEn= 0.00D+00
 Coeff-Com:  0.763D-06 0.179D-05 0.201D-05-0.119D-03-0.329D-03 0.222D-02
 Coeff-Com: -0.493D-02-0.224D-02 0.392D-01-0.518D-01-0.214D+00 0.123D+01
 Coeff:      0.763D-06 0.179D-05 0.201D-05-0.119D-03-0.329D-03 0.222D-02
 Coeff:     -0.493D-02-0.224D-02 0.392D-01-0.518D-01-0.214D+00 0.123D+01
 Gap=     0.353 Goal=   None    Shift=    0.000
 RMSDP=1.39D-08 MaxDP=3.06D-07 DE=-6.28D-11 OVMax= 1.10D-06

 Cycle  13  Pass 1  IDiag  1:
 E= -994.521455026582     Delta-E=       -0.000000000003 Rises=F Damp=F
 DIIS: error= 2.12D-08 at cycle  13 NSaved=  13.
 NSaved=13 IEnMin=13 EnMin= -994.521455026582     IErMin=13 ErrMin= 2.12D-08
 ErrMax= 2.12D-08  0.00D+00 EMaxC= 1.00D-01 BMatC= 8.68D-14 BMatP= 7.62D-13
 IDIUse=1 WtCom= 1.00D+00 WtEn= 0.00D+00
 Coeff-Com:  0.141D-06 0.177D-05 0.135D-05-0.219D-04-0.788D-04 0.418D-03
 Coeff-Com: -0.374D-03-0.433D-02 0.108D-01 0.157D-01-0.102D+00-0.674D-01
 Coeff-Com:  0.115D+01
 Coeff:      0.141D-06 0.177D-05 0.135D-05-0.219D-04-0.788D-04 0.418D-03
 Coeff:     -0.374D-03-0.433D-02 0.108D-01 0.157D-01-0.102D+00-0.674D-01
 Coeff:      0.115D+01
 Gap=     0.353 Goal=   None    Shift=    0.000
 RMSDP=3.97D-09 MaxDP=8.98D-08 DE=-2.73D-12 OVMax= 3.27D-07

 SCF Done:  E(RHF) =  -994.521455027     A.U. after   13 cycles
            NFock= 13  Conv=0.40D-08     -V/T= 2.0002
 KE= 9.943659483968D+02 PE=-2.621858844259D+03 EE= 5.109173162504D+02
 Leave Link  502 at Wed Sep 22 16:31:27 2021, MaxMem= 16106127360 cpu:              25.3 elap:               3.1
 (Enter /sw/contrib/gaussian/g16/B01/g16/l801.exe)
 ExpMin= 2.53D-02 ExpMax= 4.56D+05 ExpMxC= 1.44D+03 IAcc=3 IRadAn=         5 AccDes= 0.00D+00
 HarFok:  IExCor=  205 AccDes= 0.00D+00 IRadAn=         5 IDoV=-2 UseB2=F ITyADJ=14
 ICtDFT= 12500011 ScaDFX=  1.000000  1.000000  1.000000  1.000000
 Largest valence mixing into a core orbital is  4.47D-04
 Largest core mixing into a valence orbital is  1.73D-04
 Range of M.O.s used for correlation:    12   169
 NBasis=   169 NAE=    22 NBE=    22 NFC=    11 NFV=     0
 NROrb=    158 NOA=    11 NOB=    11 NVA=   147 NVB=   147

 **** Warning!!: The largest alpha MO coefficient is  0.14129373D+02

 Leave Link  801 at Wed Sep 22 16:31:27 2021, MaxMem= 16106127360 cpu:               1.9 elap:               0.1
 (Enter /sw/contrib/gaussian/g16/B01/g16/l906.exe)
 Frozen-core derivative calculation, NFC=  11 NFV=   0.
 FulOut=F Deriv=T AODrv=F NAtomX=     4
   MMem=         144  MDisk=          11 MDiskD=          11
  W3Min=      736164 MinDsk=     1250177 NBas6D=         198
 NBas2D=       20187    NTT=       19701    LW2=     3500000
    MDV= 16105751214 MDiskM=      406660 NBas2p=       19980
 Fully in-core method, ICMem=   420417501.
 IMap=   1   2   3   4   5   6   7   8   9  10  11  12  13  14  15  16  17  18  19  20
 IMap=  21  22
 JobTyp=1 Pass  1 fully in-core, NPsUse= 28.
 Compute canonical integrals.
 FoFCou: FMM=F IPFlag=           0 FMFlag=           0 FMFlg1=           0
         NFxFlg=           0 DoJE=F BraDBF=F KetDBF=F FulRan=T
         wScrn=  0.000000 ICntrl=       600 IOpCl=  1 I1Cent=           0 NGrid=           0
         NMat0=    1 NMatS0=  20187 NMatT0=    0 NMatD0=    1 NMtDS0=    0 NMtDT0=    0
 Symmetry not used in FoFCou.
 Spin components of T(2) and E(2):
     alpha-alpha T2 =       0.2933792607D-01 E2=     -0.8426803079D-01
     alpha-beta  T2 =       0.1596363498D+00 E2=     -0.4988778570D+00
     beta-beta   T2 =       0.2933792607D-01 E2=     -0.8426803079D-01
 The integrals were generated   1 times.
 ANorm=    0.1103771807D+01
 E2 =    -0.6674139185D+00 EUMP2 =    -0.99518886894512D+03
 Leave Link  906 at Wed Sep 22 16:31:32 2021, MaxMem= 16106127360 cpu:             118.9 elap:               4.3
 (Enter /sw/contrib/gaussian/g16/B01/g16/l1002.exe)
 Minotr:  Closed shell wavefunction.
          Computing MP2/KS-MP2 derivatives.
          Using Z-Vector for PSCF gradient.
          Skipping F1 and S1 gradient terms here.
          Frozen-core window.
          Direct CPHF calculation.
          Differentiating once with respect to electric field.
                with respect to dipole field.
          Electric field/nuclear overlap derivatives assumed to be zero.
          Requested convergence is 1.0D-10 RMS, and 1.0D-09 maximum.
          NewPWx=F KeepS1=T KeepF1=T KeepIn=T MapXYZ=F SortEE=F KeepMc=T.
 Keep R1 ints in memory in canonical form, NReq=117123417.
 FoFCou: FMM=F IPFlag=           0 FMFlag=           0 FMFlg1=           0
         NFxFlg=           0 DoJE=F BraDBF=F KetDBF=F FulRan=T
         wScrn=  0.000000 ICntrl=       600 IOpCl=  0 I1Cent=           0 NGrid=           0
         NMat0=    1 NMatS0=  14365 NMatT0=    0 NMatD0=    1 NMtDS0=    0 NMtDT0=    0
 Symmetry not used in FoFCou.
 Two-electron integral symmetry not used.
          MDV=   16106127360 using IRadAn=       5.
          Solving linear equations separately, MaxMat=       0.
          There are     1 degrees of freedom in the 1st order CPHF.  IDoFFX=0 NUNeed=     1.
 LinEq1:  Iter=  0 NonCon=     1 RMS=3.09D-03 Max=3.82D-02 NDo=     1
 AX will form     1 AO Fock derivatives at one time.
 LinEq1:  Iter=  1 NonCon=     1 RMS=3.87D-04 Max=5.14D-03 NDo=     1
 LinEq1:  Iter=  2 NonCon=     1 RMS=1.61D-04 Max=3.21D-03 NDo=     1
 LinEq1:  Iter=  3 NonCon=     1 RMS=6.25D-05 Max=8.95D-04 NDo=     1
 LinEq1:  Iter=  4 NonCon=     1 RMS=2.64D-05 Max=6.61D-04 NDo=     1
 LinEq1:  Iter=  5 NonCon=     1 RMS=6.30D-06 Max=1.03D-04 NDo=     1
 LinEq1:  Iter=  6 NonCon=     1 RMS=1.95D-06 Max=4.18D-05 NDo=     1
 LinEq1:  Iter=  7 NonCon=     1 RMS=6.04D-07 Max=1.41D-05 NDo=     1
 LinEq1:  Iter=  8 NonCon=     1 RMS=1.28D-07 Max=1.58D-06 NDo=     1
 LinEq1:  Iter=  9 NonCon=     1 RMS=2.81D-08 Max=3.84D-07 NDo=     1
 LinEq1:  Iter= 10 NonCon=     1 RMS=7.53D-09 Max=7.28D-08 NDo=     1
 LinEq1:  Iter= 11 NonCon=     1 RMS=1.92D-09 Max=3.01D-08 NDo=     1
 LinEq1:  Iter= 12 NonCon=     1 RMS=4.23D-10 Max=8.53D-09 NDo=     1
 LinEq1:  Iter= 13 NonCon=     1 RMS=1.24D-10 Max=2.57D-09 NDo=     1
 LinEq1:  Iter= 14 NonCon=     0 RMS=3.94D-11 Max=6.59D-10 NDo=     1
 Linear equations converged to 1.000D-10 1.000D-09 after    14 iterations.
 End of Minotr F.D. properties file   721 does not exist.
 End of Minotr F.D. properties file   722 does not exist.
 End of Minotr F.D. properties file   788 does not exist.
 Leave Link 1002 at Wed Sep 22 16:31:35 2021, MaxMem= 16106127360 cpu:              26.7 elap:               3.6
 (Enter /sw/contrib/gaussian/g16/B01/g16/l601.exe)
 Copying SCF densities to generalized density rwf, IOpCl= 0 IROHF=0.

 **********************************************************************

            Population analysis using the MP2 Density.

 **********************************************************************

 Alpha  occ. eigenvalues -- -104.72488-104.54561 -20.45321 -10.44443 -10.27043
 Alpha  occ. eigenvalues --   -7.91160  -7.90900  -7.90889  -7.73658  -7.73642
 Alpha  occ. eigenvalues --   -7.73642  -1.22093  -0.88870  -0.78438  -0.53178
 Alpha  occ. eigenvalues --   -0.43522  -0.42698  -0.30223  -0.27397  -0.20105
 Alpha  occ. eigenvalues --   -0.19346  -0.19297
 Alpha virt. eigenvalues --    0.16042   0.18551   0.22572   0.23424   0.25897
 Alpha virt. eigenvalues --    0.27322   0.27709   0.29464   0.31316   0.31715
 Alpha virt. eigenvalues --    0.33937   0.34920   0.39691   0.43893   0.46429
 Alpha virt. eigenvalues --    0.50794   0.52248   0.54256   0.55883   0.57767
 Alpha virt. eigenvalues --    0.58800   0.60281   0.60838   0.65515   0.66112
 Alpha virt. eigenvalues --    0.67019   0.68056   0.73538   0.77666   0.78768
 Alpha virt. eigenvalues --    0.83723   0.86621   0.89623   0.90095   0.91246
 Alpha virt. eigenvalues --    0.91540   0.96678   0.99844   1.02665   1.06424
 Alpha virt. eigenvalues --    1.07572   1.09270   1.10165   1.10304   1.14217
 Alpha virt. eigenvalues --    1.15772   1.18427   1.18837   1.19434   1.21223
 Alpha virt. eigenvalues --    1.22613   1.24675   1.28392   1.30270   1.33167
 Alpha virt. eigenvalues --    1.36938   1.40326   1.42754   1.43296   1.44401
 Alpha virt. eigenvalues --    1.49002   1.51583   1.53764   1.59879   1.63985
 Alpha virt. eigenvalues --    1.66167   1.68736   1.69269   1.72719   1.74788
 Alpha virt. eigenvalues --    1.82661   1.85727   1.86211   1.89812   1.94314
 Alpha virt. eigenvalues --    1.98775   2.25992   2.41127   2.47879   2.51827
 Alpha virt. eigenvalues --    2.52947   2.56748   2.61284   2.64044   2.65979
 Alpha virt. eigenvalues --    2.68871   2.71337   2.72389   2.73340   2.75971
 Alpha virt. eigenvalues --    2.78110   2.79215   2.80181   2.82342   2.91095
 Alpha virt. eigenvalues --    2.92567   2.93917   2.97733   3.05237   3.10087
 Alpha virt. eigenvalues --    3.10744   3.13412   3.21187   3.22369   3.22946
 Alpha virt. eigenvalues --    3.27133   3.30043   3.33148   3.33687   3.36046
 Alpha virt. eigenvalues --    3.39077   3.40082   3.41598   3.50179   3.51552
 Alpha virt. eigenvalues --    3.54032   3.56865   3.59570   3.66300   3.93538
 Alpha virt. eigenvalues --    4.26295   4.33070   4.48435   4.55543   4.57815
 Alpha virt. eigenvalues --    4.77396   4.98923   5.11849   5.33807   5.46637
 Alpha virt. eigenvalues --    5.67055   6.29529   6.54651   6.59840   6.88436
 Alpha virt. eigenvalues --    6.91113   6.93210   7.00873   7.31798   7.33411
 Alpha virt. eigenvalues --    7.35919   7.45455   7.56365   7.78175   7.80770
 Alpha virt. eigenvalues --    8.36264  14.42835
          Condensed to atoms (all electrons):
               1          2          3          4
     1  O    8.636155  -0.092180  -0.119836   0.054095
     2  Cl  -0.092180  17.863687   0.003440   0.072581
     3  Cl  -0.119836   0.003440  17.073108  -0.000951
     4  H    0.054095   0.072581  -0.000951   0.592754
 Mulliken charges:
               1
     1  O   -0.478233
     2  Cl  -0.847528
     3  Cl   0.044239
     4  H    0.281522
 Sum of Mulliken charges =  -1.00000
 Mulliken charges with hydrogens summed into heavy atoms:
               1
     1  O   -0.196712
     2  Cl  -0.847528
     3  Cl   0.044239
 Electronic spatial extent (au):  <R**2>=            793.9007
 Charge=             -1.0000 electrons
 Dipole moment (field-independent basis, Debye):
    X=             -9.8108    Y=             -0.7419    Z=              0.2014  Tot=              9.8408
 Quadrupole moment (field-independent basis, Debye-Ang):
   XX=            -69.1051   YY=            -37.0336   ZZ=            -36.5595
   XY=              0.4786   XZ=              0.1385   YZ=             -0.0838
 Traceless Quadrupole moment (field-independent basis, Debye-Ang):
   XX=            -21.5390   YY=             10.5325   ZZ=             11.0066
   XY=              0.4786   XZ=              0.1385   YZ=             -0.0838
 Octapole moment (field-independent basis, Debye-Ang**2):
  XXX=           -224.4501  YYY=            -63.6241  ZZZ=             -0.9109  XYY=            -43.3358
  XXY=            -21.9277  XXZ=             -1.3310  XZZ=            -42.8477  YZZ=            -22.3684
  YYZ=             -0.4621  XYZ=              0.0513
 Hexadecapole moment (field-independent basis, Debye-Ang**3):
 XXXX=          -1171.5261 YYYY=           -247.6767 ZZZZ=            -50.1035 XXXY=             28.1818
 XXXZ=             -5.3388 YYYX=             22.3571 YYYZ=             -0.4223 ZZZX=             -1.2146
 ZZZY=             -0.1330 XXYY=           -194.3455 XXZZ=           -158.7148 YYZZ=            -53.9980
 XXYZ=             -0.1022 YYXZ=             -0.2481 ZZXY=              9.3278
 N-N= 1.220541245851D+02 E-N=-2.621912273528D+03  KE= 9.950238617551D+02
 No NMR shielding tensors so no spin-rotation constants.
 Leave Link  601 at Wed Sep 22 16:31:36 2021, MaxMem= 16106127360 cpu:               8.4 elap:               0.4
 (Enter /sw/contrib/gaussian/g16/B01/g16/l607.exe)
 ******************************Gaussian NBO Version 3.1******************************
             N A T U R A L   A T O M I C   O R B I T A L   A N D
          N A T U R A L   B O N D   O R B I T A L   A N A L Y S I S
 ******************************Gaussian NBO Version 3.1******************************
       /RESON  / : Allow strongly delocalized NBO set

 Analyzing the MP2 density

 Job title: title                                                           

 Storage needed:     86521 in NPA,    114817 in NBO (********** available)
 GSVD:  LWork=        1191 too small for GESVD, short by       52514 words or       52514 for optimal perf.


 NATURAL POPULATIONS:  Natural atomic orbital occupancies 
                                                          
   NAO  Atom  No  lang   Type(AO)    Occupancy
 --------------------------------------------
     1    O    1  S      Cor( 1S)     1.99969
     2    O    1  S      Val( 2S)     1.79200
     3    O    1  S      Ryd( 3S)     0.00974
     4    O    1  S      Ryd( 4S)     0.00113
     5    O    1  S      Ryd( 5S)     0.00018
     6    O    1  px     Val( 2p)     1.67016
     7    O    1  px     Ryd( 3p)     0.01187
     8    O    1  px     Ryd( 4p)     0.00075
     9    O    1  px     Ryd( 5p)     0.00042
    10    O    1  py     Val( 2p)     1.26243
    11    O    1  py     Ryd( 3p)     0.00781
    12    O    1  py     Ryd( 4p)     0.00063
    13    O    1  py     Ryd( 5p)     0.00039
    14    O    1  pz     Val( 2p)     1.92668
    15    O    1  pz     Ryd( 3p)     0.01960
    16    O    1  pz     Ryd( 4p)     0.00068
    17    O    1  pz     Ryd( 5p)     0.00018
    18    O    1  dxy    Ryd( 3d)     0.00935
    19    O    1  dxy    Ryd( 4d)     0.00046
    20    O    1  dxy    Ryd( 5d)     0.00018
    21    O    1  dxz    Ryd( 3d)     0.00827
    22    O    1  dxz    Ryd( 4d)     0.00061
    23    O    1  dxz    Ryd( 5d)     0.00029
    24    O    1  dyz    Ryd( 3d)     0.00935
    25    O    1  dyz    Ryd( 4d)     0.00057
    26    O    1  dyz    Ryd( 5d)     0.00011
    27    O    1  dx2y2  Ryd( 3d)     0.01224
    28    O    1  dx2y2  Ryd( 4d)     0.00039
    29    O    1  dx2y2  Ryd( 5d)     0.00015
    30    O    1  dz2    Ryd( 3d)     0.00924
    31    O    1  dz2    Ryd( 4d)     0.00057
    32    O    1  dz2    Ryd( 5d)     0.00017
    33    O    1  f(0)   Ryd( 4f)     0.00068
    34    O    1  f(0)   Ryd( 5f)     0.00011
    35    O    1  f(C1)  Ryd( 4f)     0.00059
    36    O    1  f(C1)  Ryd( 5f)     0.00011
    37    O    1  f(S1)  Ryd( 4f)     0.00065
    38    O    1  f(S1)  Ryd( 5f)     0.00011
    39    O    1  f(C2)  Ryd( 4f)     0.00060
    40    O    1  f(C2)  Ryd( 5f)     0.00013
    41    O    1  f(S2)  Ryd( 4f)     0.00057
    42    O    1  f(S2)  Ryd( 5f)     0.00012
    43    O    1  f(C3)  Ryd( 4f)     0.00057
    44    O    1  f(C3)  Ryd( 5f)     0.00015
    45    O    1  f(S3)  Ryd( 4f)     0.00057
    46    O    1  f(S3)  Ryd( 5f)     0.00012

    47   Cl    2  S      Cor( 1S)     2.00000
    48   Cl    2  S      Cor( 2S)     1.99996
    49   Cl    2  S      Val( 3S)     1.96538
    50   Cl    2  S      Ryd( 4S)     0.00181
    51   Cl    2  S      Ryd( 5S)     0.00024
    52   Cl    2  S      Ryd( 6S)     0.00011
    53   Cl    2  px     Cor( 2p)     2.00002
    54   Cl    2  px     Val( 3p)     1.85982
    55   Cl    2  px     Ryd( 4p)     0.01045
    56   Cl    2  px     Ryd( 5p)     0.00053
    57   Cl    2  px     Ryd( 6p)     0.00009
    58   Cl    2  py     Cor( 2p)     2.00003
    59   Cl    2  py     Val( 3p)     1.95185
    60   Cl    2  py     Ryd( 4p)     0.01255
    61   Cl    2  py     Ryd( 5p)     0.00057
    62   Cl    2  py     Ryd( 6p)     0.00006
    63   Cl    2  pz     Cor( 2p)     2.00003
    64   Cl    2  pz     Val( 3p)     1.94858
    65   Cl    2  pz     Ryd( 4p)     0.01255
    66   Cl    2  pz     Ryd( 5p)     0.00057
    67   Cl    2  pz     Ryd( 6p)     0.00005
    68   Cl    2  dxy    Ryd( 3d)     0.01857
    69   Cl    2  dxy    Ryd( 4d)     0.00068
    70   Cl    2  dxy    Ryd( 5d)     0.00013
    71   Cl    2  dxz    Ryd( 3d)     0.01863
    72   Cl    2  dxz    Ryd( 4d)     0.00073
    73   Cl    2  dxz    Ryd( 5d)     0.00012
    74   Cl    2  dyz    Ryd( 3d)     0.01827
    75   Cl    2  dyz    Ryd( 4d)     0.00096
    76   Cl    2  dyz    Ryd( 5d)     0.00012
    77   Cl    2  dx2y2  Ryd( 3d)     0.01832
    78   Cl    2  dx2y2  Ryd( 4d)     0.00086
    79   Cl    2  dx2y2  Ryd( 5d)     0.00012
    80   Cl    2  dz2    Ryd( 3d)     0.01828
    81   Cl    2  dz2    Ryd( 4d)     0.00091
    82   Cl    2  dz2    Ryd( 5d)     0.00011
    83   Cl    2  f(0)   Ryd( 4f)     0.00128
    84   Cl    2  f(0)   Ryd( 5f)     0.00015
    85   Cl    2  f(C1)  Ryd( 4f)     0.00129
    86   Cl    2  f(C1)  Ryd( 5f)     0.00017
    87   Cl    2  f(S1)  Ryd( 4f)     0.00128
    88   Cl    2  f(S1)  Ryd( 5f)     0.00014
    89   Cl    2  f(C2)  Ryd( 4f)     0.00128
    90   Cl    2  f(C2)  Ryd( 5f)     0.00016
    91   Cl    2  f(S2)  Ryd( 4f)     0.00130
    92   Cl    2  f(S2)  Ryd( 5f)     0.00015
    93   Cl    2  f(C3)  Ryd( 4f)     0.00130
    94   Cl    2  f(C3)  Ryd( 5f)     0.00018
    95   Cl    2  f(S3)  Ryd( 4f)     0.00126
    96   Cl    2  f(S3)  Ryd( 5f)     0.00016

    97   Cl    3  S      Cor( 1S)     2.00000
    98   Cl    3  S      Cor( 2S)     1.99979
    99   Cl    3  S      Val( 3S)     1.88094
   100   Cl    3  S      Ryd( 4S)     0.00816
   101   Cl    3  S      Ryd( 5S)     0.00053
   102   Cl    3  S      Ryd( 6S)     0.00017
   103   Cl    3  px     Cor( 2p)     2.00003
   104   Cl    3  px     Val( 3p)     1.89054
   105   Cl    3  px     Ryd( 4p)     0.00961
   106   Cl    3  px     Ryd( 5p)     0.00054
   107   Cl    3  px     Ryd( 6p)     0.00006
   108   Cl    3  py     Cor( 2p)     1.99996
   109   Cl    3  py     Val( 3p)     0.97625
   110   Cl    3  py     Ryd( 4p)     0.00708
   111   Cl    3  py     Ryd( 5p)     0.00052
   112   Cl    3  py     Ryd( 6p)     0.00023
   113   Cl    3  pz     Cor( 2p)     2.00003
   114   Cl    3  pz     Val( 3p)     1.95428
   115   Cl    3  pz     Ryd( 4p)     0.01072
   116   Cl    3  pz     Ryd( 5p)     0.00067
   117   Cl    3  pz     Ryd( 6p)     0.00003
   118   Cl    3  dxy    Ryd( 3d)     0.01763
   119   Cl    3  dxy    Ryd( 4d)     0.00074
   120   Cl    3  dxy    Ryd( 5d)     0.00026
   121   Cl    3  dxz    Ryd( 3d)     0.01720
   122   Cl    3  dxz    Ryd( 4d)     0.00076
   123   Cl    3  dxz    Ryd( 5d)     0.00020
   124   Cl    3  dyz    Ryd( 3d)     0.02100
   125   Cl    3  dyz    Ryd( 4d)     0.00110
   126   Cl    3  dyz    Ryd( 5d)     0.00037
   127   Cl    3  dx2y2  Ryd( 3d)     0.01824
   128   Cl    3  dx2y2  Ryd( 4d)     0.00066
   129   Cl    3  dx2y2  Ryd( 5d)     0.00025
   130   Cl    3  dz2    Ryd( 3d)     0.01751
   131   Cl    3  dz2    Ryd( 4d)     0.00060
   132   Cl    3  dz2    Ryd( 5d)     0.00017
   133   Cl    3  f(0)   Ryd( 4f)     0.00131
   134   Cl    3  f(0)   Ryd( 5f)     0.00013
   135   Cl    3  f(C1)  Ryd( 4f)     0.00128
   136   Cl    3  f(C1)  Ryd( 5f)     0.00013
   137   Cl    3  f(S1)  Ryd( 4f)     0.00143
   138   Cl    3  f(S1)  Ryd( 5f)     0.00014
   139   Cl    3  f(C2)  Ryd( 4f)     0.00130
   140   Cl    3  f(C2)  Ryd( 5f)     0.00013
   141   Cl    3  f(S2)  Ryd( 4f)     0.00123
   142   Cl    3  f(S2)  Ryd( 5f)     0.00014
   143   Cl    3  f(C3)  Ryd( 4f)     0.00141
   144   Cl    3  f(C3)  Ryd( 5f)     0.00013
   145   Cl    3  f(S3)  Ryd( 4f)     0.00144
   146   Cl    3  f(S3)  Ryd( 5f)     0.00014

   147    H    4  S      Val( 1S)     0.49245
   148    H    4  S      Ryd( 2S)     0.00789
   149    H    4  S      Ryd( 3S)     0.00026
   150    H    4  S      Ryd( 4S)     0.00018
   151    H    4  px     Ryd( 2p)     0.00559
   152    H    4  px     Ryd( 3p)     0.00107
   153    H    4  px     Ryd( 4p)     0.00028
   154    H    4  py     Ryd( 2p)     0.00368
   155    H    4  py     Ryd( 3p)     0.00042
   156    H    4  py     Ryd( 4p)     0.00013
   157    H    4  pz     Ryd( 2p)     0.00489
   158    H    4  pz     Ryd( 3p)     0.00041
   159    H    4  pz     Ryd( 4p)     0.00026
   160    H    4  dxy    Ryd( 3d)     0.00024
   161    H    4  dxy    Ryd( 4d)     0.00009
   162    H    4  dxz    Ryd( 3d)     0.00036
   163    H    4  dxz    Ryd( 4d)     0.00011
   164    H    4  dyz    Ryd( 3d)     0.00022
   165    H    4  dyz    Ryd( 4d)     0.00006
   166    H    4  dx2y2  Ryd( 3d)     0.00023
   167    H    4  dx2y2  Ryd( 4d)     0.00013
   168    H    4  dz2    Ryd( 3d)     0.00026
   169    H    4  dz2    Ryd( 4d)     0.00009


 Summary of Natural Population Analysis:                  
                                                          
                                       Natural Population 
                Natural  -----------------------------------------------
    Atom  No    Charge         Core      Valence    Rydberg      Total
 -----------------------------------------------------------------------
      O    1   -0.76135      1.99969     6.65127    0.11040     8.76135
     Cl    2   -0.87215     10.00004     7.72563    0.14648    17.87215
     Cl    3    0.15282      9.99981     6.70201    0.14537    16.84718
      H    4    0.48068      0.00000     0.49245    0.02686     0.51932
 =======================================================================
   * Total *   -1.00000     21.99954    21.57136    0.42910    44.00000

                                 Natural Population      
 --------------------------------------------------------
   Core                      21.99954 ( 99.9979% of  22)
   Valence                   21.57136 ( 98.0516% of  22)
   Natural Minimal Basis     43.57090 ( 99.0248% of  44)
   Natural Rydberg Basis      0.42910 (  0.9752% of  44)
 --------------------------------------------------------

    Atom  No          Natural Electron Configuration
 ----------------------------------------------------------------------------
      O    1      [core]2S( 1.79)2p( 4.86)3S( 0.01)3p( 0.04)3d( 0.05)
     Cl    2      [core]3S( 1.97)3p( 5.76)3d( 0.09)4p( 0.04)4f( 0.01)
     Cl    3      [core]3S( 1.88)3p( 4.82)4S( 0.01)3d( 0.09)4p( 0.03)4f( 0.01)
      H    4            1S( 0.49)2S( 0.01)2p( 0.01)


 NATURAL BOND ORBITAL ANALYSIS:

                       Occupancies       Lewis Structure    Low   High
           Occ.    -------------------  -----------------   occ   occ
  Cycle   Thresh.   Lewis   Non-Lewis     CR  BD  3C  LP    (L)   (NL)   Dev
 =============================================================================
   1(1)    1.90    43.43451   0.56549     11   2   0   9     1      1    0.16
   2(2)    1.90    43.16812   0.83188     11   2   0   9     1      1    0.55
   3(3)    1.90    43.43451   0.56549     11   2   0   9     1      1    0.16
   4(1)    1.80    43.43451   0.56549     11   2   0   9     0      1    0.16
   5(2)    1.80    43.43451   0.56549     11   2   0   9     0      1    0.16
   6(1)    1.70    43.43451   0.56549     11   2   0   9     0      1    0.16
   7(2)    1.70    43.43451   0.56549     11   2   0   9     0      1    0.16
   8(1)    1.60    43.06873   0.93127     11   1   0  10     0      1    0.55
   9(2)    1.60    43.06873   0.93127     11   1   0  10     0      1    0.55
  10(1)    1.50    43.06873   0.93127     11   1   0  10     0      1    0.55
  11(2)    1.50    43.06873   0.93127     11   1   0  10     0      1    0.55
  12(1)    1.90    43.43451   0.56549     11   2   0   9     1      1    0.16
 -----------------------------------------------------------------------------

 Structure accepted: RESONANCE keyword permits strongly delocalized structure

 --------------------------------------------------------
   Core                     21.99954 ( 99.998% of  22)
   Valence Lewis            21.43497 ( 97.432% of  22)
  ==================       ============================
   Total Lewis              43.43451 ( 98.715% of  44)
  -----------------------------------------------------
   Valence non-Lewis         0.18326 (  0.417% of  44)
   Rydberg non-Lewis         0.38222 (  0.869% of  44)
  ==================       ============================
   Total non-Lewis           0.56549 (  1.285% of  44)
 --------------------------------------------------------


       (Occupancy)   Bond orbital/ Coefficients/ Hybrids
 ---------------------------------------------------------------------------------
     1. (1.93958) BD ( 1) O   1 -Cl   3  
                ( 58.63%)   0.7657* O   1 s( 10.51%)p 8.46( 88.95%)d 0.05(  0.52%)
                                                  f 0.00(  0.02%)
                                            0.0003  0.3208 -0.0445 -0.0149 -0.0009
                                           -0.1969  0.0339  0.0073  0.0024  0.9210
                                           -0.0245 -0.0091 -0.0113  0.0172  0.0080
                                            0.0014 -0.0003 -0.0073 -0.0010 -0.0033
                                            0.0039  0.0003 -0.0009  0.0088  0.0012
                                           -0.0004 -0.0577 -0.0046 -0.0009 -0.0415
                                           -0.0034  0.0003 -0.0000 -0.0001  0.0027
                                           -0.0003 -0.0103  0.0009 -0.0016  0.0010
                                            0.0026 -0.0006  0.0039  0.0019 -0.0054
                                            0.0007
                ( 41.37%)   0.6432*Cl   3 s(  8.71%)p10.34( 90.04%)d 0.13(  1.15%)
                                                  f 0.01(  0.11%)
                                           -0.0000  0.0005  0.2892 -0.0577 -0.0103
                                           -0.0022  0.0001  0.2312 -0.0140 -0.0057
                                            0.0019 -0.0004 -0.9178  0.0647  0.0129
                                           -0.0042  0.0000  0.0034 -0.0001 -0.0011
                                            0.0004 -0.0509  0.0052 -0.0004  0.0039
                                           -0.0001 -0.0006 -0.0050 -0.0007 -0.0004
                                           -0.0745  0.0098  0.0007 -0.0559  0.0063
                                            0.0008 -0.0005 -0.0000 -0.0053  0.0009
                                            0.0202 -0.0029 -0.0000 -0.0003 -0.0009
                                            0.0005 -0.0178  0.0022  0.0187 -0.0022
     2. (1.96413) BD ( 1) O   1 - H   4  
                ( 80.06%)   0.8948* O   1 s( 28.37%)p 2.51( 71.14%)d 0.02(  0.48%)
                                                  f 0.00(  0.01%)
                                            0.0003  0.5326 -0.0040 -0.0083  0.0027
                                            0.8071 -0.0079 -0.0070 -0.0043 -0.0152
                                            0.0148  0.0013  0.0026  0.2436 -0.0000
                                           -0.0022 -0.0025  0.0257  0.0048  0.0010
                                            0.0329  0.0023 -0.0011  0.0084  0.0015
                                            0.0002  0.0470  0.0039  0.0015 -0.0268
                                           -0.0009  0.0028 -0.0056  0.0000 -0.0064
                                            0.0001 -0.0000  0.0004  0.0035  0.0011
                                            0.0003 -0.0006  0.0004  0.0028 -0.0019
                                           -0.0005
                ( 19.94%)   0.4465* H   4 s( 99.80%)p 0.00(  0.20%)d 0.00(  0.00%)
                                            0.9981  0.0415  0.0031 -0.0019  0.0123
                                           -0.0334  0.0096  0.0136  0.0020  0.0046
                                            0.0174 -0.0104  0.0003  0.0014  0.0019
                                           -0.0010 -0.0007  0.0011  0.0006  0.0017
                                           -0.0002 -0.0012 -0.0029
     3. (1.99969) CR ( 1) O   1           s(100.00%)p 0.00(  0.00%)
                                            1.0000 -0.0004  0.0000  0.0000 -0.0000
                                           -0.0001 -0.0000  0.0000  0.0000 -0.0002
                                            0.0000  0.0000  0.0000 -0.0000 -0.0000
                                            0.0000  0.0000 -0.0000 -0.0000 -0.0000
                                           -0.0000 -0.0000  0.0000 -0.0000 -0.0000
                                           -0.0000  0.0000  0.0000 -0.0000  0.0000
                                            0.0000 -0.0000  0.0000  0.0000  0.0000
                                            0.0000  0.0000 -0.0000 -0.0000 -0.0000
                                           -0.0000  0.0000 -0.0000 -0.0000  0.0000
                                           -0.0000
     4. (2.00000) CR ( 1)Cl   2           s(100.00%)
                                            1.0000  0.0000  0.0000 -0.0000  0.0000
                                           -0.0000 -0.0000  0.0000 -0.0000  0.0000
                                           -0.0000  0.0000 -0.0000 -0.0000 -0.0000
                                           -0.0000  0.0000 -0.0000  0.0000 -0.0000
                                            0.0000  0.0000  0.0000 -0.0000  0.0000
                                            0.0000  0.0000 -0.0000 -0.0000 -0.0000
                                           -0.0000  0.0000 -0.0000 -0.0000 -0.0000
                                            0.0000  0.0000  0.0000  0.0000  0.0000
                                            0.0000  0.0000 -0.0000  0.0000  0.0000
                                            0.0000 -0.0000 -0.0000 -0.0000 -0.0000
     5. (1.99996) CR ( 2)Cl   2           s(100.00%)
                                            0.0000  1.0000 -0.0001  0.0000 -0.0000
                                            0.0000  0.0000 -0.0000  0.0000 -0.0000
                                            0.0000 -0.0000  0.0000  0.0000  0.0000
                                            0.0000 -0.0000  0.0000 -0.0000  0.0000
                                           -0.0000 -0.0000 -0.0000 -0.0000 -0.0000
                                           -0.0000 -0.0000  0.0000  0.0000  0.0000
                                            0.0000 -0.0000  0.0000 -0.0000  0.0000
                                           -0.0000 -0.0000 -0.0000 -0.0000 -0.0000
                                           -0.0000 -0.0000  0.0000 -0.0000 -0.0000
                                           -0.0000  0.0000  0.0000  0.0000  0.0000
     6. (2.00002) CR ( 3)Cl   2           s(  0.00%)p 1.00(100.00%)
                                           -0.0000  0.0000  0.0000 -0.0000  0.0000
                                           -0.0000  1.0000  0.0000 -0.0000  0.0000
                                           -0.0000  0.0000 -0.0000 -0.0000 -0.0000
                                            0.0000 -0.0000  0.0000  0.0000  0.0000
                                           -0.0000  0.0000  0.0000 -0.0000 -0.0000
                                           -0.0000  0.0000 -0.0000 -0.0000 -0.0000
                                           -0.0000 -0.0000  0.0000  0.0000  0.0000
                                            0.0000 -0.0000 -0.0000 -0.0000 -0.0000
                                            0.0000  0.0000  0.0000  0.0000  0.0000
                                            0.0000  0.0000 -0.0000 -0.0000 -0.0000
     7. (2.00003) CR ( 4)Cl   2           s(  0.00%)p 1.00(100.00%)
                                            0.0000 -0.0000 -0.0000  0.0000 -0.0000
                                            0.0000  0.0000 -0.0000 -0.0000  0.0000
                                           -0.0000  1.0000  0.0000  0.0000  0.0000
                                           -0.0000  0.0000 -0.0000 -0.0000 -0.0000
                                            0.0000 -0.0000 -0.0000  0.0000  0.0000
                                           -0.0000 -0.0000  0.0000  0.0000  0.0000
                                            0.0000  0.0000  0.0000 -0.0000  0.0000
                                            0.0000  0.0000 -0.0000  0.0000  0.0000
                                           -0.0000 -0.0000  0.0000  0.0000 -0.0000
                                           -0.0000 -0.0000  0.0000  0.0000  0.0000
     8. (2.00003) CR ( 5)Cl   2           s(  0.00%)p 1.00(100.00%)
                                            0.0000 -0.0000 -0.0000 -0.0000  0.0000
                                           -0.0000 -0.0000  0.0000  0.0000 -0.0000
                                            0.0000  0.0000  0.0000 -0.0000 -0.0000
                                            0.0000  1.0000  0.0000  0.0000  0.0000
                                           -0.0000 -0.0000  0.0000  0.0000 -0.0000
                                           -0.0000  0.0000 -0.0000 -0.0000  0.0000
                                           -0.0000 -0.0000  0.0000  0.0000  0.0000
                                            0.0000 -0.0000 -0.0000 -0.0000 -0.0000
                                           -0.0000  0.0000  0.0000  0.0000 -0.0000
                                           -0.0000  0.0000  0.0000  0.0000  0.0000
     9. (2.00000) CR ( 1)Cl   3           s(100.00%)
                                            1.0000  0.0000  0.0000 -0.0000 -0.0000
                                           -0.0000  0.0000  0.0000 -0.0000 -0.0000
                                            0.0000 -0.0000 -0.0000  0.0000  0.0000
                                           -0.0000 -0.0000  0.0000  0.0000 -0.0000
                                            0.0000 -0.0000  0.0000 -0.0000  0.0000
                                           -0.0000 -0.0000 -0.0000 -0.0000 -0.0000
                                           -0.0000  0.0000  0.0000 -0.0000  0.0000
                                            0.0000 -0.0000 -0.0000 -0.0000  0.0000
                                            0.0000 -0.0000 -0.0000 -0.0000 -0.0000
                                            0.0000 -0.0000  0.0000  0.0000 -0.0000
    10. (1.99979) CR ( 2)Cl   3           s(100.00%)p 0.00(  0.00%)
                                            0.0000  1.0000 -0.0004  0.0000  0.0000
                                            0.0000 -0.0000 -0.0001  0.0000  0.0000
                                           -0.0000  0.0000  0.0004 -0.0000 -0.0000
                                            0.0000 -0.0000 -0.0000 -0.0000  0.0000
                                           -0.0000  0.0000 -0.0000 -0.0000 -0.0000
                                            0.0000  0.0000  0.0000  0.0000  0.0000
                                            0.0000 -0.0000 -0.0000  0.0000 -0.0000
                                           -0.0000  0.0000 -0.0000  0.0000 -0.0000
                                           -0.0000  0.0000 -0.0000  0.0000  0.0000
                                           -0.0000  0.0000 -0.0000 -0.0000  0.0000
    11. (2.00003) CR ( 3)Cl   3           s(  0.00%)p 1.00(100.00%)
                                            0.0000 -0.0000 -0.0000  0.0000  0.0000
                                            0.0000  1.0000  0.0001  0.0000  0.0000
                                           -0.0000  0.0000  0.0001 -0.0000 -0.0000
                                            0.0000 -0.0000 -0.0000  0.0000  0.0000
                                            0.0000  0.0000  0.0000  0.0000 -0.0000
                                            0.0000  0.0000  0.0000 -0.0000  0.0000
                                            0.0000 -0.0000 -0.0000  0.0000 -0.0000
                                           -0.0000 -0.0000  0.0000  0.0000 -0.0000
                                           -0.0000  0.0000  0.0000 -0.0000  0.0000
                                           -0.0000  0.0000 -0.0000 -0.0000  0.0000
    12. (1.99996) CR ( 4)Cl   3           s(  0.00%)p 1.00(100.00%)
                                           -0.0000  0.0000  0.0001 -0.0000 -0.0000
                                           -0.0000  0.0000  0.0001 -0.0000 -0.0000
                                            0.0000  1.0000 -0.0003  0.0000  0.0000
                                           -0.0000 -0.0000  0.0000  0.0000 -0.0000
                                            0.0000 -0.0000  0.0000  0.0000  0.0000
                                           -0.0000 -0.0000 -0.0000 -0.0000 -0.0000
                                           -0.0000  0.0000 -0.0000 -0.0000  0.0000
                                            0.0000 -0.0000  0.0000 -0.0000  0.0000
                                            0.0000 -0.0000 -0.0000 -0.0000 -0.0000
                                            0.0000 -0.0000  0.0000  0.0000 -0.0000
    13. (2.00003) CR ( 5)Cl   3           s(  0.00%)p 1.00(100.00%)
                                           -0.0000 -0.0000 -0.0000  0.0000  0.0000
                                           -0.0000 -0.0000  0.0000  0.0000 -0.0000
                                            0.0000 -0.0000  0.0000 -0.0000 -0.0000
                                            0.0000  1.0000  0.0002  0.0000  0.0000
                                           -0.0000 -0.0000 -0.0000 -0.0000 -0.0000
                                           -0.0000 -0.0000  0.0000  0.0000  0.0000
                                            0.0000 -0.0000 -0.0000  0.0000  0.0000
                                            0.0000 -0.0000  0.0000  0.0000 -0.0000
                                           -0.0000  0.0000 -0.0000  0.0000 -0.0000
                                            0.0000  0.0000  0.0000 -0.0000 -0.0000
    14. (1.96656) LP ( 1) O   1           s( 61.26%)p 0.63( 38.65%)d 0.00(  0.09%)
                                                  f 0.00(  0.00%)
                                            0.0002  0.7826  0.0111  0.0084 -0.0016
                                           -0.4649 -0.0071 -0.0045 -0.0013 -0.3675
                                           -0.0043 -0.0055 -0.0025 -0.1874 -0.0028
                                           -0.0016 -0.0002 -0.0251 -0.0018  0.0047
                                           -0.0087 -0.0001  0.0008 -0.0102 -0.0012
                                            0.0007 -0.0022  0.0008  0.0019  0.0082
                                            0.0005  0.0009  0.0021 -0.0001  0.0019
                                           -0.0003  0.0002  0.0006  0.0008 -0.0007
                                           -0.0010  0.0004  0.0049 -0.0025 -0.0000
                                            0.0007
    15. (1.95219) LP ( 2) O   1           s(  0.02%)p99.99( 99.79%)d10.73(  0.18%)
                                                  f 0.82(  0.01%)
                                           -0.0000  0.0119  0.0047  0.0023 -0.0003
                                           -0.2959 -0.0056 -0.0016 -0.0016 -0.0848
                                           -0.0017 -0.0005 -0.0012  0.9501  0.0179
                                            0.0061  0.0071 -0.0117 -0.0004  0.0022
                                            0.0114 -0.0051 -0.0099  0.0334  0.0037
                                           -0.0031 -0.0024  0.0020  0.0030  0.0155
                                           -0.0005 -0.0039 -0.0082  0.0006  0.0048
                                            0.0002  0.0007 -0.0002 -0.0049  0.0022
                                           -0.0032 -0.0001  0.0016 -0.0012  0.0017
                                           -0.0003
    16. (1.97730) LP ( 1)Cl   2           s( 91.02%)p 0.10(  8.98%)d 0.00(  0.00%)
                                                  f 0.00(  0.00%)
                                           -0.0000  0.0001  0.9540 -0.0002  0.0007
                                           -0.0003 -0.0000  0.2936 -0.0018  0.0007
                                           -0.0002  0.0000 -0.0065 -0.0002 -0.0001
                                           -0.0001  0.0000 -0.0598  0.0002 -0.0000
                                            0.0000  0.0000  0.0001  0.0001  0.0009
                                           -0.0000  0.0002 -0.0000 -0.0000 -0.0000
                                           -0.0005  0.0002 -0.0004  0.0003 -0.0000
                                            0.0003 -0.0000 -0.0001  0.0002  0.0001
                                            0.0000  0.0000  0.0001  0.0001  0.0000
                                            0.0000 -0.0003 -0.0002 -0.0000 -0.0000
    17. (1.95240) LP ( 2)Cl   2           s(  0.00%)p 1.00( 99.99%)d 0.00(  0.01%)
                                                  f 0.00(  0.00%)
                                           -0.0000  0.0000 -0.0002  0.0011 -0.0010
                                            0.0012  0.0000 -0.1863 -0.0003  0.0002
                                           -0.0001 -0.0000  0.2645  0.0008  0.0004
                                           -0.0001  0.0000 -0.9461 -0.0022 -0.0015
                                            0.0006 -0.0029 -0.0004  0.0002  0.0086
                                            0.0011 -0.0012  0.0008  0.0003  0.0001
                                            0.0024  0.0002 -0.0006 -0.0041 -0.0013
                                           -0.0003  0.0016  0.0009  0.0019  0.0011
                                           -0.0002 -0.0001 -0.0021 -0.0011 -0.0002
                                           -0.0001 -0.0007 -0.0001  0.0008  0.0004
    18. (1.95213) LP ( 3)Cl   2           s(  0.01%)p 1.00( 99.98%)d 0.00(  0.01%)
                                                  f 0.00(  0.00%)
                                            0.0000 -0.0000  0.0073  0.0001  0.0001
                                            0.0001  0.0000  0.0507 -0.0001  0.0000
                                            0.0000 -0.0000  0.9643  0.0027  0.0014
                                           -0.0004 -0.0000  0.2596  0.0006  0.0004
                                           -0.0001 -0.0105 -0.0014  0.0012 -0.0024
                                           -0.0005  0.0002  0.0025  0.0009  0.0004
                                            0.0002  0.0006  0.0006  0.0012  0.0004
                                            0.0001 -0.0005 -0.0003 -0.0005 -0.0003
                                           -0.0007 -0.0004  0.0007  0.0004 -0.0011
                                           -0.0007  0.0001  0.0000  0.0030  0.0016
    19. (1.84577) LP ( 4)Cl   2           s(  8.97%)p10.14( 90.96%)d 0.01(  0.07%)
                                                  f 0.00(  0.01%)
                                            0.0000 -0.0000  0.2995  0.0008 -0.0026
                                            0.0010 -0.0000 -0.9359  0.0053  0.0034
                                           -0.0011  0.0000 -0.0024  0.0004  0.0004
                                           -0.0001  0.0000  0.1835  0.0006 -0.0006
                                            0.0006 -0.0000 -0.0003 -0.0004 -0.0101
                                           -0.0026 -0.0006 -0.0000 -0.0000 -0.0000
                                            0.0201  0.0038 -0.0006 -0.0113 -0.0024
                                           -0.0002 -0.0019 -0.0008  0.0034  0.0018
                                           -0.0000 -0.0001  0.0025  0.0010  0.0000
                                            0.0000 -0.0048 -0.0021  0.0000  0.0002
    20. (1.97405) LP ( 1)Cl   3           s( 91.48%)p 0.09(  8.49%)d 0.00(  0.02%)
                                                  f 0.00(  0.00%)
                                            0.0000  0.0003  0.9564  0.0069  0.0012
                                            0.0003 -0.0000 -0.0424  0.0000  0.0006
                                            0.0001  0.0000  0.2880 -0.0065 -0.0030
                                            0.0014 -0.0000  0.0134  0.0004  0.0001
                                            0.0000  0.0056  0.0002  0.0003  0.0003
                                            0.0001 -0.0001  0.0004  0.0003  0.0002
                                            0.0109 -0.0007 -0.0003  0.0079  0.0005
                                            0.0003 -0.0002  0.0001  0.0004  0.0001
                                           -0.0021 -0.0003  0.0001 -0.0001 -0.0003
                                            0.0001  0.0018  0.0002 -0.0029  0.0002
    21. (1.95602) LP ( 2)Cl   3           s(  0.01%)p 1.00( 99.93%)d 0.00(  0.05%)
                                                  f 0.00(  0.01%)
                                            0.0000  0.0000  0.0071 -0.0026 -0.0012
                                            0.0008 -0.0000  0.2173  0.0029  0.0012
                                           -0.0001 -0.0000  0.0537  0.0008 -0.0001
                                            0.0002  0.0002 -0.9742 -0.0153 -0.0049
                                            0.0022  0.0019  0.0037  0.0015  0.0057
                                            0.0075  0.0027 -0.0072 -0.0166 -0.0077
                                           -0.0017 -0.0023 -0.0012 -0.0003 -0.0002
                                           -0.0001  0.0051 -0.0008 -0.0011  0.0006
                                            0.0001 -0.0002  0.0056 -0.0009  0.0036
                                           -0.0010 -0.0011  0.0000 -0.0014  0.0005
    22. (1.95484) LP ( 3)Cl   3           s(  0.10%)p99.99( 99.85%)d 0.43(  0.04%)
                                                  f 0.09(  0.01%)
                                            0.0000 -0.0000  0.0305  0.0061  0.0037
                                           -0.0017  0.0002 -0.9461 -0.0124 -0.0014
                                            0.0002  0.0001 -0.2307 -0.0034 -0.0006
                                           -0.0008  0.0000 -0.2235 -0.0036 -0.0006
                                            0.0002  0.0034 -0.0117 -0.0055 -0.0002
                                            0.0011  0.0007  0.0006 -0.0030 -0.0016
                                            0.0070  0.0114  0.0060 -0.0011 -0.0030
                                           -0.0003  0.0016 -0.0004  0.0019 -0.0000
                                            0.0007  0.0002  0.0009  0.0001  0.0010
                                           -0.0003  0.0057 -0.0011  0.0064 -0.0011
    23. (0.01979) RY*( 1) O   1           s(  0.07%)p99.99( 98.66%)d16.56(  1.21%)
                                                  f 0.71(  0.05%)
                                           -0.0000 -0.0001  0.0269  0.0027  0.0006
                                            0.0060 -0.2862  0.0101  0.0064  0.0035
                                           -0.0807  0.0026 -0.0008 -0.0222  0.9467
                                           -0.0357 -0.0115 -0.0300 -0.0058  0.0010
                                            0.0290 -0.0086 -0.0164  0.0881  0.0254
                                            0.0060 -0.0037  0.0048  0.0048  0.0383
                                            0.0024 -0.0035 -0.0107  0.0093  0.0036
                                           -0.0037  0.0013 -0.0007 -0.0112  0.0096
                                           -0.0031  0.0035  0.0050 -0.0039  0.0025
                                           -0.0027
    24. (0.01612) RY*( 2) O   1           s( 28.85%)p 2.39( 68.98%)d 0.07(  1.96%)
                                                  f 0.01(  0.20%)
                                           -0.0000  0.0032  0.5356 -0.0393 -0.0078
                                            0.0077 -0.6124  0.0056  0.0423  0.0408
                                           -0.5009 -0.0037  0.0347  0.0036 -0.2426
                                            0.0047  0.0158 -0.1134 -0.0241 -0.0089
                                           -0.0182  0.0027  0.0074 -0.0509 -0.0105
                                           -0.0043  0.0349  0.0058  0.0000  0.0415
                                            0.0034 -0.0043 -0.0032  0.0001  0.0031
                                           -0.0044 -0.0066  0.0014  0.0159 -0.0080
                                           -0.0037  0.0026  0.0350 -0.0168 -0.0097
                                            0.0033
    25. (0.00802) RY*( 3) O   1           s( 18.02%)p 0.61( 11.04%)d 3.87( 69.72%)
                                                  f 0.07(  1.21%)
                                           -0.0000  0.0159  0.4189 -0.0657  0.0128
                                            0.0133  0.2949 -0.0257  0.0636 -0.0145
                                           -0.1040  0.0024  0.0534  0.0004  0.0675
                                           -0.0068  0.0059  0.6091  0.0059  0.0076
                                           -0.0364  0.0038 -0.0033  0.1098  0.0062
                                            0.0053 -0.5065 -0.0087 -0.0339  0.2343
                                           -0.0094  0.0055 -0.0065  0.0032  0.0081
                                           -0.0095 -0.0175  0.0111 -0.0160  0.0066
                                            0.0170 -0.0085 -0.0901  0.0385 -0.0313
                                            0.0155
    26. (0.00704) RY*( 4) O   1           s(  0.20%)p 1.81(  0.36%)d99.99( 97.72%)
                                                  f 8.72(  1.72%)
                                            0.0000  0.0029  0.0440 -0.0052 -0.0009
                                            0.0040  0.0085  0.0035  0.0012 -0.0010
                                            0.0008  0.0028  0.0042 -0.0184 -0.0546
                                           -0.0106 -0.0034 -0.0258  0.0059 -0.0000
                                           -0.5223  0.0268 -0.0097  0.8104 -0.0344
                                            0.0134  0.1448 -0.0116  0.0004 -0.1535
                                            0.0074 -0.0064 -0.0465  0.0202 -0.0259
                                            0.0125  0.0017 -0.0007 -0.1012  0.0452
                                           -0.0267  0.0111  0.0134 -0.0080  0.0201
                                           -0.0080
    27. (0.00638) RY*( 5) O   1           s(  1.03%)p15.13( 15.64%)d78.99( 81.65%)
                                                  f 1.62(  1.67%)
                                           -0.0000  0.0034  0.0946 -0.0366 -0.0065
                                            0.0541  0.3486 -0.0249  0.0024 -0.0069
                                           -0.1696 -0.0033  0.0413 -0.0071  0.0275
                                           -0.0051  0.0038 -0.7004  0.0186 -0.0335
                                            0.0962 -0.0054  0.0027  0.1673 -0.0214
                                           -0.0057 -0.2723  0.0135 -0.0135  0.4591
                                           -0.0324  0.0180 -0.0060  0.0012  0.0647
                                           -0.0355  0.0304 -0.0177 -0.0176  0.0098
                                           -0.0185  0.0097  0.0510 -0.0159 -0.0726
                                            0.0322
    28. (0.00617) RY*( 6) O   1           s(  0.51%)p16.40(  8.37%)d99.99( 89.72%)
                                                  f 2.74(  1.40%)
                                           -0.0000  0.0045  0.0665 -0.0246 -0.0077
                                            0.0307  0.2091 -0.0127 -0.0123 -0.0098
                                           -0.1464 -0.0009  0.0247  0.0353  0.1213
                                           -0.0120 -0.0230 -0.1406 -0.0054 -0.0140
                                           -0.7638  0.0544 -0.0275 -0.5097  0.0417
                                           -0.0053 -0.0696 -0.0028 -0.0016 -0.1536
                                            0.0098 -0.0045  0.0728 -0.0369 -0.0219
                                            0.0104 -0.0251  0.0091 -0.0066  0.0068
                                           -0.0609  0.0272  0.0146 -0.0043 -0.0326
                                            0.0138
    29. (0.00573) RY*( 7) O   1           s(  1.13%)p11.62( 13.10%)d74.22( 83.62%)
                                                  f 1.91(  2.15%)
                                           -0.0000  0.0200  0.1007 -0.0207  0.0175
                                           -0.0122 -0.1110 -0.0043  0.0217  0.0726
                                            0.3317 -0.0039 -0.0494 -0.0008 -0.0159
                                           -0.0010  0.0014  0.1282  0.0062  0.0090
                                           -0.2425  0.0352 -0.0017 -0.0957  0.0153
                                            0.0047  0.4385 -0.0308 -0.0133  0.7418
                                           -0.0813 -0.0021  0.0163 -0.0073 -0.0041
                                           -0.0003  0.0994 -0.0388  0.0126 -0.0057
                                           -0.0138  0.0050 -0.0264  0.0094  0.0855
                                           -0.0359
    30. (0.00346) RY*( 8) O   1           s( 30.75%)p 0.86( 26.32%)d 1.37( 42.14%)
                                                  f 0.03(  0.79%)
                                            0.0000 -0.0073  0.5290 -0.1639  0.0259
                                           -0.0344  0.4453 -0.0689  0.1768  0.0242
                                            0.0238  0.0114  0.0957 -0.0067  0.1273
                                           -0.0293  0.0130 -0.0571  0.0040 -0.0228
                                            0.2166 -0.0360  0.0121 -0.0322  0.0038
                                           -0.0002  0.5394 -0.0617  0.0278 -0.2559
                                            0.0834 -0.0125 -0.0295  0.0205 -0.0223
                                            0.0105  0.0008  0.0018  0.0416 -0.0235
                                            0.0060 -0.0008  0.0455 -0.0215  0.0343
                                           -0.0034
    31. (0.00245) RY*( 9) O   1           s( 14.62%)p 4.25( 62.14%)d 1.56( 22.74%)
                                                  f 0.03(  0.49%)
                                           -0.0000  0.0017  0.3742 -0.0781 -0.0119
                                            0.0071 -0.2443 -0.0112  0.0747  0.0146
                                            0.7445 -0.0314 -0.0070  0.0030 -0.0185
                                           -0.0014  0.0083 -0.2392  0.0369 -0.0398
                                           -0.0421  0.0061 -0.0071 -0.0279  0.0040
                                           -0.0017 -0.3413  0.0281 -0.0977 -0.1851
                                            0.0527 -0.0274 -0.0049 -0.0004  0.0131
                                           -0.0185 -0.0257  0.0313  0.0065 -0.0008
                                           -0.0068  0.0019  0.0198 -0.0190 -0.0329
                                            0.0288
    32. (0.00077) RY*(10) O   1           s( 37.02%)p 1.35( 50.13%)d 0.28( 10.47%)
                                                  f 0.06(  2.38%)
                                           -0.0000 -0.0026  0.0346  0.6043  0.0616
                                            0.0063  0.0037 -0.5678  0.2536  0.0125
                                           -0.0214 -0.2171 -0.1911  0.0017 -0.0031
                                           -0.1620  0.0632 -0.0272  0.1318  0.0841
                                           -0.0118  0.0649 -0.0440 -0.0037  0.0297
                                            0.0011 -0.0110 -0.1441 -0.0625 -0.0064
                                            0.1710  0.1352 -0.0520  0.0024  0.0463
                                           -0.0389  0.0281 -0.0071  0.0308 -0.0123
                                            0.0396 -0.0121 -0.0965  0.0198  0.0554
                                           -0.0312
    33. (0.00065) RY*(11) O   1           s(  0.12%)p99.99( 28.78%)d99.99( 48.81%)
                                                  f99.99( 22.29%)
                                           -0.0000 -0.0008  0.0231  0.0216 -0.0137
                                            0.0019  0.0032 -0.2305  0.0039  0.0012
                                           -0.0030 -0.0506 -0.0488 -0.0041  0.0281
                                            0.4781 -0.0177 -0.0107  0.1982  0.0186
                                           -0.0255 -0.4839 -0.0267  0.0160 -0.2881
                                           -0.0178  0.0116  0.1014  0.0071 -0.0196
                                           -0.3430 -0.0276  0.1336  0.0094 -0.0178
                                            0.0003 -0.2388  0.0324  0.2102 -0.0027
                                           -0.2595  0.0465 -0.1334  0.0038  0.1198
                                           -0.0270
    34. (0.00060) RY*(12) O   1           s(  1.23%)p51.56( 63.38%)d17.17( 21.11%)
                                                  f11.61( 14.28%)
                                           -0.0000  0.0009  0.0308  0.1060  0.0099
                                            0.0008  0.0147  0.2275 -0.0886  0.0047
                                            0.0125  0.0400 -0.0188  0.0020 -0.0166
                                           -0.7171  0.2394  0.0138  0.0899  0.0213
                                           -0.0089 -0.3741  0.0074 -0.0212 -0.2333
                                           -0.0225 -0.0013  0.0618  0.0041  0.0028
                                           -0.0498  0.0246 -0.0717 -0.0162  0.0078
                                            0.0003 -0.0469  0.0037  0.0424 -0.0415
                                           -0.3593  0.0212  0.0021  0.0045  0.0446
                                            0.0063
    35. (0.00060) RY*(13) O   1           s(  2.94%)p 3.00(  8.82%)d17.77( 52.20%)
                                                  f12.27( 36.05%)
                                           -0.0000  0.0039 -0.0090  0.1395  0.0991
                                            0.0037 -0.0052  0.1033  0.0083  0.0087
                                            0.0156  0.0300  0.0651 -0.0005  0.0044
                                            0.2633 -0.0511  0.0472 -0.2157  0.0539
                                           -0.0311 -0.3197 -0.0405  0.0165 -0.1108
                                            0.0124 -0.0197 -0.0202  0.0126  0.0462
                                            0.5860  0.0797  0.0737  0.0026 -0.0503
                                            0.0057  0.3992 -0.0408  0.1750 -0.0054
                                           -0.2483  0.0306  0.2248 -0.0170 -0.2165
                                            0.0221
    36. (0.00051) RY*(14) O   1           s(  0.09%)p24.76(  2.18%)d99.99( 57.22%)
                                                  f99.99( 40.51%)
                                            0.0000 -0.0002  0.0041  0.0240  0.0169
                                            0.0011  0.0012 -0.0075  0.0094  0.0002
                                           -0.0023 -0.0669 -0.0016 -0.0093 -0.0246
                                            0.1108 -0.0646 -0.0059 -0.0587  0.0000
                                            0.0203 -0.2386  0.0557 -0.0133  0.7045
                                           -0.0834 -0.0027  0.0330 -0.0055  0.0032
                                           -0.0600  0.0139 -0.4084 -0.0182 -0.0226
                                           -0.0110 -0.0352  0.0071 -0.2561 -0.0231
                                           -0.4074 -0.0021 -0.0379 -0.0014  0.0502
                                           -0.0030
    37. (0.00050) RY*(15) O   1           s(  1.67%)p 7.25( 12.09%)d25.10( 41.84%)
                                                  f26.63( 44.41%)
                                            0.0000 -0.0001  0.0652  0.1085  0.0256
                                           -0.0048  0.0093  0.2578 -0.1478  0.0008
                                           -0.0053 -0.1370 -0.0771  0.0008  0.0102
                                            0.0869 -0.0073 -0.0193  0.5619 -0.0472
                                            0.0143 -0.0344  0.0336 -0.0182  0.0031
                                           -0.0174  0.0330 -0.2945  0.0708 -0.0181
                                           -0.0609 -0.0111 -0.0913 -0.0062 -0.3924
                                           -0.0106  0.1893  0.0048 -0.0793 -0.0065
                                            0.1014 -0.0005 -0.2218 -0.0398 -0.4219
                                           -0.0170
    38. (0.00047) RY*(16) O   1           s(  3.47%)p 3.23( 11.19%)d 4.10( 14.21%)
                                                  f20.52( 71.14%)
                                           -0.0000  0.0003  0.0579  0.1593  0.0770
                                            0.0100  0.0416  0.1986 -0.0146 -0.0016
                                           -0.0050 -0.2311 -0.0615  0.0010  0.0121
                                            0.0877  0.0731  0.0142  0.0722  0.0559
                                           -0.0203 -0.3384  0.0576 -0.0443 -0.0176
                                           -0.0433 -0.0318  0.0028 -0.0615 -0.0061
                                           -0.0673  0.0422  0.0929  0.0047 -0.0125
                                           -0.0042  0.0581  0.0076 -0.4237 -0.0341
                                            0.4161  0.0193  0.4687  0.0285  0.3510
                                            0.0346
    39. (0.00048) RY*(17) O   1           s(  0.17%)p99.99( 70.29%)d28.06(  4.78%)
                                                  f99.99( 24.76%)
                                           -0.0000  0.0045  0.0261  0.0311  0.0059
                                           -0.0039 -0.0039 -0.2470 -0.0154  0.0073
                                           -0.0071  0.7871 -0.1419 -0.0005  0.0005
                                           -0.0036  0.0425 -0.0239  0.0554 -0.0207
                                            0.0071 -0.0922  0.0374 -0.0250 -0.0043
                                           -0.0291 -0.0433  0.0349 -0.0902 -0.0516
                                           -0.1330 -0.0261 -0.0040  0.0037 -0.1783
                                           -0.0100  0.3949  0.0338 -0.1926 -0.0200
[...]
   152. (0.00045) RY*( 7) H   4           s( 16.73%)p 4.17( 69.72%)d 0.81( 13.56%)
                                           -0.0025  0.0252  0.3683  0.1760  0.0373
                                           -0.0339  0.1600 -0.0414 -0.7780  0.2034
                                           -0.0246  0.1405  0.0183  0.2211  0.1276
                                           -0.1547  0.0495  0.0852  0.0265 -0.0955
                                            0.0721  0.1278 -0.0734
   153. (0.00033) RY*( 8) H   4           s(  9.94%)p 6.92( 68.77%)d 2.14( 21.29%)
                                            0.0008 -0.0011  0.3036  0.0849 -0.0297
                                           -0.0469  0.3489 -0.0610  0.4652  0.1897
                                           -0.0890  0.5235  0.1576  0.2711 -0.1037
                                            0.1227 -0.0036 -0.1506 -0.0035 -0.1843
                                            0.1970  0.0228 -0.1327
   154. (0.00029) RY*( 9) H   4           s( 18.03%)p 3.23( 58.23%)d 1.32( 23.74%)
                                           -0.0038 -0.0400  0.3991  0.1393 -0.0595
                                            0.0801 -0.0188 -0.0481  0.2535  0.1308
                                            0.0853 -0.6828  0.1214  0.1296 -0.0316
                                           -0.0818  0.2127  0.0341 -0.0535 -0.3350
                                           -0.0201  0.2142  0.0720
   155. (0.00024) RY*(10) H   4           s(  2.03%)p 5.96( 12.10%)d42.27( 85.87%)
                                           -0.0041 -0.0246  0.1258  0.0621 -0.0309
                                           -0.0466  0.2671  0.1008  0.1326 -0.1158
                                           -0.0016  0.0532  0.0504 -0.4042 -0.0265
                                           -0.1299  0.0218  0.5665 -0.1057  0.3132
                                            0.1063  0.4472 -0.1891
   156. (0.00024) RY*(11) H   4           s(  3.76%)p 7.31( 27.52%)d18.25( 68.72%)
                                            0.0135  0.0393  0.1053  0.1576  0.0326
                                            0.2231 -0.3567 -0.0133  0.0434 -0.0488
                                           -0.0403  0.2859 -0.0963 -0.2264 -0.0708
                                           -0.1009 -0.0574  0.4673 -0.0928 -0.5525
                                           -0.0528 -0.2807  0.0603
   157. (0.00021) RY*(12) H   4           s(  1.09%)p30.83( 33.54%)d60.11( 65.38%)
                                            0.0161  0.0263  0.0071  0.0994  0.0125
                                            0.3074 -0.3927  0.0352  0.0250 -0.1145
                                            0.0350  0.2604  0.0501 -0.0539  0.0341
                                           -0.1498 -0.0857 -0.3761  0.0918 -0.0552
                                           -0.1657  0.6630  0.0028
   158. (0.00015) RY*(13) H   4           s(  8.15%)p 1.34( 10.92%)d 9.93( 80.93%)
                                           -0.0027 -0.0304  0.2428  0.1470 -0.0132
                                           -0.0887  0.1786  0.0601 -0.1187 -0.2182
                                           -0.0013 -0.0624  0.0060 -0.6686 -0.0884
                                            0.0192  0.0606 -0.4773  0.1130 -0.1731
                                            0.1549 -0.1876 -0.1441
   159. (0.00013) RY*(14) H   4           s( 31.48%)p 0.75( 23.66%)d 1.42( 44.86%)
                                           -0.0045 -0.0232  0.0523  0.5581  0.0264
                                           -0.1275 -0.0945  0.0013  0.0815  0.1654
                                           -0.0222 -0.1343 -0.3978  0.0002  0.1831
                                            0.3779 -0.4941  0.0113  0.0322  0.0960
                                           -0.0042  0.0504 -0.1228
   160. (0.00011) RY*(15) H   4           s( 33.80%)p 0.57( 19.26%)d 1.39( 46.94%)
                                            0.0001 -0.0061  0.0760  0.5763 -0.0278
                                           -0.1115 -0.2109  0.0087  0.1085  0.0152
                                           -0.0161  0.1130  0.3314  0.0089  0.0831
                                           -0.2342  0.3123 -0.0364 -0.0078  0.4174
                                           -0.1621 -0.2723  0.1846
   161. (0.00009) RY*(16) H   4           s(  4.10%)p 7.14( 29.30%)d16.23( 66.59%)
   162. (0.00005) RY*(17) H   4           s(  0.01%)p56.34(  0.82%)d99.99( 99.17%)
   163. (0.00005) RY*(18) H   4           s(  0.11%)p99.99( 32.90%)d99.99( 66.99%)
   164. (0.00005) RY*(19) H   4           s(  0.59%)p48.08( 28.33%)d99.99( 71.08%)
   165. (0.00006) RY*(20) H   4           s( 37.56%)p 0.45( 16.97%)d 1.21( 45.47%)
   166. (0.00004) RY*(21) H   4           s(  0.51%)p90.03( 45.64%)d99.99( 53.85%)
   167. (0.00005) RY*(22) H   4           s( 21.53%)p 0.33(  7.07%)d 3.32( 71.41%)
   168. (0.05766) BD*( 1) O   1 -Cl   3  
                ( 41.37%)   0.6432* O   1 s( 10.51%)p 8.46( 88.95%)d 0.05(  0.52%)
                                                  f 0.00(  0.02%)
                                           -0.0003 -0.3208  0.0445  0.0149  0.0009
                                            0.1969 -0.0339 -0.0073 -0.0024 -0.9210
                                            0.0245  0.0091  0.0113 -0.0172 -0.0080
                                           -0.0014  0.0003  0.0073  0.0010  0.0033
                                           -0.0039 -0.0003  0.0009 -0.0088 -0.0012
                                            0.0004  0.0577  0.0046  0.0009  0.0415
                                            0.0034 -0.0003  0.0000  0.0001 -0.0027
                                            0.0003  0.0103 -0.0009  0.0016 -0.0010
                                           -0.0026  0.0006 -0.0039 -0.0019  0.0054
                                           -0.0007
                ( 58.63%)  -0.7657*Cl   3 s(  8.71%)p10.34( 90.04%)d 0.13(  1.15%)
                                                  f 0.01(  0.11%)
                                            0.0000 -0.0005 -0.2892  0.0577  0.0103
                                            0.0022 -0.0001 -0.2312  0.0140  0.0057
                                           -0.0019  0.0004  0.9178 -0.0647 -0.0129
                                            0.0042 -0.0000 -0.0034  0.0001  0.0011
                                           -0.0004  0.0509 -0.0052  0.0004 -0.0039
                                            0.0001  0.0006  0.0050  0.0007  0.0004
                                            0.0745 -0.0098 -0.0007  0.0559 -0.0063
                                           -0.0008  0.0005  0.0000  0.0053 -0.0009
                                           -0.0202  0.0029  0.0000  0.0003  0.0009
                                           -0.0005  0.0178 -0.0022 -0.0187  0.0022
   169. (0.12560) BD*( 1) O   1 - H   4  
                ( 19.94%)   0.4465* O   1 s( 28.37%)p 2.51( 71.14%)d 0.02(  0.48%)
                                                  f 0.00(  0.01%)
                                           -0.0003 -0.5326  0.0040  0.0083 -0.0027
                                           -0.8071  0.0079  0.0070  0.0043  0.0152
                                           -0.0148 -0.0013 -0.0026 -0.2436  0.0000
                                            0.0022  0.0025 -0.0257 -0.0048 -0.0010
                                           -0.0329 -0.0023  0.0011 -0.0084 -0.0015
                                           -0.0002 -0.0470 -0.0039 -0.0015  0.0268
                                            0.0009 -0.0028  0.0056 -0.0000  0.0064
                                           -0.0001  0.0000 -0.0004 -0.0035 -0.0011
                                           -0.0003  0.0006 -0.0004 -0.0028  0.0019
                                            0.0005
                ( 80.06%)  -0.8948* H   4 s( 99.80%)p 0.00(  0.20%)d 0.00(  0.00%)
                                           -0.9981 -0.0415 -0.0031  0.0019 -0.0123
                                            0.0334 -0.0096 -0.0136 -0.0020 -0.0046
                                           -0.0174  0.0104 -0.0003 -0.0014 -0.0019
                                            0.0010  0.0007 -0.0011 -0.0006 -0.0017
                                            0.0002  0.0012  0.0029


 NHO Directionality and "Bond Bending" (deviations from line of nuclear centers)

         [Thresholds for printing:  angular deviation  >  1.0 degree]
                                    hybrid p-character > 25.0%
                                    orbital occupancy  >  0.10e

                                Line of Centers        Hybrid 1              Hybrid 2
                                ---------------  -------------------   ------------------
                NBO               Theta   Phi    Theta   Phi    Dev    Theta   Phi    Dev
 ========================================================================================
     1. BD (   1) O   1 -Cl   3    90.0  103.5    88.3   99.9   4.0      --     --    --
     2. BD (   1) O   1 - H   4    75.0    0.0    73.1    0.3   1.9      --     --    --
    14. LP (   1) O   1             --     --    107.5  218.5   --       --     --    --
    15. LP (   2) O   1             --     --     17.9  196.1   --       --     --    --
    17. LP (   2)Cl   2             --     --    161.1  125.1   --       --     --    --
    18. LP (   3)Cl   2             --     --     74.9   87.0   --       --     --    --
    19. LP (   4)Cl   2             --     --     78.8  180.1   --       --     --    --
    21. LP (   2)Cl   3             --     --    167.1   13.9   --       --     --    --
    22. LP (   3)Cl   3             --     --    103.0  193.8   --       --     --    --
   169. BD*(   1) O   1 - H   4    75.0    0.0    73.1    0.3   1.9      --     --    --


 Natural Bond Orbitals (Summary):

           NBO                  Occupancy  
 -----------------------------------------------
 Molecular unit  1  (HOCl)
     1. BD (   1) O   1 -Cl   3          1.93958
     2. BD (   1) O   1 - H   4          1.96413
     3. CR (   1) O   1                  1.99969
     9. CR (   1)Cl   3                  2.00000
    10. CR (   2)Cl   3                  1.99979
    11. CR (   3)Cl   3                  2.00003
    12. CR (   4)Cl   3                  1.99996
    13. CR (   5)Cl   3                  2.00003
    14. LP (   1) O   1                  1.96656
    15. LP (   2) O   1                  1.95219
    20. LP (   1)Cl   3                  1.97405
    21. LP (   2)Cl   3                  1.95602
    22. LP (   3)Cl   3                  1.95484
    23. RY*(   1) O   1                  0.01979
    24. RY*(   2) O   1                  0.01612
    25. RY*(   3) O   1                  0.00802
    26. RY*(   4) O   1                  0.00704
    27. RY*(   5) O   1                  0.00638
    28. RY*(   6) O   1                  0.00617
    29. RY*(   7) O   1                  0.00573
    30. RY*(   8) O   1                  0.00346
    31. RY*(   9) O   1                  0.00245
    32. RY*(  10) O   1                  0.00077
    33. RY*(  11) O   1                  0.00065
    34. RY*(  12) O   1                  0.00060
    35. RY*(  13) O   1                  0.00060
    36. RY*(  14) O   1                  0.00051
    37. RY*(  15) O   1                  0.00050
    38. RY*(  16) O   1                  0.00047
    39. RY*(  17) O   1                  0.00048
    40. RY*(  18) O   1                  0.00048
    41. RY*(  19) O   1                  0.00045
    42. RY*(  20) O   1                  0.00045
    43. RY*(  21) O   1                  0.00045
    44. RY*(  22) O   1                  0.00042
    45. RY*(  23) O   1                  0.00036
    46. RY*(  24) O   1                  0.00031
    47. RY*(  25) O   1                  0.00025
    48. RY*(  26) O   1                  0.00018
    49. RY*(  27) O   1                  0.00013
    50. RY*(  28) O   1                  0.00013
    51. RY*(  29) O   1                  0.00013
    52. RY*(  30) O   1                  0.00008
    53. RY*(  31) O   1                  0.00008
    54. RY*(  32) O   1                  0.00008
    55. RY*(  33) O   1                  0.00008
    56. RY*(  34) O   1                  0.00008
    57. RY*(  35) O   1                  0.00008
    58. RY*(  36) O   1                  0.00006
    59. RY*(  37) O   1                  0.00005
    60. RY*(  38) O   1                  0.00005
    61. RY*(  39) O   1                  0.00004
    62. RY*(  40) O   1                  0.00002
    63. RY*(  41) O   1                  0.00000
   105. RY*(   1)Cl   3                  0.02299
   106. RY*(   2)Cl   3                  0.01774
   107. RY*(   3)Cl   3                  0.01681
   108. RY*(   4)Cl   3                  0.01666
   109. RY*(   5)Cl   3                  0.01168
   110. RY*(   6)Cl   3                  0.00934
   111. RY*(   7)Cl   3                  0.00911
   112. RY*(   8)Cl   3                  0.00636
   113. RY*(   9)Cl   3                  0.00169
   114. RY*(  10)Cl   3                  0.00127
   115. RY*(  11)Cl   3                  0.00127
   116. RY*(  12)Cl   3                  0.00120
   117. RY*(  13)Cl   3                  0.00120
   118. RY*(  14)Cl   3                  0.00117
   119. RY*(  15)Cl   3                  0.00111
   120. RY*(  16)Cl   3                  0.00095
   121. RY*(  17)Cl   3                  0.00076
   122. RY*(  18)Cl   3                  0.00076
   123. RY*(  19)Cl   3                  0.00065
   124. RY*(  20)Cl   3                  0.00056
   125. RY*(  21)Cl   3                  0.00043
   126. RY*(  22)Cl   3                  0.00037
   127. RY*(  23)Cl   3                  0.00034
   128. RY*(  24)Cl   3                  0.00031
   129. RY*(  25)Cl   3                  0.00018
   130. RY*(  26)Cl   3                  0.00016
   131. RY*(  27)Cl   3                  0.00014
   132. RY*(  28)Cl   3                  0.00013
   133. RY*(  29)Cl   3                  0.00012
   134. RY*(  30)Cl   3                  0.00012
   135. RY*(  31)Cl   3                  0.00012
   136. RY*(  32)Cl   3                  0.00011
   137. RY*(  33)Cl   3                  0.00009
   138. RY*(  34)Cl   3                  0.00010
   139. RY*(  35)Cl   3                  0.00010
   140. RY*(  36)Cl   3                  0.00008
   141. RY*(  37)Cl   3                  0.00007
   142. RY*(  38)Cl   3                  0.00004
   143. RY*(  39)Cl   3                  0.00003
   144. RY*(  40)Cl   3                  0.00003
   145. RY*(  41)Cl   3                  0.00000
   146. RY*(   1) H   4                  0.00992
   147. RY*(   2) H   4                  0.00536
   148. RY*(   3) H   4                  0.00470
   149. RY*(   4) H   4                  0.00349
   150. RY*(   5) H   4                  0.00069
   151. RY*(   6) H   4                  0.00049
   152. RY*(   7) H   4                  0.00045
   153. RY*(   8) H   4                  0.00033
   154. RY*(   9) H   4                  0.00029
   155. RY*(  10) H   4                  0.00024
   156. RY*(  11) H   4                  0.00024
   157. RY*(  12) H   4                  0.00021
   158. RY*(  13) H   4                  0.00015
   159. RY*(  14) H   4                  0.00013
   160. RY*(  15) H   4                  0.00011
   161. RY*(  16) H   4                  0.00009
   162. RY*(  17) H   4                  0.00005
   163. RY*(  18) H   4                  0.00005
   164. RY*(  19) H   4                  0.00005
   165. RY*(  20) H   4                  0.00006
   166. RY*(  21) H   4                  0.00004
   167. RY*(  22) H   4                  0.00005
   168. BD*(   1) O   1 -Cl   3          0.05766
   169. BD*(   1) O   1 - H   4          0.12560
       -------------------------------
              Total Lewis   25.70687  ( 98.3888%)
        Valence non-Lewis    0.18326  (  0.7014%)
        Rydberg non-Lewis    0.23772  (  0.9098%)
       -------------------------------
            Total unit  1   26.12785  (100.0000%)
           Charge unit  1   -0.12785

 Molecular unit  2  (Cl)
     4. CR (   1)Cl   2                  2.00000
     5. CR (   2)Cl   2                  1.99996
     6. CR (   3)Cl   2                  2.00002
     7. CR (   4)Cl   2                  2.00003
     8. CR (   5)Cl   2                  2.00003
    16. LP (   1)Cl   2                  1.97730
    17. LP (   2)Cl   2                  1.95240
    18. LP (   3)Cl   2                  1.95213
    19. LP (   4)Cl   2                  1.84577
    64. RY*(   1)Cl   2                  0.01840
    65. RY*(   2)Cl   2                  0.01836
    66. RY*(   3)Cl   2                  0.01826
    67. RY*(   4)Cl   2                  0.01825
    68. RY*(   5)Cl   2                  0.01774
    69. RY*(   6)Cl   2                  0.01260
    70. RY*(   7)Cl   2                  0.01253
    71. RY*(   8)Cl   2                  0.01002
    72. RY*(   9)Cl   2                  0.00192
    73. RY*(  10)Cl   2                  0.00130
    74. RY*(  11)Cl   2                  0.00130
    75. RY*(  12)Cl   2                  0.00129
    76. RY*(  13)Cl   2                  0.00129
    77. RY*(  14)Cl   2                  0.00127
    78. RY*(  15)Cl   2                  0.00127
    79. RY*(  16)Cl   2                  0.00124
    80. RY*(  17)Cl   2                  0.00097
    81. RY*(  18)Cl   2                  0.00097
    82. RY*(  19)Cl   2                  0.00071
    83. RY*(  20)Cl   2                  0.00069
    84. RY*(  21)Cl   2                  0.00065
    85. RY*(  22)Cl   2                  0.00053
    86. RY*(  23)Cl   2                  0.00052
    87. RY*(  24)Cl   2                  0.00050
    88. RY*(  25)Cl   2                  0.00021
    89. RY*(  26)Cl   2                  0.00017
    90. RY*(  27)Cl   2                  0.00018
    91. RY*(  28)Cl   2                  0.00015
    92. RY*(  29)Cl   2                  0.00015
    93. RY*(  30)Cl   2                  0.00014
    94. RY*(  31)Cl   2                  0.00014
    95. RY*(  32)Cl   2                  0.00014
    96. RY*(  33)Cl   2                  0.00012
    97. RY*(  34)Cl   2                  0.00010
    98. RY*(  35)Cl   2                  0.00010
    99. RY*(  36)Cl   2                  0.00009
   100. RY*(  37)Cl   2                  0.00008
   101. RY*(  38)Cl   2                  0.00007
   102. RY*(  39)Cl   2                  0.00005
   103. RY*(  40)Cl   2                  0.00003
   104. RY*(  41)Cl   2                  0.00002
       -------------------------------
              Total Lewis   17.72764  ( 99.1914%)
        Valence non-Lewis    0.00000  (  0.0000%)
        Rydberg non-Lewis    0.14451  (  0.8086%)
       -------------------------------
            Total unit  2   17.87215  (100.0000%)
           Charge unit  2   -0.87215
 Leave Link  607 at Wed Sep 22 16:31:38 2021, MaxMem= 16106127360 cpu:              79.4 elap:               2.9
 (Enter /sw/contrib/gaussian/g16/B01/g16/l9999.exe)
 1\1\GINC-N2096\SP\RMP2-FC\Aug-CC-pVTZ\Cl2H1O1(1-)\CGAVINH\22-Sep-2021\
 0\\#p pop=NBO SP NoSymm mp2/aug-cc-pvtz density=current\\title\\-1,1\O
 ,0,0.,0.,0.\Cl,0,2.904676,0.,0.\Cl,0,-0.3936866,1.6360486,0.\H,0,0.983
 399424,0.,0.263501082\\Version=ES64L-G16RevB.01\HF=-994.521455\MP2=-99
 5.1888689\RMSD=3.974e-09\Dipole=-1.9406705,0.9304164,0.0908169\Quadrup
 ole=-16.0137529,7.8306495,8.1831035,0.3558126,0.1029944,-0.0623252\PG=
 C01 [X(Cl2H1O1)]\\@


 STEINBACH'S GUIDELINES FOR SYSTEMS PROGRAMMING:
 NEVER TEST FOR AN ERROR CONDITION YOU DON'T KNOW HOW
 TO HANDLE.
 Job cpu time:       0 days  0 hours  4 minutes 42.3 seconds.
 Elapsed time:       0 days  0 hours  0 minutes 15.4 seconds.
 File lengths (MBytes):  RWF=     14 Int=      0 D2E=      0 Chk=      8 Scr=      1
 Normal termination of Gaussian 16 at Wed Sep 22 16:31:39 2021.
