 Entering Gaussian System, Link 0=g16
 Input=clhocl_oop_s.gjf
 Output=clhocl_oop_s.log
 Initial command:
 /sw/contrib/gaussian/g16/B01/g16/l1.exe "/scr/Gau-25111.inp" -scrdir="/scr/"
 Entering Link 1 = /sw/contrib/gaussian/g16/B01/g16/l1.exe PID=     25146.
  
 Copyright (c) 1988-2017, Gaussian, Inc.  All Rights Reserved.
  
 This is part of the Gaussian(R) 16 program.  It is based on
 the Gaussian(R) 09 system (copyright 2009, Gaussian, Inc.),
 the Gaussian(R) 03 system (copyright 2003, Gaussian, Inc.),
 the Gaussian(R) 98 system (copyright 1998, Gaussian, Inc.),
 the Gaussian(R) 94 system (copyright 1995, Gaussian, Inc.),
 the Gaussian 92(TM) system (copyright 1992, Gaussian, Inc.),
 the Gaussian 90(TM) system (copyright 1990, Gaussian, Inc.),
 the Gaussian 88(TM) system (copyright 1988, Gaussian, Inc.),
 the Gaussian 86(TM) system (copyright 1986, Carnegie Mellon
 University), and the Gaussian 82(TM) system (copyright 1983,
 Carnegie Mellon University). Gaussian is a federally registered
 trademark of Gaussian, Inc.
  
 This software contains proprietary and confidential information,
 including trade secrets, belonging to Gaussian, Inc.
  
 This software is provided under written license and may be
 used, copied, transmitted, or stored only in accord with that
 written license.
  
 The following legend is applicable only to US Government
 contracts under FAR:
  
                    RESTRICTED RIGHTS LEGEND
  
 Use, reproduction and disclosure by the US Government is
 subject to restrictions as set forth in subparagraphs (a)
 and (c) of the Commercial Computer Software - Restricted
 Rights clause in FAR 52.227-19.
  
 Gaussian, Inc.
 340 Quinnipiac St., Bldg. 40, Wallingford CT 06492
  
  
 ---------------------------------------------------------------
 Warning -- This program may not be used in any manner that
 competes with the business of Gaussian, Inc. or will provide
 assistance to any competitor of Gaussian, Inc.  The licensee
 of this program is prohibited from giving any competitor of
 Gaussian, Inc. access to this program.  By using this program,
 the user acknowledges that Gaussian, Inc. is engaged in the
 business of creating and licensing software in the field of
 computational chemistry and represents and warrants to the
 licensee that it is not a competitor of Gaussian, Inc. and that
 it will not use this program in any manner prohibited above.
 ---------------------------------------------------------------
  

 Cite this work as:
 Gaussian 16, Revision B.01,
 M. J. Frisch, G. W. Trucks, H. B. Schlegel, G. E. Scuseria, 
 M. A. Robb, J. R. Cheeseman, G. Scalmani, V. Barone, 
 G. A. Petersson, H. Nakatsuji, X. Li, M. Caricato, A. V. Marenich, 
 J. Bloino, B. G. Janesko, R. Gomperts, B. Mennucci, H. P. Hratchian, 
 J. V. Ortiz, A. F. Izmaylov, J. L. Sonnenberg, D. Williams-Young, 
 F. Ding, F. Lipparini, F. Egidi, J. Goings, B. Peng, A. Petrone, 
 T. Henderson, D. Ranasinghe, V. G. Zakrzewski, J. Gao, N. Rega, 
 G. Zheng, W. Liang, M. Hada, M. Ehara, K. Toyota, R. Fukuda, 
 J. Hasegawa, M. Ishida, T. Nakajima, Y. Honda, O. Kitao, H. Nakai, 
 T. Vreven, K. Throssell, J. A. Montgomery, Jr., J. E. Peralta, 
 F. Ogliaro, M. J. Bearpark, J. J. Heyd, E. N. Brothers, K. N. Kudin, 
 V. N. Staroverov, T. A. Keith, R. Kobayashi, J. Normand, 
 K. Raghavachari, A. P. Rendell, J. C. Burant, S. S. Iyengar, 
 J. Tomasi, M. Cossi, J. M. Millam, M. Klene, C. Adamo, R. Cammi, 
 J. W. Ochterski, R. L. Martin, K. Morokuma, O. Farkas, 
 J. B. Foresman, and D. J. Fox, Gaussian, Inc., Wallingford CT, 2016.
 
 ******************************************
 Gaussian 16:  ES64L-G16RevB.01 20-Dec-2017
                21-Oct-2021 
 ******************************************
 %nproc=28
 Will use up to   28 processors via shared memory.
 %mem=120GB
 %chk=/gscratch/ilahie/mccoygrp/coire_hocl/oop_s_rOH_opt/clhocl/clhocl_oop_s.chk
 -------------------------------------------------
 #p opt=(z-matrix) mp2/aug-cc-pvtz density=current
 -------------------------------------------------
 1/10=7,18=40,38=1/1,3;
 2/12=2,17=6,18=5,29=3,40=1/2;
 3/5=16,6=1,7=10,11=9,25=1,30=1,71=1/1,2,3;
 4//1;
 5/5=2,38=5/2;
 8/6=4,10=1/1;
 9/15=2,16=-3/6;
 10/5=1/2;
 6/7=2,8=2,9=2,10=2,22=-1/1;
 7/12=2,29=1/1,2,3,16;
 1/10=7,18=40/3(2);
 2/29=3/2;
 99//99;
 2/29=3/2;
 3/5=16,6=1,7=10,11=9,25=1,30=1,71=1/1,2,3;
 4/5=5,16=3,69=1/1;
 5/5=2,38=5/2;
 8/6=4,10=1/1;
 9/15=2,16=-3/6;
 10/5=1/2;
 7/12=2/1,2,3,16;
 1/18=40/3(-8);
 2/29=3/2;
 6/7=2,8=2,9=2,10=2,22=-1/1;
 99/9=10/99;
 Leave Link    1 at Thu Oct 21 23:17:42 2021, MaxMem= 16106127360 cpu:               4.7 elap:               0.2
 (Enter /sw/contrib/gaussian/g16/B01/g16/l101.exe)
 -----
 title
 -----
 Symbolic Z-matrix:
 Charge = -1 Multiplicity = 1
 O
 X                    1     10. 
 Cl                   1    r1       2     90. 
 Cl                   1    r2       2     90.      3    a1       0
 H                    1    r3       2    oop      3    a1       0
       Variables:
  r1                    1.68275 -1        0.     
  r2                    2.90468 -1        0.     
  r3                    1.01773                  
  a1                  103.53016 -1        0.     
  OOP                  90.     Scan 50   -1.     
 
 ITRead=  0  0  0  0
 MicOpt= -1 -1 -1 -1
 NAtoms=      4 NQM=        4 NQMF=       0 NMMI=      0 NMMIF=      0
                NMic=       0 NMicF=      0.
                    Isotopes and Nuclear Properties:
 (Nuclear quadrupole moments (NQMom) in fm**2, nuclear magnetic moments (NMagM)
  in nuclear magnetons)

  Atom         1           2           3           4
 IAtWgt=          16          35          35           1
 AtmWgt=  15.9949146  34.9688527  34.9688527   1.0078250
 NucSpn=           0           3           3           1
 AtZEff=  -0.0000000  -0.0000000  -0.0000000  -0.0000000
 NQMom=    0.0000000  -8.1650000  -8.1650000   0.0000000
 NMagM=    0.0000000   0.8218740   0.8218740   2.7928460
 AtZNuc=   8.0000000  17.0000000  17.0000000   1.0000000
 Leave Link  101 at Thu Oct 21 23:17:43 2021, MaxMem= 16106127360 cpu:               3.6 elap:               0.2
 (Enter /sw/contrib/gaussian/g16/B01/g16/l103.exe)

 GradGradGradGradGradGradGradGradGradGradGradGradGradGradGradGradGradGrad
 Berny optimization.
 Initialization pass.
                       ----------------------------
                       !    Initial Parameters    !
                       ! (Angstroms and Degrees)  !
 ----------------------                            ----------------------
 !      Name          Value   Derivative information (Atomic Units)     !
 ------------------------------------------------------------------------
 !       r1          1.6827   Frozen                                    !
 !       r2          2.9047   Frozen                                    !
 !       r3          1.0177   estimate D2E/DX2                          !
 !       a1        103.5302   Frozen                                    !
 !       OOP        90.0      Scan                                      !
 ------------------------------------------------------------------------
 Trust Radius=3.00D-01 FncErr=1.00D-07 GrdErr=1.00D-07 EigMax=2.50D+02 EigMin=1.00D-04
 Number of optimizations in scan=  51
 Number of steps in this run=     20 maximum allowed number of steps=    100.
 GradGradGradGradGradGradGradGradGradGradGradGradGradGradGradGradGradGrad

 Leave Link  103 at Thu Oct 21 23:17:43 2021, MaxMem= 16106127360 cpu:               2.0 elap:               0.1
 (Enter /sw/contrib/gaussian/g16/B01/g16/l202.exe)
 ---------------------------------------------------------------------------------------------------
                            Z-MATRIX (ANGSTROMS AND DEGREES)
   CD    Cent   Atom    N1       Length/X        N2       Alpha/Y        N3        Beta/Z          J
 ---------------------------------------------------------------------------------------------------
      1      1  O 
      2         X        1  10.000000(     1)
      3      2  Cl       1   1.682749(     2)      2   90.000(     5)
      4      3  Cl       1   2.904676(     3)      2   90.000(     6)      3  103.530(     8)      0
      5      4  H        1   1.017728(     4)      2   90.000(     7)      3  103.530(     9)      0
 ---------------------------------------------------------------------------------------------------
                         Z-Matrix orientation:                         
 ---------------------------------------------------------------------
 Center     Atomic      Atomic             Coordinates (Angstroms)
 Number     Number       Type             X           Y           Z
 ---------------------------------------------------------------------
      1          8           0        0.000000    0.000000    0.000000
      2         -1           0        0.000000    0.000000   10.000000
      3         17           0        1.682749    0.000000    0.000000
      4         17           0       -0.679570   -2.824062    0.000000
      5          1           0       -0.238105   -0.989482    0.000000
 ---------------------------------------------------------------------
                    Distance matrix (angstroms):
                    1          2          3          4          5
     1  O    0.000000
     2  X   10.000000   0.000000
     3  Cl   1.682749  10.140594   0.000000
     4  Cl   2.904676  10.413316   3.681831   0.000000
     5  H    1.017728  10.051655   2.160730   1.886949   0.000000
 Stoichiometry    Cl2HO(1-)
 Framework group  CS[SG(Cl2HO)]
 Deg. of freedom     5
 Full point group                 CS      NOp   2
 Largest Abelian subgroup         CS      NOp   2
 Largest concise Abelian subgroup C1      NOp   1
                         Standard orientation:                         
 ---------------------------------------------------------------------
 Center     Atomic      Atomic             Coordinates (Angstroms)
 Number     Number       Type             X           Y           Z
 ---------------------------------------------------------------------
      1          8           0       -1.017725    0.644696    0.000000
      2         17           0       -1.408015   -0.992167    0.000000
      3         17           0        1.886945    0.650733   -0.000000
      4          1           0        0.000000    0.646811   -0.000000
 ---------------------------------------------------------------------
 Rotational constants (GHZ):          23.6927726           2.0597605           1.8950150
 Leave Link  202 at Thu Oct 21 23:17:44 2021, MaxMem= 16106127360 cpu:               1.5 elap:               0.1
 (Enter /sw/contrib/gaussian/g16/B01/g16/l301.exe)
 Standard basis: Aug-CC-pVTZ (5D, 7F)
 Ernie: Thresh=  0.10000D-02 Tol=  0.10000D-05 Strict=F.
 Ernie:  29 primitive shells out of 169 were deleted.
 There are   135 symmetry adapted cartesian basis functions of A'  symmetry.
 There are    63 symmetry adapted cartesian basis functions of A"  symmetry.
 There are   112 symmetry adapted basis functions of A'  symmetry.
 There are    57 symmetry adapted basis functions of A"  symmetry.
   169 basis functions,   327 primitive gaussians,   198 cartesian basis functions
    22 alpha electrons       22 beta electrons
       nuclear repulsion energy       122.1723794238 Hartrees.
 IExCor=    0 DFT=F Ex=HF Corr=None ExCW=0 ScaHFX=  1.000000
 ScaDFX=  1.000000  1.000000  1.000000  1.000000 ScalE2=  1.000000  1.000000
 IRadAn=      5 IRanWt=     -1 IRanGd=            0 ICorTp=0 IEmpDi=  4
 NAtoms=    4 NActive=    4 NUniq=    4 SFac= 1.00D+00 NAtFMM=   60 NAOKFM=F Big=F
 Integral buffers will be    131072 words long.
 Raffenetti 1 integral format.
 Two-electron integral symmetry is turned on.
 Leave Link  301 at Thu Oct 21 23:17:44 2021, MaxMem= 16106127360 cpu:               4.6 elap:               0.3
 (Enter /sw/contrib/gaussian/g16/B01/g16/l302.exe)
 NPDir=0 NMtPBC=     1 NCelOv=     1 NCel=       1 NClECP=     1 NCelD=      1
         NCelK=      1 NCelE2=     1 NClLst=     1 CellRange=     0.0.
 One-electron integrals computed using PRISM.
 One-electron integral symmetry used in STVInt
 NBasis=   169 RedAO= T EigKep=  2.35D-04  NBF=   112    57
 NBsUse=   169 1.00D-06 EigRej= -1.00D+00 NBFU=   112    57
 Leave Link  302 at Thu Oct 21 23:17:45 2021, MaxMem= 16106127360 cpu:               7.4 elap:               0.4
 (Enter /sw/contrib/gaussian/g16/B01/g16/l303.exe)
 DipDrv:  MaxL=1.
 Leave Link  303 at Thu Oct 21 23:17:45 2021, MaxMem= 16106127360 cpu:               4.6 elap:               0.2
 (Enter /sw/contrib/gaussian/g16/B01/g16/l401.exe)
 ExpMin= 2.53D-02 ExpMax= 4.56D+05 ExpMxC= 1.44D+03 IAcc=3 IRadAn=         5 AccDes= 0.00D+00
 Harris functional with IExCor=  205 and IRadAn=       5 diagonalized for initial guess.
 HarFok:  IExCor=  205 AccDes= 0.00D+00 IRadAn=         5 IDoV= 1 UseB2=F ITyADJ=14
 ICtDFT=  3500011 ScaDFX=  1.000000  1.000000  1.000000  1.000000
 FoFCou: FMM=F IPFlag=           0 FMFlag=      100000 FMFlg1=           0
         NFxFlg=           0 DoJE=T BraDBF=F KetDBF=T FulRan=T
         wScrn=  0.000000 ICntrl=       500 IOpCl=  0 I1Cent=   200000004 NGrid=           0
         NMat0=    1 NMatS0=      1 NMatT0=    0 NMatD0=    1 NMtDS0=    0 NMtDT0=    0
 Petite list used in FoFCou.
 Harris En= -993.822628531398    
 JPrj=0 DoOrth=F DoCkMO=F.
 Initial guess orbital symmetries:
       Occupied  (A') (A') (A') (A') (A') (A') (A') (A") (A') (A')
                 (A") (A') (A') (A') (A') (A') (A") (A') (A') (A")
                 (A') (A")
       Virtual   (A') (A') (A') (A') (A") (A') (A') (A") (A') (A')
                 (A") (A') (A') (A") (A') (A') (A') (A") (A') (A")
                 (A') (A") (A') (A') (A') (A") (A') (A') (A') (A")
                 (A') (A") (A') (A") (A') (A') (A") (A') (A") (A')
                 (A") (A') (A') (A') (A") (A') (A') (A") (A') (A')
                 (A") (A') (A') (A") (A") (A') (A") (A') (A') (A")
                 (A') (A") (A') (A') (A') (A') (A') (A") (A") (A")
                 (A') (A') (A') (A") (A') (A') (A') (A") (A') (A')
                 (A") (A') (A") (A') (A") (A') (A') (A") (A') (A')
                 (A") (A") (A') (A") (A') (A') (A') (A') (A") (A")
                 (A') (A") (A') (A') (A") (A') (A") (A") (A') (A')
                 (A') (A') (A") (A") (A') (A') (A") (A') (A') (A')
                 (A') (A") (A") (A') (A") (A') (A') (A') (A') (A")
                 (A') (A') (A') (A') (A") (A') (A") (A') (A") (A")
                 (A') (A') (A") (A') (A') (A') (A')
 The electronic state of the initial guess is 1-A'.
 Leave Link  401 at Thu Oct 21 23:17:46 2021, MaxMem= 16106127360 cpu:              14.3 elap:               0.7
 (Enter /sw/contrib/gaussian/g16/B01/g16/l502.exe)
 Keep R1 ints in memory in symmetry-blocked form, NReq=155449223.
 FoFCou: FMM=F IPFlag=           0 FMFlag=           0 FMFlg1=           0
         NFxFlg=           0 DoJE=F BraDBF=F KetDBF=F FulRan=T
         wScrn=  0.000000 ICntrl=       600 IOpCl=  0 I1Cent=           0 NGrid=           0
         NMat0=    1 NMatS0=  14365 NMatT0=    0 NMatD0=    1 NMtDS0=    0 NMtDT0=    0
 Petite list used in FoFCou.
 Closed shell SCF:
 Using DIIS extrapolation, IDIIS=  1040.
 NGot= 16106127360 LenX= 16053777278 LenY= 16053737633
 Requested convergence on RMS density matrix=1.00D-08 within 128 cycles.
 Requested convergence on MAX density matrix=1.00D-06.
 Requested convergence on             energy=1.00D-06.
 No special actions if energy rises.

 Cycle   1  Pass 1  IDiag  1:
 E= -994.396467552223    
 DIIS: error= 3.27D-02 at cycle   1 NSaved=   1.
 NSaved= 1 IEnMin= 1 EnMin= -994.396467552223     IErMin= 1 ErrMin= 3.27D-02
 ErrMax= 3.27D-02  0.00D+00 EMaxC= 1.00D-01 BMatC= 4.25D-01 BMatP= 4.25D-01
 IDIUse=3 WtCom= 6.73D-01 WtEn= 3.27D-01
 Coeff-Com:  0.100D+01
 Coeff-En:   0.100D+01
 Coeff:      0.100D+01
 Gap=     0.544 Goal=   None    Shift=    0.000
 GapD=    0.544 DampG=2.000 DampE=0.500 DampFc=1.0000 IDamp=-1.
 RMSDP=2.17D-03 MaxDP=7.09D-02              OVMax= 1.23D-01

 Cycle   2  Pass 1  IDiag  1:
 E= -994.488990128202     Delta-E=       -0.092522575979 Rises=F Damp=F
 DIIS: error= 2.01D-02 at cycle   2 NSaved=   2.
 NSaved= 2 IEnMin= 2 EnMin= -994.488990128202     IErMin= 2 ErrMin= 2.01D-02
 ErrMax= 2.01D-02  0.00D+00 EMaxC= 1.00D-01 BMatC= 5.06D-02 BMatP= 4.25D-01
 IDIUse=3 WtCom= 7.99D-01 WtEn= 2.01D-01
 Coeff-Com:  0.170D+00 0.830D+00
 Coeff-En:   0.000D+00 0.100D+01
 Coeff:      0.136D+00 0.864D+00
 Gap=     0.371 Goal=   None    Shift=    0.000
 RMSDP=9.88D-04 MaxDP=3.94D-02 DE=-9.25D-02 OVMax= 8.09D-02

 Cycle   3  Pass 1  IDiag  1:
 E= -994.513907764165     Delta-E=       -0.024917635963 Rises=F Damp=F
 DIIS: error= 9.31D-03 at cycle   3 NSaved=   3.
 NSaved= 3 IEnMin= 3 EnMin= -994.513907764165     IErMin= 3 ErrMin= 9.31D-03
 ErrMax= 9.31D-03  0.00D+00 EMaxC= 1.00D-01 BMatC= 1.51D-02 BMatP= 5.06D-02
 IDIUse=3 WtCom= 9.07D-01 WtEn= 9.31D-02
 Coeff-Com: -0.157D-01 0.343D+00 0.672D+00
 Coeff-En:   0.000D+00 0.139D+00 0.861D+00
 Coeff:     -0.143D-01 0.324D+00 0.690D+00
 Gap=     0.363 Goal=   None    Shift=    0.000
 RMSDP=3.74D-04 MaxDP=1.43D-02 DE=-2.49D-02 OVMax= 3.69D-02

 Cycle   4  Pass 1  IDiag  1:
 E= -994.524185682288     Delta-E=       -0.010277918123 Rises=F Damp=F
 DIIS: error= 1.30D-03 at cycle   4 NSaved=   4.
 NSaved= 4 IEnMin= 4 EnMin= -994.524185682288     IErMin= 4 ErrMin= 1.30D-03
 ErrMax= 1.30D-03  0.00D+00 EMaxC= 1.00D-01 BMatC= 1.76D-04 BMatP= 1.51D-02
 IDIUse=3 WtCom= 9.87D-01 WtEn= 1.30D-02
 Coeff-Com: -0.392D-02 0.164D-01 0.999D-01 0.888D+00
 Coeff-En:   0.000D+00 0.000D+00 0.000D+00 0.100D+01
 Coeff:     -0.387D-02 0.162D-01 0.986D-01 0.889D+00
 Gap=     0.356 Goal=   None    Shift=    0.000
 RMSDP=5.64D-05 MaxDP=1.49D-03 DE=-1.03D-02 OVMax= 3.07D-03

 Cycle   5  Pass 1  IDiag  1:
 E= -994.524373472292     Delta-E=       -0.000187790004 Rises=F Damp=F
 DIIS: error= 2.68D-04 at cycle   5 NSaved=   5.
 NSaved= 5 IEnMin= 5 EnMin= -994.524373472292     IErMin= 5 ErrMin= 2.68D-04
 ErrMax= 2.68D-04  0.00D+00 EMaxC= 1.00D-01 BMatC= 1.61D-05 BMatP= 1.76D-04
 IDIUse=3 WtCom= 9.97D-01 WtEn= 2.68D-03
 Coeff-Com:  0.105D-02-0.397D-01-0.692D-01 0.234D-01 0.108D+01
 Coeff-En:   0.000D+00 0.000D+00 0.000D+00 0.000D+00 0.100D+01
 Coeff:      0.105D-02-0.396D-01-0.690D-01 0.234D-01 0.108D+01
 Gap=     0.358 Goal=   None    Shift=    0.000
 RMSDP=3.21D-05 MaxDP=1.17D-03 DE=-1.88D-04 OVMax= 3.09D-03

 Cycle   6  Pass 1  IDiag  1:
 E= -994.524413698642     Delta-E=       -0.000040226350 Rises=F Damp=F
 DIIS: error= 1.31D-04 at cycle   6 NSaved=   6.
 NSaved= 6 IEnMin= 6 EnMin= -994.524413698642     IErMin= 6 ErrMin= 1.31D-04
 ErrMax= 1.31D-04  0.00D+00 EMaxC= 1.00D-01 BMatC= 2.11D-06 BMatP= 1.61D-05
 IDIUse=3 WtCom= 9.99D-01 WtEn= 1.31D-03
 Coeff-Com:  0.212D-03 0.926D-02 0.164D-01-0.813D-01-0.417D+00 0.147D+01
 Coeff-En:   0.000D+00 0.000D+00 0.000D+00 0.000D+00 0.000D+00 0.100D+01
 Coeff:      0.212D-03 0.925D-02 0.164D-01-0.812D-01-0.417D+00 0.147D+01
 Gap=     0.358 Goal=   None    Shift=    0.000
 RMSDP=1.69D-05 MaxDP=6.25D-04 DE=-4.02D-05 OVMax= 1.67D-03

 Cycle   7  Pass 1  IDiag  1:
 E= -994.524421349256     Delta-E=       -0.000007650614 Rises=F Damp=F
 DIIS: error= 4.32D-05 at cycle   7 NSaved=   7.
 NSaved= 7 IEnMin= 7 EnMin= -994.524421349256     IErMin= 7 ErrMin= 4.32D-05
 ErrMax= 4.32D-05  0.00D+00 EMaxC= 1.00D-01 BMatC= 1.32D-07 BMatP= 2.11D-06
 IDIUse=1 WtCom= 1.00D+00 WtEn= 0.00D+00
 Coeff-Com: -0.152D-03-0.121D-02-0.148D-02 0.312D-01 0.949D-01-0.624D+00
 Coeff-Com:  0.150D+01
 Coeff:     -0.152D-03-0.121D-02-0.148D-02 0.312D-01 0.949D-01-0.624D+00
 Coeff:      0.150D+01
 Gap=     0.358 Goal=   None    Shift=    0.000
 RMSDP=5.28D-06 MaxDP=1.89D-04 DE=-7.65D-06 OVMax= 5.12D-04

 Cycle   8  Pass 1  IDiag  1:
 E= -994.524421959611     Delta-E=       -0.000000610355 Rises=F Damp=F
 DIIS: error= 7.93D-06 at cycle   8 NSaved=   8.
 NSaved= 8 IEnMin= 8 EnMin= -994.524421959611     IErMin= 8 ErrMin= 7.93D-06
 ErrMax= 7.93D-06  0.00D+00 EMaxC= 1.00D-01 BMatC= 9.08D-09 BMatP= 1.32D-07
 IDIUse=1 WtCom= 1.00D+00 WtEn= 0.00D+00
 Coeff-Com:  0.105D-04-0.445D-03-0.596D-03-0.607D-03 0.695D-02 0.252D-01
 Coeff-Com: -0.280D+00 0.125D+01
 Coeff:      0.105D-04-0.445D-03-0.596D-03-0.607D-03 0.695D-02 0.252D-01
 Coeff:     -0.280D+00 0.125D+01
 Gap=     0.358 Goal=   None    Shift=    0.000
 RMSDP=1.23D-06 MaxDP=2.55D-05 DE=-6.10D-07 OVMax= 1.38D-04

 Cycle   9  Pass 1  IDiag  1:
 E= -994.524421996032     Delta-E=       -0.000000036421 Rises=F Damp=F
 DIIS: error= 3.85D-06 at cycle   9 NSaved=   9.
 NSaved= 9 IEnMin= 9 EnMin= -994.524421996032     IErMin= 9 ErrMin= 3.85D-06
 ErrMax= 3.85D-06  0.00D+00 EMaxC= 1.00D-01 BMatC= 1.25D-09 BMatP= 9.08D-09
 IDIUse=1 WtCom= 1.00D+00 WtEn= 0.00D+00
 Coeff-Com:  0.181D-04 0.211D-03 0.252D-03-0.343D-02-0.120D-01 0.651D-01
 Coeff-Com: -0.949D-01-0.373D+00 0.142D+01
 Coeff:      0.181D-04 0.211D-03 0.252D-03-0.343D-02-0.120D-01 0.651D-01
 Coeff:     -0.949D-01-0.373D+00 0.142D+01
 Gap=     0.358 Goal=   None    Shift=    0.000
 RMSDP=6.04D-07 MaxDP=1.37D-05 DE=-3.64D-08 OVMax= 6.94D-05

 Cycle  10  Pass 1  IDiag  1:
 E= -994.524422002761     Delta-E=       -0.000000006729 Rises=F Damp=F
 DIIS: error= 1.63D-06 at cycle  10 NSaved=  10.
 NSaved=10 IEnMin=10 EnMin= -994.524422002761     IErMin=10 ErrMin= 1.63D-06
 ErrMax= 1.63D-06  0.00D+00 EMaxC= 1.00D-01 BMatC= 1.83D-10 BMatP= 1.25D-09
 IDIUse=1 WtCom= 1.00D+00 WtEn= 0.00D+00
 Coeff-Com: -0.547D-05 0.274D-04 0.116D-04 0.935D-03 0.175D-02-0.188D-01
 Coeff-Com:  0.665D-01-0.138D+00-0.216D+00 0.130D+01
 Coeff:     -0.547D-05 0.274D-04 0.116D-04 0.935D-03 0.175D-02-0.188D-01
 Coeff:      0.665D-01-0.138D+00-0.216D+00 0.130D+01
 Gap=     0.358 Goal=   None    Shift=    0.000
 RMSDP=2.30D-07 MaxDP=5.67D-06 DE=-6.73D-09 OVMax= 2.53D-05

 Cycle  11  Pass 1  IDiag  1:
 E= -994.524422003618     Delta-E=       -0.000000000857 Rises=F Damp=F
 DIIS: error= 4.97D-07 at cycle  11 NSaved=  11.
 NSaved=11 IEnMin=11 EnMin= -994.524422003618     IErMin=11 ErrMin= 4.97D-07
 ErrMax= 4.97D-07  0.00D+00 EMaxC= 1.00D-01 BMatC= 1.25D-11 BMatP= 1.83D-10
 IDIUse=1 WtCom= 1.00D+00 WtEn= 0.00D+00
 Coeff-Com: -0.217D-05-0.255D-04-0.279D-04 0.402D-03 0.133D-02-0.703D-02
 Coeff-Com:  0.849D-02 0.483D-01-0.139D+00-0.133D+00 0.122D+01
 Coeff:     -0.217D-05-0.255D-04-0.279D-04 0.402D-03 0.133D-02-0.703D-02
 Coeff:      0.849D-02 0.483D-01-0.139D+00-0.133D+00 0.122D+01
 Gap=     0.358 Goal=   None    Shift=    0.000
 RMSDP=6.45D-08 MaxDP=1.66D-06 DE=-8.57D-10 OVMax= 6.80D-06

 Cycle  12  Pass 1  IDiag  1:
 E= -994.524422003681     Delta-E=       -0.000000000063 Rises=F Damp=F
 DIIS: error= 9.78D-08 at cycle  12 NSaved=  12.
 NSaved=12 IEnMin=12 EnMin= -994.524422003681     IErMin=12 ErrMin= 9.78D-08
 ErrMax= 9.78D-08  0.00D+00 EMaxC= 1.00D-01 BMatC= 7.18D-13 BMatP= 1.25D-11
 IDIUse=1 WtCom= 1.00D+00 WtEn= 0.00D+00
 Coeff-Com:  0.620D-06 0.232D-05 0.364D-05-0.113D-03-0.318D-03 0.206D-02
 Coeff-Com: -0.451D-02-0.134D-02 0.360D-01-0.614D-01-0.162D+00 0.119D+01
 Coeff:      0.620D-06 0.232D-05 0.364D-05-0.113D-03-0.318D-03 0.206D-02
 Coeff:     -0.451D-02-0.134D-02 0.360D-01-0.614D-01-0.162D+00 0.119D+01
 Gap=     0.358 Goal=   None    Shift=    0.000
 RMSDP=1.30D-08 MaxDP=3.20D-07 DE=-6.32D-11 OVMax= 1.08D-06

 Cycle  13  Pass 1  IDiag  1:
 E= -994.524422003687     Delta-E=       -0.000000000005 Rises=F Damp=F
 DIIS: error= 2.39D-08 at cycle  13 NSaved=  13.
 NSaved=13 IEnMin=13 EnMin= -994.524422003687     IErMin=13 ErrMin= 2.39D-08
 ErrMax= 2.39D-08  0.00D+00 EMaxC= 1.00D-01 BMatC= 7.10D-14 BMatP= 7.18D-13
 IDIUse=1 WtCom= 1.00D+00 WtEn= 0.00D+00
 Coeff-Com:  0.190D-06 0.148D-05 0.748D-06-0.271D-04-0.806D-04 0.491D-03
 Coeff-Com: -0.643D-03-0.404D-02 0.122D-01 0.931D-02-0.100D+00-0.341D-01
 Coeff-Com:  0.112D+01
 Coeff:      0.190D-06 0.148D-05 0.748D-06-0.271D-04-0.806D-04 0.491D-03
 Coeff:     -0.643D-03-0.404D-02 0.122D-01 0.931D-02-0.100D+00-0.341D-01
 Coeff:      0.112D+01
 Gap=     0.358 Goal=   None    Shift=    0.000
 RMSDP=3.61D-09 MaxDP=8.81D-08 DE=-5.46D-12 OVMax= 3.26D-07

 SCF Done:  E(RHF) =  -994.524422004     A.U. after   13 cycles
            NFock= 13  Conv=0.36D-08     -V/T= 2.0001
 KE= 9.943774640002D+02 PE=-2.622106108301D+03 EE= 5.110318428729D+02
 Leave Link  502 at Thu Oct 21 23:17:49 2021, MaxMem= 16106127360 cpu:              35.7 elap:               2.1
 (Enter /sw/contrib/gaussian/g16/B01/g16/l801.exe)
 ExpMin= 2.53D-02 ExpMax= 4.56D+05 ExpMxC= 1.44D+03 IAcc=3 IRadAn=         5 AccDes= 0.00D+00
 HarFok:  IExCor=  205 AccDes= 0.00D+00 IRadAn=         5 IDoV=-2 UseB2=F ITyADJ=14
 ICtDFT= 12500011 ScaDFX=  1.000000  1.000000  1.000000  1.000000
 Largest valence mixing into a core orbital is  4.47D-04
 Largest core mixing into a valence orbital is  1.72D-04
 Range of M.O.s used for correlation:    12   169
 NBasis=   169 NAE=    22 NBE=    22 NFC=    11 NFV=     0
 NROrb=    158 NOA=    11 NOB=    11 NVA=   147 NVB=   147

 **** Warning!!: The largest alpha MO coefficient is  0.20811556D+02

 Leave Link  801 at Thu Oct 21 23:17:49 2021, MaxMem= 16106127360 cpu:               5.9 elap:               0.3
 (Enter /sw/contrib/gaussian/g16/B01/g16/l906.exe)
 Frozen-core derivative calculation, NFC=  11 NFV=   0.
 FulOut=F Deriv=T AODrv=T NAtomX=     4
   MMem=         143  MDisk=          11 MDiskD=          11
  W3Min=      736164 MinDsk=     1250177 NBas6D=         198
 NBas2D=       20187    NTT=       19701    LW2=     3500000
    MDV= 16105706311 MDiskM=      406659 NBas2p=       20117
 Fully direct method using O(ONN) memory.
 IMap=   1   2   3   4   5   6   7   8   9  10  11  12  13  14  15  16  17  18  19  20
 IMap=  21  22
 JobTyp=1 Pass  1:  I=  12 to  22 NPSUse= 28 ParTrn=T ParDer=T DoDerP=T.
 Spin components of T(2) and E(2):
     alpha-alpha T2 =       0.2933672946D-01 E2=     -0.8435021995D-01
     alpha-beta  T2 =       0.1594389003D+00 E2=     -0.4989482393D+00
     beta-beta   T2 =       0.2933672946D-01 E2=     -0.8435021995D-01
 The integrals were generated   1 times.
 ANorm=    0.1103681276D+01
 E2 =    -0.6676486792D+00 EUMP2 =    -0.99519207068286D+03
 Leave Link  906 at Thu Oct 21 23:18:00 2021, MaxMem= 16106127360 cpu:             290.4 elap:              10.5
 (Enter /sw/contrib/gaussian/g16/B01/g16/l1002.exe)
 Minotr:  Closed shell wavefunction.
          Computing MP2/KS-MP2 derivatives.
          Using Z-Vector for PSCF gradient.
          Skipping F1 and S1 gradient terms here.
          IDoAtm=1111
          Frozen-core window.
          Direct CPHF calculation.
          Differentiating once with respect to electric field.
                with respect to dipole field.
          Differentiating once with respect to nuclear coordinates.
          Using symmetry in CPHF.
          Requested convergence is 1.0D-10 RMS, and 1.0D-09 maximum.
          NewPWx=F KeepS1=T KeepF1=T KeepIn=T MapXYZ=F SortEE=F KeepMc=T.
 Keep R1 ints in memory in symmetry-blocked form, NReq=155450263.
 FoFCou: FMM=F IPFlag=           0 FMFlag=           0 FMFlg1=           0
         NFxFlg=           0 DoJE=F BraDBF=F KetDBF=F FulRan=T
         wScrn=  0.000000 ICntrl=       600 IOpCl=  0 I1Cent=           0 NGrid=           0
         NMat0=    1 NMatS0=  14365 NMatT0=    0 NMatD0=    1 NMtDS0=    0 NMtDT0=    0
 Petite list used in FoFCou.
          MDV=   16106127360 using IRadAn=       5.
          Solving linear equations separately, MaxMat=       0.
          There are     1 degrees of freedom in the 1st order CPHF.  IDoFFX=0 NUNeed=     1.
 LinEq1:  Iter=  0 NonCon=     1 RMS=3.08D-03 Max=4.67D-02 NDo=     1
 AX will form     1 AO Fock derivatives at one time.
 LinEq1:  Iter=  1 NonCon=     1 RMS=3.86D-04 Max=5.05D-03 NDo=     1
 LinEq1:  Iter=  2 NonCon=     1 RMS=1.61D-04 Max=3.32D-03 NDo=     1
 LinEq1:  Iter=  3 NonCon=     1 RMS=6.18D-05 Max=1.04D-03 NDo=     1
 LinEq1:  Iter=  4 NonCon=     1 RMS=2.60D-05 Max=6.70D-04 NDo=     1
 LinEq1:  Iter=  5 NonCon=     1 RMS=5.78D-06 Max=7.27D-05 NDo=     1
 LinEq1:  Iter=  6 NonCon=     1 RMS=1.51D-06 Max=1.72D-05 NDo=     1
 LinEq1:  Iter=  7 NonCon=     1 RMS=3.16D-07 Max=3.80D-06 NDo=     1
 LinEq1:  Iter=  8 NonCon=     1 RMS=5.32D-08 Max=7.17D-07 NDo=     1
 LinEq1:  Iter=  9 NonCon=     1 RMS=1.21D-08 Max=1.43D-07 NDo=     1
 LinEq1:  Iter= 10 NonCon=     1 RMS=3.14D-09 Max=4.55D-08 NDo=     1
 LinEq1:  Iter= 11 NonCon=     1 RMS=7.29D-10 Max=1.03D-08 NDo=     1
 LinEq1:  Iter= 12 NonCon=     1 RMS=1.46D-10 Max=2.10D-09 NDo=     1
 LinEq1:  Iter= 13 NonCon=     0 RMS=3.14D-11 Max=3.75D-10 NDo=     1
 Linear equations converged to 1.000D-10 1.000D-09 after    13 iterations.
 End of Minotr F.D. properties file   721 does not exist.
 End of Minotr F.D. properties file   722 does not exist.
 End of Minotr F.D. properties file   788 does not exist.
 Leave Link 1002 at Thu Oct 21 23:18:04 2021, MaxMem= 16106127360 cpu:              42.7 elap:               3.2
 (Enter /sw/contrib/gaussian/g16/B01/g16/l601.exe)
 Copying SCF densities to generalized density rwf, IOpCl= 0 IROHF=0.

 **********************************************************************

            Population analysis using the MP2 Density.

 **********************************************************************

 Orbital symmetries:
       Occupied  (A') (A') (A') (A') (A') (A') (A') (A") (A') (A")
                 (A') (A') (A') (A') (A') (A") (A') (A') (A") (A')
                 (A") (A')
       Virtual   (A') (A') (A') (A") (A') (A') (A") (A') (A') (A")
                 (A') (A') (A') (A') (A") (A') (A') (A") (A') (A")
                 (A') (A") (A') (A') (A') (A") (A') (A') (A") (A')
                 (A') (A") (A') (A') (A") (A') (A") (A') (A') (A')
                 (A") (A") (A') (A') (A") (A') (A') (A") (A') (A")
                 (A') (A') (A') (A") (A") (A') (A') (A") (A') (A")
                 (A') (A") (A') (A') (A') (A") (A') (A") (A') (A")
                 (A') (A') (A') (A") (A') (A') (A') (A") (A') (A')
                 (A") (A") (A') (A') (A') (A") (A') (A") (A') (A")
                 (A') (A') (A") (A') (A") (A') (A") (A') (A') (A")
                 (A") (A') (A') (A") (A') (A') (A") (A') (A") (A')
                 (A") (A') (A') (A") (A') (A') (A") (A') (A') (A')
                 (A') (A") (A") (A') (A") (A') (A') (A') (A') (A")
                 (A') (A') (A') (A') (A") (A') (A") (A') (A") (A')
                 (A") (A') (A") (A') (A') (A') (A')
 The electronic state is 1-A'.
 Alpha  occ. eigenvalues -- -104.72313-104.54874 -20.44921 -10.44266 -10.27364
 Alpha  occ. eigenvalues --   -7.90982  -7.90723  -7.90714  -7.73981  -7.73964
 Alpha  occ. eigenvalues --   -7.73963  -1.21800  -0.88707  -0.78871  -0.52996
 Alpha  occ. eigenvalues --   -0.43254  -0.42454  -0.30084  -0.27178  -0.20498
 Alpha  occ. eigenvalues --   -0.19672  -0.19669
 Alpha virt. eigenvalues --    0.16112   0.18636   0.22579   0.23533   0.25830
 Alpha virt. eigenvalues --    0.27291   0.27512   0.29560   0.31050   0.32687
 Alpha virt. eigenvalues --    0.33715   0.35015   0.38628   0.45225   0.46266
 Alpha virt. eigenvalues --    0.51607   0.52535   0.53874   0.56646   0.56849
 Alpha virt. eigenvalues --    0.58710   0.60032   0.60523   0.65259   0.66069
 Alpha virt. eigenvalues --    0.68414   0.68540   0.75244   0.78469   0.79087
 Alpha virt. eigenvalues --    0.83072   0.87660   0.88462   0.90011   0.90978
 Alpha virt. eigenvalues --    0.92255   0.96638   1.00713   1.05336   1.05692
 Alpha virt. eigenvalues --    1.06261   1.08903   1.09435   1.10226   1.14271
 Alpha virt. eigenvalues --    1.14944   1.17044   1.18662   1.18828   1.21470
 Alpha virt. eigenvalues --    1.22824   1.24640   1.29481   1.32474   1.32982
 Alpha virt. eigenvalues --    1.37670   1.40863   1.42620   1.43022   1.47653
 Alpha virt. eigenvalues --    1.48471   1.50152   1.54468   1.61816   1.65662
 Alpha virt. eigenvalues --    1.67528   1.68799   1.72592   1.74456   1.79999
 Alpha virt. eigenvalues --    1.80992   1.84109   1.86282   1.91457   1.94594
 Alpha virt. eigenvalues --    2.00912   2.29422   2.39534   2.51402   2.51911
 Alpha virt. eigenvalues --    2.53931   2.59773   2.60005   2.62750   2.67270
 Alpha virt. eigenvalues --    2.69001   2.71189   2.72583   2.74060   2.77356
 Alpha virt. eigenvalues --    2.78099   2.79334   2.80223   2.82275   2.89476
 Alpha virt. eigenvalues --    2.92185   2.99277   2.99495   3.04632   3.09514
 Alpha virt. eigenvalues --    3.14560   3.16298   3.20300   3.22558   3.24211
 Alpha virt. eigenvalues --    3.28348   3.30606   3.32412   3.33916   3.33936
 Alpha virt. eigenvalues --    3.40042   3.40891   3.41840   3.47615   3.51519
 Alpha virt. eigenvalues --    3.54481   3.56334   3.59714   3.70607   3.95982
 Alpha virt. eigenvalues --    4.26914   4.32041   4.47630   4.55797   4.60172
 Alpha virt. eigenvalues --    4.79930   4.99954   5.18270   5.39852   5.40672
 Alpha virt. eigenvalues --    5.67926   6.37160   6.58485   6.69214   6.86669
 Alpha virt. eigenvalues --    6.91246   6.92679   7.02016   7.28340   7.33596
 Alpha virt. eigenvalues --    7.35495   7.46120   7.57366   7.77638   7.85250
 Alpha virt. eigenvalues --    8.39306  14.61929
          Condensed to atoms (all electrons):
               1          2          3          4
     1  O    8.654772  -0.120879  -0.096157   0.057042
     2  Cl  -0.120879  17.080112   0.003285  -0.001914
     3  Cl  -0.096157   0.003285  17.861533   0.066535
     4  H    0.057042  -0.001914   0.066535   0.587761
 Mulliken charges:
               1
     1  O   -0.494778
     2  Cl   0.039397
     3  Cl  -0.835195
     4  H    0.290576
 Sum of Mulliken charges =  -1.00000
 Mulliken charges with hydrogens summed into heavy atoms:
               1
     1  O   -0.204202
     2  Cl   0.039397
     3  Cl  -0.835195
 Electronic spatial extent (au):  <R**2>=            560.4602
 Charge=             -1.0000 electrons
 Dipole moment (field-independent basis, Debye):
    X=             -4.7104    Y=             -2.3500    Z=              0.0000  Tot=              5.2640
 Quadrupole moment (field-independent basis, Debye-Ang):
   XX=            -53.7495   YY=            -38.0720   ZZ=            -36.6629
   XY=             -4.3384   XZ=              0.0000   YZ=              0.0000
 Traceless Quadrupole moment (field-independent basis, Debye-Ang):
   XX=            -10.9214   YY=              4.7561   ZZ=              6.1653
   XY=             -4.3384   XZ=              0.0000   YZ=              0.0000
 Octapole moment (field-independent basis, Debye-Ang**2):
  XXX=            -37.8701  YYY=             -8.4015  ZZZ=              0.0000  XYY=             -9.0800
  XXY=            -11.1260  XXZ=              0.0000  XZZ=             -5.4782  YZZ=             -1.3280
  YYZ=              0.0000  XYZ=              0.0000
 Hexadecapole moment (field-independent basis, Debye-Ang**3):
 XXXX=           -645.7081 YYYY=           -176.6168 ZZZZ=            -49.6368 XXXY=           -122.3816
 XXXZ=              0.0000 YYYX=           -101.1781 YYYZ=              0.0000 ZZZX=              0.0000
 ZZZY=              0.0000 XXYY=           -136.0907 XXZZ=           -108.8697 YYZZ=            -40.4698
 XXYZ=              0.0000 YYXZ=              0.0000 ZZXY=            -35.7877
 N-N= 1.221723794238D+02 E-N=-2.622159767138D+03  KE= 9.950334021046D+02
 Symmetry A'   KE= 8.990368950468D+02
 Symmetry A"   KE= 9.599650705782D+01
 No NMR shielding tensors so no spin-rotation constants.
 Leave Link  601 at Thu Oct 21 23:18:04 2021, MaxMem= 16106127360 cpu:               6.3 elap:               0.7
 (Enter /sw/contrib/gaussian/g16/B01/g16/l701.exe)
 ... and contract with generalized density number  2.
 Compute integral first derivatives.
 Leave Link  701 at Thu Oct 21 23:18:05 2021, MaxMem= 16106127360 cpu:               7.2 elap:               0.4
 (Enter /sw/contrib/gaussian/g16/B01/g16/l702.exe)
 L702 exits ... SP integral derivatives will be done elsewhere.
 Leave Link  702 at Thu Oct 21 23:18:05 2021, MaxMem= 16106127360 cpu:               1.5 elap:               0.1
 (Enter /sw/contrib/gaussian/g16/B01/g16/l703.exe)
 Integral derivatives from FoFJK, PRISM(SPDF).
 Compute integral first derivatives, UseDBF=F ICtDFT=           0.
 Calling FoFJK, ICntrl=  10002127 FMM=F ISym2X=1 I1Cent= 0 IOpClX= 0 NMat=1 NMatS=1 NMatT=0.
 FoFJK:  IHMeth= 1 ICntrl=10002127 DoSepK=F KAlg= 0 I1Cent=           0 FoldK=F
 IRaf=         0 NMat=       1 IRICut=       1 DoRegI=T DoRafI=F ISym2E= 1 IDoP0=0 IntGTp=1.
 FoFCou: FMM=F IPFlag=           0 FMFlag=      100000 FMFlg1=         800
         NFxFlg=           0 DoJE=F BraDBF=F KetDBF=F FulRan=T
         wScrn=  0.000000 ICntrl=  10002127 IOpCl=  0 I1Cent=           0 NGrid=           0
         NMat0=    1 NMatS0=      1 NMatT0=    0 NMatD0=    1 NMtDS0=    0 NMtDT0=    0
 Petite list used in FoFCou.
 Leave Link  703 at Thu Oct 21 23:18:07 2021, MaxMem= 16106127360 cpu:              42.1 elap:               1.6
 (Enter /sw/contrib/gaussian/g16/B01/g16/l716.exe)
 Dipole        =-1.85320069D+00-9.24554354D-01 5.08079803D-32
 ***** Axes restored to original set *****
 -------------------------------------------------------------------
 Center     Atomic                   Forces (Hartrees/Bohr)
 Number     Number              X              Y              Z
 -------------------------------------------------------------------
      1        8           0.000288976    0.005953158    0.000000000
      2       17          -0.000056752    0.000055336    0.000000000
      3       17          -0.000749236   -0.000182389   -0.000000000
      4        1           0.000517012   -0.005826105   -0.000000000
 -------------------------------------------------------------------
 Cartesian Forces:  Max     0.005953158 RMS     0.002421007
 -----------------------------------------------------------------------------------------------
                       Internal Coordinate Forces (Hartree/Bohr or radian)
  Cent   Atom   N1       Length/X         N2         Alpha/Y        N3         Beta/Z          J
 -----------------------------------------------------------------------------------------------
      1  O 
         X        1   0.000000(     1)
      2  Cl       1  -0.000057(     2)      2  -0.000000(     5)
      3  Cl       1   0.000353(     3)      2   0.000000(     6)      3   0.003764(     8)     0
      4  H        1   0.005543(     4)      2   0.000000(     7)      3  -0.003588(     9)     0
 -----------------------------------------------------------------------------------------------
 Internal  Forces:  Max     0.005543454 RMS     0.002536447
 Force constants in Cartesian coordinates: 
                1             2             3             4             5 
      1  0.472470D+00
      2  0.527597D-01  0.512123D+00
      3  0.000000D+00  0.000000D+00  0.182552D-01
      4 -0.380493D+00  0.000000D+00  0.000000D+00  0.380493D+00
      5  0.393612D-01 -0.500176D-01  0.000000D+00  0.000000D+00  0.405459D-01
      6  0.000000D+00  0.000000D+00  0.000000D+00  0.000000D+00  0.000000D+00
      7 -0.566182D-04  0.725527D-02  0.000000D+00  0.000000D+00 -0.139252D-01
      8 -0.666994D-02 -0.295205D-01  0.000000D+00  0.000000D+00  0.335090D-02
      9  0.000000D+00  0.000000D+00  0.984594D-02  0.000000D+00  0.000000D+00
     10 -0.919208D-01 -0.600150D-01  0.000000D+00  0.000000D+00 -0.254359D-01
     11 -0.854509D-01 -0.432584D+00  0.000000D+00  0.000000D+00  0.612079D-02
     12  0.000000D+00  0.000000D+00 -0.281011D-01  0.000000D+00  0.000000D+00
                6             7             8             9            10 
      6  0.100000D+01
      7  0.000000D+00  0.143833D-01
      8  0.000000D+00  0.322243D-02  0.269992D-01
      9  0.000000D+00  0.000000D+00  0.000000D+00  0.531042D-02
     10  0.000000D+00 -0.143267D-01  0.344751D-02  0.000000D+00  0.106247D+00
     11  0.000000D+00  0.344751D-02 -0.829594D-03  0.000000D+00  0.820034D-01
     12  0.000000D+00  0.000000D+00  0.000000D+00 -0.151564D-01  0.000000D+00
               11            12 
     11  0.427293D+00
     12  0.000000D+00  0.432575D-01
 Force constants in internal coordinates: 
                1             2             3             4             5 
      1  0.000000D+00
      2  0.000000D+00  0.380493D+00
      3  0.000000D+00  0.000000D+00  0.277747D-01
      4  0.000000D+00  0.000000D+00  0.000000D+00  0.447026D+00
      5  0.000000D+00  0.000000D+00  0.000000D+00  0.000000D+00  0.101120D+02
      6  0.000000D+00  0.000000D+00  0.000000D+00  0.000000D+00  0.000000D+00
      7  0.000000D+00  0.000000D+00  0.000000D+00  0.000000D+00  0.000000D+00
      8  0.000000D+00  0.000000D+00  0.000000D+00  0.000000D+00  0.000000D+00
      9  0.000000D+00  0.000000D+00  0.000000D+00  0.000000D+00  0.000000D+00
                6             7             8             9 
      6  0.160001D+00
      7 -0.160001D+00  0.160001D+00
      8  0.000000D+00  0.000000D+00  0.410000D+00
      9  0.000000D+00  0.000000D+00 -0.160000D+00  0.320000D+00
 Leave Link  716 at Thu Oct 21 23:18:08 2021, MaxMem= 16106127360 cpu:               3.4 elap:               0.2
 (Enter /sw/contrib/gaussian/g16/B01/g16/l103.exe)

 GradGradGradGradGradGradGradGradGradGradGradGradGradGradGradGradGradGrad
 Berny optimization.
 Search for a local minimum.
 Step number   1 out of a maximum of   20 on scan point     1 out of    51
 All quantities printed in internal units (Hartrees-Bohrs-Radians)
 Second derivative matrix not updated -- first step.
 The second derivative matrix:
                          r1        r2        r3        a1        OOP
           r1           0.38049
           r2          -0.00000   0.02777
           r3          -0.00000   0.00000   0.44703
           a1          -0.00000   0.00000   0.00000   0.41000
           OOP         -0.00000   0.00000   0.00000   0.00000   0.16000
 ITU=  0
     Eigenvalues ---    0.447031000.000001000.000001000.000001000.00000
 RFO step:  Lambda=-6.87323636D-05 EMin= 4.47026108D-01
 Linear search not attempted -- first point.
 Variable       Old X    -DE/DX   Delta X   Delta X   Delta X     New X
                                 (Linear)    (Quad)   (Total)
    r1        3.17994  -0.00006   0.00000   0.00000   0.00000   3.17994
    r2        5.48904   0.00035   0.00000   0.00000   0.00000   5.48904
    r3        1.92323   0.00554   0.00000   0.01240   0.01240   1.93563
    a1        1.80694   0.00018   0.00000   0.00000   0.00000   1.80694
   OOP        1.57080   0.00000   0.00000   0.00000   0.00000   1.57080
         Item               Value     Threshold  Converged?
 Maximum Force            0.005543     0.000450     NO 
 RMS     Force            0.005543     0.000300     NO 
 Maximum Displacement     0.012399     0.001800     NO 
 RMS     Displacement     0.005545     0.001200     NO 
 Predicted change in Energy=-3.437147D-05
 Lowest energy point so far.  Saving SCF results.
 GradGradGradGradGradGradGradGradGradGradGradGradGradGradGradGradGradGrad

 Leave Link  103 at Thu Oct 21 23:18:08 2021, MaxMem= 16106127360 cpu:               2.3 elap:               0.2
 (Enter /sw/contrib/gaussian/g16/B01/g16/l202.exe)
 ---------------------------------------------------------------------------------------------------
                            Z-MATRIX (ANGSTROMS AND DEGREES)
   CD    Cent   Atom    N1       Length/X        N2       Alpha/Y        N3        Beta/Z          J
 ---------------------------------------------------------------------------------------------------
      1      1  O 
      2         X        1  10.000000(     1)
      3      2  Cl       1   1.682749(     2)      2   90.000(     5)
      4      3  Cl       1   2.904676(     3)      2   90.000(     6)      3  103.530(     8)      0
      5      4  H        1   1.024289(     4)      2   90.000(     7)      3  103.530(     9)      0
 ---------------------------------------------------------------------------------------------------
                         Z-Matrix orientation:                         
 ---------------------------------------------------------------------
 Center     Atomic      Atomic             Coordinates (Angstroms)
 Number     Number       Type             X           Y           Z
 ---------------------------------------------------------------------
      1          8           0        0.000000    0.000000    0.000000
      2         -1           0        0.000000    0.000000   10.000000
      3         17           0        1.682749    0.000000    0.000000
      4         17           0       -0.679570   -2.824062    0.000000
      5          1           0       -0.239640   -0.995862    0.000000
 ---------------------------------------------------------------------
                    Distance matrix (angstroms):
                    1          2          3          4          5
     1  O    0.000000
     2  X   10.000000   0.000000
     3  Cl   1.682749  10.140594   0.000000
     4  Cl   2.904676  10.413316   3.681831   0.000000
     5  H    1.024289  10.052321   2.165022   1.880387   0.000000
 Stoichiometry    Cl2HO(1-)
 Framework group  CS[SG(Cl2HO)]
 Deg. of freedom     5
 Full point group                 CS      NOp   2
 RotChk:  IX=0 Diff= 1.40D-02
 Largest Abelian subgroup         CS      NOp   2
 Largest concise Abelian subgroup C1      NOp   1
                         Standard orientation:                         
 ---------------------------------------------------------------------
 Center     Atomic      Atomic             Coordinates (Angstroms)
 Number     Number       Type             X           Y           Z
 ---------------------------------------------------------------------
      1          8           0       -1.024215    0.634579   -0.000000
      2         17           0       -1.398269   -1.006070   -0.000000
      3         17           0        1.880252    0.669394    0.000000
      4          1           0       -0.000000    0.646856    0.000000
 ---------------------------------------------------------------------
 Rotational constants (GHZ):          23.6962690           2.0597342           1.8950151
 Leave Link  202 at Thu Oct 21 23:18:08 2021, MaxMem= 16106127360 cpu:               0.5 elap:               0.0
 (Enter /sw/contrib/gaussian/g16/B01/g16/l301.exe)
 Standard basis: Aug-CC-pVTZ (5D, 7F)
 Ernie: Thresh=  0.10000D-02 Tol=  0.10000D-05 Strict=F.
 Ernie:  29 primitive shells out of 169 were deleted.
 There are   135 symmetry adapted cartesian basis functions of A'  symmetry.
 There are    63 symmetry adapted cartesian basis functions of A"  symmetry.
 There are   112 symmetry adapted basis functions of A'  symmetry.
 There are    57 symmetry adapted basis functions of A"  symmetry.
   169 basis functions,   327 primitive gaussians,   198 cartesian basis functions
    22 alpha electrons       22 beta electrons
       nuclear repulsion energy       122.1541164755 Hartrees.
 IExCor=    0 DFT=F Ex=HF Corr=None ExCW=0 ScaHFX=  1.000000
 ScaDFX=  1.000000  1.000000  1.000000  1.000000 ScalE2=  1.000000  1.000000
 IRadAn=      5 IRanWt=     -1 IRanGd=            0 ICorTp=0 IEmpDi=  4
 NAtoms=    4 NActive=    4 NUniq=    4 SFac= 1.00D+00 NAtFMM=   60 NAOKFM=F Big=F
 Integral buffers will be    131072 words long.
 Raffenetti 1 integral format.
 Two-electron integral symmetry is turned on.
 Leave Link  301 at Thu Oct 21 23:18:08 2021, MaxMem= 16106127360 cpu:               1.6 elap:               0.1
 (Enter /sw/contrib/gaussian/g16/B01/g16/l302.exe)
 NPDir=0 NMtPBC=     1 NCelOv=     1 NCel=       1 NClECP=     1 NCelD=      1
         NCelK=      1 NCelE2=     1 NClLst=     1 CellRange=     0.0.
 One-electron integrals computed using PRISM.
 One-electron integral symmetry used in STVInt
 NBasis=   169 RedAO= T EigKep=  2.38D-04  NBF=   112    57
 NBsUse=   169 1.00D-06 EigRej= -1.00D+00 NBFU=   112    57
 Leave Link  302 at Thu Oct 21 23:18:08 2021, MaxMem= 16106127360 cpu:               4.4 elap:               0.2
 (Enter /sw/contrib/gaussian/g16/B01/g16/l303.exe)
 DipDrv:  MaxL=1.
 Leave Link  303 at Thu Oct 21 23:18:08 2021, MaxMem= 16106127360 cpu:               0.8 elap:               0.1
 (Enter /sw/contrib/gaussian/g16/B01/g16/l401.exe)
 Initial guess from the checkpoint file:  "/gscratch/ilahie/mccoygrp/coire_hocl/oop_s_rOH_opt/clhocl/clhocl_oop_s.chk"
 B after Tr=     0.000000   -0.000000   -0.000000
         Rot=    0.999988   -0.000000   -0.000000   -0.004937 Ang=  -0.57 deg.
 Guess basis will be translated and rotated to current coordinates.
 JPrj=2 DoOrth=T DoCkMO=T.
 Initial guess orbital symmetries:
       Occupied  (A') (A') (A') (A') (A') (A') (A') (A") (A') (A")
                 (A') (A') (A') (A') (A') (A") (A') (A') (A") (A')
                 (A") (A')
       Virtual   (A') (A') (A') (A") (A') (A') (A") (A') (A') (A")
                 (A') (A') (A') (A') (A") (A') (A') (A") (A') (A")
                 (A') (A") (A') (A') (A') (A") (A') (A') (A") (A')
                 (A') (A") (A') (A') (A") (A') (A") (A') (A') (A')
                 (A") (A") (A') (A') (A") (A') (A') (A") (A') (A")
                 (A') (A') (A') (A") (A") (A') (A') (A") (A') (A")
                 (A') (A") (A') (A') (A') (A") (A') (A") (A') (A")
                 (A') (A') (A') (A") (A') (A') (A') (A") (A') (A')
                 (A") (A") (A') (A') (A') (A") (A') (A") (A') (A")
                 (A') (A') (A") (A') (A") (A') (A") (A') (A') (A")
                 (A") (A') (A') (A") (A') (A') (A") (A') (A") (A')
                 (A") (A') (A') (A") (A') (A') (A") (A') (A') (A')
                 (A') (A") (A") (A') (A") (A') (A') (A') (A') (A")
                 (A') (A') (A') (A') (A") (A') (A") (A') (A") (A')
                 (A") (A') (A") (A') (A') (A') (A')
 The electronic state of the initial guess is 1-A'.
 Leave Link  401 at Thu Oct 21 23:18:09 2021, MaxMem= 16106127360 cpu:               3.3 elap:               0.2
 (Enter /sw/contrib/gaussian/g16/B01/g16/l502.exe)
 Keep R1 ints in memory in symmetry-blocked form, NReq=155449223.
 FoFCou: FMM=F IPFlag=           0 FMFlag=           0 FMFlg1=           0
         NFxFlg=           0 DoJE=F BraDBF=F KetDBF=F FulRan=T
         wScrn=  0.000000 ICntrl=       600 IOpCl=  0 I1Cent=           0 NGrid=           0
         NMat0=    1 NMatS0=  14365 NMatT0=    0 NMatD0=    1 NMtDS0=    0 NMtDT0=    0
 Petite list used in FoFCou.
 Closed shell SCF:
 Using DIIS extrapolation, IDIIS=  1040.
 NGot= 16106127360 LenX= 16053777278 LenY= 16053737633
 Requested convergence on RMS density matrix=1.00D-08 within 128 cycles.
 Requested convergence on MAX density matrix=1.00D-06.
 Requested convergence on             energy=1.00D-06.
 No special actions if energy rises.

 Cycle   1  Pass 1  IDiag  1:
 E= -994.524084853990    
 DIIS: error= 4.27D-04 at cycle   1 NSaved=   1.
 NSaved= 1 IEnMin= 1 EnMin= -994.524084853990     IErMin= 1 ErrMin= 4.27D-04
 ErrMax= 4.27D-04  0.00D+00 EMaxC= 1.00D-01 BMatC= 1.98D-05 BMatP= 1.98D-05
 IDIUse=3 WtCom= 9.96D-01 WtEn= 4.27D-03
 Coeff-Com:  0.100D+01
 Coeff-En:   0.100D+01
 Coeff:      0.100D+01
 Gap=     0.358 Goal=   None    Shift=    0.000
 RMSDP=3.66D-05 MaxDP=1.22D-03              OVMax= 1.29D-03

 Cycle   2  Pass 1  IDiag  1:
 E= -994.524101626133     Delta-E=       -0.000016772143 Rises=F Damp=F
 DIIS: error= 7.08D-05 at cycle   2 NSaved=   2.
 NSaved= 2 IEnMin= 2 EnMin= -994.524101626133     IErMin= 2 ErrMin= 7.08D-05
 ErrMax= 7.08D-05  0.00D+00 EMaxC= 1.00D-01 BMatC= 1.20D-06 BMatP= 1.98D-05
 IDIUse=1 WtCom= 1.00D+00 WtEn= 0.00D+00
 Coeff-Com: -0.316D-01 0.103D+01
 Coeff:     -0.316D-01 0.103D+01
 Gap=     0.359 Goal=   None    Shift=    0.000
 RMSDP=7.83D-06 MaxDP=3.24D-04 DE=-1.68D-05 OVMax= 5.90D-04

 Cycle   3  Pass 1  IDiag  1:
 E= -994.524102844571     Delta-E=       -0.000001218438 Rises=F Damp=F
 DIIS: error= 5.07D-05 at cycle   3 NSaved=   3.
 NSaved= 3 IEnMin= 3 EnMin= -994.524102844571     IErMin= 3 ErrMin= 5.07D-05
 ErrMax= 5.07D-05  0.00D+00 EMaxC= 1.00D-01 BMatC= 3.83D-07 BMatP= 1.20D-06
 IDIUse=1 WtCom= 1.00D+00 WtEn= 0.00D+00
 Coeff-Com: -0.663D-01 0.345D+00 0.721D+00
 Coeff:     -0.663D-01 0.345D+00 0.721D+00
 Gap=     0.359 Goal=   None    Shift=    0.000
 RMSDP=2.56D-06 MaxDP=7.63D-05 DE=-1.22D-06 OVMax= 2.16D-04

 Cycle   4  Pass 1  IDiag  1:
 E= -994.524103188438     Delta-E=       -0.000000343867 Rises=F Damp=F
 DIIS: error= 1.11D-05 at cycle   4 NSaved=   4.
 NSaved= 4 IEnMin= 4 EnMin= -994.524103188438     IErMin= 4 ErrMin= 1.11D-05
 ErrMax= 1.11D-05  0.00D+00 EMaxC= 1.00D-01 BMatC= 2.43D-08 BMatP= 3.83D-07
 IDIUse=1 WtCom= 1.00D+00 WtEn= 0.00D+00
 Coeff-Com: -0.793D-03-0.809D-01 0.743D-01 0.101D+01
 Coeff:     -0.793D-03-0.809D-01 0.743D-01 0.101D+01
 Gap=     0.359 Goal=   None    Shift=    0.000
 RMSDP=1.20D-06 MaxDP=3.77D-05 DE=-3.44D-07 OVMax= 1.14D-04

 Cycle   5  Pass 1  IDiag  1:
 E= -994.524103233778     Delta-E=       -0.000000045340 Rises=F Damp=F
 DIIS: error= 4.03D-06 at cycle   5 NSaved=   5.
 NSaved= 5 IEnMin= 5 EnMin= -994.524103233778     IErMin= 5 ErrMin= 4.03D-06
 ErrMax= 4.03D-06  0.00D+00 EMaxC= 1.00D-01 BMatC= 1.86D-09 BMatP= 2.43D-08
 IDIUse=1 WtCom= 1.00D+00 WtEn= 0.00D+00
 Coeff-Com:  0.546D-02-0.195D-01-0.689D-01-0.171D+00 0.125D+01
 Coeff:      0.546D-02-0.195D-01-0.689D-01-0.171D+00 0.125D+01
 Gap=     0.359 Goal=   None    Shift=    0.000
 RMSDP=5.53D-07 MaxDP=1.85D-05 DE=-4.53D-08 OVMax= 5.09D-05

 Cycle   6  Pass 1  IDiag  1:
 E= -994.524103240594     Delta-E=       -0.000000006815 Rises=F Damp=F
 DIIS: error= 1.12D-06 at cycle   6 NSaved=   6.
 NSaved= 6 IEnMin= 6 EnMin= -994.524103240594     IErMin= 6 ErrMin= 1.12D-06
 ErrMax= 1.12D-06  0.00D+00 EMaxC= 1.00D-01 BMatC= 1.71D-10 BMatP= 1.86D-09
 IDIUse=1 WtCom= 1.00D+00 WtEn= 0.00D+00
 Coeff-Com: -0.833D-03 0.103D-01 0.739D-02-0.673D-01-0.187D+00 0.124D+01
 Coeff:     -0.833D-03 0.103D-01 0.739D-02-0.673D-01-0.187D+00 0.124D+01
 Gap=     0.359 Goal=   None    Shift=    0.000
 RMSDP=1.63D-07 MaxDP=3.70D-06 DE=-6.82D-09 OVMax= 1.32D-05

 Cycle   7  Pass 1  IDiag  1:
 E= -994.524103241186     Delta-E=       -0.000000000593 Rises=F Damp=F
 DIIS: error= 2.77D-07 at cycle   7 NSaved=   7.
 NSaved= 7 IEnMin= 7 EnMin= -994.524103241186     IErMin= 7 ErrMin= 2.77D-07
 ErrMax= 2.77D-07  0.00D+00 EMaxC= 1.00D-01 BMatC= 1.52D-11 BMatP= 1.71D-10
 IDIUse=1 WtCom= 1.00D+00 WtEn= 0.00D+00
 Coeff-Com: -0.487D-03 0.169D-02 0.831D-02 0.175D-01-0.128D+00-0.761D-04
 Coeff-Com:  0.110D+01
 Coeff:     -0.487D-03 0.169D-02 0.831D-02 0.175D-01-0.128D+00-0.761D-04
 Coeff:      0.110D+01
 Gap=     0.359 Goal=   None    Shift=    0.000
 RMSDP=4.27D-08 MaxDP=1.14D-06 DE=-5.93D-10 OVMax= 3.52D-06

 Cycle   8  Pass 1  IDiag  1:
 E= -994.524103241230     Delta-E=       -0.000000000044 Rises=F Damp=F
 DIIS: error= 9.77D-08 at cycle   8 NSaved=   8.
 NSaved= 8 IEnMin= 8 EnMin= -994.524103241230     IErMin= 8 ErrMin= 9.77D-08
 ErrMax= 9.77D-08  0.00D+00 EMaxC= 1.00D-01 BMatC= 1.45D-12 BMatP= 1.52D-11
 IDIUse=1 WtCom= 1.00D+00 WtEn= 0.00D+00
 Coeff-Com:  0.172D-03-0.138D-02-0.154D-02 0.157D-02 0.374D-01-0.780D-01
 Coeff-Com: -0.262D+00 0.130D+01
 Coeff:      0.172D-03-0.138D-02-0.154D-02 0.157D-02 0.374D-01-0.780D-01
 Coeff:     -0.262D+00 0.130D+01
 Gap=     0.359 Goal=   None    Shift=    0.000
 RMSDP=1.50D-08 MaxDP=4.42D-07 DE=-4.41D-11 OVMax= 1.25D-06

 Cycle   9  Pass 1  IDiag  1:
 E= -994.524103241230     Delta-E=        0.000000000000 Rises=F Damp=F
 DIIS: error= 3.52D-08 at cycle   9 NSaved=   9.
 NSaved= 9 IEnMin= 8 EnMin= -994.524103241230     IErMin= 9 ErrMin= 3.52D-08
 ErrMax= 3.52D-08  0.00D+00 EMaxC= 1.00D-01 BMatC= 1.79D-13 BMatP= 1.45D-12
 IDIUse=1 WtCom= 1.00D+00 WtEn= 0.00D+00
 Coeff-Com:  0.363D-04-0.106D-03-0.469D-03-0.172D-02 0.809D-02 0.123D-01
 Coeff-Com: -0.104D+00-0.151D+00 0.124D+01
 Coeff:      0.363D-04-0.106D-03-0.469D-03-0.172D-02 0.809D-02 0.123D-01
 Coeff:     -0.104D+00-0.151D+00 0.124D+01
 Gap=     0.359 Goal=   None    Shift=    0.000
 RMSDP=5.66D-09 MaxDP=1.51D-07 DE= 0.00D+00 OVMax= 4.64D-07

 SCF Done:  E(RHF) =  -994.524103241     A.U. after    9 cycles
            NFock=  9  Conv=0.57D-08     -V/T= 2.0002
 KE= 9.943695453063D+02 PE=-2.622072229165D+03 EE= 5.110244641424D+02
 Leave Link  502 at Thu Oct 21 23:18:10 2021, MaxMem= 16106127360 cpu:              32.6 elap:               1.7
 (Enter /sw/contrib/gaussian/g16/B01/g16/l801.exe)
 ExpMin= 2.53D-02 ExpMax= 4.56D+05 ExpMxC= 1.44D+03 IAcc=3 IRadAn=         5 AccDes= 0.00D+00
 HarFok:  IExCor=  205 AccDes= 0.00D+00 IRadAn=         5 IDoV=-2 UseB2=F ITyADJ=14
 ICtDFT= 12500011 ScaDFX=  1.000000  1.000000  1.000000  1.000000
 Largest valence mixing into a core orbital is  4.47D-04
 Largest core mixing into a valence orbital is  1.72D-04
 Range of M.O.s used for correlation:    12   169
 NBasis=   169 NAE=    22 NBE=    22 NFC=    11 NFV=     0
 NROrb=    158 NOA=    11 NOB=    11 NVA=   147 NVB=   147

 **** Warning!!: The largest alpha MO coefficient is  0.20731754D+02

 Leave Link  801 at Thu Oct 21 23:18:10 2021, MaxMem= 16106127360 cpu:               3.2 elap:               0.2
 (Enter /sw/contrib/gaussian/g16/B01/g16/l906.exe)
 Frozen-core derivative calculation, NFC=  11 NFV=   0.
 FulOut=F Deriv=T AODrv=T NAtomX=     4
   MMem=         143  MDisk=          11 MDiskD=          11
  W3Min=      736164 MinDsk=     1250177 NBas6D=         198
 NBas2D=       20187    NTT=       19701    LW2=     3500000
    MDV= 16105706297 MDiskM=      406659 NBas2p=       20117
 Fully direct method using O(ONN) memory.
 IMap=   1   2   3   4   5   6   7   8   9  10  11  12  13  14  15  16  17  18  19  20
 IMap=  21  22
 JobTyp=1 Pass  1:  I=  12 to  22 NPSUse= 28 ParTrn=T ParDer=T DoDerP=T.
 Spin components of T(2) and E(2):
     alpha-alpha T2 =       0.2937977418D-01 E2=     -0.8441820128D-01
     alpha-beta  T2 =       0.1596127042D+00 E2=     -0.4991780495D+00
     beta-beta   T2 =       0.2937977418D-01 E2=     -0.8441820128D-01
 The integrals were generated   1 times.
 ANorm=    0.1103799009D+01
 E2 =    -0.6680144521D+00 EUMP2 =    -0.99519211769333D+03
 Leave Link  906 at Thu Oct 21 23:18:21 2021, MaxMem= 16106127360 cpu:             292.9 elap:              10.5
 (Enter /sw/contrib/gaussian/g16/B01/g16/l1002.exe)
 Minotr:  Closed shell wavefunction.
          Computing MP2/KS-MP2 derivatives.
          Using Z-Vector for PSCF gradient.
          Skipping F1 and S1 gradient terms here.
          IDoAtm=1111
          Frozen-core window.
          Direct CPHF calculation.
          Differentiating once with respect to electric field.
                with respect to dipole field.
          Differentiating once with respect to nuclear coordinates.
          Using symmetry in CPHF.
          Requested convergence is 1.0D-10 RMS, and 1.0D-09 maximum.
          NewPWx=F KeepS1=T KeepF1=T KeepIn=T MapXYZ=F SortEE=F KeepMc=T.
 Keep R1 ints in memory in symmetry-blocked form, NReq=155450263.
 FoFCou: FMM=F IPFlag=           0 FMFlag=           0 FMFlg1=           0
         NFxFlg=           0 DoJE=F BraDBF=F KetDBF=F FulRan=T
         wScrn=  0.000000 ICntrl=       600 IOpCl=  0 I1Cent=           0 NGrid=           0
         NMat0=    1 NMatS0=  14365 NMatT0=    0 NMatD0=    1 NMtDS0=    0 NMtDT0=    0
 Petite list used in FoFCou.
          MDV=   16106127360 using IRadAn=       5.
          Solving linear equations separately, MaxMat=       0.
          There are     1 degrees of freedom in the 1st order CPHF.  IDoFFX=0 NUNeed=     1.
 LinEq1:  Iter=  0 NonCon=     1 RMS=3.09D-03 Max=4.66D-02 NDo=     1
 AX will form     1 AO Fock derivatives at one time.
 LinEq1:  Iter=  1 NonCon=     1 RMS=3.87D-04 Max=5.07D-03 NDo=     1
 LinEq1:  Iter=  2 NonCon=     1 RMS=1.62D-04 Max=3.34D-03 NDo=     1
 LinEq1:  Iter=  3 NonCon=     1 RMS=6.23D-05 Max=1.05D-03 NDo=     1
 LinEq1:  Iter=  4 NonCon=     1 RMS=2.63D-05 Max=6.72D-04 NDo=     1
 LinEq1:  Iter=  5 NonCon=     1 RMS=5.83D-06 Max=7.31D-05 NDo=     1
 LinEq1:  Iter=  6 NonCon=     1 RMS=1.53D-06 Max=1.74D-05 NDo=     1
 LinEq1:  Iter=  7 NonCon=     1 RMS=3.19D-07 Max=3.90D-06 NDo=     1
 LinEq1:  Iter=  8 NonCon=     1 RMS=5.41D-08 Max=7.06D-07 NDo=     1
 LinEq1:  Iter=  9 NonCon=     1 RMS=1.24D-08 Max=1.49D-07 NDo=     1
 LinEq1:  Iter= 10 NonCon=     1 RMS=3.25D-09 Max=4.74D-08 NDo=     1
 LinEq1:  Iter= 11 NonCon=     1 RMS=7.53D-10 Max=1.04D-08 NDo=     1
 LinEq1:  Iter= 12 NonCon=     1 RMS=1.56D-10 Max=2.57D-09 NDo=     1
 LinEq1:  Iter= 13 NonCon=     0 RMS=3.55D-11 Max=7.62D-10 NDo=     1
 Linear equations converged to 1.000D-10 1.000D-09 after    13 iterations.
 End of Minotr F.D. properties file   721 does not exist.
 End of Minotr F.D. properties file   722 does not exist.
 End of Minotr F.D. properties file   788 does not exist.
 Leave Link 1002 at Thu Oct 21 23:18:23 2021, MaxMem= 16106127360 cpu:              33.4 elap:               2.0
 (Enter /sw/contrib/gaussian/g16/B01/g16/l701.exe)
 ... and contract with generalized density number  2.
 Compute integral first derivatives.
 Leave Link  701 at Thu Oct 21 23:18:23 2021, MaxMem= 16106127360 cpu:               5.1 elap:               0.2
 (Enter /sw/contrib/gaussian/g16/B01/g16/l702.exe)
 L702 exits ... SP integral derivatives will be done elsewhere.
 Leave Link  702 at Thu Oct 21 23:18:23 2021, MaxMem= 16106127360 cpu:               0.6 elap:               0.0
 (Enter /sw/contrib/gaussian/g16/B01/g16/l703.exe)
 Integral derivatives from FoFJK, PRISM(SPDF).
 Compute integral first derivatives, UseDBF=F ICtDFT=           0.
 Calling FoFJK, ICntrl=  10002127 FMM=F ISym2X=1 I1Cent= 0 IOpClX= 0 NMat=1 NMatS=1 NMatT=0.
 FoFJK:  IHMeth= 1 ICntrl=10002127 DoSepK=F KAlg= 0 I1Cent=           0 FoldK=F
 IRaf=         0 NMat=       1 IRICut=       1 DoRegI=T DoRafI=F ISym2E= 1 IDoP0=0 IntGTp=1.
 FoFCou: FMM=F IPFlag=           0 FMFlag=      100000 FMFlg1=         800
         NFxFlg=           0 DoJE=F BraDBF=F KetDBF=F FulRan=T
         wScrn=  0.000000 ICntrl=  10002127 IOpCl=  0 I1Cent=           0 NGrid=           0
         NMat0=    1 NMatS0=      1 NMatT0=    0 NMatD0=    1 NMtDS0=    0 NMtDT0=    0
 Petite list used in FoFCou.
 Leave Link  703 at Thu Oct 21 23:18:25 2021, MaxMem= 16106127360 cpu:              39.8 elap:               1.4
 (Enter /sw/contrib/gaussian/g16/B01/g16/l716.exe)
 Dipole        =-1.82400030D+00-9.37891528D-01-6.06519038D-32
 ***** Axes restored to original set *****
 -------------------------------------------------------------------
 Center     Atomic                   Forces (Hartrees/Bohr)
 Number     Number              X              Y              Z
 -------------------------------------------------------------------
      1        8          -0.000611273    0.002418115    0.000000000
      2       17          -0.000014484    0.000047642    0.000000000
      3       17          -0.000710343   -0.000009999   -0.000000000
      4        1           0.001336101   -0.002455758   -0.000000000
 -------------------------------------------------------------------
 Cartesian Forces:  Max     0.002455758 RMS     0.001100909
 -----------------------------------------------------------------------------------------------
                       Internal Coordinate Forces (Hartree/Bohr or radian)
  Cent   Atom   N1       Length/X         N2         Alpha/Y        N3         Beta/Z          J
 -----------------------------------------------------------------------------------------------
      1  O 
         X        1   0.000000(     1)
      2  Cl       1  -0.000014(     2)      2  -0.000000(     5)
      3  Cl       1   0.000176(     3)      2   0.000000(     6)      3   0.003778(     8)     0
      4  H        1   0.002075(     4)      2   0.000000(     7)      3  -0.003627(     9)     0
 -----------------------------------------------------------------------------------------------
 Internal  Forces:  Max     0.003778051 RMS     0.001878596
 Leave Link  716 at Thu Oct 21 23:18:25 2021, MaxMem= 16106127360 cpu:               1.3 elap:               0.1
 (Enter /sw/contrib/gaussian/g16/B01/g16/l103.exe)

 GradGradGradGradGradGradGradGradGradGradGradGradGradGradGradGradGradGrad
 Berny optimization.
 Search for a local minimum.
 Step number   2 out of a maximum of   20 on scan point     1 out of    51
 All quantities printed in internal units (Hartrees-Bohrs-Radians)
 Update second derivatives using D2CorN and points    1    2
 DE= -4.70D-05 DEPred=-3.44D-05 R= 1.37D+00
 TightC=F SS=  1.41D+00  RLast= 1.24D-02 DXNew= 5.0454D-01 3.7196D-02
 Trust test= 1.37D+00 RLast= 1.24D-02 DXMaxT set to 3.00D-01
 The second derivative matrix:
                          r1        r2        r3        a1        OOP
           r1           0.38049
           r2          -0.00000   0.02777
           r3          -0.00170   0.00713   0.27974
           a1          -0.00000   0.00000   0.00099   0.41000
           OOP         -0.00000   0.00000   0.00000   0.00000   0.16000
 ITU=  1  0
     Eigenvalues ---    0.279741000.000001000.000001000.000001000.00000
 RFO step:  Lambda= 0.00000000D+00 EMin= 2.79739386D-01
 Quartic linear search produced a step of  0.62930.
 Variable       Old X    -DE/DX   Delta X   Delta X   Delta X     New X
                                 (Linear)    (Quad)   (Total)
    r1        3.17994  -0.00001   0.00000   0.00000   0.00000   3.17994
    r2        5.48904   0.00018   0.00000   0.00000   0.00000   5.48904
    r3        1.93563   0.00208   0.00780  -0.00000   0.00780   1.94343
    a1        1.80694   0.00015   0.00000   0.00000   0.00000   1.80694
   OOP        1.57080   0.00000   0.00000   0.00000   0.00000   1.57080
         Item               Value     Threshold  Converged?
 Maximum Force            0.002075     0.000450     NO 
 RMS     Force            0.002075     0.000300     NO 
 Maximum Displacement     0.007803     0.001800     NO 
 RMS     Displacement     0.003489     0.001200     NO 
 Predicted change in Energy=-7.675142D-06
 Lowest energy point so far.  Saving SCF results.
 GradGradGradGradGradGradGradGradGradGradGradGradGradGradGradGradGradGrad

 Leave Link  103 at Thu Oct 21 23:18:25 2021, MaxMem= 16106127360 cpu:               1.3 elap:               0.1
 (Enter /sw/contrib/gaussian/g16/B01/g16/l202.exe)
 ---------------------------------------------------------------------------------------------------
                            Z-MATRIX (ANGSTROMS AND DEGREES)
   CD    Cent   Atom    N1       Length/X        N2       Alpha/Y        N3        Beta/Z          J
 ---------------------------------------------------------------------------------------------------
      1      1  O 
      2         X        1  10.000000(     1)
      3      2  Cl       1   1.682749(     2)      2   90.000(     5)
      4      3  Cl       1   2.904676(     3)      2   90.000(     6)      3  103.530(     8)      0
      5      4  H        1   1.028418(     4)      2   90.000(     7)      3  103.530(     9)      0
 ---------------------------------------------------------------------------------------------------
                         Z-Matrix orientation:                         
 ---------------------------------------------------------------------
 Center     Atomic      Atomic             Coordinates (Angstroms)
 Number     Number       Type             X           Y           Z
 ---------------------------------------------------------------------
      1          8           0        0.000000    0.000000    0.000000
      2         -1           0        0.000000    0.000000   10.000000
      3         17           0        1.682749    0.000000    0.000000
      4         17           0       -0.679570   -2.824062    0.000000
      5          1           0       -0.240606   -0.999876    0.000000
 ---------------------------------------------------------------------
                    Distance matrix (angstroms):
                    1          2          3          4          5
     1  O    0.000000
     2  X   10.000000   0.000000
     3  Cl   1.682749  10.140594   0.000000
     4  Cl   2.904676  10.413316   3.681831   0.000000
     5  H    1.028418  10.052743   2.167728   1.876258   0.000000
 Stoichiometry    Cl2HO(1-)
 Framework group  CS[SG(Cl2HO)]
 Deg. of freedom     5
 Full point group                 CS      NOp   2
 RotChk:  IX=0 Diff= 8.82D-03
 Largest Abelian subgroup         CS      NOp   2
 Largest concise Abelian subgroup C1      NOp   1
                         Standard orientation:                         
 ---------------------------------------------------------------------
 Center     Atomic      Atomic             Coordinates (Angstroms)
 Number     Number       Type             X           Y           Z
 ---------------------------------------------------------------------
      1          8           0       -1.028247    0.628181   -0.000000
      2         17           0       -1.392066   -1.014768   -0.000000
      3         17           0        1.875947    0.681100    0.000000
      4          1           0        0.000000    0.646917    0.000000
 ---------------------------------------------------------------------
 Rotational constants (GHZ):          23.6984624           2.0597173           1.8950148
 Leave Link  202 at Thu Oct 21 23:18:25 2021, MaxMem= 16106127360 cpu:               0.5 elap:               0.0
 (Enter /sw/contrib/gaussian/g16/B01/g16/l301.exe)
 Standard basis: Aug-CC-pVTZ (5D, 7F)
 Ernie: Thresh=  0.10000D-02 Tol=  0.10000D-05 Strict=F.
 Ernie:  29 primitive shells out of 169 were deleted.
 There are   135 symmetry adapted cartesian basis functions of A'  symmetry.
 There are    63 symmetry adapted cartesian basis functions of A"  symmetry.
 There are   112 symmetry adapted basis functions of A'  symmetry.
 There are    57 symmetry adapted basis functions of A"  symmetry.
   169 basis functions,   327 primitive gaussians,   198 cartesian basis functions
    22 alpha electrons       22 beta electrons
       nuclear repulsion energy       122.1428630767 Hartrees.
 IExCor=    0 DFT=F Ex=HF Corr=None ExCW=0 ScaHFX=  1.000000
 ScaDFX=  1.000000  1.000000  1.000000  1.000000 ScalE2=  1.000000  1.000000
 IRadAn=      5 IRanWt=     -1 IRanGd=            0 ICorTp=0 IEmpDi=  4
 NAtoms=    4 NActive=    4 NUniq=    4 SFac= 1.00D+00 NAtFMM=   60 NAOKFM=F Big=F
 Integral buffers will be    131072 words long.
 Raffenetti 1 integral format.
 Two-electron integral symmetry is turned on.
 Leave Link  301 at Thu Oct 21 23:18:25 2021, MaxMem= 16106127360 cpu:               1.3 elap:               0.1
 (Enter /sw/contrib/gaussian/g16/B01/g16/l302.exe)
 NPDir=0 NMtPBC=     1 NCelOv=     1 NCel=       1 NClECP=     1 NCelD=      1
         NCelK=      1 NCelE2=     1 NClLst=     1 CellRange=     0.0.
 One-electron integrals computed using PRISM.
 One-electron integral symmetry used in STVInt
 NBasis=   169 RedAO= T EigKep=  2.39D-04  NBF=   112    57
 NBsUse=   169 1.00D-06 EigRej= -1.00D+00 NBFU=   112    57
 Leave Link  302 at Thu Oct 21 23:18:25 2021, MaxMem= 16106127360 cpu:               4.1 elap:               0.2
 (Enter /sw/contrib/gaussian/g16/B01/g16/l303.exe)
 DipDrv:  MaxL=1.
 Leave Link  303 at Thu Oct 21 23:18:25 2021, MaxMem= 16106127360 cpu:               1.2 elap:               0.1
 (Enter /sw/contrib/gaussian/g16/B01/g16/l401.exe)
 Initial guess from the checkpoint file:  "/gscratch/ilahie/mccoygrp/coire_hocl/oop_s_rOH_opt/clhocl/clhocl_oop_s.chk"
 B after Tr=    -0.000000   -0.000000   -0.000000
         Rot=    0.999995    0.000000    0.000000   -0.003107 Ang=  -0.36 deg.
 Guess basis will be translated and rotated to current coordinates.
 JPrj=2 DoOrth=T DoCkMO=T.
 Initial guess orbital symmetries:
       Occupied  (A') (A') (A') (A') (A') (A') (A') (A") (A') (A")
                 (A') (A') (A') (A') (A') (A") (A') (A') (A") (A')
                 (A") (A')
       Virtual   (A') (A') (A') (A") (A') (A') (A") (A') (A') (A")
                 (A') (A') (A') (A') (A") (A') (A') (A") (A') (A")
                 (A') (A") (A') (A') (A') (A") (A') (A') (A") (A')
                 (A') (A") (A') (A') (A") (A') (A") (A') (A') (A')
                 (A") (A") (A') (A') (A") (A') (A') (A") (A') (A")
                 (A') (A') (A') (A") (A") (A') (A') (A") (A') (A")
                 (A') (A") (A') (A') (A') (A") (A') (A") (A') (A")
                 (A') (A') (A') (A") (A') (A') (A') (A") (A') (A')
                 (A") (A") (A') (A') (A') (A") (A') (A") (A') (A")
                 (A') (A') (A") (A') (A") (A') (A") (A') (A') (A")
                 (A") (A') (A') (A") (A') (A') (A") (A') (A") (A')
                 (A") (A') (A') (A") (A') (A') (A") (A') (A') (A')
                 (A') (A") (A") (A') (A") (A') (A') (A') (A') (A")
                 (A') (A') (A') (A') (A") (A') (A") (A') (A") (A')
                 (A") (A') (A") (A') (A') (A') (A')
 The electronic state of the initial guess is 1-A'.
 Leave Link  401 at Thu Oct 21 23:18:25 2021, MaxMem= 16106127360 cpu:               2.6 elap:               0.1
 (Enter /sw/contrib/gaussian/g16/B01/g16/l502.exe)
 Keep R1 ints in memory in symmetry-blocked form, NReq=155449223.
 FoFCou: FMM=F IPFlag=           0 FMFlag=           0 FMFlg1=           0
         NFxFlg=           0 DoJE=F BraDBF=F KetDBF=F FulRan=T
         wScrn=  0.000000 ICntrl=       600 IOpCl=  0 I1Cent=           0 NGrid=           0
         NMat0=    1 NMatS0=  14365 NMatT0=    0 NMatD0=    1 NMtDS0=    0 NMtDT0=    0
 Petite list used in FoFCou.
 Closed shell SCF:
 Using DIIS extrapolation, IDIIS=  1040.
 NGot= 16106127360 LenX= 16053777278 LenY= 16053737633
 Requested convergence on RMS density matrix=1.00D-08 within 128 cycles.
 Requested convergence on MAX density matrix=1.00D-06.
 Requested convergence on             energy=1.00D-06.
 No special actions if energy rises.

 Cycle   1  Pass 1  IDiag  1:
 E= -994.523874629744    
 DIIS: error= 2.88D-04 at cycle   1 NSaved=   1.
 NSaved= 1 IEnMin= 1 EnMin= -994.523874629744     IErMin= 1 ErrMin= 2.88D-04
 ErrMax= 2.88D-04  0.00D+00 EMaxC= 1.00D-01 BMatC= 7.70D-06 BMatP= 7.70D-06
 IDIUse=3 WtCom= 9.97D-01 WtEn= 2.88D-03
 Coeff-Com:  0.100D+01
 Coeff-En:   0.100D+01
 Coeff:      0.100D+01
 Gap=     0.359 Goal=   None    Shift=    0.000
 RMSDP=2.26D-05 MaxDP=7.51D-04              OVMax= 8.19D-04

 Cycle   2  Pass 1  IDiag  1:
 E= -994.523881219657     Delta-E=       -0.000006589913 Rises=F Damp=F
 DIIS: error= 4.50D-05 at cycle   2 NSaved=   2.
 NSaved= 2 IEnMin= 2 EnMin= -994.523881219657     IErMin= 2 ErrMin= 4.50D-05
 ErrMax= 4.50D-05  0.00D+00 EMaxC= 1.00D-01 BMatC= 4.72D-07 BMatP= 7.70D-06
 IDIUse=1 WtCom= 1.00D+00 WtEn= 0.00D+00
 Coeff-Com: -0.318D-01 0.103D+01
 Coeff:     -0.318D-01 0.103D+01
 Gap=     0.359 Goal=   None    Shift=    0.000
 RMSDP=4.93D-06 MaxDP=2.05D-04 DE=-6.59D-06 OVMax= 3.74D-04

 Cycle   3  Pass 1  IDiag  1:
 E= -994.523881706066     Delta-E=       -0.000000486409 Rises=F Damp=F
 DIIS: error= 3.22D-05 at cycle   3 NSaved=   3.
 NSaved= 3 IEnMin= 3 EnMin= -994.523881706066     IErMin= 3 ErrMin= 3.22D-05
 ErrMax= 3.22D-05  0.00D+00 EMaxC= 1.00D-01 BMatC= 1.52D-07 BMatP= 4.72D-07
 IDIUse=1 WtCom= 1.00D+00 WtEn= 0.00D+00
 Coeff-Com: -0.673D-01 0.346D+00 0.721D+00
 Coeff:     -0.673D-01 0.346D+00 0.721D+00
 Gap=     0.359 Goal=   None    Shift=    0.000
 RMSDP=1.61D-06 MaxDP=4.83D-05 DE=-4.86D-07 OVMax= 1.37D-04

 Cycle   4  Pass 1  IDiag  1:
 E= -994.523881843567     Delta-E=       -0.000000137502 Rises=F Damp=F
 DIIS: error= 6.98D-06 at cycle   4 NSaved=   4.
 NSaved= 4 IEnMin= 4 EnMin= -994.523881843567     IErMin= 4 ErrMin= 6.98D-06
 ErrMax= 6.98D-06  0.00D+00 EMaxC= 1.00D-01 BMatC= 9.68D-09 BMatP= 1.52D-07
 IDIUse=1 WtCom= 1.00D+00 WtEn= 0.00D+00
 Coeff-Com: -0.596D-03-0.827D-01 0.718D-01 0.101D+01
 Coeff:     -0.596D-03-0.827D-01 0.718D-01 0.101D+01
 Gap=     0.359 Goal=   None    Shift=    0.000
 RMSDP=7.67D-07 MaxDP=2.41D-05 DE=-1.38D-07 OVMax= 7.29D-05

 Cycle   5  Pass 1  IDiag  1:
 E= -994.523881861943     Delta-E=       -0.000000018375 Rises=F Damp=F
 DIIS: error= 2.55D-06 at cycle   5 NSaved=   5.
 NSaved= 5 IEnMin= 5 EnMin= -994.523881861943     IErMin= 5 ErrMin= 2.55D-06
 ErrMax= 2.55D-06  0.00D+00 EMaxC= 1.00D-01 BMatC= 7.52D-10 BMatP= 9.68D-09
 IDIUse=1 WtCom= 1.00D+00 WtEn= 0.00D+00
 Coeff-Com:  0.558D-02-0.193D-01-0.695D-01-0.176D+00 0.126D+01
 Coeff:      0.558D-02-0.193D-01-0.695D-01-0.176D+00 0.126D+01
 Gap=     0.359 Goal=   None    Shift=    0.000
 RMSDP=3.54D-07 MaxDP=1.17D-05 DE=-1.84D-08 OVMax= 3.26D-05

 Cycle   6  Pass 1  IDiag  1:
 E= -994.523881864711     Delta-E=       -0.000000002768 Rises=F Damp=F
 DIIS: error= 7.03D-07 at cycle   6 NSaved=   6.
 NSaved= 6 IEnMin= 6 EnMin= -994.523881864711     IErMin= 6 ErrMin= 7.03D-07
 ErrMax= 7.03D-07  0.00D+00 EMaxC= 1.00D-01 BMatC= 6.79D-11 BMatP= 7.52D-10
 IDIUse=1 WtCom= 1.00D+00 WtEn= 0.00D+00
 Coeff-Com: -0.878D-03 0.105D-01 0.790D-02-0.664D-01-0.190D+00 0.124D+01
 Coeff:     -0.878D-03 0.105D-01 0.790D-02-0.664D-01-0.190D+00 0.124D+01
 Gap=     0.359 Goal=   None    Shift=    0.000
 RMSDP=1.03D-07 MaxDP=2.31D-06 DE=-2.77D-09 OVMax= 8.34D-06

 Cycle   7  Pass 1  IDiag  1:
 E= -994.523881864944     Delta-E=       -0.000000000234 Rises=F Damp=F
 DIIS: error= 1.75D-07 at cycle   7 NSaved=   7.
 NSaved= 7 IEnMin= 7 EnMin= -994.523881864944     IErMin= 7 ErrMin= 1.75D-07
 ErrMax= 1.75D-07  0.00D+00 EMaxC= 1.00D-01 BMatC= 5.96D-12 BMatP= 6.79D-11
 IDIUse=1 WtCom= 1.00D+00 WtEn= 0.00D+00
 Coeff-Com: -0.489D-03 0.165D-02 0.824D-02 0.175D-01-0.127D+00 0.216D-02
 Coeff-Com:  0.110D+01
 Coeff:     -0.489D-03 0.165D-02 0.824D-02 0.175D-01-0.127D+00 0.216D-02
 Coeff:      0.110D+01
 Gap=     0.359 Goal=   None    Shift=    0.000
 RMSDP=2.67D-08 MaxDP=7.16D-07 DE=-2.34D-10 OVMax= 2.21D-06

 Cycle   8  Pass 1  IDiag  1:
 E= -994.523881864962     Delta-E=       -0.000000000018 Rises=F Damp=F
 DIIS: error= 6.26D-08 at cycle   8 NSaved=   8.
 NSaved= 8 IEnMin= 8 EnMin= -994.523881864962     IErMin= 8 ErrMin= 6.26D-08
 ErrMax= 6.26D-08  0.00D+00 EMaxC= 1.00D-01 BMatC= 5.80D-13 BMatP= 5.96D-12
 IDIUse=1 WtCom= 1.00D+00 WtEn= 0.00D+00
 Coeff-Com:  0.177D-03-0.140D-02-0.157D-02 0.154D-02 0.376D-01-0.797D-01
 Coeff-Com: -0.262D+00 0.131D+01
 Coeff:      0.177D-03-0.140D-02-0.157D-02 0.154D-02 0.376D-01-0.797D-01
 Coeff:     -0.262D+00 0.131D+01
 Gap=     0.359 Goal=   None    Shift=    0.000
 RMSDP=9.47D-09 MaxDP=2.78D-07 DE=-1.75D-11 OVMax= 7.92D-07

 SCF Done:  E(RHF) =  -994.523881865     A.U. after    8 cycles
            NFock=  8  Conv=0.95D-08     -V/T= 2.0002
 KE= 9.943647005185D+02 PE=-2.622051453307D+03 EE= 5.110200078467D+02
 Leave Link  502 at Thu Oct 21 23:18:27 2021, MaxMem= 16106127360 cpu:              30.3 elap:               1.5
 (Enter /sw/contrib/gaussian/g16/B01/g16/l801.exe)
 ExpMin= 2.53D-02 ExpMax= 4.56D+05 ExpMxC= 1.44D+03 IAcc=3 IRadAn=         5 AccDes= 0.00D+00
 HarFok:  IExCor=  205 AccDes= 0.00D+00 IRadAn=         5 IDoV=-2 UseB2=F ITyADJ=14
 ICtDFT= 12500011 ScaDFX=  1.000000  1.000000  1.000000  1.000000
 Largest valence mixing into a core orbital is  4.47D-04
 Largest core mixing into a valence orbital is  1.72D-04
 Range of M.O.s used for correlation:    12   169
 NBasis=   169 NAE=    22 NBE=    22 NFC=    11 NFV=     0
 NROrb=    158 NOA=    11 NOB=    11 NVA=   147 NVB=   147

 **** Warning!!: The largest alpha MO coefficient is  0.20680214D+02

 Leave Link  801 at Thu Oct 21 23:18:27 2021, MaxMem= 16106127360 cpu:               2.0 elap:               0.1
 (Enter /sw/contrib/gaussian/g16/B01/g16/l906.exe)
 Frozen-core derivative calculation, NFC=  11 NFV=   0.
 FulOut=F Deriv=T AODrv=T NAtomX=     4
   MMem=         143  MDisk=          11 MDiskD=          11
  W3Min=      736164 MinDsk=     1250177 NBas6D=         198
 NBas2D=       20187    NTT=       19701    LW2=     3500000
    MDV= 16105706297 MDiskM=      406659 NBas2p=       20117
 Fully direct method using O(ONN) memory.
 IMap=   1   2   3   4   5   6   7   8   9  10  11  12  13  14  15  16  17  18  19  20
 IMap=  21  22
 JobTyp=1 Pass  1:  I=  12 to  22 NPSUse= 28 ParTrn=T ParDer=T DoDerP=T.
 Spin components of T(2) and E(2):
[...]
           r2          -0.00000   0.02777
           r3          -0.00783   0.00307   0.46412
           a1          -0.00000   0.00000   0.00370   0.41000
           OOP         -0.00000   0.00000  -0.03495   0.00000   0.16000
 ITU=  0  0
     Eigenvalues ---    0.464121000.000001000.000001000.000001000.00000
 RFO step:  Lambda= 0.00000000D+00 EMin= 4.64120599D-01
 Quartic linear search produced a step of -0.00723.
 Variable       Old X    -DE/DX   Delta X   Delta X   Delta X     New X
                                 (Linear)    (Quad)   (Total)
    r1        3.17994   0.00742   0.00000   0.00000   0.00000   3.17994
    r2        5.48904   0.00397   0.00000   0.00000   0.00000   5.48904
    r3        1.84953   0.00000   0.00001   0.00000   0.00001   1.84954
    a1        1.80694   0.01159   0.00000   0.00000   0.00000   1.80694
   OOP        0.69813   0.03754   0.00000   0.00000   0.00000   0.69813
         Item               Value     Threshold  Converged?
 Maximum Force            0.000004     0.000450     YES
 RMS     Force            0.000004     0.000300     YES
 Maximum Displacement     0.000009     0.001800     YES
 RMS     Displacement     0.000004     0.001200     YES
 Predicted change in Energy=-1.935458D-11
 Optimization completed.
    -- Stationary point found.
                       ----------------------------
                       !   Optimized Parameters   !
                       ! (Angstroms and Degrees)  !
 ----------------------                            ----------------------
 !      Name          Value   Derivative information (Atomic Units)     !
 ------------------------------------------------------------------------
 !       r1          1.6827   -DE/DX =    0.0074                        !
 !       r2          2.9047   -DE/DX =    0.004                         !
 !       r3          0.9787   -DE/DX =    0.0                           !
 !       a1        103.5302   -DE/DX =    0.0116                        !
 !       OOP        40.0      -DE/DX =    0.0375                        !
 ------------------------------------------------------------------------
 Lowest energy point so far.  Saving SCF results.
 Summary of Optimized Potential Surface Scan (add -995.0 to energies):
                           1         2         3         4         5
     Eigenvalues --    -0.19213  -0.19211  -0.19207  -0.19199  -0.19188
           r1           1.68275   1.68275   1.68275   1.68275   1.68275
           r2           2.90468   2.90468   2.90468   2.90468   2.90468
           r3           1.02842   1.02842   1.02842   1.02842   1.02764
           a1         103.53016 103.53016 103.53016 103.53016 103.53016
           OOP         90.00000  89.00000  88.00000  87.00000  86.00000
                           6         7         8         9        10
     Eigenvalues --    -0.19175  -0.19158  -0.19139  -0.19117  -0.19092
           r1           1.68275   1.68275   1.68275   1.68275   1.68275
           r2           2.90468   2.90468   2.90468   2.90468   2.90468
           r3           1.02764   1.02665   1.02603   1.02532   1.02454
           a1         103.53016 103.53016 103.53016 103.53016 103.53016
           OOP         85.00000  84.00000  83.00000  82.00000  81.00000
                          11        12        13        14        15
     Eigenvalues --    -0.19064  -0.19034  -0.19001  -0.18965  -0.18927
           r1           1.68275   1.68275   1.68275   1.68275   1.68275
           r2           2.90468   2.90468   2.90468   2.90468   2.90468
           r3           1.02368   1.02274   1.02174   1.02068   1.01956
           a1         103.53016 103.53016 103.53016 103.53016 103.53016
           OOP         80.00000  79.00000  78.00000  77.00000  76.00000
                          16        17        18        19        20
     Eigenvalues --    -0.18887  -0.18844  -0.18800  -0.18753  -0.18704
           r1           1.68275   1.68275   1.68275   1.68275   1.68275
           r2           2.90468   2.90468   2.90468   2.90468   2.90468
           r3           1.01839   1.01718   1.01593   1.01464   1.01334
           a1         103.53016 103.53016 103.53016 103.53016 103.53016
           OOP         75.00000  74.00000  73.00000  72.00000  71.00000
                          21        22        23        24        25
     Eigenvalues --    -0.18653  -0.18601  -0.18547  -0.18491  -0.18434
           r1           1.68275   1.68275   1.68275   1.68275   1.68275
           r2           2.90468   2.90468   2.90468   2.90468   2.90468
           r3           1.01201   1.01066   1.00930   1.00794   1.00657
           a1         103.53016 103.53016 103.53016 103.53016 103.53016
           OOP         70.00000  69.00000  68.00000  67.00000  66.00000
                          26        27        28        29        30
     Eigenvalues --    -0.18375  -0.18316  -0.18255  -0.18193  -0.18130
           r1           1.68275   1.68275   1.68275   1.68275   1.68275
           r2           2.90468   2.90468   2.90468   2.90468   2.90468
           r3           1.00521   1.00385   1.00250   1.00117   0.99985
           a1         103.53016 103.53016 103.53016 103.53016 103.53016
           OOP         65.00000  64.00000  63.00000  62.00000  61.00000
                          31        32        33        34        35
     Eigenvalues --    -0.18066  -0.18002  -0.17936  -0.17871  -0.17804
           r1           1.68275   1.68275   1.68275   1.68275   1.68275
           r2           2.90468   2.90468   2.90468   2.90468   2.90468
           r3           0.99855   0.99727   0.99602   0.99479   0.99359
           a1         103.53016 103.53016 103.53016 103.53016 103.53016
           OOP         60.00000  59.00000  58.00000  57.00000  56.00000
                          36        37        38        39        40
     Eigenvalues --    -0.17738  -0.17671  -0.17603  -0.17536  -0.17468
           r1           1.68275   1.68275   1.68275   1.68275   1.68275
           r2           2.90468   2.90468   2.90468   2.90468   2.90468
           r3           0.99242   0.99128   0.99016   0.98908   0.98804
           a1         103.53016 103.53016 103.53016 103.53016 103.53016
           OOP         55.00000  54.00000  53.00000  52.00000  51.00000
                          41        42        43        44        45
     Eigenvalues --    -0.17400  -0.17333  -0.17265  -0.17197  -0.17130
           r1           1.68275   1.68275   1.68275   1.68275   1.68275
           r2           2.90468   2.90468   2.90468   2.90468   2.90468
           r3           0.98702   0.98604   0.98510   0.98418   0.98331
           a1         103.53016 103.53016 103.53016 103.53016 103.53016
           OOP         50.00000  49.00000  48.00000  47.00000  46.00000
                          46        47        48        49        50
     Eigenvalues --    -0.17063  -0.16996  -0.16929  -0.16863  -0.16796
           r1           1.68275   1.68275   1.68275   1.68275   1.68275
           r2           2.90468   2.90468   2.90468   2.90468   2.90468
           r3           0.98246   0.98165   0.98087   0.98012   0.97941
           a1         103.53016 103.53016 103.53016 103.53016 103.53016
           OOP         45.00000  44.00000  43.00000  42.00000  41.00000
                          51
     Eigenvalues --    -0.16731
           r1           1.68275
           r2           2.90468
           r3           0.97873
           a1         103.53016
           OOP         40.00000
 Largest change from initial coordinates is atom    3       0.711 Angstoms.
 GradGradGradGradGradGradGradGradGradGradGradGradGradGradGradGradGradGrad

 Leave Link  103 at Thu Oct 21 23:50:23 2021, MaxMem= 16106127360 cpu:               0.6 elap:               0.0
 (Enter /sw/contrib/gaussian/g16/B01/g16/l202.exe)
 ---------------------------------------------------------------------------------------------------
                            Z-MATRIX (ANGSTROMS AND DEGREES)
   CD    Cent   Atom    N1       Length/X        N2       Alpha/Y        N3        Beta/Z          J
 ---------------------------------------------------------------------------------------------------
      1      1  O 
      2         X        1  10.000000(     1)
      3      2  Cl       1   1.682749(     2)      2   90.000(     5)
      4      3  Cl       1   2.904676(     3)      2   90.000(     6)      3  103.530(     8)      0
      5      4  H        1   0.978728(     4)      2   40.000(     7)      3  103.530(     9)      0
 ---------------------------------------------------------------------------------------------------
                         Z-Matrix orientation:                         
 ---------------------------------------------------------------------
 Center     Atomic      Atomic             Coordinates (Angstroms)
 Number     Number       Type             X           Y           Z
 ---------------------------------------------------------------------
      1          8           0        0.000000    0.000000    0.000000
      2         -1           0        0.000000    0.000000   10.000000
      3         17           0        1.682749    0.000000    0.000000
      4         17           0       -0.679570   -2.824062    0.000000
      5          1           0       -0.147186   -0.611654    0.749749
 ---------------------------------------------------------------------
                    Distance matrix (angstroms):
                    1          2          3          4          5
     1  O    0.000000
     2  X   10.000000   0.000000
     3  Cl   1.682749  10.140594   0.000000
     4  Cl   2.904676  10.413316   3.681831   0.000000
     5  H    0.978728   9.271619   2.070002   2.395893   0.000000
 Stoichiometry    Cl2HO(1-)
 Framework group  C1[X(Cl2HO)]
 Deg. of freedom     6
 Full point group                 C1      NOp   1
 RotChk:  IX=2 Diff= 3.56D-16
 Largest Abelian subgroup         C1      NOp   1
 Largest concise Abelian subgroup C1      NOp   1
                         Standard orientation:                         
 ---------------------------------------------------------------------
 Center     Atomic      Atomic             Coordinates (Angstroms)
 Number     Number       Type             X           Y           Z
 ---------------------------------------------------------------------
      1          8           0       -0.674711    0.986519    0.070407
      2         17           0       -1.676109   -0.363948   -0.000910
      3         17           0        1.999268   -0.146241    0.008465
      4          1           0       -0.096015    0.781051   -0.691697
 ---------------------------------------------------------------------
 Rotational constants (GHZ):          22.8675613           2.0556708           1.8938133
 Leave Link  202 at Thu Oct 21 23:50:23 2021, MaxMem= 16106127360 cpu:               1.2 elap:               0.1
 (Enter /sw/contrib/gaussian/g16/B01/g16/l601.exe)
 Copying SCF densities to generalized density rwf, IOpCl= 0 IROHF=0.

 **********************************************************************

            Population analysis using the MP2 Density.

 **********************************************************************

 Orbital symmetries:
       Occupied  (A) (A) (A) (A) (A) (A) (A) (A) (A) (A) (A) (A)
                 (A) (A) (A) (A) (A) (A) (A) (A) (A) (A)
       Virtual   (A) (A) (A) (A) (A) (A) (A) (A) (A) (A) (A) (A)
                 (A) (A) (A) (A) (A) (A) (A) (A) (A) (A) (A) (A)
                 (A) (A) (A) (A) (A) (A) (A) (A) (A) (A) (A) (A)
                 (A) (A) (A) (A) (A) (A) (A) (A) (A) (A) (A) (A)
                 (A) (A) (A) (A) (A) (A) (A) (A) (A) (A) (A) (A)
                 (A) (A) (A) (A) (A) (A) (A) (A) (A) (A) (A) (A)
                 (A) (A) (A) (A) (A) (A) (A) (A) (A) (A) (A) (A)
                 (A) (A) (A) (A) (A) (A) (A) (A) (A) (A) (A) (A)
                 (A) (A) (A) (A) (A) (A) (A) (A) (A) (A) (A) (A)
                 (A) (A) (A) (A) (A) (A) (A) (A) (A) (A) (A) (A)
                 (A) (A) (A) (A) (A) (A) (A) (A) (A) (A) (A) (A)
                 (A) (A) (A) (A) (A) (A) (A) (A) (A) (A) (A) (A)
                 (A) (A) (A)
 The electronic state is 1-A.
 Alpha  occ. eigenvalues -- -104.73762-104.52256 -20.47757 -10.45735 -10.24702
 Alpha  occ. eigenvalues --   -7.92454  -7.92182  -7.92165  -7.71311  -7.71303
 Alpha  occ. eigenvalues --   -7.71301  -1.25015  -0.90374  -0.75604  -0.55634
 Alpha  occ. eigenvalues --   -0.45448  -0.44536  -0.31591  -0.28892  -0.17333
 Alpha  occ. eigenvalues --   -0.17017  -0.16821
 Alpha virt. eigenvalues --    0.15208   0.17925   0.22197   0.23203   0.26429
 Alpha virt. eigenvalues --    0.27565   0.27945   0.28875   0.29874   0.31773
 Alpha virt. eigenvalues --    0.32564   0.35244   0.40164   0.41537   0.45719
 Alpha virt. eigenvalues --    0.47628   0.52792   0.53838   0.55693   0.57158
 Alpha virt. eigenvalues --    0.58180   0.58710   0.61068   0.62230   0.64919
 Alpha virt. eigenvalues --    0.66279   0.66990   0.68170   0.75835   0.79958
 Alpha virt. eigenvalues --    0.84848   0.86930   0.88447   0.89690   0.90455
 Alpha virt. eigenvalues --    0.92568   0.95209   0.97226   1.02267   1.05382
 Alpha virt. eigenvalues --    1.07768   1.08590   1.10427   1.11887   1.12478
 Alpha virt. eigenvalues --    1.16360   1.19338   1.20127   1.20179   1.21834
 Alpha virt. eigenvalues --    1.22712   1.23152   1.25781   1.27249   1.28791
 Alpha virt. eigenvalues --    1.32146   1.33032   1.39048   1.40964   1.43860
 Alpha virt. eigenvalues --    1.44430   1.48191   1.49773   1.52210   1.54774
 Alpha virt. eigenvalues --    1.56297   1.64623   1.66853   1.69023   1.70548
 Alpha virt. eigenvalues --    1.75425   1.78568   1.82949   1.86641   1.95535
 Alpha virt. eigenvalues --    1.98462   2.11832   2.35043   2.42707   2.47938
 Alpha virt. eigenvalues --    2.49261   2.52977   2.59502   2.60777   2.64037
 Alpha virt. eigenvalues --    2.67595   2.69007   2.69895   2.71786   2.74378
 Alpha virt. eigenvalues --    2.77493   2.81100   2.82366   2.82520   2.88325
 Alpha virt. eigenvalues --    2.89784   2.92351   2.97873   2.98604   2.99891
 Alpha virt. eigenvalues --    3.00348   3.09771   3.15872   3.20166   3.21148
 Alpha virt. eigenvalues --    3.23043   3.25047   3.29345   3.31351   3.35868
 Alpha virt. eigenvalues --    3.35998   3.40210   3.42922   3.46514   3.48757
 Alpha virt. eigenvalues --    3.52251   3.56375   3.57749   3.63058   3.91487
 Alpha virt. eigenvalues --    4.02189   4.36989   4.47901   4.53969   4.63307
 Alpha virt. eigenvalues --    4.74043   4.91348   5.01895   5.37753   5.47025
 Alpha virt. eigenvalues --    5.68990   6.04705   6.39095   6.65416   6.85031
 Alpha virt. eigenvalues --    6.90603   6.92163   6.98527   7.34146   7.37148
 Alpha virt. eigenvalues --    7.38199   7.46073   7.48476   7.70516   7.71925
 Alpha virt. eigenvalues --    8.40713  14.66445
          Condensed to atoms (all electrons):
               1          2          3          4
     1  O    8.492467  -0.124257  -0.084595   0.089935
     2  Cl  -0.124257  17.051050  -0.000199   0.001276
     3  Cl  -0.084595  -0.000199  17.961986   0.058325
     4  H    0.089935   0.001276   0.058325   0.613527
 Mulliken charges:
               1
     1  O   -0.373549
     2  Cl   0.072129
     3  Cl  -0.935517
     4  H    0.236937
 Sum of Mulliken charges =  -1.00000
 Mulliken charges with hydrogens summed into heavy atoms:
               1
     1  O   -0.136612
     2  Cl   0.072129
     3  Cl  -0.935517
 Electronic spatial extent (au):  <R**2>=            564.4029
 Charge=             -1.0000 electrons
 Dipole moment (field-independent basis, Debye):
    X=             -7.0895    Y=              0.2843    Z=             -0.8371  Tot=              7.1444
 Quadrupole moment (field-independent basis, Debye-Ang):
   XX=            -57.5898   YY=            -37.0660   ZZ=            -35.7910
   XY=              2.8772   XZ=              0.1195   YZ=             -0.9295
 Traceless Quadrupole moment (field-independent basis, Debye-Ang):
   XX=            -14.1075   YY=              6.4162   ZZ=              7.6913
   XY=              2.8772   XZ=              0.1195   YZ=             -0.9295
 Octapole moment (field-independent basis, Debye-Ang**2):
  XXX=            -56.2713  YYY=              1.0877  ZZZ=              0.0271  XYY=             -8.2013
  XXY=              0.7358  XXZ=              1.9031  XZZ=             -7.7495  YZZ=              2.2022
  YYZ=             -0.4297  XYZ=             -0.2918
 Hexadecapole moment (field-independent basis, Debye-Ang**3):
 XXXX=           -783.1313 YYYY=            -99.5183 ZZZZ=            -52.6062 XXXY=             13.8513
 XXXZ=              1.3413 YYYX=              8.3056 YYYZ=             -0.3197 ZZZX=              0.4382
 ZZZY=             -0.6688 XXYY=           -130.7178 XXZZ=           -127.7578 YYZZ=            -25.0458
 XXYZ=              0.2404 YYXZ=              0.0035 ZZXY=              0.2538
 N-N= 1.215078844744D+02 E-N=-2.620792428020D+03  KE= 9.950507526144D+02
 No NMR shielding tensors so no spin-rotation constants.
 Leave Link  601 at Thu Oct 21 23:50:23 2021, MaxMem= 16106127360 cpu:               5.0 elap:               0.2
 (Enter /sw/contrib/gaussian/g16/B01/g16/l9999.exe)
 1\1\GINC-N2199\Scan\RMP2-FC\Aug-CC-pVTZ\Cl2H1O1(1-)\CGAVINH\21-Oct-202
 1\1\\#p opt=(z-matrix) mp2/aug-cc-pvtz density=current\\title\\-1,1\O\
 X,1,10.\Cl,1,r1,2,90.\Cl,1,r2,2,90.,3,a1,0\H,1,r3,2,OOP,3,a1,0\\r1=1.6
 8274942,s,-1000,0.\r2=2.9046761,s,-1000,0.\r3=0.97872805\a1=103.530156
 74,s,-1000,0.\OOP=40.,s,50,-1.\\Version=ES64L-G16RevB.01\State=1-A\HF=
 -994.5238819,-994.5238679,-994.5238259,-994.5237561,-994.523702,-994.5
 235771,-994.5234804,-994.523336,-994.5231708,-994.5229837,-994.5227761
 ,-994.522548,-994.5222997,-994.5220317,-994.5217444,-994.5214383,-994.
 5211139,-994.5207717,-994.5204123,-994.5200362,-994.519644,-994.519236
 5,-994.518814,-994.5183774,-994.5179273,-994.5174643,-994.516989,-994.
 5165022,-994.5160044,-994.5154964,-994.5149788,-994.5144522,-994.51391
 72,-994.5133745,-994.5128246,-994.5122681,-994.5117056,-994.5111377,-9
 94.5105648,-994.5099875,-994.5094062,-994.5088214,-994.5082335,-994.50
 7643,-994.5070502,-994.5064556,-994.5058594,-994.505262,-994.5046637,-
 994.5040648,-994.5034656\MP2=-995.1921257,-995.1921106,-995.1920652,-9
 95.1919895,-995.1918841,-995.1917488,-995.1915843,-995.1913908,-995.19
 11687,-995.1909187,-995.1906413,-995.1903372,-995.1900072,-995.1896519
 ,-995.1892722,-995.188869,-995.1884432,-995.1879956,-995.1875274,-995.
 1870394,-995.1865327,-995.1860083,-995.1854672,-995.1849105,-995.18433
 92,-995.1837543,-995.1831569,-995.182548,-995.1819285,-995.1812995,-99
 5.1806619,-995.1800167,-995.1793647,-995.1787068,-995.1780439,-995.177
 3767,-995.1767062,-995.1760329,-995.1753576,-995.1746811,-995.1740038,
 -995.1733265,-995.1726496,-995.1719738,-995.1712994,-995.1706269,-995.
 1699568,-995.1692895,-995.1686252,-995.1679643,-995.1673071\RMSD=9.469
 e-09,3.236e-09,3.245e-09,3.347e-09,5.000e-09,3.683e-09,6.393e-09,3.970
 e-09,4.611e-09,5.074e-09,5.637e-09,6.129e-09,6.594e-09,7.032e-09,7.439
 e-09,7.816e-09,8.161e-09,8.474e-09,8.755e-09,9.005e-09,9.222e-09,9.407
 e-09,9.561e-09,9.685e-09,9.780e-09,9.846e-09,9.885e-09,9.897e-09,9.886
 e-09,9.851e-09,9.795e-09,9.717e-09,9.621e-09,9.508e-09,9.378e-09,9.233
 e-09,9.075e-09,8.905e-09,8.723e-09,8.531e-09,8.329e-09,8.120e-09,7.903
 e-09,7.679e-09,7.449e-09,7.214e-09,6.974e-09,6.731e-09,6.485e-09,6.237
 e-09,5.988e-09\PG=C01 [X(Cl2H1O1)]\\@


 WHERE THERE IS MUCH DESIRE TO LEARN, THERE OF NECESSITY WILL BE
 MUCH ARGUING, MUCH WRITING, MANY OPINIONS; FOR OPINION IN GOOD MEN
 IS BUT KNOWLEDGE IN THE MAKING. -- JOHN MILTON.
 Job cpu time:       0 days 11 hours 32 minutes 22.1 seconds.
 Elapsed time:       0 days  0 hours 32 minutes 25.2 seconds.
 File lengths (MBytes):  RWF=     19 Int=      0 D2E=      0 Chk=      8 Scr=      1
 Normal termination of Gaussian 16 at Thu Oct 21 23:50:24 2021.
