 Entering Gaussian System, Link 0=g16
 Input=clhocl_25_sp.gjf
 Output=clhocl_25_sp.log
 Initial command:
 /sw/contrib/gaussian/g16/B01/g16/l1.exe "/scr/Gau-28081.inp" -scrdir="/scr/"
 Entering Link 1 = /sw/contrib/gaussian/g16/B01/g16/l1.exe PID=     28082.
  
 Copyright (c) 1988-2017, Gaussian, Inc.  All Rights Reserved.
  
 This is part of the Gaussian(R) 16 program.  It is based on
 the Gaussian(R) 09 system (copyright 2009, Gaussian, Inc.),
 the Gaussian(R) 03 system (copyright 2003, Gaussian, Inc.),
 the Gaussian(R) 98 system (copyright 1998, Gaussian, Inc.),
 the Gaussian(R) 94 system (copyright 1995, Gaussian, Inc.),
 the Gaussian 92(TM) system (copyright 1992, Gaussian, Inc.),
 the Gaussian 90(TM) system (copyright 1990, Gaussian, Inc.),
 the Gaussian 88(TM) system (copyright 1988, Gaussian, Inc.),
 the Gaussian 86(TM) system (copyright 1986, Carnegie Mellon
 University), and the Gaussian 82(TM) system (copyright 1983,
 Carnegie Mellon University). Gaussian is a federally registered
 trademark of Gaussian, Inc.
  
 This software contains proprietary and confidential information,
 including trade secrets, belonging to Gaussian, Inc.
  
 This software is provided under written license and may be
 used, copied, transmitted, or stored only in accord with that
 written license.
  
 The following legend is applicable only to US Government
 contracts under FAR:
  
                    RESTRICTED RIGHTS LEGEND
  
 Use, reproduction and disclosure by the US Government is
 subject to restrictions as set forth in subparagraphs (a)
 and (c) of the Commercial Computer Software - Restricted
 Rights clause in FAR 52.227-19.
  
 Gaussian, Inc.
 340 Quinnipiac St., Bldg. 40, Wallingford CT 06492
  
  
 ---------------------------------------------------------------
 Warning -- This program may not be used in any manner that
 competes with the business of Gaussian, Inc. or will provide
 assistance to any competitor of Gaussian, Inc.  The licensee
 of this program is prohibited from giving any competitor of
 Gaussian, Inc. access to this program.  By using this program,
 the user acknowledges that Gaussian, Inc. is engaged in the
 business of creating and licensing software in the field of
 computational chemistry and represents and warrants to the
 licensee that it is not a competitor of Gaussian, Inc. and that
 it will not use this program in any manner prohibited above.
 ---------------------------------------------------------------
  

 Cite this work as:
 Gaussian 16, Revision B.01,
 M. J. Frisch, G. W. Trucks, H. B. Schlegel, G. E. Scuseria, 
 M. A. Robb, J. R. Cheeseman, G. Scalmani, V. Barone, 
 G. A. Petersson, H. Nakatsuji, X. Li, M. Caricato, A. V. Marenich, 
 J. Bloino, B. G. Janesko, R. Gomperts, B. Mennucci, H. P. Hratchian, 
 J. V. Ortiz, A. F. Izmaylov, J. L. Sonnenberg, D. Williams-Young, 
 F. Ding, F. Lipparini, F. Egidi, J. Goings, B. Peng, A. Petrone, 
 T. Henderson, D. Ranasinghe, V. G. Zakrzewski, J. Gao, N. Rega, 
 G. Zheng, W. Liang, M. Hada, M. Ehara, K. Toyota, R. Fukuda, 
 J. Hasegawa, M. Ishida, T. Nakajima, Y. Honda, O. Kitao, H. Nakai, 
 T. Vreven, K. Throssell, J. A. Montgomery, Jr., J. E. Peralta, 
 F. Ogliaro, M. J. Bearpark, J. J. Heyd, E. N. Brothers, K. N. Kudin, 
 V. N. Staroverov, T. A. Keith, R. Kobayashi, J. Normand, 
 K. Raghavachari, A. P. Rendell, J. C. Burant, S. S. Iyengar, 
 J. Tomasi, M. Cossi, J. M. Millam, M. Klene, C. Adamo, R. Cammi, 
 J. W. Ochterski, R. L. Martin, K. Morokuma, O. Farkas, 
 J. B. Foresman, and D. J. Fox, Gaussian, Inc., Wallingford CT, 2016.
 
 ******************************************
 Gaussian 16:  ES64L-G16RevB.01 20-Dec-2017
                22-Sep-2021 
 ******************************************
 %nproc=28
 Will use up to   28 processors via shared memory.
 %mem=120GB
 %chk=/gscratch/ilahie/mccoygrp/coire_hocl/clhocl/clhocl_25_sp.chk
 ----------------------------------------------------
 #p pop=NBO SP NoSymm mp2/aug-cc-pvtz density=current
 ----------------------------------------------------
 1/30=1,38=1,172=1/1;
 2/12=2,15=1,17=6,18=5,40=1/2;
 3/5=16,6=1,7=10,11=9,25=1,30=1,71=1/1,2,3;
 4//1;
 5/5=2,38=5/2;
 8/6=4,10=1/1;
 9/15=1,16=-3/6;
 10/5=1,13=10,31=1/2;
 6/7=2,8=2,9=2,10=2,22=-1,40=1/1,7;
 99/5=1,9=1/99;
 Leave Link    1 at Wed Sep 22 16:31:55 2021, MaxMem= 16106127360 cpu:               0.9 elap:               0.0
 (Enter /sw/contrib/gaussian/g16/B01/g16/l101.exe)
 -----
 title
 -----
 Symbolic Z-matrix:
 Charge = -1 Multiplicity = 1
 O                     0.        0.        0. 
 Cl                    2.90468   0.        0. 
 Cl                   -0.39369   1.63605   0. 
 H                     0.91105   0.        0.42483 
 
 ITRead=  0  0  0  0
 MicOpt= -1 -1 -1 -1
 NAtoms=      4 NQM=        4 NQMF=       0 NMMI=      0 NMMIF=      0
                NMic=       0 NMicF=      0.
                    Isotopes and Nuclear Properties:
 (Nuclear quadrupole moments (NQMom) in fm**2, nuclear magnetic moments (NMagM)
  in nuclear magnetons)

  Atom         1           2           3           4
 IAtWgt=          16          35          35           1
 AtmWgt=  15.9949146  34.9688527  34.9688527   1.0078250
 NucSpn=           0           3           3           1
 AtZEff=  -0.0000000  -0.0000000  -0.0000000  -0.0000000
 NQMom=    0.0000000  -8.1650000  -8.1650000   0.0000000
 NMagM=    0.0000000   0.8218740   0.8218740   2.7928460
 AtZNuc=   8.0000000  17.0000000  17.0000000   1.0000000
 Leave Link  101 at Wed Sep 22 16:31:55 2021, MaxMem= 16106127360 cpu:               2.9 elap:               0.1
 (Enter /sw/contrib/gaussian/g16/B01/g16/l202.exe)
                          Input orientation:                          
 ---------------------------------------------------------------------
 Center     Atomic      Atomic             Coordinates (Angstroms)
 Number     Number       Type             X           Y           Z
 ---------------------------------------------------------------------
      1          8           0        0.000000    0.000000    0.000000
      2         17           0        2.904676    0.000000    0.000000
      3         17           0       -0.393687    1.636049    0.000000
      4          1           0        0.911048    0.000000    0.424829
 ---------------------------------------------------------------------
                    Distance matrix (angstroms):
                    1          2          3          4
     1  O    0.000000
     2  Cl   2.904676   0.000000
     3  Cl   1.682749   3.681827   0.000000
     4  H    1.005230   2.038390   2.135291   0.000000
 Symmetry turned off by external request.
 Stoichiometry    Cl2HO(1-)
 Framework group  C1[X(Cl2HO)]
 Deg. of freedom     6
 Full point group                 C1      NOp   1
 Rotational constants (GHZ):          23.4369362           2.0586290           1.8949054
 Leave Link  202 at Wed Sep 22 16:31:55 2021, MaxMem= 16106127360 cpu:               0.7 elap:               0.1
 (Enter /sw/contrib/gaussian/g16/B01/g16/l301.exe)
 Standard basis: Aug-CC-pVTZ (5D, 7F)
 Ernie: Thresh=  0.10000D-02 Tol=  0.10000D-05 Strict=F.
 Ernie:  29 primitive shells out of 169 were deleted.
   169 basis functions,   327 primitive gaussians,   198 cartesian basis functions
    22 alpha electrons       22 beta electrons
       nuclear repulsion energy       121.9195548219 Hartrees.
 IExCor=    0 DFT=F Ex=HF Corr=None ExCW=0 ScaHFX=  1.000000
 ScaDFX=  1.000000  1.000000  1.000000  1.000000 ScalE2=  1.000000  1.000000
 IRadAn=      5 IRanWt=     -1 IRanGd=            0 ICorTp=0 IEmpDi=  4
 NAtoms=    4 NActive=    4 NUniq=    4 SFac= 1.00D+00 NAtFMM=   60 NAOKFM=F Big=F
 Integral buffers will be    131072 words long.
 Raffenetti 1 integral format.
 Two-electron integral symmetry is turned off.
 Leave Link  301 at Wed Sep 22 16:31:55 2021, MaxMem= 16106127360 cpu:               1.3 elap:               0.1
 (Enter /sw/contrib/gaussian/g16/B01/g16/l302.exe)
 NPDir=0 NMtPBC=     1 NCelOv=     1 NCel=       1 NClECP=     1 NCelD=      1
         NCelK=      1 NCelE2=     1 NClLst=     1 CellRange=     0.0.
 One-electron integrals computed using PRISM.
 NBasis=   169 RedAO= T EigKep=  2.72D-04  NBF=   169
 NBsUse=   169 1.00D-06 EigRej= -1.00D+00 NBFU=   169
 Leave Link  302 at Wed Sep 22 16:31:55 2021, MaxMem= 16106127360 cpu:               4.5 elap:               0.2
 (Enter /sw/contrib/gaussian/g16/B01/g16/l303.exe)
 DipDrv:  MaxL=1.
 Leave Link  303 at Wed Sep 22 16:31:55 2021, MaxMem= 16106127360 cpu:               1.5 elap:               0.1
 (Enter /sw/contrib/gaussian/g16/B01/g16/l401.exe)
 ExpMin= 2.53D-02 ExpMax= 4.56D+05 ExpMxC= 1.44D+03 IAcc=3 IRadAn=         5 AccDes= 0.00D+00
 Harris functional with IExCor=  205 and IRadAn=       5 diagonalized for initial guess.
 HarFok:  IExCor=  205 AccDes= 0.00D+00 IRadAn=         5 IDoV= 1 UseB2=F ITyADJ=14
 ICtDFT=  3500011 ScaDFX=  1.000000  1.000000  1.000000  1.000000
 FoFCou: FMM=F IPFlag=           0 FMFlag=      100000 FMFlg1=           0
         NFxFlg=           0 DoJE=T BraDBF=F KetDBF=T FulRan=T
         wScrn=  0.000000 ICntrl=       500 IOpCl=  0 I1Cent=   200000004 NGrid=           0
         NMat0=    1 NMatS0=      1 NMatT0=    0 NMatD0=    1 NMtDS0=    0 NMtDT0=    0
 Symmetry not used in FoFCou.
 Harris En= -993.817114733623    
 JPrj=0 DoOrth=F DoCkMO=F.
 Leave Link  401 at Wed Sep 22 16:31:56 2021, MaxMem= 16106127360 cpu:               6.7 elap:               0.3
 (Enter /sw/contrib/gaussian/g16/B01/g16/l502.exe)
 Keep R1 ints in memory in canonical form, NReq=117119041.
 FoFCou: FMM=F IPFlag=           0 FMFlag=           0 FMFlg1=           0
         NFxFlg=           0 DoJE=F BraDBF=F KetDBF=F FulRan=T
         wScrn=  0.000000 ICntrl=       600 IOpCl=  0 I1Cent=           0 NGrid=           0
         NMat0=    1 NMatS0=  14365 NMatT0=    0 NMatD0=    1 NMtDS0=    0 NMtDT0=    0
 Symmetry not used in FoFCou.
 Two-electron integral symmetry not used.
 Closed shell SCF:
 Using DIIS extrapolation, IDIIS=  1040.
 NGot= 16106127360 LenX= 16002858349 LenY= 16002818704
 Requested convergence on RMS density matrix=1.00D-08 within 128 cycles.
 Requested convergence on MAX density matrix=1.00D-06.
 Requested convergence on             energy=1.00D-06.
 No special actions if energy rises.

 Cycle   1  Pass 1  IDiag  1:
 E= -994.388523123605    
 DIIS: error= 2.50D-02 at cycle   1 NSaved=   1.
 NSaved= 1 IEnMin= 1 EnMin= -994.388523123605     IErMin= 1 ErrMin= 2.50D-02
 ErrMax= 2.50D-02  0.00D+00 EMaxC= 1.00D-01 BMatC= 4.22D-01 BMatP= 4.22D-01
 IDIUse=3 WtCom= 7.50D-01 WtEn= 2.50D-01
 Coeff-Com:  0.100D+01
 Coeff-En:   0.100D+01
 Coeff:      0.100D+01
 Gap=     0.550 Goal=   None    Shift=    0.000
 GapD=    0.550 DampG=2.000 DampE=0.500 DampFc=1.0000 IDamp=-1.
 RMSDP=2.13D-03 MaxDP=7.08D-02              OVMax= 1.21D-01

 Cycle   2  Pass 1  IDiag  1:
 E= -994.483267312466     Delta-E=       -0.094744188861 Rises=F Damp=F
 DIIS: error= 1.71D-02 at cycle   2 NSaved=   2.
 NSaved= 2 IEnMin= 2 EnMin= -994.483267312466     IErMin= 2 ErrMin= 1.71D-02
 ErrMax= 1.71D-02  0.00D+00 EMaxC= 1.00D-01 BMatC= 4.87D-02 BMatP= 4.22D-01
 IDIUse=3 WtCom= 8.29D-01 WtEn= 1.71D-01
 Coeff-Com:  0.166D+00 0.834D+00
 Coeff-En:   0.000D+00 0.100D+01
 Coeff:      0.138D+00 0.862D+00
 Gap=     0.365 Goal=   None    Shift=    0.000
 RMSDP=9.76D-04 MaxDP=3.94D-02 DE=-9.47D-02 OVMax= 7.82D-02

 Cycle   3  Pass 1  IDiag  1:
 E= -994.507801168193     Delta-E=       -0.024533855727 Rises=F Damp=F
 DIIS: error= 7.70D-03 at cycle   3 NSaved=   3.
 NSaved= 3 IEnMin= 3 EnMin= -994.507801168193     IErMin= 3 ErrMin= 7.70D-03
 ErrMax= 7.70D-03  0.00D+00 EMaxC= 1.00D-01 BMatC= 1.38D-02 BMatP= 4.87D-02
 IDIUse=3 WtCom= 9.23D-01 WtEn= 7.70D-02
 Coeff-Com: -0.151D-01 0.338D+00 0.678D+00
 Coeff-En:   0.000D+00 0.121D+00 0.879D+00
 Coeff:     -0.140D-01 0.321D+00 0.693D+00
 Gap=     0.350 Goal=   None    Shift=    0.000
 RMSDP=3.56D-04 MaxDP=1.37D-02 DE=-2.45D-02 OVMax= 3.52D-02

 Cycle   4  Pass 1  IDiag  1:
 E= -994.517238127932     Delta-E=       -0.009436959739 Rises=F Damp=F
 DIIS: error= 1.14D-03 at cycle   4 NSaved=   4.
 NSaved= 4 IEnMin= 4 EnMin= -994.517238127932     IErMin= 4 ErrMin= 1.14D-03
 ErrMax= 1.14D-03  0.00D+00 EMaxC= 1.00D-01 BMatC= 1.70D-04 BMatP= 1.38D-02
 IDIUse=3 WtCom= 9.89D-01 WtEn= 1.14D-02
 Coeff-Com: -0.421D-02 0.249D-01 0.114D+00 0.865D+00
 Coeff-En:   0.000D+00 0.000D+00 0.000D+00 0.100D+01
 Coeff:     -0.416D-02 0.246D-01 0.113D+00 0.867D+00
 Gap=     0.343 Goal=   None    Shift=    0.000
 RMSDP=5.49D-05 MaxDP=1.43D-03 DE=-9.44D-03 OVMax= 2.97D-03

 Cycle   5  Pass 1  IDiag  1:
 E= -994.517416345301     Delta-E=       -0.000178217369 Rises=F Damp=F
 DIIS: error= 2.23D-04 at cycle   5 NSaved=   5.
 NSaved= 5 IEnMin= 5 EnMin= -994.517416345301     IErMin= 5 ErrMin= 2.23D-04
 ErrMax= 2.23D-04  0.00D+00 EMaxC= 1.00D-01 BMatC= 1.55D-05 BMatP= 1.70D-04
 IDIUse=3 WtCom= 9.98D-01 WtEn= 2.23D-03
 Coeff-Com:  0.982D-03-0.391D-01-0.707D-01 0.792D-02 0.110D+01
 Coeff-En:   0.000D+00 0.000D+00 0.000D+00 0.000D+00 0.100D+01
 Coeff:      0.980D-03-0.390D-01-0.705D-01 0.791D-02 0.110D+01
 Gap=     0.345 Goal=   None    Shift=    0.000
 RMSDP=3.24D-05 MaxDP=1.15D-03 DE=-1.78D-04 OVMax= 3.07D-03

 Cycle   6  Pass 1  IDiag  1:
 E= -994.517455385497     Delta-E=       -0.000039040196 Rises=F Damp=F
 DIIS: error= 1.15D-04 at cycle   6 NSaved=   6.
 NSaved= 6 IEnMin= 6 EnMin= -994.517455385497     IErMin= 6 ErrMin= 1.15D-04
 ErrMax= 1.15D-04  0.00D+00 EMaxC= 1.00D-01 BMatC= 1.97D-06 BMatP= 1.55D-05
 IDIUse=3 WtCom= 9.99D-01 WtEn= 1.15D-03
 Coeff-Com:  0.254D-03 0.839D-02 0.158D-01-0.730D-01-0.411D+00 0.146D+01
 Coeff-En:   0.000D+00 0.000D+00 0.000D+00 0.000D+00 0.000D+00 0.100D+01
 Coeff:      0.254D-03 0.838D-02 0.158D-01-0.729D-01-0.410D+00 0.146D+01
 Gap=     0.345 Goal=   None    Shift=    0.000
 RMSDP=1.64D-05 MaxDP=5.89D-04 DE=-3.90D-05 OVMax= 1.58D-03

 Cycle   7  Pass 1  IDiag  1:
 E= -994.517462402665     Delta-E=       -0.000007017168 Rises=F Damp=F
 DIIS: error= 2.78D-05 at cycle   7 NSaved=   7.
 NSaved= 7 IEnMin= 7 EnMin= -994.517462402665     IErMin= 7 ErrMin= 2.78D-05
 ErrMax= 2.78D-05  0.00D+00 EMaxC= 1.00D-01 BMatC= 1.22D-07 BMatP= 1.97D-06
 IDIUse=1 WtCom= 1.00D+00 WtEn= 0.00D+00
 Coeff-Com: -0.173D-03-0.786D-03-0.894D-03 0.279D-01 0.885D-01-0.607D+00
 Coeff-Com:  0.149D+01
 Coeff:     -0.173D-03-0.786D-03-0.894D-03 0.279D-01 0.885D-01-0.607D+00
 Coeff:      0.149D+01
 Gap=     0.345 Goal=   None    Shift=    0.000
 RMSDP=5.08D-06 MaxDP=1.80D-04 DE=-7.02D-06 OVMax= 4.87D-04

 Cycle   8  Pass 1  IDiag  1:
 E= -994.517462959674     Delta-E=       -0.000000557009 Rises=F Damp=F
 DIIS: error= 5.94D-06 at cycle   8 NSaved=   8.
 NSaved= 8 IEnMin= 8 EnMin= -994.517462959674     IErMin= 8 ErrMin= 5.94D-06
 ErrMax= 5.94D-06  0.00D+00 EMaxC= 1.00D-01 BMatC= 8.32D-09 BMatP= 1.22D-07
 IDIUse=1 WtCom= 1.00D+00 WtEn= 0.00D+00
 Coeff-Com:  0.144D-04-0.626D-03-0.100D-02 0.784D-03 0.156D-01-0.999D-02
 Coeff-Com: -0.217D+00 0.121D+01
 Coeff:      0.144D-04-0.626D-03-0.100D-02 0.784D-03 0.156D-01-0.999D-02
 Coeff:     -0.217D+00 0.121D+01
 Gap=     0.345 Goal=   None    Shift=    0.000
 RMSDP=1.13D-06 MaxDP=2.43D-05 DE=-5.57D-07 OVMax= 1.27D-04

 Cycle   9  Pass 1  IDiag  1:
 E= -994.517462991387     Delta-E=       -0.000000031713 Rises=F Damp=F
 DIIS: error= 2.76D-06 at cycle   9 NSaved=   9.
 NSaved= 9 IEnMin= 9 EnMin= -994.517462991387     IErMin= 9 ErrMin= 2.76D-06
 ErrMax= 2.76D-06  0.00D+00 EMaxC= 1.00D-01 BMatC= 1.15D-09 BMatP= 8.32D-09
 IDIUse=1 WtCom= 1.00D+00 WtEn= 0.00D+00
 Coeff-Com:  0.153D-04 0.234D-03 0.386D-03-0.346D-02-0.149D-01 0.769D-01
 Coeff-Com: -0.129D+00-0.272D+00 0.134D+01
 Coeff:      0.153D-04 0.234D-03 0.386D-03-0.346D-02-0.149D-01 0.769D-01
 Coeff:     -0.129D+00-0.272D+00 0.134D+01
 Gap=     0.345 Goal=   None    Shift=    0.000
 RMSDP=5.33D-07 MaxDP=1.15D-05 DE=-3.17D-08 OVMax= 6.27D-05

 Cycle  10  Pass 1  IDiag  1:
 E= -994.517462997105     Delta-E=       -0.000000005718 Rises=F Damp=F
 DIIS: error= 1.37D-06 at cycle  10 NSaved=  10.
 NSaved=10 IEnMin=10 EnMin= -994.517462997105     IErMin=10 ErrMin= 1.37D-06
 ErrMax= 1.37D-06  0.00D+00 EMaxC= 1.00D-01 BMatC= 1.78D-10 BMatP= 1.15D-09
 IDIUse=1 WtCom= 1.00D+00 WtEn= 0.00D+00
 Coeff-Com: -0.286D-05 0.275D-04-0.479D-05 0.602D-03 0.145D-02-0.146D-01
 Coeff-Com:  0.567D-01-0.146D+00-0.194D+00 0.130D+01
 Coeff:     -0.286D-05 0.275D-04-0.479D-05 0.602D-03 0.145D-02-0.146D-01
 Coeff:      0.567D-01-0.146D+00-0.194D+00 0.130D+01
 Gap=     0.345 Goal=   None    Shift=    0.000
 RMSDP=2.26D-07 MaxDP=5.32D-06 DE=-5.72D-09 OVMax= 2.64D-05

 Cycle  11  Pass 1  IDiag  1:
 E= -994.517462997958     Delta-E=       -0.000000000853 Rises=F Damp=F
 DIIS: error= 4.22D-07 at cycle  11 NSaved=  11.
 NSaved=11 IEnMin=11 EnMin= -994.517462997958     IErMin=11 ErrMin= 4.22D-07
 ErrMax= 4.22D-07  0.00D+00 EMaxC= 1.00D-01 BMatC= 1.51D-11 BMatP= 1.78D-10
 IDIUse=1 WtCom= 1.00D+00 WtEn= 0.00D+00
 Coeff-Com: -0.279D-05-0.200D-04-0.224D-04 0.410D-03 0.140D-02-0.797D-02
 Coeff-Com:  0.120D-01 0.426D-01-0.126D+00-0.212D+00 0.129D+01
 Coeff:     -0.279D-05-0.200D-04-0.224D-04 0.410D-03 0.140D-02-0.797D-02
 Coeff:      0.120D-01 0.426D-01-0.126D+00-0.212D+00 0.129D+01
 Gap=     0.345 Goal=   None    Shift=    0.000
 RMSDP=7.31D-08 MaxDP=1.85D-06 DE=-8.53D-10 OVMax= 7.99D-06

 Cycle  12  Pass 1  IDiag  1:
 E= -994.517462998034     Delta-E=       -0.000000000076 Rises=F Damp=F
 DIIS: error= 9.06D-08 at cycle  12 NSaved=  12.
 NSaved=12 IEnMin=12 EnMin= -994.517462998034     IErMin=12 ErrMin= 9.06D-08
 ErrMax= 9.06D-08  0.00D+00 EMaxC= 1.00D-01 BMatC= 8.72D-13 BMatP= 1.51D-11
 IDIUse=1 WtCom= 1.00D+00 WtEn= 0.00D+00
 Coeff-Com:  0.722D-06-0.571D-06-0.280D-06-0.979D-04-0.264D-03 0.200D-02
 Coeff-Com: -0.514D-02 0.144D-02 0.334D-01-0.485D-01-0.193D+00 0.121D+01
 Coeff:      0.722D-06-0.571D-06-0.280D-06-0.979D-04-0.264D-03 0.200D-02
 Coeff:     -0.514D-02 0.144D-02 0.334D-01-0.485D-01-0.193D+00 0.121D+01
 Gap=     0.345 Goal=   None    Shift=    0.000
 RMSDP=1.43D-08 MaxDP=3.12D-07 DE=-7.59D-11 OVMax= 1.19D-06

 Cycle  13  Pass 1  IDiag  1:
 E= -994.517462998036     Delta-E=       -0.000000000002 Rises=F Damp=F
 DIIS: error= 2.13D-08 at cycle  13 NSaved=  13.
 NSaved=13 IEnMin=13 EnMin= -994.517462998036     IErMin=13 ErrMin= 2.13D-08
 ErrMax= 2.13D-08  0.00D+00 EMaxC= 1.00D-01 BMatC= 1.28D-13 BMatP= 8.72D-13
 IDIUse=1 WtCom= 1.00D+00 WtEn= 0.00D+00
 Coeff-Com:  0.182D-06 0.233D-05 0.233D-05-0.291D-04-0.115D-03 0.576D-03
 Coeff-Com: -0.511D-03-0.523D-02 0.107D-01 0.283D-01-0.131D+00-0.808D-01
 Coeff-Com:  0.118D+01
 Coeff:      0.182D-06 0.233D-05 0.233D-05-0.291D-04-0.115D-03 0.576D-03
 Coeff:     -0.511D-03-0.523D-02 0.107D-01 0.283D-01-0.131D+00-0.808D-01
 Coeff:      0.118D+01
 Gap=     0.345 Goal=   None    Shift=    0.000
 RMSDP=5.05D-09 MaxDP=1.01D-07 DE=-2.27D-12 OVMax= 3.74D-07

 SCF Done:  E(RHF) =  -994.517462998     A.U. after   13 cycles
            NFock= 13  Conv=0.51D-08     -V/T= 2.0001
 KE= 9.943693394454D+02 PE=-2.621574274931D+03 EE= 5.107679176653D+02
 Leave Link  502 at Wed Sep 22 16:31:59 2021, MaxMem= 16106127360 cpu:              23.9 elap:               3.1
 (Enter /sw/contrib/gaussian/g16/B01/g16/l801.exe)
 ExpMin= 2.53D-02 ExpMax= 4.56D+05 ExpMxC= 1.44D+03 IAcc=3 IRadAn=         5 AccDes= 0.00D+00
 HarFok:  IExCor=  205 AccDes= 0.00D+00 IRadAn=         5 IDoV=-2 UseB2=F ITyADJ=14
 ICtDFT= 12500011 ScaDFX=  1.000000  1.000000  1.000000  1.000000
 Largest valence mixing into a core orbital is  4.47D-04
 Largest core mixing into a valence orbital is  1.74D-04
 Range of M.O.s used for correlation:    12   169
 NBasis=   169 NAE=    22 NBE=    22 NFC=    11 NFV=     0
 NROrb=    158 NOA=    11 NOB=    11 NVA=   147 NVB=   147

 **** Warning!!: The largest alpha MO coefficient is  0.11753607D+02

 Leave Link  801 at Wed Sep 22 16:31:59 2021, MaxMem= 16106127360 cpu:               1.9 elap:               0.1
 (Enter /sw/contrib/gaussian/g16/B01/g16/l906.exe)
 Frozen-core derivative calculation, NFC=  11 NFV=   0.
 FulOut=F Deriv=T AODrv=F NAtomX=     4
   MMem=         144  MDisk=          11 MDiskD=          11
  W3Min=      736164 MinDsk=     1250177 NBas6D=         198
 NBas2D=       20187    NTT=       19701    LW2=     3500000
    MDV= 16105751228 MDiskM=      406660 NBas2p=       19980
 Fully in-core method, ICMem=   420417501.
 IMap=   1   2   3   4   5   6   7   8   9  10  11  12  13  14  15  16  17  18  19  20
 IMap=  21  22
 JobTyp=1 Pass  1 fully in-core, NPsUse= 28.
 Compute canonical integrals.
 FoFCou: FMM=F IPFlag=           0 FMFlag=           0 FMFlg1=           0
         NFxFlg=           0 DoJE=F BraDBF=F KetDBF=F FulRan=T
         wScrn=  0.000000 ICntrl=       600 IOpCl=  1 I1Cent=           0 NGrid=           0
         NMat0=    1 NMatS0=  20187 NMatT0=    0 NMatD0=    1 NMtDS0=    0 NMtDT0=    0
 Symmetry not used in FoFCou.
 Spin components of T(2) and E(2):
     alpha-alpha T2 =       0.2924508477D-01 E2=     -0.8400316634D-01
     alpha-beta  T2 =       0.1595288732D+00 E2=     -0.4982849666D+00
     beta-beta   T2 =       0.2924508477D-01 E2=     -0.8400316634D-01
 The integrals were generated   1 times.
 ANorm=    0.1103639000D+01
 E2 =    -0.6662912993D+00 EUMP2 =    -0.99518375429733D+03
 Leave Link  906 at Wed Sep 22 16:32:03 2021, MaxMem= 16106127360 cpu:             120.2 elap:               4.3
 (Enter /sw/contrib/gaussian/g16/B01/g16/l1002.exe)
 Minotr:  Closed shell wavefunction.
          Computing MP2/KS-MP2 derivatives.
          Using Z-Vector for PSCF gradient.
          Skipping F1 and S1 gradient terms here.
          Frozen-core window.
          Direct CPHF calculation.
          Differentiating once with respect to electric field.
                with respect to dipole field.
          Electric field/nuclear overlap derivatives assumed to be zero.
          Requested convergence is 1.0D-10 RMS, and 1.0D-09 maximum.
          NewPWx=F KeepS1=T KeepF1=T KeepIn=T MapXYZ=F SortEE=F KeepMc=T.
 Keep R1 ints in memory in canonical form, NReq=117123373.
 FoFCou: FMM=F IPFlag=           0 FMFlag=           0 FMFlg1=           0
         NFxFlg=           0 DoJE=F BraDBF=F KetDBF=F FulRan=T
         wScrn=  0.000000 ICntrl=       600 IOpCl=  0 I1Cent=           0 NGrid=           0
         NMat0=    1 NMatS0=  14365 NMatT0=    0 NMatD0=    1 NMtDS0=    0 NMtDT0=    0
 Symmetry not used in FoFCou.
 Two-electron integral symmetry not used.
          MDV=   16106127360 using IRadAn=       5.
          Solving linear equations separately, MaxMat=       0.
          There are     1 degrees of freedom in the 1st order CPHF.  IDoFFX=0 NUNeed=     1.
 LinEq1:  Iter=  0 NonCon=     1 RMS=3.09D-03 Max=3.76D-02 NDo=     1
 AX will form     1 AO Fock derivatives at one time.
 LinEq1:  Iter=  1 NonCon=     1 RMS=3.88D-04 Max=4.84D-03 NDo=     1
 LinEq1:  Iter=  2 NonCon=     1 RMS=1.60D-04 Max=2.83D-03 NDo=     1
 LinEq1:  Iter=  3 NonCon=     1 RMS=6.23D-05 Max=9.63D-04 NDo=     1
 LinEq1:  Iter=  4 NonCon=     1 RMS=2.67D-05 Max=6.01D-04 NDo=     1
 LinEq1:  Iter=  5 NonCon=     1 RMS=6.92D-06 Max=1.45D-04 NDo=     1
 LinEq1:  Iter=  6 NonCon=     1 RMS=2.27D-06 Max=4.55D-05 NDo=     1
 LinEq1:  Iter=  7 NonCon=     1 RMS=6.81D-07 Max=1.13D-05 NDo=     1
 LinEq1:  Iter=  8 NonCon=     1 RMS=1.33D-07 Max=1.20D-06 NDo=     1
 LinEq1:  Iter=  9 NonCon=     1 RMS=2.96D-08 Max=3.43D-07 NDo=     1
 LinEq1:  Iter= 10 NonCon=     1 RMS=7.67D-09 Max=1.10D-07 NDo=     1
 LinEq1:  Iter= 11 NonCon=     1 RMS=1.94D-09 Max=4.02D-08 NDo=     1
 LinEq1:  Iter= 12 NonCon=     1 RMS=5.06D-10 Max=1.03D-08 NDo=     1
 LinEq1:  Iter= 13 NonCon=     1 RMS=1.46D-10 Max=1.84D-09 NDo=     1
 LinEq1:  Iter= 14 NonCon=     0 RMS=4.33D-11 Max=4.69D-10 NDo=     1
 Linear equations converged to 1.000D-10 1.000D-09 after    14 iterations.
 End of Minotr F.D. properties file   721 does not exist.
 End of Minotr F.D. properties file   722 does not exist.
 End of Minotr F.D. properties file   788 does not exist.
 Leave Link 1002 at Wed Sep 22 16:32:07 2021, MaxMem= 16106127360 cpu:              27.9 elap:               3.6
 (Enter /sw/contrib/gaussian/g16/B01/g16/l601.exe)
 Copying SCF densities to generalized density rwf, IOpCl= 0 IROHF=0.

 **********************************************************************

            Population analysis using the MP2 Density.

 **********************************************************************

 Alpha  occ. eigenvalues -- -104.72868-104.53947 -20.46009 -10.44826 -10.26418
 Alpha  occ. eigenvalues --   -7.91544  -7.91280  -7.91267  -7.73031  -7.73017
 Alpha  occ. eigenvalues --   -7.73017  -1.22910  -0.89326  -0.77651  -0.53871
 Alpha  occ. eigenvalues --   -0.44080  -0.43228  -0.30586  -0.27848  -0.19378
 Alpha  occ. eigenvalues --   -0.18725  -0.18629
 Alpha virt. eigenvalues --    0.15877   0.18385   0.22518   0.23293   0.26035
 Alpha virt. eigenvalues --    0.27395   0.27961   0.29157   0.30783   0.31741
 Alpha virt. eigenvalues --    0.34031   0.34694   0.40510   0.42480   0.46409
 Alpha virt. eigenvalues --    0.49729   0.52361   0.54323   0.55683   0.58025
 Alpha virt. eigenvalues --    0.58801   0.60612   0.61386   0.63736   0.66014
 Alpha virt. eigenvalues --    0.66825   0.67449   0.71298   0.76766   0.79124
 Alpha virt. eigenvalues --    0.85158   0.86076   0.89127   0.89931   0.90809
 Alpha virt. eigenvalues --    0.91892   0.96577   0.99270   1.00387   1.07061
 Alpha virt. eigenvalues --    1.07932   1.09459   1.09997   1.11455   1.13679
 Alpha virt. eigenvalues --    1.15204   1.19124   1.19426   1.20097   1.21467
 Alpha virt. eigenvalues --    1.22283   1.25063   1.27214   1.29216   1.32411
 Alpha virt. eigenvalues --    1.35470   1.39502   1.42688   1.43014   1.44126
 Alpha virt. eigenvalues --    1.46220   1.48901   1.51955   1.57230   1.62622
 Alpha virt. eigenvalues --    1.64160   1.65844   1.69284   1.71548   1.74763
 Alpha virt. eigenvalues --    1.80591   1.84392   1.86117   1.89985   1.93995
 Alpha virt. eigenvalues --    1.97873   2.20932   2.41641   2.43023   2.51735
 Alpha virt. eigenvalues --    2.52218   2.54975   2.60824   2.63696   2.65152
 Alpha virt. eigenvalues --    2.68413   2.70740   2.71731   2.72660   2.75371
 Alpha virt. eigenvalues --    2.77882   2.79440   2.80869   2.82517   2.90121
 Alpha virt. eigenvalues --    2.92160   2.92798   2.96134   3.03388   3.04257
 Alpha virt. eigenvalues --    3.09569   3.10890   3.19122   3.21319   3.22421
 Alpha virt. eigenvalues --    3.25343   3.29898   3.32169   3.34167   3.34818
 Alpha virt. eigenvalues --    3.37319   3.39410   3.42509   3.49366   3.50862
 Alpha virt. eigenvalues --    3.53283   3.57156   3.59366   3.63782   3.92101
 Alpha virt. eigenvalues --    4.23464   4.34884   4.49444   4.56803   4.60233
 Alpha virt. eigenvalues --    4.74900   4.98505   5.06239   5.35088   5.46041
 Alpha virt. eigenvalues --    5.67744   6.22342   6.47767   6.63528   6.88953
 Alpha virt. eigenvalues --    6.90766   6.92777   6.99915   7.33622   7.34407
 Alpha virt. eigenvalues --    7.35976   7.44928   7.54550   7.76778   7.77503
 Alpha virt. eigenvalues --    8.36446  14.41504
          Condensed to atoms (all electrons):
               1          2          3          4
     1  O    8.588105  -0.086906  -0.117941   0.059046
     2  Cl  -0.086906  17.877976   0.002563   0.078300
     3  Cl  -0.117941   0.002563  17.061927   0.000194
     4  H    0.059046   0.078300   0.000194   0.601478
 Mulliken charges:
               1
     1  O   -0.442305
     2  Cl  -0.871933
     3  Cl   0.053256
     4  H    0.260982
 Sum of Mulliken charges =  -1.00000
 Mulliken charges with hydrogens summed into heavy atoms:
               1
     1  O   -0.181323
     2  Cl  -0.871933
     3  Cl   0.053256
 Electronic spatial extent (au):  <R**2>=            794.7435
 Charge=             -1.0000 electrons
 Dipole moment (field-independent basis, Debye):
    X=            -10.2349    Y=             -0.6837    Z=              0.3516  Tot=             10.2638
 Quadrupole moment (field-independent basis, Debye-Ang):
   XX=            -70.5874   YY=            -36.9860   ZZ=            -36.3833
   XY=              0.4738   XZ=              0.2405   YZ=             -0.1378
 Traceless Quadrupole moment (field-independent basis, Debye-Ang):
   XX=            -22.6018   YY=             10.9996   ZZ=             11.6022
   XY=              0.4738   XZ=              0.2405   YZ=             -0.1378
 Octapole moment (field-independent basis, Debye-Ang**2):
  XXX=           -229.8767  YYY=            -63.1059  ZZZ=             -1.3538  XYY=            -43.7923
  XXY=            -21.9045  XXZ=             -1.9772  XZZ=            -43.1072  YZZ=            -22.3022
  YYZ=             -0.7367  XYZ=              0.0830
 Hexadecapole moment (field-independent basis, Debye-Ang**3):
 XXXX=          -1194.2489 YYYY=           -246.8071 ZZZZ=            -50.8548 XXXY=             28.1306
 XXXZ=             -7.6763 YYYX=             22.3120 YYYZ=             -0.6773 ZZZX=             -1.7588
 ZZZY=             -0.2118 XXYY=           -195.8625 XXZZ=           -160.1294 YYZZ=            -54.0422
 XXYZ=             -0.1602 YYXZ=             -0.3698 ZZXY=              9.3078
 N-N= 1.219195548219D+02 E-N=-2.621626994303D+03  KE= 9.950287089191D+02
 No NMR shielding tensors so no spin-rotation constants.
 Leave Link  601 at Wed Sep 22 16:32:07 2021, MaxMem= 16106127360 cpu:               4.4 elap:               0.2
 (Enter /sw/contrib/gaussian/g16/B01/g16/l607.exe)
 ******************************Gaussian NBO Version 3.1******************************
             N A T U R A L   A T O M I C   O R B I T A L   A N D
          N A T U R A L   B O N D   O R B I T A L   A N A L Y S I S
 ******************************Gaussian NBO Version 3.1******************************
       /RESON  / : Allow strongly delocalized NBO set

 Analyzing the MP2 density

 Job title: title                                                           

 Storage needed:     86521 in NPA,    114817 in NBO (********** available)
 GSVD:  LWork=        1191 too small for GESVD, short by       52514 words or       52514 for optimal perf.


 NATURAL POPULATIONS:  Natural atomic orbital occupancies 
                                                          
   NAO  Atom  No  lang   Type(AO)    Occupancy
 --------------------------------------------
     1    O    1  S      Cor( 1S)     1.99970
     2    O    1  S      Val( 2S)     1.79199
     3    O    1  S      Ryd( 3S)     0.00949
     4    O    1  S      Ryd( 4S)     0.00113
     5    O    1  S      Ryd( 5S)     0.00018
     6    O    1  px     Val( 2p)     1.68631
     7    O    1  px     Ryd( 3p)     0.01261
     8    O    1  px     Ryd( 4p)     0.00073
     9    O    1  px     Ryd( 5p)     0.00041
    10    O    1  py     Val( 2p)     1.26709
    11    O    1  py     Ryd( 3p)     0.00779
    12    O    1  py     Ryd( 4p)     0.00063
    13    O    1  py     Ryd( 5p)     0.00036
    14    O    1  pz     Val( 2p)     1.89094
    15    O    1  pz     Ryd( 3p)     0.01845
    16    O    1  pz     Ryd( 4p)     0.00069
    17    O    1  pz     Ryd( 5p)     0.00023
    18    O    1  dxy    Ryd( 3d)     0.00928
    19    O    1  dxy    Ryd( 4d)     0.00047
    20    O    1  dxy    Ryd( 5d)     0.00018
    21    O    1  dxz    Ryd( 3d)     0.00998
    22    O    1  dxz    Ryd( 4d)     0.00059
    23    O    1  dxz    Ryd( 5d)     0.00022
    24    O    1  dyz    Ryd( 3d)     0.00952
    25    O    1  dyz    Ryd( 4d)     0.00057
    26    O    1  dyz    Ryd( 5d)     0.00010
    27    O    1  dx2y2  Ryd( 3d)     0.01147
    28    O    1  dx2y2  Ryd( 4d)     0.00041
    29    O    1  dx2y2  Ryd( 5d)     0.00016
    30    O    1  dz2    Ryd( 3d)     0.00888
    31    O    1  dz2    Ryd( 4d)     0.00057
    32    O    1  dz2    Ryd( 5d)     0.00019
    33    O    1  f(0)   Ryd( 4f)     0.00065
    34    O    1  f(0)   Ryd( 5f)     0.00011
    35    O    1  f(C1)  Ryd( 4f)     0.00059
    36    O    1  f(C1)  Ryd( 5f)     0.00011
    37    O    1  f(S1)  Ryd( 4f)     0.00063
    38    O    1  f(S1)  Ryd( 5f)     0.00011
    39    O    1  f(C2)  Ryd( 4f)     0.00061
    40    O    1  f(C2)  Ryd( 5f)     0.00014
    41    O    1  f(S2)  Ryd( 4f)     0.00058
    42    O    1  f(S2)  Ryd( 5f)     0.00012
    43    O    1  f(C3)  Ryd( 4f)     0.00059
    44    O    1  f(C3)  Ryd( 5f)     0.00015
    45    O    1  f(S3)  Ryd( 4f)     0.00058
    46    O    1  f(S3)  Ryd( 5f)     0.00012

    47   Cl    2  S      Cor( 1S)     2.00000
    48   Cl    2  S      Cor( 2S)     1.99999
    49   Cl    2  S      Val( 3S)     1.97132
    50   Cl    2  S      Ryd( 4S)     0.00219
    51   Cl    2  S      Ryd( 5S)     0.00026
    52   Cl    2  S      Ryd( 6S)     0.00012
    53   Cl    2  px     Cor( 2p)     2.00002
    54   Cl    2  px     Val( 3p)     1.88536
    55   Cl    2  px     Ryd( 4p)     0.01096
    56   Cl    2  px     Ryd( 5p)     0.00054
    57   Cl    2  px     Ryd( 6p)     0.00008
    58   Cl    2  py     Cor( 2p)     2.00003
    59   Cl    2  py     Val( 3p)     1.95182
    60   Cl    2  py     Ryd( 4p)     0.01289
    61   Cl    2  py     Ryd( 5p)     0.00057
    62   Cl    2  py     Ryd( 6p)     0.00006
    63   Cl    2  pz     Cor( 2p)     2.00003
    64   Cl    2  pz     Val( 3p)     1.94529
    65   Cl    2  pz     Ryd( 4p)     0.01278
    66   Cl    2  pz     Ryd( 5p)     0.00057
    67   Cl    2  pz     Ryd( 6p)     0.00005
    68   Cl    2  dxy    Ryd( 3d)     0.01861
    69   Cl    2  dxy    Ryd( 4d)     0.00074
    70   Cl    2  dxy    Ryd( 5d)     0.00013
    71   Cl    2  dxz    Ryd( 3d)     0.01869
    72   Cl    2  dxz    Ryd( 4d)     0.00080
    73   Cl    2  dxz    Ryd( 5d)     0.00012
    74   Cl    2  dyz    Ryd( 3d)     0.01832
    75   Cl    2  dyz    Ryd( 4d)     0.00097
    76   Cl    2  dyz    Ryd( 5d)     0.00011
    77   Cl    2  dx2y2  Ryd( 3d)     0.01827
    78   Cl    2  dx2y2  Ryd( 4d)     0.00089
    79   Cl    2  dx2y2  Ryd( 5d)     0.00013
    80   Cl    2  dz2    Ryd( 3d)     0.01830
    81   Cl    2  dz2    Ryd( 4d)     0.00092
    82   Cl    2  dz2    Ryd( 5d)     0.00011
    83   Cl    2  f(0)   Ryd( 4f)     0.00129
    84   Cl    2  f(0)   Ryd( 5f)     0.00015
    85   Cl    2  f(C1)  Ryd( 4f)     0.00129
    86   Cl    2  f(C1)  Ryd( 5f)     0.00017
    87   Cl    2  f(S1)  Ryd( 4f)     0.00129
    88   Cl    2  f(S1)  Ryd( 5f)     0.00014
    89   Cl    2  f(C2)  Ryd( 4f)     0.00128
    90   Cl    2  f(C2)  Ryd( 5f)     0.00016
    91   Cl    2  f(S2)  Ryd( 4f)     0.00130
    92   Cl    2  f(S2)  Ryd( 5f)     0.00015
    93   Cl    2  f(C3)  Ryd( 4f)     0.00129
    94   Cl    2  f(C3)  Ryd( 5f)     0.00018
    95   Cl    2  f(S3)  Ryd( 4f)     0.00127
    96   Cl    2  f(S3)  Ryd( 5f)     0.00016

    97   Cl    3  S      Cor( 1S)     2.00000
    98   Cl    3  S      Cor( 2S)     1.99980
    99   Cl    3  S      Val( 3S)     1.88157
   100   Cl    3  S      Ryd( 4S)     0.00821
   101   Cl    3  S      Ryd( 5S)     0.00054
   102   Cl    3  S      Ryd( 6S)     0.00017
   103   Cl    3  px     Cor( 2p)     2.00003
   104   Cl    3  px     Val( 3p)     1.89117
   105   Cl    3  px     Ryd( 4p)     0.00969
   106   Cl    3  px     Ryd( 5p)     0.00055
   107   Cl    3  px     Ryd( 6p)     0.00006
   108   Cl    3  py     Cor( 2p)     1.99997
   109   Cl    3  py     Val( 3p)     0.97219
   110   Cl    3  py     Ryd( 4p)     0.00706
   111   Cl    3  py     Ryd( 5p)     0.00052
   112   Cl    3  py     Ryd( 6p)     0.00022
   113   Cl    3  pz     Cor( 2p)     2.00003
   114   Cl    3  pz     Val( 3p)     1.95426
   115   Cl    3  pz     Ryd( 4p)     0.01058
   116   Cl    3  pz     Ryd( 5p)     0.00065
   117   Cl    3  pz     Ryd( 6p)     0.00003
   118   Cl    3  dxy    Ryd( 3d)     0.01793
   119   Cl    3  dxy    Ryd( 4d)     0.00074
   120   Cl    3  dxy    Ryd( 5d)     0.00026
   121   Cl    3  dxz    Ryd( 3d)     0.01719
   122   Cl    3  dxz    Ryd( 4d)     0.00077
   123   Cl    3  dxz    Ryd( 5d)     0.00020
   124   Cl    3  dyz    Ryd( 3d)     0.02030
   125   Cl    3  dyz    Ryd( 4d)     0.00102
   126   Cl    3  dyz    Ryd( 5d)     0.00036
   127   Cl    3  dx2y2  Ryd( 3d)     0.01840
   128   Cl    3  dx2y2  Ryd( 4d)     0.00068
   129   Cl    3  dx2y2  Ryd( 5d)     0.00025
   130   Cl    3  dz2    Ryd( 3d)     0.01747
   131   Cl    3  dz2    Ryd( 4d)     0.00061
   132   Cl    3  dz2    Ryd( 5d)     0.00017
   133   Cl    3  f(0)   Ryd( 4f)     0.00130
   134   Cl    3  f(0)   Ryd( 5f)     0.00013
   135   Cl    3  f(C1)  Ryd( 4f)     0.00128
   136   Cl    3  f(C1)  Ryd( 5f)     0.00013
   137   Cl    3  f(S1)  Ryd( 4f)     0.00142
   138   Cl    3  f(S1)  Ryd( 5f)     0.00014
   139   Cl    3  f(C2)  Ryd( 4f)     0.00129
   140   Cl    3  f(C2)  Ryd( 5f)     0.00013
   141   Cl    3  f(S2)  Ryd( 4f)     0.00123
   142   Cl    3  f(S2)  Ryd( 5f)     0.00013
   143   Cl    3  f(C3)  Ryd( 4f)     0.00143
   144   Cl    3  f(C3)  Ryd( 5f)     0.00013
   145   Cl    3  f(S3)  Ryd( 4f)     0.00145
   146   Cl    3  f(S3)  Ryd( 5f)     0.00014

   147    H    4  S      Val( 1S)     0.48202
   148    H    4  S      Ryd( 2S)     0.00741
   149    H    4  S      Ryd( 3S)     0.00027
   150    H    4  S      Ryd( 4S)     0.00015
   151    H    4  px     Ryd( 2p)     0.00586
   152    H    4  px     Ryd( 3p)     0.00092
   153    H    4  px     Ryd( 4p)     0.00029
   154    H    4  py     Ryd( 2p)     0.00330
   155    H    4  py     Ryd( 3p)     0.00041
   156    H    4  py     Ryd( 4p)     0.00012
   157    H    4  pz     Ryd( 2p)     0.00428
   158    H    4  pz     Ryd( 3p)     0.00047
   159    H    4  pz     Ryd( 4p)     0.00023
   160    H    4  dxy    Ryd( 3d)     0.00024
   161    H    4  dxy    Ryd( 4d)     0.00009
   162    H    4  dxz    Ryd( 3d)     0.00033
   163    H    4  dxz    Ryd( 4d)     0.00010
   164    H    4  dyz    Ryd( 3d)     0.00020
   165    H    4  dyz    Ryd( 4d)     0.00006
   166    H    4  dx2y2  Ryd( 3d)     0.00024
   167    H    4  dx2y2  Ryd( 4d)     0.00012
   168    H    4  dz2    Ryd( 3d)     0.00026
   169    H    4  dz2    Ryd( 4d)     0.00009


 Summary of Natural Population Analysis:                  
                                                          
                                       Natural Population 
                Natural  -----------------------------------------------
    Atom  No    Charge         Core      Valence    Rydberg      Total
 -----------------------------------------------------------------------
      O    1   -0.74642      1.99970     6.63633    0.11039     8.74642
     Cl    2   -0.90214     10.00006     7.75379    0.14829    17.90214
     Cl    3    0.15602      9.99982     6.69919    0.14498    16.84398
      H    4    0.49254      0.00000     0.48202    0.02544     0.50746
 =======================================================================
   * Total *   -1.00000     21.99958    21.57133    0.42910    44.00000

                                 Natural Population      
 --------------------------------------------------------
   Core                      21.99958 ( 99.9981% of  22)
   Valence                   21.57133 ( 98.0515% of  22)
   Natural Minimal Basis     43.57090 ( 99.0248% of  44)
   Natural Rydberg Basis      0.42910 (  0.9752% of  44)
 --------------------------------------------------------

    Atom  No          Natural Electron Configuration
 ----------------------------------------------------------------------------
      O    1      [core]2S( 1.79)2p( 4.84)3S( 0.01)3p( 0.04)3d( 0.05)
     Cl    2      [core]3S( 1.97)3p( 5.78)3d( 0.09)4p( 0.04)4f( 0.01)
     Cl    3      [core]3S( 1.88)3p( 4.82)4S( 0.01)3d( 0.09)4p( 0.03)4f( 0.01)
      H    4            1S( 0.48)2S( 0.01)2p( 0.01)


 NATURAL BOND ORBITAL ANALYSIS:

                       Occupancies       Lewis Structure    Low   High
           Occ.    -------------------  -----------------   occ   occ
  Cycle   Thresh.   Lewis   Non-Lewis     CR  BD  3C  LP    (L)   (NL)   Dev
 =============================================================================
   1(1)    1.90    43.46394   0.53606     11   2   0   9     1      0    0.11
   2(2)    1.90    43.46394   0.53606     11   2   0   9     1      0    0.11
   3(1)    1.80    43.46394   0.53606     11   2   0   9     0      0    0.11
   4(2)    1.80    43.46394   0.53606     11   2   0   9     0      0    0.11
   5(1)    1.70    43.46394   0.53606     11   2   0   9     0      0    0.11
   6(2)    1.70    43.46394   0.53606     11   2   0   9     0      0    0.11
   7(1)    1.60    43.46394   0.53606     11   2   0   9     0      0    0.11
   8(2)    1.60    43.46394   0.53606     11   2   0   9     0      0    0.11
   9(1)    1.50    43.07933   0.92067     11   1   0  10     0      1    0.58
  10(2)    1.50    43.07933   0.92067     11   1   0  10     0      1    0.58
  11(1)    1.90    43.46394   0.53606     11   2   0   9     1      0    0.11
 -----------------------------------------------------------------------------

 Structure accepted: RESONANCE keyword permits strongly delocalized structure

 --------------------------------------------------------
   Core                     21.99958 ( 99.998% of  22)
   Valence Lewis            21.46437 ( 97.565% of  22)
  ==================       ============================
   Total Lewis              43.46394 ( 98.782% of  44)
  -----------------------------------------------------
   Valence non-Lewis         0.15463 (  0.351% of  44)
   Rydberg non-Lewis         0.38143 (  0.867% of  44)
  ==================       ============================
   Total non-Lewis           0.53606 (  1.218% of  44)
 --------------------------------------------------------


       (Occupancy)   Bond orbital/ Coefficients/ Hybrids
 ---------------------------------------------------------------------------------
     1. (1.93980) BD ( 1) O   1 -Cl   3  
                ( 58.79%)   0.7668* O   1 s( 10.39%)p 8.57( 89.06%)d 0.05(  0.53%)
                                                  f 0.00(  0.02%)
                                            0.0003  0.3191 -0.0433 -0.0141 -0.0013
                                           -0.2059  0.0318  0.0070  0.0023  0.9196
                                           -0.0224 -0.0089 -0.0104  0.0248  0.0130
                                            0.0023 -0.0004 -0.0092 -0.0013 -0.0030
                                            0.0062  0.0005 -0.0012  0.0144  0.0019
                                           -0.0005 -0.0580 -0.0045 -0.0005 -0.0397
                                           -0.0033  0.0000 -0.0000 -0.0000  0.0024
                                            0.0000 -0.0093  0.0006 -0.0025  0.0015
                                            0.0040 -0.0009  0.0043  0.0016 -0.0059
                                            0.0008
                ( 41.21%)   0.6419*Cl   3 s(  8.64%)p10.42( 90.09%)d 0.13(  1.16%)
                                                  f 0.01(  0.11%)
                                           -0.0000  0.0005  0.2880 -0.0584 -0.0102
                                           -0.0023  0.0001  0.2297 -0.0142 -0.0052
                                            0.0018 -0.0004 -0.9184  0.0652  0.0129
                                           -0.0041  0.0000  0.0049 -0.0002 -0.0017
                                            0.0008 -0.0497  0.0054 -0.0003  0.0060
                                            0.0001 -0.0009 -0.0079 -0.0011 -0.0007
                                           -0.0761  0.0097  0.0007 -0.0551  0.0061
                                            0.0005 -0.0007  0.0000 -0.0051  0.0008
                                            0.0199 -0.0027  0.0000 -0.0005 -0.0014
                                            0.0008 -0.0177  0.0023  0.0190 -0.0022
     2. (1.96416) BD ( 1) O   1 - H   4  
                ( 79.38%)   0.8909* O   1 s( 27.17%)p 2.66( 72.31%)d 0.02(  0.51%)
                                                  f 0.00(  0.01%)
                                            0.0003  0.5212 -0.0051 -0.0083  0.0026
                                            0.7549 -0.0101 -0.0071 -0.0036 -0.0202
                                            0.0154  0.0015  0.0022  0.3903 -0.0012
                                           -0.0036 -0.0035  0.0236  0.0044  0.0010
                                            0.0499  0.0035 -0.0010  0.0134  0.0024
                                            0.0003  0.0399  0.0030  0.0016 -0.0131
                                            0.0002  0.0022 -0.0078  0.0002 -0.0022
                                            0.0003  0.0004  0.0000  0.0048  0.0017
                                            0.0003 -0.0008 -0.0006  0.0026 -0.0019
                                           -0.0003
                ( 20.62%)   0.4541* H   4 s( 99.80%)p 0.00(  0.20%)d 0.00(  0.00%)
                                            0.9984  0.0358  0.0018 -0.0010  0.0062
                                           -0.0303 -0.0084  0.0132  0.0017 -0.0042
                                            0.0231 -0.0153 -0.0015  0.0012  0.0017
                                           -0.0001 -0.0010  0.0015  0.0010  0.0014
                                           -0.0011 -0.0021 -0.0019
     3. (1.99970) CR ( 1) O   1           s(100.00%)p 0.00(  0.00%)
                                            1.0000 -0.0004  0.0000  0.0000 -0.0000
                                           -0.0001 -0.0000  0.0000  0.0000 -0.0002
                                            0.0000  0.0000  0.0000 -0.0000 -0.0000
                                            0.0000  0.0000  0.0000 -0.0000 -0.0000
                                           -0.0000 -0.0000  0.0000 -0.0000 -0.0000
                                           -0.0000  0.0000  0.0000 -0.0000  0.0000
                                            0.0000 -0.0000  0.0000  0.0000 -0.0000
                                           -0.0000  0.0000 -0.0000 -0.0000 -0.0000
                                           -0.0000  0.0000 -0.0000 -0.0000  0.0000
                                           -0.0000
     4. (2.00000) CR ( 1)Cl   2           s(100.00%)
                                            1.0000  0.0000  0.0000 -0.0000  0.0000
                                           -0.0000 -0.0000  0.0000 -0.0000  0.0000
                                           -0.0000  0.0000 -0.0000 -0.0000 -0.0000
                                           -0.0000  0.0000 -0.0000  0.0000 -0.0000
                                            0.0000  0.0000  0.0000 -0.0000  0.0000
                                           -0.0000  0.0000 -0.0000 -0.0000 -0.0000
                                            0.0000  0.0000 -0.0000 -0.0000 -0.0000
                                            0.0000 -0.0000 -0.0000  0.0000  0.0000
                                            0.0000  0.0000  0.0000  0.0000  0.0000
                                            0.0000 -0.0000 -0.0000 -0.0000 -0.0000
     5. (1.99999) CR ( 2)Cl   2           s(100.00%)
                                            0.0000  1.0000 -0.0001 -0.0000 -0.0000
                                            0.0000  0.0000 -0.0000  0.0000 -0.0000
                                            0.0000 -0.0000  0.0000  0.0000  0.0000
                                            0.0000 -0.0000  0.0000 -0.0000  0.0000
                                           -0.0000 -0.0000 -0.0000  0.0000 -0.0000
                                            0.0000 -0.0000  0.0000  0.0000  0.0000
                                           -0.0000 -0.0000  0.0000  0.0000  0.0000
                                           -0.0000  0.0000  0.0000 -0.0000 -0.0000
                                           -0.0000 -0.0000 -0.0000 -0.0000 -0.0000
                                           -0.0000  0.0000  0.0000  0.0000  0.0000
     6. (2.00002) CR ( 3)Cl   2           s(  0.00%)p 1.00(100.00%)
                                           -0.0000  0.0000  0.0000 -0.0000  0.0000
                                           -0.0000  1.0000  0.0000 -0.0000  0.0000
                                           -0.0000  0.0000 -0.0000 -0.0000 -0.0000
                                           -0.0000 -0.0000  0.0000  0.0000  0.0000
                                           -0.0000  0.0000  0.0000  0.0000 -0.0000
                                           -0.0000  0.0000 -0.0000 -0.0000 -0.0000
                                           -0.0000  0.0000  0.0000  0.0000  0.0000
                                            0.0000 -0.0000 -0.0000 -0.0000 -0.0000
                                            0.0000  0.0000  0.0000  0.0000  0.0000
                                            0.0000  0.0000 -0.0000 -0.0000 -0.0000
     7. (2.00003) CR ( 4)Cl   2           s(  0.00%)p 1.00(100.00%)
                                            0.0000 -0.0000 -0.0000  0.0000 -0.0000
                                            0.0000  0.0000 -0.0000 -0.0000  0.0000
                                            0.0000  1.0000  0.0000  0.0000  0.0000
                                           -0.0000  0.0000 -0.0000  0.0000 -0.0000
                                            0.0000 -0.0000 -0.0000  0.0000  0.0000
                                           -0.0000 -0.0000  0.0000  0.0000  0.0000
                                            0.0000  0.0000  0.0000 -0.0000  0.0000
                                            0.0000 -0.0000 -0.0000  0.0000  0.0000
                                           -0.0000 -0.0000  0.0000  0.0000 -0.0000
                                           -0.0000 -0.0000  0.0000  0.0000  0.0000
     8. (2.00003) CR ( 5)Cl   2           s(  0.00%)p 1.00(100.00%)
                                            0.0000 -0.0000 -0.0000 -0.0000  0.0000
                                           -0.0000 -0.0000  0.0000  0.0000 -0.0000
                                            0.0000  0.0000  0.0000 -0.0000 -0.0000
                                            0.0000  1.0000  0.0000  0.0000  0.0000
                                           -0.0000  0.0000  0.0000  0.0000 -0.0000
                                           -0.0000  0.0000 -0.0000 -0.0000  0.0000
                                           -0.0000 -0.0000  0.0000  0.0000  0.0000
                                            0.0000 -0.0000 -0.0000 -0.0000 -0.0000
                                           -0.0000  0.0000  0.0000  0.0000 -0.0000
                                           -0.0000  0.0000  0.0000 -0.0000 -0.0000
     9. (2.00000) CR ( 1)Cl   3           s(100.00%)
                                            1.0000  0.0000  0.0000 -0.0000 -0.0000
                                           -0.0000  0.0000  0.0000 -0.0000 -0.0000
                                            0.0000 -0.0000 -0.0000  0.0000  0.0000
                                           -0.0000 -0.0000  0.0000  0.0000 -0.0000
                                            0.0000 -0.0000  0.0000 -0.0000  0.0000
                                           -0.0000 -0.0000 -0.0000 -0.0000 -0.0000
                                           -0.0000  0.0000  0.0000 -0.0000  0.0000
                                            0.0000 -0.0000  0.0000 -0.0000  0.0000
                                            0.0000 -0.0000 -0.0000 -0.0000 -0.0000
                                            0.0000 -0.0000  0.0000  0.0000 -0.0000
    10. (1.99980) CR ( 2)Cl   3           s(100.00%)p 0.00(  0.00%)
                                            0.0000  1.0000 -0.0004  0.0000  0.0000
                                            0.0000 -0.0000 -0.0001  0.0000  0.0000
                                           -0.0000  0.0000  0.0004 -0.0000 -0.0000
                                            0.0000 -0.0000 -0.0000 -0.0000  0.0000
                                           -0.0000  0.0000 -0.0000 -0.0000 -0.0000
                                           -0.0000  0.0000  0.0000  0.0000  0.0000
                                            0.0000 -0.0000 -0.0000  0.0000 -0.0000
                                           -0.0000  0.0000 -0.0000  0.0000 -0.0000
                                           -0.0000  0.0000 -0.0000  0.0000  0.0000
                                           -0.0000  0.0000 -0.0000 -0.0000  0.0000
    11. (2.00003) CR ( 3)Cl   3           s(  0.00%)p 1.00(100.00%)
                                            0.0000 -0.0000 -0.0000  0.0000  0.0000
                                            0.0000  1.0000  0.0001  0.0000  0.0000
                                           -0.0000  0.0000  0.0001 -0.0000 -0.0000
                                            0.0000 -0.0000 -0.0000  0.0000  0.0000
                                            0.0000  0.0000  0.0000  0.0000 -0.0000
                                            0.0000  0.0000  0.0000 -0.0000  0.0000
                                            0.0000 -0.0000 -0.0000  0.0000 -0.0000
                                           -0.0000 -0.0000  0.0000  0.0000 -0.0000
                                           -0.0000  0.0000  0.0000 -0.0000  0.0000
                                           -0.0000  0.0000 -0.0000 -0.0000  0.0000
    12. (1.99997) CR ( 4)Cl   3           s(  0.00%)p 1.00(100.00%)
                                           -0.0000  0.0000  0.0001 -0.0000 -0.0000
                                           -0.0000  0.0000  0.0001 -0.0000 -0.0000
                                            0.0000  1.0000 -0.0003  0.0000  0.0000
                                           -0.0000 -0.0000  0.0000  0.0000 -0.0000
                                            0.0000 -0.0000  0.0000  0.0000  0.0000
                                            0.0000 -0.0000 -0.0000 -0.0000 -0.0000
                                           -0.0000  0.0000 -0.0000 -0.0000  0.0000
                                            0.0000 -0.0000  0.0000 -0.0000  0.0000
                                            0.0000 -0.0000 -0.0000 -0.0000 -0.0000
                                            0.0000 -0.0000  0.0000  0.0000 -0.0000
    13. (2.00003) CR ( 5)Cl   3           s(  0.00%)p 1.00(100.00%)
                                           -0.0000 -0.0000 -0.0000  0.0000  0.0000
                                           -0.0000 -0.0000  0.0000  0.0000 -0.0000
                                            0.0000 -0.0000  0.0000 -0.0000  0.0000
                                           -0.0000  1.0000  0.0002  0.0000  0.0000
                                           -0.0000 -0.0000 -0.0000 -0.0000 -0.0000
                                           -0.0000 -0.0000  0.0000  0.0000  0.0000
                                            0.0000 -0.0000 -0.0000  0.0000  0.0000
                                            0.0000 -0.0000  0.0000  0.0000 -0.0000
                                           -0.0000  0.0000 -0.0000  0.0000 -0.0000
                                            0.0000  0.0000  0.0000 -0.0000 -0.0000
    14. (1.96741) LP ( 1) O   1           s( 62.56%)p 0.60( 37.34%)d 0.00(  0.09%)
                                                  f 0.00(  0.00%)
                                            0.0002  0.7908  0.0115  0.0079 -0.0014
                                           -0.4082 -0.0065 -0.0042 -0.0015 -0.3572
                                           -0.0046 -0.0055 -0.0024 -0.2811 -0.0041
                                           -0.0026 -0.0005 -0.0223 -0.0015  0.0043
                                           -0.0117 -0.0002  0.0010 -0.0157 -0.0019
                                            0.0010 -0.0003  0.0008  0.0017  0.0033
                                            0.0001  0.0011  0.0028 -0.0003  0.0009
                                           -0.0004 -0.0004  0.0008  0.0013 -0.0010
                                           -0.0015  0.0005  0.0045 -0.0022 -0.0000
                                            0.0006
    15. (1.95250) LP ( 2) O   1           s(  0.02%)p99.99( 99.77%)d 8.38(  0.19%)
                                                  f 0.62(  0.01%)
                                           -0.0000  0.0122  0.0081  0.0039 -0.0006
                                           -0.4637 -0.0086 -0.0025 -0.0021 -0.1311
                                           -0.0031 -0.0009 -0.0017  0.8747  0.0170
                                            0.0060  0.0066 -0.0182 -0.0009  0.0031
                                            0.0033 -0.0047 -0.0077  0.0295  0.0035
                                           -0.0024 -0.0025  0.0031  0.0044  0.0230
                                           -0.0007 -0.0056 -0.0055  0.0006  0.0067
                                            0.0002  0.0009 -0.0004 -0.0059  0.0017
                                           -0.0034 -0.0001  0.0026 -0.0017  0.0027
                                           -0.0005
    16. (1.97818) LP ( 1)Cl   2           s( 93.55%)p 0.07(  6.45%)d 0.00(  0.00%)
                                                  f 0.00(  0.00%)
                                           -0.0000  0.0001  0.9672 -0.0001  0.0004
                                           -0.0003 -0.0000  0.2418 -0.0015  0.0006
                                           -0.0003  0.0000 -0.0049 -0.0001 -0.0001
                                           -0.0001  0.0000 -0.0775  0.0004 -0.0001
                                            0.0001 -0.0000  0.0001  0.0000  0.0006
                                           -0.0002  0.0002 -0.0000 -0.0000 -0.0000
                                            0.0004  0.0004 -0.0003 -0.0004 -0.0001
                                            0.0002 -0.0001 -0.0001  0.0003  0.0001
                                            0.0000  0.0000  0.0002  0.0002  0.0000
                                            0.0000 -0.0004 -0.0002  0.0000 -0.0000
    17. (1.95218) LP ( 2)Cl   2           s(  0.00%)p 1.00( 99.99%)d 0.00(  0.01%)
                                                  f 0.00(  0.00%)
                                           -0.0000  0.0000  0.0036  0.0011 -0.0010
                                            0.0014  0.0000 -0.1992 -0.0001  0.0001
                                           -0.0000 -0.0000  0.7545  0.0016  0.0009
                                           -0.0002  0.0000 -0.6252 -0.0006 -0.0007
                                            0.0005 -0.0074 -0.0014  0.0004  0.0040
                                            0.0002 -0.0009  0.0028  0.0011  0.0005
                                            0.0024  0.0005 -0.0002 -0.0037 -0.0012
                                           -0.0003  0.0005  0.0002  0.0016  0.0009
                                           -0.0004 -0.0002 -0.0008 -0.0003 -0.0011
                                           -0.0007 -0.0006 -0.0001  0.0020  0.0011
    18. (1.95195) LP ( 3)Cl   2           s(  0.00%)p 1.00( 99.99%)d 0.00(  0.01%)
                                                  f 0.00(  0.00%)
                                            0.0000 -0.0000  0.0049 -0.0007  0.0009
                                           -0.0010 -0.0000  0.2245 -0.0002 -0.0001
                                            0.0001 -0.0000  0.6562  0.0013  0.0007
                                           -0.0001 -0.0000  0.7204  0.0008  0.0009
                                           -0.0004 -0.0063 -0.0010  0.0006 -0.0048
                                           -0.0006  0.0007  0.0024  0.0010  0.0005
                                           -0.0015  0.0003  0.0009  0.0042  0.0015
                                            0.0005 -0.0007 -0.0004 -0.0018 -0.0011
                                           -0.0003 -0.0002  0.0011  0.0006 -0.0011
                                           -0.0007  0.0005  0.0002  0.0017  0.0009
    19. (1.87306) LP ( 4)Cl   2           s(  6.44%)p14.51( 93.50%)d 0.01(  0.05%)
                                                  f 0.00(  0.00%)
                                           -0.0000  0.0000  0.2538  0.0005 -0.0018
                                            0.0011  0.0000 -0.9224  0.0034  0.0025
                                           -0.0007 -0.0000 -0.0045  0.0003  0.0003
                                            0.0001 -0.0000  0.2899  0.0013 -0.0007
                                            0.0008 -0.0000 -0.0004 -0.0005 -0.0135
                                           -0.0036 -0.0009 -0.0001 -0.0000  0.0000
                                            0.0160  0.0034 -0.0003 -0.0076 -0.0018
                                           -0.0001 -0.0023 -0.0011  0.0020  0.0013
                                           -0.0000 -0.0001  0.0031  0.0015  0.0000
                                           -0.0000 -0.0036 -0.0019  0.0001  0.0002
    20. (1.97415) LP ( 1)Cl   3           s( 91.54%)p 0.09(  8.44%)d 0.00(  0.02%)
                                                  f 0.00(  0.00%)
                                            0.0000  0.0003  0.9567  0.0070  0.0012
                                            0.0003 -0.0000 -0.0450 -0.0001  0.0005
                                            0.0001  0.0000  0.2861 -0.0064 -0.0029
                                            0.0013 -0.0000  0.0211  0.0006  0.0002
                                            0.0001  0.0054  0.0001  0.0004  0.0005
                                            0.0001 -0.0002  0.0005  0.0005  0.0004
                                            0.0108 -0.0007 -0.0002  0.0081  0.0006
                                            0.0003 -0.0002  0.0001  0.0005  0.0000
                                           -0.0022 -0.0003  0.0001 -0.0001 -0.0004
                                            0.0002  0.0018  0.0003 -0.0028  0.0001
    21. (1.95608) LP ( 2)Cl   3           s(  0.01%)p99.99( 99.93%)d 3.84(  0.05%)
                                                  f 0.59(  0.01%)
                                            0.0000  0.0000  0.0104 -0.0046 -0.0020
                                            0.0012 -0.0001  0.3718  0.0050  0.0018
                                           -0.0003 -0.0000  0.0919  0.0014 -0.0001
                                            0.0005  0.0002 -0.9232 -0.0145 -0.0045
                                            0.0020  0.0028  0.0061  0.0026  0.0060
                                            0.0080  0.0029 -0.0061 -0.0154 -0.0074
                                           -0.0030 -0.0042 -0.0022 -0.0003  0.0001
                                           -0.0001  0.0045 -0.0003 -0.0016  0.0007
                                            0.0002 -0.0003  0.0058 -0.0012  0.0033
                                           -0.0008 -0.0020  0.0002 -0.0024  0.0008
    22. (1.95491) LP ( 3)Cl   3           s(  0.10%)p99.99( 99.85%)d 0.41(  0.04%)
                                                  f 0.08(  0.01%)
                                            0.0000 -0.0000  0.0312  0.0058  0.0037
                                           -0.0016  0.0002 -0.8970 -0.0118 -0.0014
                                            0.0002  0.0001 -0.2177 -0.0032 -0.0006
                                           -0.0008  0.0001 -0.3826 -0.0062 -0.0010
                                            0.0003  0.0040 -0.0107 -0.0052 -0.0001
                                            0.0021  0.0013  0.0012 -0.0051 -0.0028
                                            0.0070  0.0111  0.0059 -0.0016 -0.0031
                                           -0.0003  0.0025 -0.0005  0.0014  0.0003
                                            0.0008  0.0001  0.0017  0.0001  0.0017
                                           -0.0004  0.0056 -0.0011  0.0061 -0.0010
    23. (0.01969) RY*( 1) O   1           s(  0.17%)p99.99( 98.42%)d 8.13(  1.36%)
                                                  f 0.33(  0.05%)
                                           -0.0000 -0.0003  0.0407  0.0039  0.0011
                                            0.0103 -0.4542  0.0176  0.0090  0.0056
                                           -0.1283  0.0041 -0.0016 -0.0215  0.8713
                                           -0.0342 -0.0069 -0.0487 -0.0100  0.0002
                                            0.0120 -0.0086 -0.0132  0.0796  0.0236
                                            0.0065 -0.0052  0.0067  0.0065  0.0605
                                            0.0045 -0.0049 -0.0086  0.0073  0.0058
                                           -0.0059  0.0022 -0.0011 -0.0106  0.0091
                                           -0.0034  0.0034  0.0077 -0.0058  0.0037
                                           -0.0040
    24. (0.01586) RY*( 2) O   1           s( 28.62%)p 2.41( 68.89%)d 0.08(  2.26%)
                                                  f 0.01(  0.23%)
                                           -0.0000  0.0026  0.5328 -0.0479 -0.0062
                                            0.0074 -0.5423  0.0060  0.0358  0.0412
                                           -0.4957 -0.0029  0.0342  0.0058 -0.3798
                                            0.0071  0.0220 -0.1056 -0.0220 -0.0085
                                           -0.0291  0.0023  0.0095 -0.0848 -0.0168
                                           -0.0069  0.0379  0.0040 -0.0009  0.0303
                                            0.0037 -0.0018 -0.0015 -0.0016  0.0105
                                           -0.0072 -0.0094  0.0032  0.0228 -0.0110
                                           -0.0060  0.0040  0.0318 -0.0150 -0.0099
                                            0.0034
    25. (0.00794) RY*( 3) O   1           s( 16.10%)p 0.56(  9.01%)d 4.57( 73.52%)
                                                  f 0.09(  1.37%)
                                            0.0000  0.0153  0.3963 -0.0598  0.0123
                                            0.0117  0.2528 -0.0181  0.0624 -0.0148
                                           -0.1002  0.0023  0.0455 -0.0001  0.0968
                                           -0.0090  0.0090  0.6072  0.0012  0.0042
                                           -0.0924  0.0032 -0.0066  0.1850  0.0091
                                            0.0073 -0.5096 -0.0091 -0.0315  0.2503
                                           -0.0069  0.0063 -0.0032  0.0013  0.0107
                                           -0.0112 -0.0085  0.0068 -0.0342  0.0144
                                            0.0247 -0.0118 -0.0910  0.0372 -0.0352
                                            0.0176
    26. (0.00705) RY*( 4) O   1           s(  0.54%)p 0.63(  0.34%)d99.99( 97.40%)
                                                  f 3.21(  1.73%)
                                            0.0000  0.0047  0.0728 -0.0079 -0.0018
                                            0.0071  0.0180  0.0053  0.0019 -0.0015
                                            0.0005  0.0047  0.0064 -0.0169 -0.0501
                                           -0.0095  0.0028 -0.0675  0.0101 -0.0004
                                           -0.4514  0.0232 -0.0069  0.8082 -0.0348
                                            0.0106  0.2357 -0.0180  0.0005 -0.2331
                                            0.0115 -0.0084 -0.0592  0.0257 -0.0339
                                            0.0158  0.0067 -0.0028 -0.0893  0.0383
                                           -0.0197  0.0082  0.0230 -0.0131  0.0304
                                           -0.0116
    27. (0.00637) RY*( 5) O   1           s(  0.58%)p18.07( 10.43%)d99.99( 87.40%)
                                                  f 2.75(  1.59%)
                                           -0.0000  0.0026  0.0706 -0.0277 -0.0044
                                            0.0478  0.2875 -0.0190  0.0043 -0.0044
                                           -0.1292 -0.0019  0.0342 -0.0105  0.0313
                                           -0.0056  0.0044 -0.6887  0.0281 -0.0246
                                            0.0572 -0.0037  0.0010  0.1928 -0.0268
                                           -0.0078 -0.2636  0.0133 -0.0128  0.5343
                                           -0.0371  0.0190  0.0060 -0.0052  0.0661
                                           -0.0343  0.0334 -0.0178 -0.0295  0.0158
                                           -0.0310  0.0154  0.0490 -0.0163 -0.0568
                                            0.0244
    28. (0.00611) RY*( 6) O   1           s(  0.93%)p17.26( 16.10%)d87.30( 81.43%)
                                                  f 1.65(  1.54%)
                                           -0.0000  0.0074  0.0908 -0.0296 -0.0127
                                            0.0423  0.2858 -0.0151 -0.0167 -0.0131
                                           -0.2081 -0.0005  0.0322  0.0400  0.1737
                                           -0.0161 -0.0214 -0.1702 -0.0057 -0.0156
                                           -0.7068  0.0499 -0.0242 -0.4614  0.0353
                                           -0.0079 -0.0760 -0.0048 -0.0002 -0.2491
                                            0.0175 -0.0052  0.0588 -0.0304 -0.0377
                                            0.0187 -0.0418  0.0158 -0.0091  0.0079
                                           -0.0643  0.0287  0.0198 -0.0067 -0.0382
                                            0.0152
    29. (0.00573) RY*( 7) O   1           s(  1.15%)p10.87( 12.52%)d73.08( 84.19%)
                                                  f 1.85(  2.14%)
                                           -0.0000  0.0201  0.1023 -0.0207  0.0153
                                           -0.0106 -0.0998 -0.0028  0.0185  0.0723
                                            0.3265 -0.0051 -0.0479 -0.0014 -0.0241
                                           -0.0015  0.0028  0.1548  0.0008  0.0069
                                           -0.3611  0.0527 -0.0022 -0.1471  0.0237
                                            0.0072  0.4761 -0.0387 -0.0134  0.6553
                                           -0.0696 -0.0035  0.0257 -0.0117 -0.0072
                                            0.0008  0.0923 -0.0355  0.0200 -0.0085
                                           -0.0205  0.0074 -0.0308  0.0112  0.0864
                                           -0.0352
    30. (0.00319) RY*( 8) O   1           s( 30.09%)p 0.94( 28.27%)d 1.36( 40.92%)
                                                  f 0.02(  0.72%)
                                            0.0000 -0.0066  0.5242 -0.1599  0.0218
                                           -0.0301  0.4400 -0.0592  0.1660  0.0229
                                           -0.0161  0.0147  0.0921 -0.0109  0.2116
                                           -0.0459  0.0256 -0.0458  0.0082 -0.0173
                                            0.3435 -0.0733  0.0230 -0.0467  0.0069
                                           -0.0003  0.4908 -0.0694  0.0311 -0.1643
                                            0.0831 -0.0021 -0.0291  0.0245  0.0130
                                           -0.0110  0.0022  0.0014  0.0488 -0.0312
                                            0.0112 -0.0016  0.0260 -0.0151  0.0325
                                           -0.0026
    31. (0.00248) RY*( 9) O   1           s( 16.93%)p 3.56( 60.33%)d 1.31( 22.19%)
                                                  f 0.03(  0.55%)
                                           -0.0000  0.0009  0.4018 -0.0879 -0.0120
                                            0.0064 -0.2227 -0.0079  0.0815  0.0136
                                            0.7383 -0.0313  0.0054  0.0048 -0.0219
                                           -0.0055  0.0111 -0.2375  0.0375 -0.0391
                                           -0.0539  0.0009 -0.0110 -0.0496  0.0090
                                           -0.0010 -0.3169  0.0199 -0.0916 -0.2078
                                            0.0617 -0.0276 -0.0031 -0.0026  0.0200
                                           -0.0202 -0.0293  0.0323  0.0069  0.0002
                                           -0.0105  0.0030  0.0200 -0.0199 -0.0314
                                            0.0287
    32. (0.00078) RY*(10) O   1           s( 42.55%)p 0.99( 42.04%)d 0.28( 11.91%)
                                                  f 0.08(  3.50%)
                                           -0.0000 -0.0020  0.0433  0.6487  0.0537
                                            0.0065  0.0028 -0.4481  0.2573  0.0132
                                           -0.0186 -0.2094 -0.1838  0.0024 -0.0086
                                           -0.2567  0.0957 -0.0256  0.1164  0.0820
                                           -0.0171  0.0445 -0.0800 -0.0069  0.0390
                                            0.0016 -0.0090 -0.1383 -0.0294 -0.0088
                                            0.2258  0.1297 -0.0300 -0.0142  0.1135
                                           -0.0538  0.0471 -0.0112  0.0098 -0.0038
                                            0.0440 -0.0148 -0.1050  0.0205  0.0378
                                           -0.0247
    33. (0.00065) RY*(11) O   1           s(  0.71%)p30.74( 21.88%)d77.93( 55.47%)
                                                  f30.82( 21.94%)
                                           -0.0000 -0.0008  0.0446  0.0697 -0.0163
                                            0.0034  0.0052 -0.2997 -0.0078  0.0034
                                            0.0010 -0.0714 -0.0768 -0.0031  0.0321
                                            0.3401  0.0348 -0.0096  0.3006  0.0365
                                           -0.0172 -0.3697 -0.0146  0.0108 -0.2497
                                           -0.0171  0.0157  0.1688  0.0164 -0.0264
                                           -0.4822 -0.0285  0.0940  0.0100 -0.0163
                                           -0.0040 -0.3182  0.0434  0.1632 -0.0053
                                           -0.1534  0.0299 -0.1732  0.0027  0.1570
                                           -0.0359
    34. (0.00062) RY*(12) O   1           s(  2.57%)p24.95( 64.07%)d 8.46( 21.71%)
                                                  f 4.54( 11.65%)
                                           -0.0000  0.0020  0.0467  0.1526  0.0140
                                            0.0014  0.0223  0.3930 -0.1698  0.0075
                                            0.0231  0.0878 -0.0165  0.0022 -0.0136
                                           -0.6244  0.2413  0.0292  0.0983  0.0439
                                           -0.0113 -0.3764 -0.0056 -0.0189 -0.1993
                                           -0.0221 -0.0026  0.1373  0.0189  0.0081
                                           -0.0400  0.0371 -0.0558 -0.0167  0.0105
                                            0.0023 -0.0170  0.0037  0.0305 -0.0401
                                           -0.3238  0.0243  0.0558  0.0050  0.0382
                                            0.0115
    35. (0.00059) RY*(13) O   1           s(  2.22%)p 7.96( 17.71%)d20.42( 45.43%)
                                                  f15.57( 34.64%)
                                           -0.0000  0.0038 -0.0156  0.1135  0.0954
                                            0.0040 -0.0095 -0.0080  0.0311  0.0079
                                            0.0121  0.0117  0.0677 -0.0005  0.0056
                                            0.4020 -0.0972  0.0421 -0.1865  0.0492
                                           -0.0437 -0.4050 -0.0483  0.0273 -0.1454
                                            0.0254 -0.0117  0.0353  0.0225  0.0357
                                            0.4673  0.0543  0.1101  0.0064 -0.0438
                                            0.0041  0.3011 -0.0274  0.2542 -0.0034
                                           -0.3436  0.0361  0.1550 -0.0137 -0.1804
                                            0.0121
    36. (0.00050) RY*(14) O   1           s(  0.02%)p99.99(  4.45%)d99.99( 56.49%)
                                                  f99.99( 39.04%)
                                            0.0000 -0.0012  0.0039  0.0135  0.0052
                                            0.0014 -0.0026 -0.0903  0.0041  0.0007
                                           -0.0002 -0.1701  0.0062 -0.0083 -0.0231
                                            0.0749 -0.0327  0.0017 -0.0972  0.0053
                                            0.0157 -0.2915  0.0733 -0.0228  0.6511
                                           -0.0934  0.0016  0.0931 -0.0106  0.0044
                                           -0.1480  0.0304 -0.4182 -0.0259 -0.1010
                                           -0.0146  0.0370  0.0112 -0.3329 -0.0279
                                           -0.2998 -0.0048  0.0328 -0.0010 -0.0160
                                           -0.0071
    37. (0.00050) RY*(15) O   1           s(  0.55%)p14.65(  8.01%)d61.59( 33.65%)
                                                  f99.99( 57.79%)
                                            0.0000 -0.0012  0.0490  0.0549 -0.0073
                                           -0.0049 -0.0016  0.1243 -0.1409  0.0003
                                           -0.0005 -0.1904 -0.0547  0.0025  0.0163
                                            0.0677  0.0251  0.0013  0.5067 -0.0352
                                            0.0146 -0.0538  0.0503 -0.0271 -0.0867
                                           -0.0164  0.0310 -0.2259  0.0580 -0.0135
                                           -0.0938  0.0040 -0.0855 -0.0066 -0.4088
                                           -0.0108  0.3085  0.0039 -0.0840 -0.0116
                                            0.1900  0.0018 -0.0523 -0.0311 -0.5106
                                           -0.0212
    38. (0.00048) RY*(16) O   1           s(  3.63%)p11.79( 42.83%)d 5.80( 21.05%)
                                                  f 8.95( 32.49%)
                                           -0.0000  0.0052  0.0526  0.1466  0.1098
                                           -0.0014  0.0176  0.1969 -0.0192  0.0024
                                           -0.0256  0.5660 -0.1659 -0.0014  0.0029
                                            0.1751 -0.0981 -0.0527  0.2778 -0.0416
                                            0.0247  0.1528 -0.0365 -0.0029  0.1663
                                           -0.0147 -0.0512 -0.2568 -0.0567 -0.0386
                                            0.0263 -0.0416 -0.2256 -0.0179 -0.0020
                                           -0.0061  0.1500  0.0290  0.1848  0.0150
                                           -0.2158 -0.0061 -0.2995 -0.0238  0.2802
                                            0.0219
    39. (0.00048) RY*(17) O   1           s(  0.77%)p37.25( 28.79%)d14.95( 11.55%)
                                                  f76.18( 58.88%)
                                           -0.0000  0.0028  0.0447  0.0753  0.0079
                                            0.0031  0.0130 -0.2359 -0.0143  0.0058
                                            0.0033  0.4517 -0.1294  0.0008  0.0105
                                            0.0103  0.1040  0.0118 -0.0223  0.0438
                                           -0.0092 -0.1898  0.0385 -0.0367 -0.0483
                                           -0.0327 -0.0417  0.1746 -0.0990 -0.0414
                                           -0.1634  0.0141  0.1305  0.0128 -0.1241
                                           -0.0060  0.4096  0.0309 -0.2867 -0.0275
                                            0.3182  0.0111  0.3980  0.0238  0.2089
                                            0.0233
[...]
                                            0.0989  0.0768 -0.0819
   152. (0.00042) RY*( 7) H   4           s(  1.69%)p30.55( 51.65%)d27.60( 46.66%)
                                            0.0008 -0.0529 -0.0600  0.1025  0.0658
                                            0.0380  0.2070 -0.0016 -0.4691  0.0496
                                            0.1237 -0.1119 -0.4664 -0.1244  0.0672
                                            0.5917  0.0412  0.1543  0.0058 -0.1561
                                           -0.1391  0.1199  0.1135
   153. (0.00031) RY*( 8) H   4           s(  1.84%)p35.65( 65.74%)d17.58( 32.41%)
                                            0.0041 -0.0174  0.1327  0.0224  0.0039
                                           -0.0828 -0.2899 -0.0467  0.4042 -0.1133
                                           -0.0759  0.4913 -0.3755  0.2513 -0.1260
                                            0.3847  0.0709 -0.2074 -0.0314 -0.1543
                                            0.1336 -0.0314 -0.0735
   154. (0.00026) RY*( 9) H   4           s( 22.83%)p 1.71( 39.05%)d 1.67( 38.12%)
                                           -0.0003 -0.0468  0.4686  0.0809 -0.0682
                                            0.1372  0.1948 -0.0834  0.2527 -0.1569
                                            0.0548 -0.4706 -0.0958  0.2153 -0.0374
                                           -0.1458  0.1473 -0.0751 -0.0522 -0.4877
                                           -0.0913  0.1161  0.1498
   155. (0.00025) RY*(10) H   4           s(  7.68%)p 1.86( 14.28%)d10.16( 78.03%)
                                            0.0078  0.0103  0.2420  0.1345 -0.0015
                                            0.1520 -0.0377  0.0642  0.1831  0.0764
                                           -0.0337  0.2677 -0.0448 -0.5174 -0.0797
                                           -0.1281  0.0529  0.6396 -0.1112 -0.2006
                                            0.0812  0.0721 -0.1166
   156. (0.00021) RY*(11) H   4           s(  4.56%)p13.61( 62.01%)d 7.34( 33.43%)
                                           -0.0203 -0.0771  0.1923 -0.0472 -0.0795
                                           -0.3373 -0.4708  0.0482  0.0996 -0.0327
                                            0.0206 -0.4700 -0.2091 -0.0977  0.0088
                                            0.0723  0.1816  0.1610 -0.0463  0.4546
                                            0.1071  0.2000 -0.0191
   157. (0.00019) RY*(12) H   4           s(  0.38%)p48.21( 18.40%)d99.99( 81.22%)
                                            0.0104 -0.0031 -0.0331  0.0510 -0.0279
                                            0.2224  0.1547  0.0556  0.0786  0.1362
                                            0.0850  0.1872 -0.1994 -0.0556  0.0229
                                           -0.2159 -0.0256 -0.2715  0.0570  0.2141
                                           -0.0332  0.7978 -0.0292
   158. (0.00013) RY*(13) H   4           s( 24.37%)p 0.89( 21.59%)d 2.22( 54.04%)
                                           -0.0051 -0.0215  0.1801  0.4591  0.0486
                                           -0.1107 -0.0621  0.0150  0.0254 -0.1219
                                           -0.0153 -0.1177  0.4094 -0.1479  0.1439
                                            0.3430 -0.4395 -0.1630  0.0883 -0.0959
                                            0.1358  0.1945 -0.2953
   159. (0.00012) RY*(14) H   4           s(  2.99%)p 3.89( 11.63%)d28.56( 85.39%)
                                           -0.0002 -0.0221  0.1650 -0.0468 -0.0253
                                           -0.0350 -0.1295  0.0364 -0.1561  0.2349
                                            0.0051 -0.0357 -0.1243 -0.5806 -0.0661
                                           -0.1190  0.2030 -0.5838  0.1303 -0.1808
                                            0.0969 -0.2289 -0.0691
   160. (0.00011) RY*(15) H   4           s( 42.45%)p 0.27( 11.55%)d 1.08( 46.00%)
                                            0.0030  0.0175  0.2747  0.5905 -0.0196
                                           -0.0002  0.2451  0.0179  0.1032  0.0948
                                           -0.0435  0.1059 -0.1480  0.0022 -0.0231
                                           -0.0607 -0.0068 -0.0702 -0.0212  0.4746
                                           -0.2590 -0.3273  0.2257
   161. (0.00009) RY*(16) H   4           s(  1.17%)p33.51( 39.33%)d50.70( 59.50%)
   162. (0.00007) RY*(17) H   4           s( 40.88%)p 0.59( 23.94%)d 0.86( 35.18%)
   163. (0.00006) RY*(18) H   4           s(  0.02%)p79.49(  1.89%)d99.99( 98.08%)
   164. (0.00005) RY*(19) H   4           s(  2.41%)p10.37( 25.03%)d30.07( 72.56%)
   165. (0.00005) RY*(20) H   4           s(  1.74%)p 9.42( 16.37%)d47.13( 81.90%)
   166. (0.00004) RY*(21) H   4           s( 15.18%)p 1.15( 17.44%)d 4.44( 67.38%)
   167. (0.00003) RY*(22) H   4           s(  5.45%)p 7.50( 40.89%)d 9.84( 53.66%)
   168. (0.05770) BD*( 1) O   1 -Cl   3  
                ( 41.21%)   0.6419* O   1 s( 10.39%)p 8.57( 89.06%)d 0.05(  0.53%)
                                                  f 0.00(  0.02%)
                                           -0.0003 -0.3191  0.0433  0.0141  0.0013
                                            0.2059 -0.0318 -0.0070 -0.0023 -0.9196
                                            0.0224  0.0089  0.0104 -0.0248 -0.0130
                                           -0.0023  0.0004  0.0092  0.0013  0.0030
                                           -0.0062 -0.0005  0.0012 -0.0144 -0.0019
                                            0.0005  0.0580  0.0045  0.0005  0.0397
                                            0.0033 -0.0000  0.0000  0.0000 -0.0024
                                           -0.0000  0.0093 -0.0006  0.0025 -0.0015
                                           -0.0040  0.0009 -0.0043 -0.0016  0.0059
                                           -0.0008
                ( 58.79%)  -0.7668*Cl   3 s(  8.64%)p10.42( 90.09%)d 0.13(  1.16%)
                                                  f 0.01(  0.11%)
                                            0.0000 -0.0005 -0.2880  0.0584  0.0102
                                            0.0023 -0.0001 -0.2297  0.0142  0.0052
                                           -0.0018  0.0004  0.9184 -0.0652 -0.0129
                                            0.0041 -0.0000 -0.0049  0.0002  0.0017
                                           -0.0008  0.0497 -0.0054  0.0003 -0.0060
                                           -0.0001  0.0009  0.0079  0.0011  0.0007
                                            0.0761 -0.0097 -0.0007  0.0551 -0.0061
                                           -0.0005  0.0007 -0.0000  0.0051 -0.0008
                                           -0.0199  0.0027 -0.0000  0.0005  0.0014
                                           -0.0008  0.0177 -0.0023 -0.0190  0.0022
   169. (0.09692) BD*( 1) O   1 - H   4  
                ( 20.62%)   0.4541* O   1 s( 27.17%)p 2.66( 72.31%)d 0.02(  0.51%)
                                                  f 0.00(  0.01%)
                                           -0.0003 -0.5212  0.0051  0.0083 -0.0026
                                           -0.7549  0.0101  0.0071  0.0036  0.0202
                                           -0.0154 -0.0015 -0.0022 -0.3903  0.0012
                                            0.0036  0.0035 -0.0236 -0.0044 -0.0010
                                           -0.0499 -0.0035  0.0010 -0.0134 -0.0024
                                           -0.0003 -0.0399 -0.0030 -0.0016  0.0131
                                           -0.0002 -0.0022  0.0078 -0.0002  0.0022
                                           -0.0003 -0.0004 -0.0000 -0.0048 -0.0017
                                           -0.0003  0.0008  0.0006 -0.0026  0.0019
                                            0.0003
                ( 79.38%)  -0.8909* H   4 s( 99.80%)p 0.00(  0.20%)d 0.00(  0.00%)
                                           -0.9984 -0.0358 -0.0018  0.0010 -0.0062
                                            0.0303  0.0084 -0.0132 -0.0017  0.0042
                                           -0.0231  0.0153  0.0015 -0.0012 -0.0017
                                            0.0001  0.0010 -0.0015 -0.0010 -0.0014
                                            0.0011  0.0021  0.0019


 NHO Directionality and "Bond Bending" (deviations from line of nuclear centers)

         [Thresholds for printing:  angular deviation  >  1.0 degree]
                                    hybrid p-character > 25.0%
                                    orbital occupancy  >  0.10e

                                Line of Centers        Hybrid 1              Hybrid 2
                                ---------------  -------------------   ------------------
                NBO               Theta   Phi    Theta   Phi    Dev    Theta   Phi    Dev
 ========================================================================================
     1. BD (   1) O   1 -Cl   3    90.0  103.5    87.4  100.6   3.9      --     --    --
     2. BD (   1) O   1 - H   4    65.0    0.0    62.5  359.9   2.5      --     --    --
    14. LP (   1) O   1             --     --    117.2  221.3   --       --     --    --
    15. LP (   2) O   1             --     --     28.7  196.0   --       --     --    --
    17. LP (   2)Cl   2             --     --    128.7  104.8   --       --     --    --
    18. LP (   3)Cl   2             --     --     43.9   71.2   --       --     --    --
    19. LP (   4)Cl   2             --     --     72.4  180.2   --       --     --    --
    21. LP (   2)Cl   3             --     --    157.5   13.9   --       --     --    --
    22. LP (   3)Cl   3             --     --    112.6  193.7   --       --     --    --


 Natural Bond Orbitals (Summary):

           NBO                  Occupancy  
 -----------------------------------------------
 Molecular unit  1  (HOCl)
     1. BD (   1) O   1 -Cl   3          1.93980
     2. BD (   1) O   1 - H   4          1.96416
     3. CR (   1) O   1                  1.99970
     9. CR (   1)Cl   3                  2.00000
    10. CR (   2)Cl   3                  1.99980
    11. CR (   3)Cl   3                  2.00003
    12. CR (   4)Cl   3                  1.99997
    13. CR (   5)Cl   3                  2.00003
    14. LP (   1) O   1                  1.96741
    15. LP (   2) O   1                  1.95250
    20. LP (   1)Cl   3                  1.97415
    21. LP (   2)Cl   3                  1.95608
    22. LP (   3)Cl   3                  1.95491
    23. RY*(   1) O   1                  0.01969
    24. RY*(   2) O   1                  0.01586
    25. RY*(   3) O   1                  0.00794
    26. RY*(   4) O   1                  0.00705
    27. RY*(   5) O   1                  0.00637
    28. RY*(   6) O   1                  0.00611
    29. RY*(   7) O   1                  0.00573
    30. RY*(   8) O   1                  0.00319
    31. RY*(   9) O   1                  0.00248
    32. RY*(  10) O   1                  0.00078
    33. RY*(  11) O   1                  0.00065
    34. RY*(  12) O   1                  0.00062
    35. RY*(  13) O   1                  0.00059
    36. RY*(  14) O   1                  0.00050
    37. RY*(  15) O   1                  0.00050
    38. RY*(  16) O   1                  0.00048
    39. RY*(  17) O   1                  0.00048
    40. RY*(  18) O   1                  0.00046
    41. RY*(  19) O   1                  0.00046
    42. RY*(  20) O   1                  0.00045
    43. RY*(  21) O   1                  0.00044
    44. RY*(  22) O   1                  0.00042
    45. RY*(  23) O   1                  0.00035
    46. RY*(  24) O   1                  0.00030
    47. RY*(  25) O   1                  0.00024
    48. RY*(  26) O   1                  0.00019
    49. RY*(  27) O   1                  0.00014
    50. RY*(  28) O   1                  0.00013
    51. RY*(  29) O   1                  0.00013
    52. RY*(  30) O   1                  0.00010
    53. RY*(  31) O   1                  0.00008
    54. RY*(  32) O   1                  0.00008
    55. RY*(  33) O   1                  0.00008
    56. RY*(  34) O   1                  0.00008
    57. RY*(  35) O   1                  0.00008
    58. RY*(  36) O   1                  0.00006
    59. RY*(  37) O   1                  0.00006
    60. RY*(  38) O   1                  0.00004
    61. RY*(  39) O   1                  0.00005
    62. RY*(  40) O   1                  0.00003
    63. RY*(  41) O   1                  0.00002
   105. RY*(   1)Cl   3                  0.02285
   106. RY*(   2)Cl   3                  0.01761
   107. RY*(   3)Cl   3                  0.01682
   108. RY*(   4)Cl   3                  0.01656
   109. RY*(   5)Cl   3                  0.01165
   110. RY*(   6)Cl   3                  0.00928
   111. RY*(   7)Cl   3                  0.00908
   112. RY*(   8)Cl   3                  0.00633
   113. RY*(   9)Cl   3                  0.00169
   114. RY*(  10)Cl   3                  0.00127
   115. RY*(  11)Cl   3                  0.00126
   116. RY*(  12)Cl   3                  0.00120
   117. RY*(  13)Cl   3                  0.00119
   118. RY*(  14)Cl   3                  0.00117
   119. RY*(  15)Cl   3                  0.00111
   120. RY*(  16)Cl   3                  0.00094
   121. RY*(  17)Cl   3                  0.00077
   122. RY*(  18)Cl   3                  0.00075
   123. RY*(  19)Cl   3                  0.00064
   124. RY*(  20)Cl   3                  0.00056
   125. RY*(  21)Cl   3                  0.00042
   126. RY*(  22)Cl   3                  0.00038
   127. RY*(  23)Cl   3                  0.00033
   128. RY*(  24)Cl   3                  0.00031
   129. RY*(  25)Cl   3                  0.00019
   130. RY*(  26)Cl   3                  0.00016
   131. RY*(  27)Cl   3                  0.00014
   132. RY*(  28)Cl   3                  0.00012
   133. RY*(  29)Cl   3                  0.00012
   134. RY*(  30)Cl   3                  0.00013
   135. RY*(  31)Cl   3                  0.00012
   136. RY*(  32)Cl   3                  0.00010
   137. RY*(  33)Cl   3                  0.00010
   138. RY*(  34)Cl   3                  0.00010
   139. RY*(  35)Cl   3                  0.00009
   140. RY*(  36)Cl   3                  0.00009
   141. RY*(  37)Cl   3                  0.00007
   142. RY*(  38)Cl   3                  0.00003
   143. RY*(  39)Cl   3                  0.00003
   144. RY*(  40)Cl   3                  0.00004
   145. RY*(  41)Cl   3                  0.00000
   146. RY*(   1) H   4                  0.00956
   147. RY*(   2) H   4                  0.00525
   148. RY*(   3) H   4                  0.00409
   149. RY*(   4) H   4                  0.00308
   150. RY*(   5) H   4                  0.00058
   151. RY*(   6) H   4                  0.00046
   152. RY*(   7) H   4                  0.00042
   153. RY*(   8) H   4                  0.00031
   154. RY*(   9) H   4                  0.00026
   155. RY*(  10) H   4                  0.00025
   156. RY*(  11) H   4                  0.00021
   157. RY*(  12) H   4                  0.00019
   158. RY*(  13) H   4                  0.00013
   159. RY*(  14) H   4                  0.00012
   160. RY*(  15) H   4                  0.00011
   161. RY*(  16) H   4                  0.00009
   162. RY*(  17) H   4                  0.00007
   163. RY*(  18) H   4                  0.00006
   164. RY*(  19) H   4                  0.00005
   165. RY*(  20) H   4                  0.00005
   166. RY*(  21) H   4                  0.00004
   167. RY*(  22) H   4                  0.00003
   168. BD*(   1) O   1 -Cl   3          0.05770
   169. BD*(   1) O   1 - H   4          0.09692
       -------------------------------
              Total Lewis   25.70853  ( 98.5082%)
        Valence non-Lewis    0.15463  (  0.5925%)
        Rydberg non-Lewis    0.23470  (  0.8993%)
       -------------------------------
            Total unit  1   26.09786  (100.0000%)
           Charge unit  1   -0.09786

 Molecular unit  2  (Cl)
     4. CR (   1)Cl   2                  2.00000
     5. CR (   2)Cl   2                  1.99999
     6. CR (   3)Cl   2                  2.00002
     7. CR (   4)Cl   2                  2.00003
     8. CR (   5)Cl   2                  2.00003
    16. LP (   1)Cl   2                  1.97818
    17. LP (   2)Cl   2                  1.95218
    18. LP (   3)Cl   2                  1.95195
    19. LP (   4)Cl   2                  1.87306
    64. RY*(   1)Cl   2                  0.01846
    65. RY*(   2)Cl   2                  0.01843
    66. RY*(   3)Cl   2                  0.01830
    67. RY*(   4)Cl   2                  0.01829
    68. RY*(   5)Cl   2                  0.01786
    69. RY*(   6)Cl   2                  0.01291
    70. RY*(   7)Cl   2                  0.01288
    71. RY*(   8)Cl   2                  0.01059
    72. RY*(   9)Cl   2                  0.00234
    73. RY*(  10)Cl   2                  0.00130
    74. RY*(  11)Cl   2                  0.00130
    75. RY*(  12)Cl   2                  0.00129
    76. RY*(  13)Cl   2                  0.00129
    77. RY*(  14)Cl   2                  0.00127
    78. RY*(  15)Cl   2                  0.00127
    79. RY*(  16)Cl   2                  0.00125
    80. RY*(  17)Cl   2                  0.00098
    81. RY*(  18)Cl   2                  0.00098
    82. RY*(  19)Cl   2                  0.00074
    83. RY*(  20)Cl   2                  0.00074
    84. RY*(  21)Cl   2                  0.00069
    85. RY*(  22)Cl   2                  0.00054
    86. RY*(  23)Cl   2                  0.00054
    87. RY*(  24)Cl   2                  0.00052
    88. RY*(  25)Cl   2                  0.00022
    89. RY*(  26)Cl   2                  0.00018
    90. RY*(  27)Cl   2                  0.00015
    91. RY*(  28)Cl   2                  0.00015
    92. RY*(  29)Cl   2                  0.00015
    93. RY*(  30)Cl   2                  0.00014
    94. RY*(  31)Cl   2                  0.00014
    95. RY*(  32)Cl   2                  0.00015
    96. RY*(  33)Cl   2                  0.00012
    97. RY*(  34)Cl   2                  0.00011
    98. RY*(  35)Cl   2                  0.00010
    99. RY*(  36)Cl   2                  0.00010
   100. RY*(  37)Cl   2                  0.00008
   101. RY*(  38)Cl   2                  0.00007
   102. RY*(  39)Cl   2                  0.00005
   103. RY*(  40)Cl   2                  0.00002
   104. RY*(  41)Cl   2                  0.00003
       -------------------------------
              Total Lewis   17.75542  ( 99.1804%)
        Valence non-Lewis    0.00000  (  0.0000%)
        Rydberg non-Lewis    0.14673  (  0.8196%)
       -------------------------------
            Total unit  2   17.90214  (100.0000%)
           Charge unit  2   -0.90214
 Leave Link  607 at Wed Sep 22 16:32:10 2021, MaxMem= 16106127360 cpu:              76.4 elap:               2.8
 (Enter /sw/contrib/gaussian/g16/B01/g16/l9999.exe)
 1\1\GINC-N2096\SP\RMP2-FC\Aug-CC-pVTZ\Cl2H1O1(1-)\CGAVINH\22-Sep-2021\
 0\\#p pop=NBO SP NoSymm mp2/aug-cc-pvtz density=current\\title\\-1,1\O
 ,0,0.,0.,0.\Cl,0,2.904676,0.,0.\Cl,0,-0.3936866,1.6360486,0.\H,0,0.911
 047777,0.,0.424828555\\Version=ES64L-G16RevB.01\HF=-994.517463\MP2=-99
 5.1837543\RMSD=5.054e-09\Dipole=-2.1107323,0.9533206,0.1569917\Quadrup
 ole=-16.8038886,8.1779002,8.6259883,0.3522802,0.178776,-0.1024613\PG=C
 01 [X(Cl2H1O1)]\\@


 KNOWLEDGE IS EXPERIMENT'S DAUGHTER.
 -- LEONARDO DA VINCI, IN "PENSIERI" CA. 1492
 Job cpu time:       0 days  0 hours  4 minutes 34.9 seconds.
 Elapsed time:       0 days  0 hours  0 minutes 15.1 seconds.
 File lengths (MBytes):  RWF=     14 Int=      0 D2E=      0 Chk=      8 Scr=      1
 Normal termination of Gaussian 16 at Wed Sep 22 16:32:10 2021.
