title                                                                   
SP        RMP2-FC                                                     Aug-CC-pVTZ         
Number of atoms                            I                4
Info1-9                                    I   N=           9
          40          13           0           0           0         110
           1           2           1
Full Title                                 C   N=           1
title       
Route                                      C   N=           5
#p pop=NBO SP NoSymm mp2/aug-cc-pvtz density=current        
Charge                                     I               -1
Multiplicity                               I                1
Number of electrons                        I               44
Number of alpha electrons                  I               22
Number of beta electrons                   I               22
Number of basis functions                  I              169
Number of independent functions            I              169
Number of point charges in /Mol/           I                0
Number of translation vectors              I                0
Atomic numbers                             I   N=           4
           8          17          17           1
Nuclear charges                            R   N=           4
  8.00000000E+00  1.70000000E+01  1.70000000E+01  1.00000000E+00
Current cartesian coordinates              R   N=          12
  0.00000000E+00  0.00000000E+00  0.00000000E+00  5.48904212E+00  0.00000000E+00
  0.00000000E+00 -7.43959853E-01  3.09168378E+00  0.00000000E+00  1.53625486E+00
  0.00000000E+00  1.07569724E+00
Number of symbols in /Mol/                 I                0
Force Field                                I                0
Atom Types                                 C   N=           4
                                                
Int Atom Types                             I   N=           4
           0           0           0           0
MM charges                                 R   N=           4
  0.00000000E+00  0.00000000E+00  0.00000000E+00  0.00000000E+00
Integer atomic weights                     I   N=           4
          16          35          35           1
Real atomic weights                        R   N=           4
  1.59949146E+01  3.49688527E+01  3.49688527E+01  1.00782504E+00
Atom fragment info                         I   N=           4
           0           0           0           0
Atom residue num                           I   N=           4
           0           0           0           0
Nuclear spins                              I   N=           4
           0           3           3           1
Nuclear ZEff                               R   N=           4
 -5.60000000E+00 -1.42400000E+01 -1.42400000E+01 -1.00000000E+00
Nuclear ZNuc                               R   N=           4
  8.00000000E+00  1.70000000E+01  1.70000000E+01  1.00000000E+00
Nuclear QMom                               R   N=           4
  0.00000000E+00 -8.16500000E+00 -8.16500000E+00  0.00000000E+00
Nuclear GFac                               R   N=           4
  0.00000000E+00  8.21874000E-01  8.21874000E-01  2.79284600E+00
MicOpt                                     I   N=           4
          -1          -1          -1          -1
Number of residues                         I                0
Number of secondary structures             I                0
Number of contracted shells                I               55
Number of primitive shells                 I              140
Pure/Cartesian d shells                    I                0
Pure/Cartesian f shells                    I                0
Highest angular momentum                   I                3
Largest degree of contraction              I               11
Shell types                                I   N=          55
           0           0           0           0           0           1
           1           1           1          -2          -2          -2
          -3          -3           0           0           0           0
           0           0           1           1           1           1
           1          -2          -2          -2          -3          -3
           0           0           0           0           0           0
           1           1           1           1           1          -2
          -2          -2          -3          -3           0           0
           0           0           1           1           1          -2
          -2
Number of primitives per shell             I   N=          55
           7           6           1           1           1           3
           1           1           1           1           1           1
           1           1          11           9           8           1
           1           1           6           6           1           1
           1           1           1           1           1           1
          11           9           8           1           1           1
           6           6           1           1           1           1
           1           1           1           1           3           1
           1           1           1           1           1           1
           1
Shell to atom map                          I   N=          55
           1           1           1           1           1           1
           1           1           1           1           1           1
           1           1           2           2           2           2
           2           2           2           2           2           2
           2           2           2           2           2           2
           3           3           3           3           3           3
           3           3           3           3           3           3
           3           3           3           3           4           4
           4           4           4           4           4           4
           4
Primitive exponents                        R   N=         140
  1.53300000E+04  2.29900000E+03  5.22400000E+02  1.47300000E+02  4.75500000E+01
  1.67600000E+01  6.20700000E+00  5.22400000E+02  1.47300000E+02  4.75500000E+01
  1.67600000E+01  6.20700000E+00  6.88200000E-01  1.75200000E+00  2.38400000E-01
  7.37600000E-02  3.44600000E+01  7.74900000E+00  2.28000000E+00  7.15600000E-01
  2.14000000E-01  5.97400000E-02  2.31400000E+00  6.45000000E-01  2.14000000E-01
  1.42800000E+00  5.00000000E-01  4.56100000E+05  6.83300000E+04  1.55500000E+04
  4.40500000E+03  1.43900000E+03  5.20400000E+02  2.03100000E+02  8.39600000E+01
  3.62000000E+01  1.58300000E+01  6.33400000E+00  4.40500000E+03  1.43900000E+03
  5.20400000E+02  2.03100000E+02  8.39600000E+01  3.62000000E+01  1.58300000E+01
  6.33400000E+00  2.69400000E+00  1.43900000E+03  2.03100000E+02  8.39600000E+01
  3.62000000E+01  1.58300000E+01  6.33400000E+00  2.69400000E+00  4.31300000E-01
  9.76800000E-01  1.62500000E-01  5.91000000E-02  6.63300000E+02  1.56800000E+02
  4.99800000E+01  1.84200000E+01  7.24000000E+00  2.92200000E+00  1.56800000E+02
  4.99800000E+01  1.84200000E+01  7.24000000E+00  2.92200000E+00  3.81800000E-01
  1.02200000E+00  1.30100000E-01  4.19000000E-02  1.04600000E+00  3.44000000E-01
  1.35000000E-01  7.06000000E-01  3.12000000E-01  4.56100000E+05  6.83300000E+04
  1.55500000E+04  4.40500000E+03  1.43900000E+03  5.20400000E+02  2.03100000E+02
  8.39600000E+01  3.62000000E+01  1.58300000E+01  6.33400000E+00  4.40500000E+03
  1.43900000E+03  5.20400000E+02  2.03100000E+02  8.39600000E+01  3.62000000E+01
  1.58300000E+01  6.33400000E+00  2.69400000E+00  1.43900000E+03  2.03100000E+02
  8.39600000E+01  3.62000000E+01  1.58300000E+01  6.33400000E+00  2.69400000E+00
  4.31300000E-01  9.76800000E-01  1.62500000E-01  5.91000000E-02  6.63300000E+02
  1.56800000E+02  4.99800000E+01  1.84200000E+01  7.24000000E+00  2.92200000E+00
  1.56800000E+02  4.99800000E+01  1.84200000E+01  7.24000000E+00  2.92200000E+00
  3.81800000E-01  1.02200000E+00  1.30100000E-01  4.19000000E-02  1.04600000E+00
  3.44000000E-01  1.35000000E-01  7.06000000E-01  3.12000000E-01  3.38700000E+01
  5.09500000E+00  1.15900000E+00  3.25800000E-01  1.02700000E-01  2.52600000E-02
  1.40700000E+00  3.88000000E-01  1.02000000E-01  1.05700000E+00  2.47000000E-01
Contraction coefficients                   R   N=         140
  5.19808943E-04  4.02025621E-03  2.07128267E-02  8.10105536E-02  2.35962985E-01
  4.42653446E-01  3.57064423E-01 -4.42115008E-05 -1.22591041E-03 -1.05517725E-02
 -6.74452633E-02 -1.71198607E-01  1.07329856E+00  1.00000000E+00  1.00000000E+00
  1.00000000E+00  4.11634896E-02  2.57762836E-01  8.02419274E-01  1.00000000E+00
  1.00000000E+00  1.00000000E+00  1.00000000E+00  1.00000000E+00  1.00000000E+00
  1.00000000E+00  1.00000000E+00  4.93229477E-05  3.83207967E-04  2.00947816E-03
  8.38950124E-03  2.94843950E-02  8.78759948E-02  2.11589759E-01  3.65611554E-01
  3.41246350E-01  1.02162570E-01  2.14249949E-03 -2.21747925E-06 -1.71189708E-04
 -1.27922846E-03 -9.32956265E-03 -3.98910062E-02 -1.05536085E-01  9.36202446E-03
  5.10511140E-01  5.73150737E-01  4.03949245E-06  2.12481765E-04  8.59484452E-04
  4.63248159E-03  4.47343490E-04 -7.38438245E-02 -3.62271994E-01  1.16620337E+00
  1.00000000E+00  1.00000000E+00  1.00000000E+00  2.47206402E-03  1.97550234E-02
  9.09917355E-02  2.63187834E-01  4.49078073E-01  3.60183072E-01  3.03427809E-05
 -1.22475826E-03 -6.01429772E-03 -2.76401323E-02  4.35105612E-04  1.00307272E+00
  1.00000000E+00  1.00000000E+00  1.00000000E+00  1.00000000E+00  1.00000000E+00
  1.00000000E+00  1.00000000E+00  1.00000000E+00  4.93229477E-05  3.83207967E-04
  2.00947816E-03  8.38950124E-03  2.94843950E-02  8.78759948E-02  2.11589759E-01
  3.65611554E-01  3.41246350E-01  1.02162570E-01  2.14249949E-03 -2.21747925E-06
 -1.71189708E-04 -1.27922846E-03 -9.32956265E-03 -3.98910062E-02 -1.05536085E-01
  9.36202446E-03  5.10511140E-01  5.73150737E-01  4.03949245E-06  2.12481765E-04
  8.59484452E-04  4.63248159E-03  4.47343490E-04 -7.38438245E-02 -3.62271994E-01
  1.16620337E+00  1.00000000E+00  1.00000000E+00  1.00000000E+00  2.47206402E-03
  1.97550234E-02  9.09917355E-02  2.63187834E-01  4.49078073E-01  3.60183072E-01
  3.03427809E-05 -1.22475826E-03 -6.01429772E-03 -2.76401323E-02  4.35105612E-04
  1.00307272E+00  1.00000000E+00  1.00000000E+00  1.00000000E+00  1.00000000E+00
  1.00000000E+00  1.00000000E+00  1.00000000E+00  1.00000000E+00  2.54948632E-02
  1.90362766E-01  8.52162022E-01  1.00000000E+00  1.00000000E+00  1.00000000E+00
  1.00000000E+00  1.00000000E+00  1.00000000E+00  1.00000000E+00  1.00000000E+00
Coordinates of each shell                  R   N=         165
  0.00000000E+00  0.00000000E+00  0.00000000E+00  0.00000000E+00  0.00000000E+00
  0.00000000E+00  0.00000000E+00  0.00000000E+00  0.00000000E+00  0.00000000E+00
  0.00000000E+00  0.00000000E+00  0.00000000E+00  0.00000000E+00  0.00000000E+00
  0.00000000E+00  0.00000000E+00  0.00000000E+00  0.00000000E+00  0.00000000E+00
  0.00000000E+00  0.00000000E+00  0.00000000E+00  0.00000000E+00  0.00000000E+00
  0.00000000E+00  0.00000000E+00  0.00000000E+00  0.00000000E+00  0.00000000E+00
  0.00000000E+00  0.00000000E+00  0.00000000E+00  0.00000000E+00  0.00000000E+00
  0.00000000E+00  0.00000000E+00  0.00000000E+00  0.00000000E+00  0.00000000E+00
  0.00000000E+00  0.00000000E+00  5.48904212E+00  0.00000000E+00  0.00000000E+00
  5.48904212E+00  0.00000000E+00  0.00000000E+00  5.48904212E+00  0.00000000E+00
  0.00000000E+00  5.48904212E+00  0.00000000E+00  0.00000000E+00  5.48904212E+00
  0.00000000E+00  0.00000000E+00  5.48904212E+00  0.00000000E+00  0.00000000E+00
  5.48904212E+00  0.00000000E+00  0.00000000E+00  5.48904212E+00  0.00000000E+00
  0.00000000E+00  5.48904212E+00  0.00000000E+00  0.00000000E+00  5.48904212E+00
  0.00000000E+00  0.00000000E+00  5.48904212E+00  0.00000000E+00  0.00000000E+00
  5.48904212E+00  0.00000000E+00  0.00000000E+00  5.48904212E+00  0.00000000E+00
  0.00000000E+00  5.48904212E+00  0.00000000E+00  0.00000000E+00  5.48904212E+00
  0.00000000E+00  0.00000000E+00  5.48904212E+00  0.00000000E+00  0.00000000E+00
 -7.43959853E-01  3.09168378E+00  0.00000000E+00 -7.43959853E-01  3.09168378E+00
  0.00000000E+00 -7.43959853E-01  3.09168378E+00  0.00000000E+00 -7.43959853E-01
  3.09168378E+00  0.00000000E+00 -7.43959853E-01  3.09168378E+00  0.00000000E+00
 -7.43959853E-01  3.09168378E+00  0.00000000E+00 -7.43959853E-01  3.09168378E+00
  0.00000000E+00 -7.43959853E-01  3.09168378E+00  0.00000000E+00 -7.43959853E-01
  3.09168378E+00  0.00000000E+00 -7.43959853E-01  3.09168378E+00  0.00000000E+00
 -7.43959853E-01  3.09168378E+00  0.00000000E+00 -7.43959853E-01  3.09168378E+00
  0.00000000E+00 -7.43959853E-01  3.09168378E+00  0.00000000E+00 -7.43959853E-01
  3.09168378E+00  0.00000000E+00 -7.43959853E-01  3.09168378E+00  0.00000000E+00
 -7.43959853E-01  3.09168378E+00  0.00000000E+00  1.53625486E+00  0.00000000E+00
  1.07569724E+00  1.53625486E+00  0.00000000E+00  1.07569724E+00  1.53625486E+00
  0.00000000E+00  1.07569724E+00  1.53625486E+00  0.00000000E+00  1.07569724E+00
  1.53625486E+00  0.00000000E+00  1.07569724E+00  1.53625486E+00  0.00000000E+00
  1.07569724E+00  1.53625486E+00  0.00000000E+00  1.07569724E+00  1.53625486E+00
  0.00000000E+00  1.07569724E+00  1.53625486E+00  0.00000000E+00  1.07569724E+00
Num ILSW                                   I              100
ILSW                                       I   N=         100
           0           0           0           0           2           0
           0           0           0           0           0          -1
           5           0           0           0           0           0
           0           0           0           0           0           0
           1           1           0           0           0           0
           0           0      100000           0          -1           0
           0           0           0           0           0           0
           0           0           0           1           0           0
           0 -2000000000           1           0           0           0
           0           0           4          52           0           0
           0           0           0           0           0           0
           0           0           0           4           0           1
           0           0           0           0           0           0
           0           0           0           0           0           0
           0           0           0           0           0           0
           0           0           0           0           0           0
           0           0           0           0
Num RLSW                                   I               52
RLSW                                       R   N=          52
  1.00000000E+00  1.00000000E+00  1.00000000E+00  1.00000000E+00  1.00000000E+00
  0.00000000E+00  0.00000000E+00  1.00000000E+00  0.00000000E+00  0.00000000E+00
  0.00000000E+00  0.00000000E+00  1.00000000E+00  0.00000000E+00  0.00000000E+00
  0.00000000E+00  0.00000000E+00  1.00000000E+00  0.00000000E+00  0.00000000E+00
  0.00000000E+00  0.00000000E+00  1.00000000E+00  0.00000000E+00  0.00000000E+00
  0.00000000E+00  0.00000000E+00  1.00000000E+00  0.00000000E+00  0.00000000E+00
  0.00000000E+00  0.00000000E+00  1.00000000E+00  0.00000000E+00  0.00000000E+00
  0.00000000E+00  0.00000000E+00  0.00000000E+00  1.00000000E+00  1.00000000E+00
  0.00000000E+00  1.00000000E+00  0.00000000E+00  0.00000000E+00  0.00000000E+00
  0.00000000E+00  0.00000000E+00  0.00000000E+00  0.00000000E+00  0.00000000E+00
  0.00000000E+00  0.00000000E+00
MxBond                                     I                2
NBond                                      I   N=           4
           2           0           1           1
IBond                                      I   N=           8
           3           4           0           0           1           0
           1           0
RBond                                      R   N=           8
  1.00000000E+00  1.00000000E+00  0.00000000E+00  0.00000000E+00  1.00000000E+00
  0.00000000E+00  1.00000000E+00  0.00000000E+00
Virial Ratio                               R      2.000137148526853E+00
SCF Energy                                 R     -9.945122674155487E+02
MP2 Energy                                 R     -9.951773767126376E+02
Total Energy                               R     -9.951773767126376E+02
Post-SCF wavefunction norm                 R      1.103498680849426E+00
RMS Density                                R      5.784245446611056E-09
Job Status                                 I                1
Nuclear derivative order                   I                0
External E-field                           R   N=          35
  0.00000000E+00  0.00000000E+00  0.00000000E+00  0.00000000E+00  0.00000000E+00
  0.00000000E+00  0.00000000E+00  0.00000000E+00  0.00000000E+00  0.00000000E+00
  0.00000000E+00  0.00000000E+00  0.00000000E+00  0.00000000E+00  0.00000000E+00
  0.00000000E+00  0.00000000E+00  0.00000000E+00  0.00000000E+00  0.00000000E+00
  0.00000000E+00  0.00000000E+00  0.00000000E+00  0.00000000E+00  0.00000000E+00
  0.00000000E+00  0.00000000E+00  0.00000000E+00  0.00000000E+00  0.00000000E+00
  0.00000000E+00  0.00000000E+00  0.00000000E+00  0.00000000E+00  0.00000000E+00
IOpCl                                      I                0
IROHF                                      I                0
Alpha Orbital Energies                     R   N=         169
 -1.04732657E+02 -1.04532488E+02 -2.04675683E+01 -1.04522898E+01 -1.02570853E+01
 -7.91947644E+00 -7.91679881E+00 -7.91665506E+00 -7.72320413E+00 -7.72308756E+00
 -7.72307500E+00 -1.23809114E+00 -8.98034962E-01 -7.67851217E-01 -5.46352341E-01
 -4.46770744E-01 -4.37986019E-01 -3.10077523E-01 -2.83159561E-01 -1.85339112E-01
 -1.80191642E-01 -1.78808936E-01  1.56420556E-01  1.81948449E-01  2.24053175E-01
  2.32175053E-01  2.62070828E-01  2.74666383E-01  2.81384458E-01  2.88579380E-01
  3.02471061E-01  3.18960983E-01  3.35929772E-01  3.48637977E-01  4.08930802E-01
  4.14035198E-01  4.62631838E-01  4.87617740E-01  5.25523854E-01  5.41840608E-01
  5.56367456E-01  5.81023168E-01  5.86303545E-01  6.03292988E-01  6.13473044E-01
  6.22156741E-01  6.57597813E-01  6.66060760E-01  6.75721439E-01  6.90619244E-01
  7.62234923E-01  7.95247740E-01  8.52397428E-01  8.70871821E-01  8.84386721E-01
  8.97206638E-01  9.06636303E-01  9.24827780E-01  9.58910682E-01  9.85562514E-01
  9.97834869E-01  1.06328443E+00  1.08339274E+00  1.09632368E+00  1.10410489E+00
  1.11187255E+00  1.12842363E+00  1.14794988E+00  1.19450632E+00  1.19921847E+00
  1.20498593E+00  1.21697281E+00  1.22485103E+00  1.23929487E+00  1.26957277E+00
  1.28926865E+00  1.31436298E+00  1.34022631E+00  1.37889122E+00  1.39594009E+00
  1.42540509E+00  1.43340792E+00  1.44672004E+00  1.48993578E+00  1.49919714E+00
  1.54633858E+00  1.59072180E+00  1.61467926E+00  1.65515237E+00  1.68375076E+00
  1.71928724E+00  1.73260544E+00  1.76113400E+00  1.84148511E+00  1.85770600E+00
  1.87305716E+00  1.96641591E+00  1.97984727E+00  2.15762572E+00  2.37560660E+00
  2.42634532E+00  2.50762723E+00  2.51333452E+00  2.53831378E+00  2.60332431E+00
  2.62395333E+00  2.64726126E+00  2.68101050E+00  2.69625286E+00  2.70800321E+00
  2.72327702E+00  2.75099164E+00  2.77701636E+00  2.80460368E+00  2.81978631E+00
  2.82559275E+00  2.88794264E+00  2.90525549E+00  2.93418925E+00  2.95106826E+00
  2.99177524E+00  3.01407083E+00  3.05568803E+00  3.11190676E+00  3.17474112E+00
  3.20498563E+00  3.22129522E+00  3.24336721E+00  3.28612462E+00  3.29752198E+00
  3.33379983E+00  3.35084301E+00  3.35499745E+00  3.39729996E+00  3.42999450E+00
  3.48141122E+00  3.50713587E+00  3.52538416E+00  3.56332434E+00  3.59210772E+00
  3.62848620E+00  3.91466168E+00  4.13745828E+00  4.36414287E+00  4.49296777E+00
  4.57519330E+00  4.63499785E+00  4.73454667E+00  4.96195424E+00  5.01964926E+00
  5.37302450E+00  5.43596350E+00  5.68602651E+00  6.19690955E+00  6.43291169E+00
  6.67208001E+00  6.87935760E+00  6.90447592E+00  6.91874642E+00  6.99186728E+00
  7.33891952E+00  7.35711514E+00  7.35975312E+00  7.45757785E+00  7.52329331E+00
  7.74041608E+00  7.75591630E+00  8.38070750E+00  1.44767718E+01
Alpha MO coefficients                      R   N=       28561
  6.19616642E-06  3.38851959E-05  1.29608050E-06 -1.33950141E-04 -7.94818310E-05
 -7.40974601E-08  3.21956680E-06  5.74861326E-07 -2.83371585E-07 -9.84640673E-06
 -2.37993643E-06  5.29128944E-05 -1.50057996E-04  4.31953617E-06  1.47311995E-05
 -3.05952690E-05  4.15917154E-06 -1.93324037E-06  2.09858414E-07  1.48378933E-07
 -2.84816374E-06 -1.38633729E-06  1.32650317E-05 -2.21533922E-07 -9.43569935E-07
  2.06109760E-05  9.50488514E-06  2.57084283E-05  8.95622160E-06 -8.48395121E-06
  5.70645776E-05  1.45699099E-05 -3.13401083E-08 -7.64347929E-08  5.68590148E-07
 -8.00979619E-07  7.99727112E-07 -1.28212603E-06  6.32881174E-07 -2.35266794E-07
 -2.48323850E-06  1.07139590E-05  3.57197807E-06 -3.29733764E-06 -6.38699811E-06
  1.02829650E-05  2.02486007E-07  2.98947151E-06  7.67809208E-06 -1.80349822E-06
 -1.32734492E-05 -1.52107367E-05  5.46507402E-08 -4.62081044E-08  5.03580474E-09
 -1.01356198E-06 -3.22359894E-07  1.22077279E-07 -4.33384028E-07  1.57260707E-07
  2.06923419E-08  1.78962016E-05 -1.22623875E-08 -4.03609197E-06  4.38439797E-06
 -2.40636502E-07  2.53901050E-09 -2.65303358E-07 -1.11641664E-07 -1.33510872E-07
  6.43751361E-07  8.92339453E-09  9.70885045E-07  8.03264758E-07  5.75946214E-07
 -2.18018165E-06  1.50025978E-07  3.28134589E-06  2.13509593E-06 -1.28515104E-06
 -6.35536386E-06 -4.40576397E-07  7.77188014E-08 -7.77174975E-08  3.21048762E-07
 -1.74848729E-07 -5.38188384E-07 -7.35578256E-07 -7.74109171E-07  1.88702830E-07
 -7.35200160E-07 -5.62256408E-07 -1.54791986E-07  9.37379459E-07  2.77852617E-06
  1.42066135E-06  9.99534823E-01  1.95408895E-03  1.84713246E-04 -4.17756624E-04
  7.03734775E-05  6.84377336E-05  1.64209727E-05 -7.58602335E-05  2.26214204E-06
  3.55420900E-05 -1.34683023E-04  3.59511939E-06 -1.71199857E-05  7.19276057E-05
 -2.06613437E-06  6.86078574E-06 -5.28489640E-05 -2.24348374E-06  1.42441789E-06
 -1.11765510E-05 -1.20185353E-06 -3.64508697E-06  1.56196768E-07 -1.61802071E-07
 -5.39415156E-06 -3.33407596E-06 -2.80580064E-05  5.77209659E-07 -1.23916595E-06
 -4.28257743E-05 -2.35005391E-05 -2.25406393E-06 -3.34072808E-06  3.69453887E-07
 -7.33243404E-06  3.89550288E-07 -5.50533189E-07 -1.45590170E-06  5.78620051E-06
  3.54140875E-07 -1.19099440E-06 -5.13958231E-06  4.51360740E-06  8.43653900E-07
 -9.11744482E-07  3.48729177E-06 -1.21612737E-06  2.23752173E-06 -3.11253089E-06
  6.08173918E-06 -8.76166781E-07 -2.37932222E-05  2.12689277E-05 -4.89727771E-06
  6.26057773E-07 -2.23240506E-06  4.19598586E-07 -5.68868147E-06  1.66175196E-05
  3.55728866E-07  9.38601433E-06  1.39652602E-05 -3.90120108E-06 -6.73752234E-07
 -1.13911967E-07 -1.62250767E-07 -1.54644782E-06 -8.56872942E-07 -6.68368144E-06
  1.26342191E-06 -6.74803690E-07  5.81833574E-06 -4.39411538E-06 -3.39327404E-07
 -1.69587822E-06 -1.61718265E-07 -9.09209928E-06 -5.96990968E-06  2.23762481E-07
  6.32573486E-09  3.96844381E-07 -5.56077472E-07 -7.40463760E-08 -1.83762058E-06
  2.09071776E-05  2.25587151E-06  1.02092268E-05 -8.17756412E-06  2.37549523E-06
  8.36734540E-06  2.42432751E-07 -4.99715158E-07 -9.08430508E-08  9.42781269E-08
  2.15215722E-07 -9.74228130E-07  2.42549453E-06  3.66384114E-07 -3.07069180E-07
 -7.43632820E-07 -4.21398856E-06  8.96913306E-06  1.78033379E-06  1.08782197E-05
  4.44767695E-06  2.86055637E-07  3.71497224E-07 -4.58372075E-08 -1.00358400E-07
 -1.83392561E-07 -4.65133019E-07  2.47572474E-08 -2.08357542E-06 -4.67646276E-07
  5.95960789E-08  1.58573862E-06  8.52667166E-07  1.57507803E-06  2.47459335E-08
  9.99531774E-01  1.98076525E-03  2.08387182E-04 -4.21383991E-04 -1.59076106E-04
 -6.98521629E-06 -4.30740348E-06 -3.40274013E-07  4.78481588E-06 -1.48705546E-05
  4.21536900E-07  4.05750433E-06  5.47714459E-06  8.61515445E-08 -3.17762067E-06
  7.02505715E-05 -2.74173814E-06 -1.54155028E-05 -9.25879268E-07  4.42291185E-07
 -1.00370338E-06 -5.06995061E-07 -1.19724157E-06 -1.31053423E-07  1.39171842E-06
 -1.92864315E-07  1.38721192E-06  2.00771453E-06  3.95853995E-07 -3.18013525E-06
  5.24066941E-07  1.17656286E-05  9.99240223E-06 -8.72658512E-07 -2.28634714E-05
  1.13496244E-06 -8.97172701E-07  1.46205473E-06  5.39406226E-08  1.20464684E-06
 -3.75334927E-08 -2.72638345E-06  3.10716737E-07  3.22365732E-06 -4.12562071E-06
 -2.19956803E-08 -4.41718835E-06  5.36604305E-08  8.05638235E-06 -7.86401339E-07
  1.97043801E-07  3.02738488E-06  7.74665821E-06 -1.70003890E-06 -1.48941875E-05
 -1.57892501E-05 -1.49988326E-07 -5.23032866E-08 -2.27851962E-08 -6.18703387E-07
 -8.67065149E-07 -2.85606772E-07  6.78010647E-07 -2.40285503E-08  1.19738097E-07
 -1.46057720E-05  9.00758749E-06 -4.20119509E-06 -1.06999307E-06  2.03541457E-06
 -2.17614861E-06 -1.04307129E-07 -1.00927127E-07 -1.77437180E-07  2.83148262E-07
 -6.41911471E-07  7.99763211E-07 -7.89024488E-09  1.12416139E-06 -3.20619449E-07
  2.73002935E-06  3.03468797E-06 -2.67811244E-06  1.33197586E-06 -3.66652699E-06
  3.71467913E-06  2.06871672E-08  4.15734682E-07 -7.99651247E-08  7.60120030E-08
 -4.53781964E-08  2.81751447E-07 -7.20253552E-07  3.61327714E-07 -1.81545499E-07
 -5.18528137E-07  2.90603975E-07  7.81459377E-07 -4.98110618E-08  1.67477794E-06
 -1.33627638E-06 -3.58264755E-05  1.27702159E-04  5.78394710E-07 -2.06489386E-07
 -1.70410959E-07  1.13056837E-06  6.46221410E-06 -1.65917558E-06 -1.46640179E-08
  3.20602095E-05  1.47216401E-05 -3.65896136E-05  8.40833500E-08 -2.21143188E-07
  4.87855791E-07  3.71683176E-07  1.80532835E-07 -8.57698505E-06 -2.05762856E-07
 -2.63624178E-06  1.51960819E-05 -1.33526343E-06  9.76833770E-01 -9.08232381E-03
  4.33772756E-02  2.26198191E-03  4.48832532E-04  6.17694343E-04  1.55152295E-03
  8.82983813E-04 -7.07570464E-04 -1.20724953E-03 -8.18636069E-04 -2.12104913E-04
  7.61814610E-04 -2.33940329E-04 -1.12573515E-04  1.45078314E-04 -9.67370081E-05
  5.31207995E-05  2.78682183E-05  4.58855576E-07  1.01523970E-04  4.29704812E-05
  1.91621886E-04 -4.36857928E-04 -2.16825930E-05  1.19642375E-04  1.78762976E-04
 -1.94367640E-04 -4.16423618E-05  2.89324300E-05 -2.10273980E-04 -1.84968221E-04
  5.46906864E-06 -1.29442047E-05  1.25481866E-05 -6.62371508E-07 -1.31099042E-05
 -1.07686339E-05  1.13374824E-05  3.55476468E-05 -6.49676473E-05 -1.02825762E-05
 -1.11277333E-04 -2.84736738E-05 -4.47502826E-05 -4.67144980E-05 -1.99597868E-06
 -1.96559163E-05 -6.39652558E-05  5.39261497E-06  1.70780999E-04  1.69309891E-04
 -4.76528411E-06  1.39569019E-07  9.21264738E-07 -4.59360650E-06 -1.38716897E-06
  1.73842860E-05  1.63576779E-05 -5.77536625E-07 -6.11550368E-07 -1.87226610E-04
  2.93165299E-05 -1.54915519E-04 -3.74611661E-05 -1.03396654E-05 -8.64308483E-06
  7.88124467E-06 -7.02446055E-06  1.73688465E-06 -5.18031166E-06  4.14445211E-06
 -2.85641211E-05  2.83760400E-05 -6.66601987E-06  2.94715140E-05 -1.26637578E-05
 -9.54865590E-05  1.39775267E-04  1.47376320E-05  2.93358665E-05  4.48118716E-06
 -1.68134486E-06 -1.67572859E-05 -4.80753797E-06  2.19156316E-05  3.09391321E-06
 -2.28991611E-05  2.23976875E-06  2.11205270E-05  8.08946249E-05  8.27969022E-06
 -7.42137576E-05 -4.46246490E-06  2.71444750E-05 -3.28450667E-06  4.28733823E-06
  6.86013892E-05  7.81254415E-05 -2.69211031E-04 -1.42202776E-04 -4.48546190E-04
 -5.42886958E-06 -3.35739757E-06 -3.38629547E-06  2.52516281E-05 -5.01255360E-04
 -5.37464364E-05 -3.10802313E-05  2.38379967E-04  1.53055845E-05  2.09080731E-04
  4.66806505E-04  9.82065326E-05 -2.14324957E-05  1.01687945E-04  2.24870284E-05
  1.30785446E-05 -2.25524849E-06 -9.69764684E-07  9.69616329E-06  1.07925624E-05
 -2.88891643E-04 -4.91335184E-07  3.57225820E-05 -4.35397261E-04 -1.93531401E-04
  1.31096418E-04  5.51280010E-05 -5.80401668E-05  3.47990501E-04 -2.94045190E-05
  1.12621092E-05 -3.34346410E-05  1.61601482E-04  1.37256762E-06  8.81058838E-06
 -1.29360132E-04  1.88036015E-04 -1.42489556E-05 -2.84440222E-05  9.31322003E-05
  2.06662070E-05 -1.99866664E-05 -7.44174086E-05  4.07106017E-05  4.00846743E-04
  1.51786738E-03 -6.08694237E-04 -1.18319996E-05 -2.17036605E-04  5.43282538E-05
 -1.49276837E-04 -9.03241129E-04 -2.09583152E-05 -4.86970806E-04 -1.45301153E-04
 -2.43041997E-04  4.33162115E-04 -2.43744338E-05 -3.50554443E-05 -4.33852236E-05
  1.04710498E-05 -5.60183851E-05 -1.11481439E-04  5.04767023E-04  1.62485940E-05
  4.14454168E-04  4.64873132E-05 -7.90754335E-05 -1.11058198E-04 -1.01743834E-04
  2.42679665E-03  1.81359003E-03 -2.10174214E-05  3.73494363E-05 -9.73877609E-06
 -9.95141351E-05  5.89453425E-04  4.34303224E-05 -7.08418392E-04  2.45077180E-03
  2.70442966E-05 -3.30248474E-04  7.60725321E-04 -1.00258171E-04 -2.97313729E-05
 -5.53718449E-06 -8.28962246E-06 -4.67815345E-05 -3.38748898E-05 -1.64919686E-04
  3.22646858E-05  6.28977970E-05 -2.56369291E-04 -5.34455063E-05 -2.67018069E-04
 -1.12764190E-04  1.93383270E-04 -7.43751805E-04 -6.01582565E-06 -5.13306049E-06
  9.36560830E-06 -2.90934972E-05  1.70990198E-05 -1.07655076E-05  4.15233131E-05
 -3.37650410E-05  9.83519240E-06  1.52373645E-05  1.58901184E-05 -4.05610507E-05
  1.24950784E-04 -4.66270153E-05  8.48809335E-05 -3.41584717E-06 -4.71025264E-05
 -1.27261668E-04  2.40811888E-05  2.06670303E-04  3.33776664E-04  1.55840451E-07
  9.85651418E-07 -2.07491757E-08  2.89094524E-05 -1.99486707E-06 -1.89122356E-06
  4.11519429E-06 -2.33839810E-06 -8.24107621E-07 -3.51942059E-04  3.17202366E-05
  7.17923561E-05 -1.41242307E-04  6.20285794E-05 -2.83391682E-05  1.62221493E-06
  5.45423848E-06  3.85662097E-06 -1.07889394E-05 -2.15895791E-06 -4.76247863E-06
 -2.44184251E-05 -1.61078583E-05  3.69149385E-05  7.38760942E-06 -9.92060171E-05
 -2.31145337E-05  3.63695104E-05  1.27309104E-04 -4.55172472E-05 -7.50498046E-07