 Entering Gaussian System, Link 0=g16
 Input=clhocl_5_sp.gjf
 Output=clhocl_5_sp.log
 Initial command:
 /sw/contrib/gaussian/g16/B01/g16/l1.exe "/scr/Gau-26210.inp" -scrdir="/scr/"
 Entering Link 1 = /sw/contrib/gaussian/g16/B01/g16/l1.exe PID=     26211.
  
 Copyright (c) 1988-2017, Gaussian, Inc.  All Rights Reserved.
  
 This is part of the Gaussian(R) 16 program.  It is based on
 the Gaussian(R) 09 system (copyright 2009, Gaussian, Inc.),
 the Gaussian(R) 03 system (copyright 2003, Gaussian, Inc.),
 the Gaussian(R) 98 system (copyright 1998, Gaussian, Inc.),
 the Gaussian(R) 94 system (copyright 1995, Gaussian, Inc.),
 the Gaussian 92(TM) system (copyright 1992, Gaussian, Inc.),
 the Gaussian 90(TM) system (copyright 1990, Gaussian, Inc.),
 the Gaussian 88(TM) system (copyright 1988, Gaussian, Inc.),
 the Gaussian 86(TM) system (copyright 1986, Carnegie Mellon
 University), and the Gaussian 82(TM) system (copyright 1983,
 Carnegie Mellon University). Gaussian is a federally registered
 trademark of Gaussian, Inc.
  
 This software contains proprietary and confidential information,
 including trade secrets, belonging to Gaussian, Inc.
  
 This software is provided under written license and may be
 used, copied, transmitted, or stored only in accord with that
 written license.
  
 The following legend is applicable only to US Government
 contracts under FAR:
  
                    RESTRICTED RIGHTS LEGEND
  
 Use, reproduction and disclosure by the US Government is
 subject to restrictions as set forth in subparagraphs (a)
 and (c) of the Commercial Computer Software - Restricted
 Rights clause in FAR 52.227-19.
  
 Gaussian, Inc.
 340 Quinnipiac St., Bldg. 40, Wallingford CT 06492
  
  
 ---------------------------------------------------------------
 Warning -- This program may not be used in any manner that
 competes with the business of Gaussian, Inc. or will provide
 assistance to any competitor of Gaussian, Inc.  The licensee
 of this program is prohibited from giving any competitor of
 Gaussian, Inc. access to this program.  By using this program,
 the user acknowledges that Gaussian, Inc. is engaged in the
 business of creating and licensing software in the field of
 computational chemistry and represents and warrants to the
 licensee that it is not a competitor of Gaussian, Inc. and that
 it will not use this program in any manner prohibited above.
 ---------------------------------------------------------------
  

 Cite this work as:
 Gaussian 16, Revision B.01,
 M. J. Frisch, G. W. Trucks, H. B. Schlegel, G. E. Scuseria, 
 M. A. Robb, J. R. Cheeseman, G. Scalmani, V. Barone, 
 G. A. Petersson, H. Nakatsuji, X. Li, M. Caricato, A. V. Marenich, 
 J. Bloino, B. G. Janesko, R. Gomperts, B. Mennucci, H. P. Hratchian, 
 J. V. Ortiz, A. F. Izmaylov, J. L. Sonnenberg, D. Williams-Young, 
 F. Ding, F. Lipparini, F. Egidi, J. Goings, B. Peng, A. Petrone, 
 T. Henderson, D. Ranasinghe, V. G. Zakrzewski, J. Gao, N. Rega, 
 G. Zheng, W. Liang, M. Hada, M. Ehara, K. Toyota, R. Fukuda, 
 J. Hasegawa, M. Ishida, T. Nakajima, Y. Honda, O. Kitao, H. Nakai, 
 T. Vreven, K. Throssell, J. A. Montgomery, Jr., J. E. Peralta, 
 F. Ogliaro, M. J. Bearpark, J. J. Heyd, E. N. Brothers, K. N. Kudin, 
 V. N. Staroverov, T. A. Keith, R. Kobayashi, J. Normand, 
 K. Raghavachari, A. P. Rendell, J. C. Burant, S. S. Iyengar, 
 J. Tomasi, M. Cossi, J. M. Millam, M. Klene, C. Adamo, R. Cammi, 
 J. W. Ochterski, R. L. Martin, K. Morokuma, O. Farkas, 
 J. B. Foresman, and D. J. Fox, Gaussian, Inc., Wallingford CT, 2016.
 
 ******************************************
 Gaussian 16:  ES64L-G16RevB.01 20-Dec-2017
                22-Sep-2021 
 ******************************************
 %nproc=28
 Will use up to   28 processors via shared memory.
 %mem=120GB
 %chk=/gscratch/ilahie/mccoygrp/coire_hocl/clhocl/clhocl_5_sp.chk
 ----------------------------------------------------
 #p pop=NBO SP NoSymm mp2/aug-cc-pvtz density=current
 ----------------------------------------------------
 1/30=1,38=1,172=1/1;
 2/12=2,15=1,17=6,18=5,40=1/2;
 3/5=16,6=1,7=10,11=9,25=1,30=1,71=1/1,2,3;
 4//1;
 5/5=2,38=5/2;
 8/6=4,10=1/1;
 9/15=1,16=-3/6;
 10/5=1,13=10,31=1/2;
 6/7=2,8=2,9=2,10=2,22=-1,40=1/1,7;
 99/5=1,9=1/99;
 Leave Link    1 at Wed Sep 22 16:30:49 2021, MaxMem= 16106127360 cpu:               0.8 elap:               0.0
 (Enter /sw/contrib/gaussian/g16/B01/g16/l101.exe)
 -----
 title
 -----
 Symbolic Z-matrix:
 Charge = -1 Multiplicity = 1
 O                     0.        0.        0. 
 Cl                    2.90468   0.        0. 
 Cl                   -0.39369   1.63605   0. 
 H                     1.02376   0.        0.08957 
 
 ITRead=  0  0  0  0
 MicOpt= -1 -1 -1 -1
 NAtoms=      4 NQM=        4 NQMF=       0 NMMI=      0 NMMIF=      0
                NMic=       0 NMicF=      0.
                    Isotopes and Nuclear Properties:
 (Nuclear quadrupole moments (NQMom) in fm**2, nuclear magnetic moments (NMagM)
  in nuclear magnetons)

  Atom         1           2           3           4
 IAtWgt=          16          35          35           1
 AtmWgt=  15.9949146  34.9688527  34.9688527   1.0078250
 NucSpn=           0           3           3           1
 AtZEff=  -0.0000000  -0.0000000  -0.0000000  -0.0000000
 NQMom=    0.0000000  -8.1650000  -8.1650000   0.0000000
 NMagM=    0.0000000   0.8218740   0.8218740   2.7928460
 AtZNuc=   8.0000000  17.0000000  17.0000000   1.0000000
 Leave Link  101 at Wed Sep 22 16:30:50 2021, MaxMem= 16106127360 cpu:               2.7 elap:               0.1
 (Enter /sw/contrib/gaussian/g16/B01/g16/l202.exe)
                          Input orientation:                          
 ---------------------------------------------------------------------
 Center     Atomic      Atomic             Coordinates (Angstroms)
 Number     Number       Type             X           Y           Z
 ---------------------------------------------------------------------
      1          8           0        0.000000    0.000000    0.000000
      2         17           0        2.904676    0.000000    0.000000
      3         17           0       -0.393687    1.636049    0.000000
      4          1           0        1.023759    0.000000    0.089567
 ---------------------------------------------------------------------
                    Distance matrix (angstroms):
                    1          2          3          4
     1  O    0.000000
     2  Cl   2.904676   0.000000
     3  Cl   1.682749   3.681827   0.000000
     4  H    1.027670   1.883048   2.166525   0.000000
 Symmetry turned off by external request.
 Stoichiometry    Cl2HO(1-)
 Framework group  C1[X(Cl2HO)]
 Deg. of freedom     6
 Full point group                 C1      NOp   1
 Rotational constants (GHZ):          23.6870504           2.0596744           1.8950171
 Leave Link  202 at Wed Sep 22 16:30:50 2021, MaxMem= 16106127360 cpu:               0.2 elap:               0.0
 (Enter /sw/contrib/gaussian/g16/B01/g16/l301.exe)
 Standard basis: Aug-CC-pVTZ (5D, 7F)
 Ernie: Thresh=  0.10000D-02 Tol=  0.10000D-05 Strict=F.
 Ernie:  29 primitive shells out of 169 were deleted.
   169 basis functions,   327 primitive gaussians,   198 cartesian basis functions
    22 alpha electrons       22 beta electrons
       nuclear repulsion energy       122.1309316499 Hartrees.
 IExCor=    0 DFT=F Ex=HF Corr=None ExCW=0 ScaHFX=  1.000000
 ScaDFX=  1.000000  1.000000  1.000000  1.000000 ScalE2=  1.000000  1.000000
 IRadAn=      5 IRanWt=     -1 IRanGd=            0 ICorTp=0 IEmpDi=  4
 NAtoms=    4 NActive=    4 NUniq=    4 SFac= 1.00D+00 NAtFMM=   60 NAOKFM=F Big=F
 Integral buffers will be    131072 words long.
 Raffenetti 1 integral format.
 Two-electron integral symmetry is turned off.
 Leave Link  301 at Wed Sep 22 16:30:50 2021, MaxMem= 16106127360 cpu:               2.6 elap:               0.1
 (Enter /sw/contrib/gaussian/g16/B01/g16/l302.exe)
 NPDir=0 NMtPBC=     1 NCelOv=     1 NCel=       1 NClECP=     1 NCelD=      1
         NCelK=      1 NCelE2=     1 NClLst=     1 CellRange=     0.0.
 One-electron integrals computed using PRISM.
 NBasis=   169 RedAO= T EigKep=  2.41D-04  NBF=   169
 NBsUse=   169 1.00D-06 EigRej= -1.00D+00 NBFU=   169
 Leave Link  302 at Wed Sep 22 16:30:50 2021, MaxMem= 16106127360 cpu:               5.8 elap:               0.2
 (Enter /sw/contrib/gaussian/g16/B01/g16/l303.exe)
 DipDrv:  MaxL=1.
 Leave Link  303 at Wed Sep 22 16:30:50 2021, MaxMem= 16106127360 cpu:               6.5 elap:               0.3
 (Enter /sw/contrib/gaussian/g16/B01/g16/l401.exe)
 ExpMin= 2.53D-02 ExpMax= 4.56D+05 ExpMxC= 1.44D+03 IAcc=3 IRadAn=         5 AccDes= 0.00D+00
 Harris functional with IExCor=  205 and IRadAn=       5 diagonalized for initial guess.
 HarFok:  IExCor=  205 AccDes= 0.00D+00 IRadAn=         5 IDoV= 1 UseB2=F ITyADJ=14
 ICtDFT=  3500011 ScaDFX=  1.000000  1.000000  1.000000  1.000000
 FoFCou: FMM=F IPFlag=           0 FMFlag=      100000 FMFlg1=           0
         NFxFlg=           0 DoJE=T BraDBF=F KetDBF=T FulRan=T
         wScrn=  0.000000 ICntrl=       500 IOpCl=  0 I1Cent=   200000004 NGrid=           0
         NMat0=    1 NMatS0=      1 NMatT0=    0 NMatD0=    1 NMtDS0=    0 NMtDT0=    0
 Symmetry not used in FoFCou.
 Harris En= -993.822036174961    
 JPrj=0 DoOrth=F DoCkMO=F.
 Leave Link  401 at Wed Sep 22 16:30:51 2021, MaxMem= 16106127360 cpu:              20.5 elap:               0.8
 (Enter /sw/contrib/gaussian/g16/B01/g16/l502.exe)
 Keep R1 ints in memory in canonical form, NReq=117119305.
 FoFCou: FMM=F IPFlag=           0 FMFlag=           0 FMFlg1=           0
         NFxFlg=           0 DoJE=F BraDBF=F KetDBF=F FulRan=T
         wScrn=  0.000000 ICntrl=       600 IOpCl=  0 I1Cent=           0 NGrid=           0
         NMat0=    1 NMatS0=  14365 NMatT0=    0 NMatD0=    1 NMtDS0=    0 NMtDT0=    0
 Symmetry not used in FoFCou.
 Two-electron integral symmetry not used.
 Closed shell SCF:
 Using DIIS extrapolation, IDIIS=  1040.
 NGot= 16106127360 LenX= 16002858349 LenY= 16002818704
 Requested convergence on RMS density matrix=1.00D-08 within 128 cycles.
 Requested convergence on MAX density matrix=1.00D-06.
 Requested convergence on             energy=1.00D-06.
 No special actions if energy rises.

 Cycle   1  Pass 1  IDiag  1:
 E= -994.396329487559    
 DIIS: error= 3.27D-02 at cycle   1 NSaved=   1.
 NSaved= 1 IEnMin= 1 EnMin= -994.396329487559     IErMin= 1 ErrMin= 3.27D-02
 ErrMax= 3.27D-02  0.00D+00 EMaxC= 1.00D-01 BMatC= 4.24D-01 BMatP= 4.24D-01
 IDIUse=3 WtCom= 6.73D-01 WtEn= 3.27D-01
 Coeff-Com:  0.100D+01
 Coeff-En:   0.100D+01
 Coeff:      0.100D+01
 Gap=     0.557 Goal=   None    Shift=    0.000
 GapD=    0.557 DampG=2.000 DampE=0.500 DampFc=1.0000 IDamp=-1.
 RMSDP=2.16D-03 MaxDP=7.08D-02              OVMax= 1.23D-01

 Cycle   2  Pass 1  IDiag  1:
 E= -994.488336205334     Delta-E=       -0.092006717775 Rises=F Damp=F
 DIIS: error= 1.82D-02 at cycle   2 NSaved=   2.
 NSaved= 2 IEnMin= 2 EnMin= -994.488336205334     IErMin= 2 ErrMin= 1.82D-02
 ErrMax= 1.82D-02  0.00D+00 EMaxC= 1.00D-01 BMatC= 5.03D-02 BMatP= 4.24D-01
 IDIUse=3 WtCom= 8.18D-01 WtEn= 1.82D-01
 Coeff-Com:  0.169D+00 0.831D+00
 Coeff-En:   0.000D+00 0.100D+01
 Coeff:      0.138D+00 0.862D+00
 Gap=     0.385 Goal=   None    Shift=    0.000
 RMSDP=9.82D-04 MaxDP=3.91D-02 DE=-9.20D-02 OVMax= 8.05D-02

 Cycle   3  Pass 1  IDiag  1:
 E= -994.513189075504     Delta-E=       -0.024852870170 Rises=F Damp=F
 DIIS: error= 8.36D-03 at cycle   3 NSaved=   3.
 NSaved= 3 IEnMin= 3 EnMin= -994.513189075504     IErMin= 3 ErrMin= 8.36D-03
 ErrMax= 8.36D-03  0.00D+00 EMaxC= 1.00D-01 BMatC= 1.49D-02 BMatP= 5.03D-02
 IDIUse=3 WtCom= 9.16D-01 WtEn= 8.36D-02
 Coeff-Com: -0.157D-01 0.342D+00 0.673D+00
 Coeff-En:   0.000D+00 0.138D+00 0.862D+00
 Coeff:     -0.144D-01 0.325D+00 0.689D+00
 Gap=     0.363 Goal=   None    Shift=    0.000
 RMSDP=3.70D-04 MaxDP=1.41D-02 DE=-2.49D-02 OVMax= 3.65D-02

 Cycle   4  Pass 1  IDiag  1:
 E= -994.523344071846     Delta-E=       -0.010154996342 Rises=F Damp=F
 DIIS: error= 1.14D-03 at cycle   4 NSaved=   4.
 NSaved= 4 IEnMin= 4 EnMin= -994.523344071846     IErMin= 4 ErrMin= 1.14D-03
 ErrMax= 1.14D-03  0.00D+00 EMaxC= 1.00D-01 BMatC= 1.67D-04 BMatP= 1.49D-02
 IDIUse=3 WtCom= 9.89D-01 WtEn= 1.14D-02
 Coeff-Com: -0.393D-02 0.170D-01 0.980D-01 0.889D+00
 Coeff-En:   0.000D+00 0.000D+00 0.000D+00 0.100D+01
 Coeff:     -0.389D-02 0.168D-01 0.968D-01 0.890D+00
 Gap=     0.356 Goal=   None    Shift=    0.000
 RMSDP=5.59D-05 MaxDP=1.50D-03 DE=-1.02D-02 OVMax= 3.01D-03

 Cycle   5  Pass 1  IDiag  1:
 E= -994.523526923005     Delta-E=       -0.000182851159 Rises=F Damp=F
 DIIS: error= 2.61D-04 at cycle   5 NSaved=   5.
 NSaved= 5 IEnMin= 5 EnMin= -994.523526923005     IErMin= 5 ErrMin= 2.61D-04
 ErrMax= 2.61D-04  0.00D+00 EMaxC= 1.00D-01 BMatC= 1.61D-05 BMatP= 1.67D-04
 IDIUse=3 WtCom= 9.97D-01 WtEn= 2.61D-03
 Coeff-Com:  0.106D-02-0.396D-01-0.695D-01 0.225D-01 0.109D+01
 Coeff-En:   0.000D+00 0.000D+00 0.000D+00 0.000D+00 0.100D+01
 Coeff:      0.105D-02-0.395D-01-0.693D-01 0.224D-01 0.109D+01
 Gap=     0.358 Goal=   None    Shift=    0.000
 RMSDP=3.22D-05 MaxDP=1.17D-03 DE=-1.83D-04 OVMax= 3.09D-03

 Cycle   6  Pass 1  IDiag  1:
 E= -994.523567160963     Delta-E=       -0.000040237958 Rises=F Damp=F
 DIIS: error= 1.19D-04 at cycle   6 NSaved=   6.
 NSaved= 6 IEnMin= 6 EnMin= -994.523567160963     IErMin= 6 ErrMin= 1.19D-04
 ErrMax= 1.19D-04  0.00D+00 EMaxC= 1.00D-01 BMatC= 2.10D-06 BMatP= 1.61D-05
 IDIUse=3 WtCom= 9.99D-01 WtEn= 1.19D-03
 Coeff-Com:  0.210D-03 0.922D-02 0.167D-01-0.809D-01-0.418D+00 0.147D+01
 Coeff-En:   0.000D+00 0.000D+00 0.000D+00 0.000D+00 0.000D+00 0.100D+01
 Coeff:      0.210D-03 0.921D-02 0.167D-01-0.808D-01-0.418D+00 0.147D+01
 Gap=     0.358 Goal=   None    Shift=    0.000
 RMSDP=1.69D-05 MaxDP=6.24D-04 DE=-4.02D-05 OVMax= 1.67D-03

 Cycle   7  Pass 1  IDiag  1:
 E= -994.523574781443     Delta-E=       -0.000007620479 Rises=F Damp=F
 DIIS: error= 4.16D-05 at cycle   7 NSaved=   7.
 NSaved= 7 IEnMin= 7 EnMin= -994.523574781443     IErMin= 7 ErrMin= 4.16D-05
 ErrMax= 4.16D-05  0.00D+00 EMaxC= 1.00D-01 BMatC= 1.31D-07 BMatP= 2.10D-06
 IDIUse=1 WtCom= 1.00D+00 WtEn= 0.00D+00
 Coeff-Com: -0.150D-03-0.122D-02-0.161D-02 0.311D-01 0.955D-01-0.624D+00
 Coeff-Com:  0.150D+01
 Coeff:     -0.150D-03-0.122D-02-0.161D-02 0.311D-01 0.955D-01-0.624D+00
 Coeff:      0.150D+01
 Gap=     0.358 Goal=   None    Shift=    0.000
 RMSDP=5.26D-06 MaxDP=1.88D-04 DE=-7.62D-06 OVMax= 5.13D-04

 Cycle   8  Pass 1  IDiag  1:
 E= -994.523575386669     Delta-E=       -0.000000605226 Rises=F Damp=F
 DIIS: error= 7.53D-06 at cycle   8 NSaved=   8.
 NSaved= 8 IEnMin= 8 EnMin= -994.523575386669     IErMin= 8 ErrMin= 7.53D-06
 ErrMax= 7.53D-06  0.00D+00 EMaxC= 1.00D-01 BMatC= 8.96D-09 BMatP= 1.31D-07
 IDIUse=1 WtCom= 1.00D+00 WtEn= 0.00D+00
 Coeff-Com:  0.882D-05-0.431D-03-0.566D-03-0.529D-03 0.681D-02 0.239D-01
 Coeff-Com: -0.274D+00 0.124D+01
 Coeff:      0.882D-05-0.431D-03-0.566D-03-0.529D-03 0.681D-02 0.239D-01
 Coeff:     -0.274D+00 0.124D+01
 Gap=     0.358 Goal=   None    Shift=    0.000
 RMSDP=1.21D-06 MaxDP=2.52D-05 DE=-6.05D-07 OVMax= 1.35D-04

 Cycle   9  Pass 1  IDiag  1:
 E= -994.523575422477     Delta-E=       -0.000000035808 Rises=F Damp=F
 DIIS: error= 3.81D-06 at cycle   9 NSaved=   9.
 NSaved= 9 IEnMin= 9 EnMin= -994.523575422477     IErMin= 9 ErrMin= 3.81D-06
 ErrMax= 3.81D-06  0.00D+00 EMaxC= 1.00D-01 BMatC= 1.25D-09 BMatP= 8.96D-09
 IDIUse=1 WtCom= 1.00D+00 WtEn= 0.00D+00
 Coeff-Com:  0.190D-04 0.200D-03 0.244D-03-0.346D-02-0.119D-01 0.656D-01
 Coeff-Com: -0.995D-01-0.363D+00 0.141D+01
 Coeff:      0.190D-04 0.200D-03 0.244D-03-0.346D-02-0.119D-01 0.656D-01
 Coeff:     -0.995D-01-0.363D+00 0.141D+01
 Gap=     0.358 Goal=   None    Shift=    0.000
 RMSDP=6.02D-07 MaxDP=1.33D-05 DE=-3.58D-08 OVMax= 6.87D-05

 Cycle  10  Pass 1  IDiag  1:
 E= -994.523575429182     Delta-E=       -0.000000006705 Rises=F Damp=F
 DIIS: error= 1.63D-06 at cycle  10 NSaved=  10.
 NSaved=10 IEnMin=10 EnMin= -994.523575429182     IErMin=10 ErrMin= 1.63D-06
 ErrMax= 1.63D-06  0.00D+00 EMaxC= 1.00D-01 BMatC= 1.85D-10 BMatP= 1.25D-09
 IDIUse=1 WtCom= 1.00D+00 WtEn= 0.00D+00
 Coeff-Com: -0.563D-05 0.314D-04 0.157D-04 0.926D-03 0.166D-02-0.186D-01
 Coeff-Com:  0.675D-01-0.142D+00-0.214D+00 0.130D+01
 Coeff:     -0.563D-05 0.314D-04 0.157D-04 0.926D-03 0.166D-02-0.186D-01
 Coeff:      0.675D-01-0.142D+00-0.214D+00 0.130D+01
 Gap=     0.358 Goal=   None    Shift=    0.000
 RMSDP=2.31D-07 MaxDP=5.63D-06 DE=-6.71D-09 OVMax= 2.53D-05

 Cycle  11  Pass 1  IDiag  1:
 E= -994.523575430054     Delta-E=       -0.000000000872 Rises=F Damp=F
 DIIS: error= 5.09D-07 at cycle  11 NSaved=  11.
 NSaved=11 IEnMin=11 EnMin= -994.523575430054     IErMin=11 ErrMin= 5.09D-07
 ErrMax= 5.09D-07  0.00D+00 EMaxC= 1.00D-01 BMatC= 1.32D-11 BMatP= 1.85D-10
 IDIUse=1 WtCom= 1.00D+00 WtEn= 0.00D+00
 Coeff-Com: -0.221D-05-0.264D-04-0.312D-04 0.417D-03 0.140D-02-0.734D-02
 Coeff-Com:  0.900D-02 0.489D-01-0.143D+00-0.133D+00 0.122D+01
 Coeff:     -0.221D-05-0.264D-04-0.312D-04 0.417D-03 0.140D-02-0.734D-02
 Coeff:      0.900D-02 0.489D-01-0.143D+00-0.133D+00 0.122D+01
 Gap=     0.358 Goal=   None    Shift=    0.000
 RMSDP=6.68D-08 MaxDP=1.69D-06 DE=-8.72D-10 OVMax= 7.02D-06

 Cycle  12  Pass 1  IDiag  1:
 E= -994.523575430119     Delta-E=       -0.000000000065 Rises=F Damp=F
 DIIS: error= 1.01D-07 at cycle  12 NSaved=  12.
 NSaved=12 IEnMin=12 EnMin= -994.523575430119     IErMin=12 ErrMin= 1.01D-07
 ErrMax= 1.01D-07  0.00D+00 EMaxC= 1.00D-01 BMatC= 7.71D-13 BMatP= 1.32D-11
 IDIUse=1 WtCom= 1.00D+00 WtEn= 0.00D+00
 Coeff-Com:  0.618D-06 0.227D-05 0.424D-05-0.115D-03-0.326D-03 0.210D-02
 Coeff-Com: -0.466D-02-0.903D-03 0.363D-01-0.639D-01-0.156D+00 0.119D+01
 Coeff:      0.618D-06 0.227D-05 0.424D-05-0.115D-03-0.326D-03 0.210D-02
 Coeff:     -0.466D-02-0.903D-03 0.363D-01-0.639D-01-0.156D+00 0.119D+01
 Gap=     0.358 Goal=   None    Shift=    0.000
 RMSDP=1.34D-08 MaxDP=3.30D-07 DE=-6.50D-11 OVMax= 1.11D-06

 Cycle  13  Pass 1  IDiag  1:
 E= -994.523575430123     Delta-E=       -0.000000000004 Rises=F Damp=F
 DIIS: error= 2.47D-08 at cycle  13 NSaved=  13.
 NSaved=13 IEnMin=13 EnMin= -994.523575430123     IErMin=13 ErrMin= 2.47D-08
 ErrMax= 2.47D-08  0.00D+00 EMaxC= 1.00D-01 BMatC= 7.95D-14 BMatP= 7.71D-13
 IDIUse=1 WtCom= 1.00D+00 WtEn= 0.00D+00
 Coeff-Com:  0.201D-06 0.153D-05 0.843D-06-0.284D-04-0.844D-04 0.514D-03
 Coeff-Com: -0.675D-03-0.425D-02 0.127D-01 0.994D-02-0.103D+00-0.435D-01
 Coeff-Com:  0.113D+01
 Coeff:      0.201D-06 0.153D-05 0.843D-06-0.284D-04-0.844D-04 0.514D-03
 Coeff:     -0.675D-03-0.425D-02 0.127D-01 0.994D-02-0.103D+00-0.435D-01
 Coeff:      0.113D+01
 Gap=     0.358 Goal=   None    Shift=    0.000
 RMSDP=3.90D-09 MaxDP=9.21D-08 DE=-4.32D-12 OVMax= 3.43D-07

 SCF Done:  E(RHF) =  -994.523575430     A.U. after   13 cycles
            NFock= 13  Conv=0.39D-08     -V/T= 2.0002
 KE= 9.943641353465D+02 PE=-2.622025806932D+03 EE= 5.110071645050D+02
 Leave Link  502 at Wed Sep 22 16:30:54 2021, MaxMem= 16106127360 cpu:              23.0 elap:               3.1
 (Enter /sw/contrib/gaussian/g16/B01/g16/l801.exe)
 ExpMin= 2.53D-02 ExpMax= 4.56D+05 ExpMxC= 1.44D+03 IAcc=3 IRadAn=         5 AccDes= 0.00D+00
 HarFok:  IExCor=  205 AccDes= 0.00D+00 IRadAn=         5 IDoV=-2 UseB2=F ITyADJ=14
 ICtDFT= 12500011 ScaDFX=  1.000000  1.000000  1.000000  1.000000
 Largest valence mixing into a core orbital is  4.47D-04
 Largest core mixing into a valence orbital is  1.72D-04
 Range of M.O.s used for correlation:    12   169
 NBasis=   169 NAE=    22 NBE=    22 NFC=    11 NFV=     0
 NROrb=    158 NOA=    11 NOB=    11 NVA=   147 NVB=   147

 **** Warning!!: The largest alpha MO coefficient is  0.19997287D+02

 Leave Link  801 at Wed Sep 22 16:30:54 2021, MaxMem= 16106127360 cpu:               2.6 elap:               0.1
 (Enter /sw/contrib/gaussian/g16/B01/g16/l906.exe)
 Frozen-core derivative calculation, NFC=  11 NFV=   0.
 FulOut=F Deriv=T AODrv=F NAtomX=     4
   MMem=         144  MDisk=          11 MDiskD=          11
  W3Min=      736164 MinDsk=     1250177 NBas6D=         198
 NBas2D=       20187    NTT=       19701    LW2=     3500000
    MDV= 16105751214 MDiskM=      406660 NBas2p=       19980
 Fully in-core method, ICMem=   420417501.
 IMap=   1   2   3   4   5   6   7   8   9  10  11  12  13  14  15  16  17  18  19  20
 IMap=  21  22
 JobTyp=1 Pass  1 fully in-core, NPsUse= 28.
 Compute canonical integrals.
 FoFCou: FMM=F IPFlag=           0 FMFlag=           0 FMFlg1=           0
         NFxFlg=           0 DoJE=F BraDBF=F KetDBF=F FulRan=T
         wScrn=  0.000000 ICntrl=       600 IOpCl=  1 I1Cent=           0 NGrid=           0
         NMat0=    1 NMatS0=  20187 NMatT0=    0 NMatD0=    1 NMtDS0=    0 NMtDT0=    0
 Symmetry not used in FoFCou.
 Spin components of T(2) and E(2):
     alpha-alpha T2 =       0.2940206954D-01 E2=     -0.8444322352D-01
     alpha-beta  T2 =       0.1597260335D+00 E2=     -0.4992869295D+00
     beta-beta   T2 =       0.2940206954D-01 E2=     -0.8444322352D-01
 The integrals were generated   1 times.
 ANorm=    0.1103870542D+01
 E2 =    -0.6681733766D+00 EUMP2 =    -0.99519174880668D+03
 Leave Link  906 at Wed Sep 22 16:30:58 2021, MaxMem= 16106127360 cpu:             113.9 elap:               4.1
 (Enter /sw/contrib/gaussian/g16/B01/g16/l1002.exe)
 Minotr:  Closed shell wavefunction.
          Computing MP2/KS-MP2 derivatives.
          Using Z-Vector for PSCF gradient.
          Skipping F1 and S1 gradient terms here.
          Frozen-core window.
          Direct CPHF calculation.
          Differentiating once with respect to electric field.
                with respect to dipole field.
          Electric field/nuclear overlap derivatives assumed to be zero.
          Requested convergence is 1.0D-10 RMS, and 1.0D-09 maximum.
          NewPWx=F KeepS1=T KeepF1=T KeepIn=T MapXYZ=F SortEE=F KeepMc=T.
 Keep R1 ints in memory in canonical form, NReq=117123417.
 FoFCou: FMM=F IPFlag=           0 FMFlag=           0 FMFlg1=           0
         NFxFlg=           0 DoJE=F BraDBF=F KetDBF=F FulRan=T
         wScrn=  0.000000 ICntrl=       600 IOpCl=  0 I1Cent=           0 NGrid=           0
         NMat0=    1 NMatS0=  14365 NMatT0=    0 NMatD0=    1 NMtDS0=    0 NMtDT0=    0
 Symmetry not used in FoFCou.
 Two-electron integral symmetry not used.
          MDV=   16106127360 using IRadAn=       5.
          Solving linear equations separately, MaxMat=       0.
          There are     1 degrees of freedom in the 1st order CPHF.  IDoFFX=0 NUNeed=     1.
 LinEq1:  Iter=  0 NonCon=     1 RMS=3.10D-03 Max=4.22D-02 NDo=     1
 AX will form     1 AO Fock derivatives at one time.
 LinEq1:  Iter=  1 NonCon=     1 RMS=3.88D-04 Max=5.11D-03 NDo=     1
 LinEq1:  Iter=  2 NonCon=     1 RMS=1.62D-04 Max=3.34D-03 NDo=     1
 LinEq1:  Iter=  3 NonCon=     1 RMS=6.26D-05 Max=8.21D-04 NDo=     1
 LinEq1:  Iter=  4 NonCon=     1 RMS=2.64D-05 Max=6.74D-04 NDo=     1
 LinEq1:  Iter=  5 NonCon=     1 RMS=5.92D-06 Max=7.24D-05 NDo=     1
 LinEq1:  Iter=  6 NonCon=     1 RMS=1.60D-06 Max=1.75D-05 NDo=     1
 LinEq1:  Iter=  7 NonCon=     1 RMS=3.99D-07 Max=8.81D-06 NDo=     1
 LinEq1:  Iter=  8 NonCon=     1 RMS=9.73D-08 Max=2.39D-06 NDo=     1
 LinEq1:  Iter=  9 NonCon=     1 RMS=2.59D-08 Max=3.85D-07 NDo=     1
 LinEq1:  Iter= 10 NonCon=     1 RMS=7.63D-09 Max=8.43D-08 NDo=     1
 LinEq1:  Iter= 11 NonCon=     1 RMS=1.94D-09 Max=2.13D-08 NDo=     1
 LinEq1:  Iter= 12 NonCon=     1 RMS=3.61D-10 Max=5.22D-09 NDo=     1
 LinEq1:  Iter= 13 NonCon=     1 RMS=7.57D-11 Max=1.02D-09 NDo=     1
 LinEq1:  Iter= 14 NonCon=     0 RMS=2.29D-11 Max=4.62D-10 NDo=     1
 Linear equations converged to 1.000D-10 1.000D-09 after    14 iterations.
 End of Minotr F.D. properties file   721 does not exist.
 End of Minotr F.D. properties file   722 does not exist.
 End of Minotr F.D. properties file   788 does not exist.
 Leave Link 1002 at Wed Sep 22 16:31:03 2021, MaxMem= 16106127360 cpu:              41.2 elap:               4.7
 (Enter /sw/contrib/gaussian/g16/B01/g16/l601.exe)
 Copying SCF densities to generalized density rwf, IOpCl= 0 IROHF=0.

 **********************************************************************

            Population analysis using the MP2 Density.

 **********************************************************************

 Alpha  occ. eigenvalues -- -104.72234-104.54947 -20.44877 -10.44187 -10.27437
 Alpha  occ. eigenvalues --   -7.90904  -7.90646  -7.90636  -7.74054  -7.74036
 Alpha  occ. eigenvalues --   -7.74035  -1.21554  -0.88561  -0.78943  -0.52718
 Alpha  occ. eigenvalues --   -0.43153  -0.42349  -0.30003  -0.27092  -0.20542
 Alpha  occ. eigenvalues --   -0.19736  -0.19723
 Alpha virt. eigenvalues --    0.16120   0.18657   0.22582   0.23540   0.25827
 Alpha virt. eigenvalues --    0.27271   0.27515   0.29628   0.31112   0.32568
 Alpha virt. eigenvalues --    0.33781   0.35030   0.38747   0.45093   0.46340
 Alpha virt. eigenvalues --    0.51521   0.52421   0.53958   0.56314   0.57153
 Alpha virt. eigenvalues --    0.58612   0.60043   0.60621   0.65292   0.66086
 Alpha virt. eigenvalues --    0.68231   0.68490   0.75086   0.78506   0.78818
 Alpha virt. eigenvalues --    0.83114   0.87291   0.88738   0.90028   0.91187
 Alpha virt. eigenvalues --    0.92199   0.96532   1.00715   1.05200   1.05269
 Alpha virt. eigenvalues --    1.06733   1.08978   1.09428   1.10273   1.14138
 Alpha virt. eigenvalues --    1.15332   1.17253   1.18654   1.18826   1.21485
 Alpha virt. eigenvalues --    1.22906   1.24510   1.29395   1.32216   1.33128
 Alpha virt. eigenvalues --    1.37657   1.40820   1.42569   1.43010   1.46783
 Alpha virt. eigenvalues --    1.48894   1.50314   1.54908   1.61655   1.65329
 Alpha virt. eigenvalues --    1.67948   1.68338   1.72109   1.74122   1.77612
 Alpha virt. eigenvalues --    1.82705   1.84542   1.86390   1.91023   1.94550
 Alpha virt. eigenvalues --    2.00695   2.29204   2.39880   2.50639   2.51860
 Alpha virt. eigenvalues --    2.53729   2.59091   2.60578   2.63110   2.66786
 Alpha virt. eigenvalues --    2.69075   2.71272   2.72656   2.73926   2.77217
 Alpha virt. eigenvalues --    2.78204   2.79932   2.80197   2.82215   2.89605
 Alpha virt. eigenvalues --    2.92164   2.97809   2.99439   3.05019   3.09690
 Alpha virt. eigenvalues --    3.14441   3.16003   3.21109   3.22578   3.24177
 Alpha virt. eigenvalues --    3.28368   3.30350   3.32663   3.33573   3.34919
 Alpha virt. eigenvalues --    3.39783   3.40588   3.41601   3.48172   3.51284
 Alpha virt. eigenvalues --    3.54442   3.56470   3.59702   3.69981   3.95378
 Alpha virt. eigenvalues --    4.26395   4.31530   4.47401   4.54737   4.59235
 Alpha virt. eigenvalues --    4.79284   4.99198   5.16263   5.34973   5.41386
 Alpha virt. eigenvalues --    5.66156   6.38228   6.58987   6.66670   6.86911
 Alpha virt. eigenvalues --    6.91221   6.92904   7.01833   7.27357   7.31919
 Alpha virt. eigenvalues --    7.35673   7.45932   7.57642   7.77631   7.84138
 Alpha virt. eigenvalues --    8.37437  14.43411
          Condensed to atoms (all electrons):
               1          2          3          4
     1  O    8.656872  -0.096824  -0.121424   0.059380
     2  Cl  -0.096824  17.856588   0.003624   0.068045
     3  Cl  -0.121424   0.003624  17.081726  -0.002225
     4  H    0.059380   0.068045  -0.002225   0.583666
 Mulliken charges:
               1
     1  O   -0.498003
     2  Cl  -0.831432
     3  Cl   0.038300
     4  H    0.291135
 Sum of Mulliken charges =  -1.00000
 Mulliken charges with hydrogens summed into heavy atoms:
               1
     1  O   -0.206868
     2  Cl  -0.831432
     3  Cl   0.038300
 Electronic spatial extent (au):  <R**2>=            793.3836
 Charge=             -1.0000 electrons
 Dipole moment (field-independent basis, Debye):
    X=             -9.5464    Y=             -0.7818    Z=              0.0652  Tot=              9.5786
 Quadrupole moment (field-independent basis, Debye-Ang):
   XX=            -68.1874   YY=            -37.0718   ZZ=            -36.6493
   XY=              0.4848   XZ=              0.0440   YZ=             -0.0282
 Traceless Quadrupole moment (field-independent basis, Debye-Ang):
   XX=            -20.8846   YY=             10.2310   ZZ=             10.6535
   XY=              0.4848   XZ=              0.0440   YZ=             -0.0282
 Octapole moment (field-independent basis, Debye-Ang**2):
  XXX=           -221.0219  YYY=            -63.9694  ZZZ=             -0.3216  XYY=            -43.0397
  XXY=            -21.9478  XXZ=             -0.4752  XZZ=            -42.6855  YZZ=            -22.4110
  YYZ=             -0.1576  XYZ=              0.0172
 Hexadecapole moment (field-independent basis, Debye-Ang**3):
 XXXX=          -1157.2747 YYYY=           -248.2922 ZZZZ=            -49.6440 XXXY=             28.2278
 XXXZ=             -1.9387 YYYX=             22.4045 YYYZ=             -0.1435 ZZZX=             -0.4362
 ZZZY=             -0.0455 XXYY=           -193.4256 XXZZ=           -157.8895 YYZZ=            -53.9827
 XXYZ=             -0.0349 YYXZ=             -0.0882 ZZXY=              9.3424
 N-N= 1.221309316499D+02 E-N=-2.622078988948D+03  KE= 9.950211186265D+02
 No NMR shielding tensors so no spin-rotation constants.
 Leave Link  601 at Wed Sep 22 16:31:03 2021, MaxMem= 16106127360 cpu:               4.4 elap:               0.2
 (Enter /sw/contrib/gaussian/g16/B01/g16/l607.exe)
 ******************************Gaussian NBO Version 3.1******************************
             N A T U R A L   A T O M I C   O R B I T A L   A N D
          N A T U R A L   B O N D   O R B I T A L   A N A L Y S I S
 ******************************Gaussian NBO Version 3.1******************************
       /RESON  / : Allow strongly delocalized NBO set

 Analyzing the MP2 density

 Job title: title                                                           

 Storage needed:     86521 in NPA,    114817 in NBO (********** available)
 GSVD:  LWork=        1191 too small for GESVD, short by       52514 words or       52514 for optimal perf.


 NATURAL POPULATIONS:  Natural atomic orbital occupancies 
                                                          
   NAO  Atom  No  lang   Type(AO)    Occupancy
 --------------------------------------------
     1    O    1  S      Cor( 1S)     1.99969
     2    O    1  S      Val( 2S)     1.79250
     3    O    1  S      Ryd( 3S)     0.00990
     4    O    1  S      Ryd( 4S)     0.00112
     5    O    1  S      Ryd( 5S)     0.00018
     6    O    1  px     Val( 2p)     1.66227
     7    O    1  px     Ryd( 3p)     0.01149
     8    O    1  px     Ryd( 4p)     0.00077
     9    O    1  px     Ryd( 5p)     0.00041
    10    O    1  py     Val( 2p)     1.25934
    11    O    1  py     Ryd( 3p)     0.00781
    12    O    1  py     Ryd( 4p)     0.00063
    13    O    1  py     Ryd( 5p)     0.00042
    14    O    1  pz     Val( 2p)     1.94511
    15    O    1  pz     Ryd( 3p)     0.02025
    16    O    1  pz     Ryd( 4p)     0.00067
    17    O    1  pz     Ryd( 5p)     0.00014
    18    O    1  dxy    Ryd( 3d)     0.00939
    19    O    1  dxy    Ryd( 4d)     0.00046
    20    O    1  dxy    Ryd( 5d)     0.00018
    21    O    1  dxz    Ryd( 3d)     0.00708
    22    O    1  dxz    Ryd( 4d)     0.00062
    23    O    1  dxz    Ryd( 5d)     0.00035
    24    O    1  dyz    Ryd( 3d)     0.00925
    25    O    1  dyz    Ryd( 4d)     0.00057
    26    O    1  dyz    Ryd( 5d)     0.00012
    27    O    1  dx2y2  Ryd( 3d)     0.01265
    28    O    1  dx2y2  Ryd( 4d)     0.00038
    29    O    1  dx2y2  Ryd( 5d)     0.00014
    30    O    1  dz2    Ryd( 3d)     0.00958
    31    O    1  dz2    Ryd( 4d)     0.00057
    32    O    1  dz2    Ryd( 5d)     0.00015
    33    O    1  f(0)   Ryd( 4f)     0.00069
    34    O    1  f(0)   Ryd( 5f)     0.00010
    35    O    1  f(C1)  Ryd( 4f)     0.00059
    36    O    1  f(C1)  Ryd( 5f)     0.00010
    37    O    1  f(S1)  Ryd( 4f)     0.00066
    38    O    1  f(S1)  Ryd( 5f)     0.00012
    39    O    1  f(C2)  Ryd( 4f)     0.00059
    40    O    1  f(C2)  Ryd( 5f)     0.00013
    41    O    1  f(S2)  Ryd( 4f)     0.00056
    42    O    1  f(S2)  Ryd( 5f)     0.00011
    43    O    1  f(C3)  Ryd( 4f)     0.00056
    44    O    1  f(C3)  Ryd( 5f)     0.00015
    45    O    1  f(S3)  Ryd( 4f)     0.00057
    46    O    1  f(S3)  Ryd( 5f)     0.00012

    47   Cl    2  S      Cor( 1S)     2.00000
    48   Cl    2  S      Cor( 2S)     1.99994
    49   Cl    2  S      Val( 3S)     1.96104
    50   Cl    2  S      Ryd( 4S)     0.00161
    51   Cl    2  S      Ryd( 5S)     0.00022
    52   Cl    2  S      Ryd( 6S)     0.00010
    53   Cl    2  px     Cor( 2p)     2.00002
    54   Cl    2  px     Val( 3p)     1.84228
    55   Cl    2  px     Ryd( 4p)     0.01015
    56   Cl    2  px     Ryd( 5p)     0.00052
    57   Cl    2  px     Ryd( 6p)     0.00009
    58   Cl    2  py     Cor( 2p)     2.00003
    59   Cl    2  py     Val( 3p)     1.95188
    60   Cl    2  py     Ryd( 4p)     0.01234
    61   Cl    2  py     Ryd( 5p)     0.00056
    62   Cl    2  py     Ryd( 6p)     0.00006
    63   Cl    2  pz     Cor( 2p)     2.00003
    64   Cl    2  pz     Val( 3p)     1.95178
    65   Cl    2  pz     Ryd( 4p)     0.01241
    66   Cl    2  pz     Ryd( 5p)     0.00056
    67   Cl    2  pz     Ryd( 6p)     0.00006
    68   Cl    2  dxy    Ryd( 3d)     0.01854
    69   Cl    2  dxy    Ryd( 4d)     0.00063
    70   Cl    2  dxy    Ryd( 5d)     0.00013
    71   Cl    2  dxz    Ryd( 3d)     0.01858
    72   Cl    2  dxz    Ryd( 4d)     0.00068
    73   Cl    2  dxz    Ryd( 5d)     0.00012
    74   Cl    2  dyz    Ryd( 3d)     0.01823
    75   Cl    2  dyz    Ryd( 4d)     0.00096
    76   Cl    2  dyz    Ryd( 5d)     0.00012
    77   Cl    2  dx2y2  Ryd( 3d)     0.01839
    78   Cl    2  dx2y2  Ryd( 4d)     0.00083
    79   Cl    2  dx2y2  Ryd( 5d)     0.00012
    80   Cl    2  dz2    Ryd( 3d)     0.01829
    81   Cl    2  dz2    Ryd( 4d)     0.00091
    82   Cl    2  dz2    Ryd( 5d)     0.00011
    83   Cl    2  f(0)   Ryd( 4f)     0.00128
    84   Cl    2  f(0)   Ryd( 5f)     0.00016
    85   Cl    2  f(C1)  Ryd( 4f)     0.00130
    86   Cl    2  f(C1)  Ryd( 5f)     0.00017
    87   Cl    2  f(S1)  Ryd( 4f)     0.00128
    88   Cl    2  f(S1)  Ryd( 5f)     0.00014
    89   Cl    2  f(C2)  Ryd( 4f)     0.00127
    90   Cl    2  f(C2)  Ryd( 5f)     0.00016
    91   Cl    2  f(S2)  Ryd( 4f)     0.00129
    92   Cl    2  f(S2)  Ryd( 5f)     0.00015
    93   Cl    2  f(C3)  Ryd( 4f)     0.00131
    94   Cl    2  f(C3)  Ryd( 5f)     0.00018
    95   Cl    2  f(S3)  Ryd( 4f)     0.00125
    96   Cl    2  f(S3)  Ryd( 5f)     0.00016

    97   Cl    3  S      Cor( 1S)     2.00000
    98   Cl    3  S      Cor( 2S)     1.99979
    99   Cl    3  S      Val( 3S)     1.88057
   100   Cl    3  S      Ryd( 4S)     0.00816
   101   Cl    3  S      Ryd( 5S)     0.00054
   102   Cl    3  S      Ryd( 6S)     0.00016
   103   Cl    3  px     Cor( 2p)     2.00003
   104   Cl    3  px     Val( 3p)     1.89024
   105   Cl    3  px     Ryd( 4p)     0.00956
   106   Cl    3  px     Ryd( 5p)     0.00052
   107   Cl    3  px     Ryd( 6p)     0.00006
   108   Cl    3  py     Cor( 2p)     1.99996
   109   Cl    3  py     Val( 3p)     0.97887
   110   Cl    3  py     Ryd( 4p)     0.00712
   111   Cl    3  py     Ryd( 5p)     0.00052
   112   Cl    3  py     Ryd( 6p)     0.00023
   113   Cl    3  pz     Cor( 2p)     2.00003
   114   Cl    3  pz     Val( 3p)     1.95428
   115   Cl    3  pz     Ryd( 4p)     0.01081
   116   Cl    3  pz     Ryd( 5p)     0.00069
   117   Cl    3  pz     Ryd( 6p)     0.00002
   118   Cl    3  dxy    Ryd( 3d)     0.01750
   119   Cl    3  dxy    Ryd( 4d)     0.00075
   120   Cl    3  dxy    Ryd( 5d)     0.00026
   121   Cl    3  dxz    Ryd( 3d)     0.01722
   122   Cl    3  dxz    Ryd( 4d)     0.00075
   123   Cl    3  dxz    Ryd( 5d)     0.00020
   124   Cl    3  dyz    Ryd( 3d)     0.02141
   125   Cl    3  dyz    Ryd( 4d)     0.00114
   126   Cl    3  dyz    Ryd( 5d)     0.00037
   127   Cl    3  dx2y2  Ryd( 3d)     0.01817
   128   Cl    3  dx2y2  Ryd( 4d)     0.00066
   129   Cl    3  dx2y2  Ryd( 5d)     0.00026
   130   Cl    3  dz2    Ryd( 3d)     0.01754
   131   Cl    3  dz2    Ryd( 4d)     0.00059
   132   Cl    3  dz2    Ryd( 5d)     0.00017
   133   Cl    3  f(0)   Ryd( 4f)     0.00131
   134   Cl    3  f(0)   Ryd( 5f)     0.00014
   135   Cl    3  f(C1)  Ryd( 4f)     0.00128
   136   Cl    3  f(C1)  Ryd( 5f)     0.00013
   137   Cl    3  f(S1)  Ryd( 4f)     0.00144
   138   Cl    3  f(S1)  Ryd( 5f)     0.00014
   139   Cl    3  f(C2)  Ryd( 4f)     0.00131
   140   Cl    3  f(C2)  Ryd( 5f)     0.00013
   141   Cl    3  f(S2)  Ryd( 4f)     0.00124
   142   Cl    3  f(S2)  Ryd( 5f)     0.00014
   143   Cl    3  f(C3)  Ryd( 4f)     0.00141
   144   Cl    3  f(C3)  Ryd( 5f)     0.00013
   145   Cl    3  f(S3)  Ryd( 4f)     0.00144
   146   Cl    3  f(S3)  Ryd( 5f)     0.00014

   147    H    4  S      Val( 1S)     0.50129
   148    H    4  S      Ryd( 2S)     0.00798
   149    H    4  S      Ryd( 3S)     0.00026
   150    H    4  S      Ryd( 4S)     0.00020
   151    H    4  px     Ryd( 2p)     0.00543
   152    H    4  px     Ryd( 3p)     0.00117
   153    H    4  px     Ryd( 4p)     0.00027
   154    H    4  py     Ryd( 2p)     0.00390
   155    H    4  py     Ryd( 3p)     0.00043
   156    H    4  py     Ryd( 4p)     0.00014
   157    H    4  pz     Ryd( 2p)     0.00526
   158    H    4  pz     Ryd( 3p)     0.00036
   159    H    4  pz     Ryd( 4p)     0.00029
   160    H    4  dxy    Ryd( 3d)     0.00024
   161    H    4  dxy    Ryd( 4d)     0.00009
   162    H    4  dxz    Ryd( 3d)     0.00040
   163    H    4  dxz    Ryd( 4d)     0.00012
   164    H    4  dyz    Ryd( 3d)     0.00023
   165    H    4  dyz    Ryd( 4d)     0.00006
   166    H    4  dx2y2  Ryd( 3d)     0.00022
   167    H    4  dx2y2  Ryd( 4d)     0.00014
   168    H    4  dz2    Ryd( 3d)     0.00025
   169    H    4  dz2    Ryd( 4d)     0.00009


 Summary of Natural Population Analysis:                  
                                                          
                                       Natural Population 
                Natural  -----------------------------------------------
    Atom  No    Charge         Core      Valence    Rydberg      Total
 -----------------------------------------------------------------------
      O    1   -0.76923      1.99969     6.65922    0.11032     8.76923
     Cl    2   -0.85244     10.00002     7.70698    0.14545    17.85244
     Cl    3    0.15048      9.99981     6.70396    0.14575    16.84952
      H    4    0.47120      0.00000     0.50129    0.02752     0.52880
 =======================================================================
   * Total *   -1.00000     21.99952    21.57144    0.42904    44.00000

                                 Natural Population      
 --------------------------------------------------------
   Core                      21.99952 ( 99.9978% of  22)
   Valence                   21.57144 ( 98.0520% of  22)
   Natural Minimal Basis     43.57096 ( 99.0249% of  44)
   Natural Rydberg Basis      0.42904 (  0.9751% of  44)
 --------------------------------------------------------

    Atom  No          Natural Electron Configuration
 ----------------------------------------------------------------------------
      O    1      [core]2S( 1.79)2p( 4.87)3S( 0.01)3p( 0.04)3d( 0.05)
     Cl    2      [core]3S( 1.96)3p( 5.75)3d( 0.09)4p( 0.03)4f( 0.01)
     Cl    3      [core]3S( 1.88)3p( 4.82)4S( 0.01)3d( 0.09)4p( 0.03)4f( 0.01)
      H    4            1S( 0.50)2S( 0.01)2p( 0.01)


 NATURAL BOND ORBITAL ANALYSIS:
 Warning:  a bond orbital has occupanc of -0.00002
 Warning:  a bond orbital has occupanc of -0.00000

                       Occupancies       Lewis Structure    Low   High
           Occ.    -------------------  -----------------   occ   occ
  Cycle   Thresh.   Lewis   Non-Lewis     CR  BD  3C  LP    (L)   (NL)   Dev
 =============================================================================
   1(1)    1.90    43.41498   0.58502     11   2   0   9     1      1    0.18
 Warning:  a bond orbital has occupanc of -0.00002
 Warning:  a bond orbital has occupanc of -0.00000
   2(2)    1.90    43.17756   0.82244     11   2   0   9     1      1    0.53
 Warning:  a bond orbital has occupanc of -0.00002
 Warning:  a bond orbital has occupanc of -0.00000
   3(3)    1.90    43.41498   0.58502     11   2   0   9     1      1    0.18
 Warning:  a bond orbital has occupanc of -0.00002
 Warning:  a bond orbital has occupanc of -0.00000
   4(1)    1.80    43.41498   0.58502     11   2   0   9     0      1    0.18
 Warning:  a bond orbital has occupanc of -0.00002
 Warning:  a bond orbital has occupanc of -0.00000
   5(2)    1.80    43.41498   0.58502     11   2   0   9     0      1    0.18
 Warning:  a bond orbital has occupanc of -0.00002
 Warning:  a bond orbital has occupanc of -0.00000
   6(1)    1.70    43.41498   0.58502     11   2   0   9     0      1    0.18
 Warning:  a bond orbital has occupanc of -0.00002
 Warning:  a bond orbital has occupanc of -0.00000
   7(2)    1.70    43.41498   0.58502     11   2   0   9     0      1    0.18
 Warning:  a bond orbital has occupanc of -0.00002
 Warning:  a bond orbital has occupanc of -0.00000
   8(1)    1.60    43.05990   0.94010     11   1   0  10     0      1    0.53
 Warning:  a bond orbital has occupanc of -0.00002
 Warning:  a bond orbital has occupanc of -0.00000
   9(2)    1.60    43.05990   0.94010     11   1   0  10     0      1    0.53
 Warning:  a bond orbital has occupanc of -0.00002
 Warning:  a bond orbital has occupanc of -0.00000
  10(1)    1.50    43.05990   0.94010     11   1   0  10     0      1    0.53
 Warning:  a bond orbital has occupanc of -0.00002
 Warning:  a bond orbital has occupanc of -0.00000
  11(2)    1.50    43.05990   0.94010     11   1   0  10     0      1    0.53
 Warning:  a bond orbital has occupanc of -0.00002
 Warning:  a bond orbital has occupanc of -0.00000
  12(1)    1.90    43.41498   0.58502     11   2   0   9     1      1    0.18
 -----------------------------------------------------------------------------

 Structure accepted: RESONANCE keyword permits strongly delocalized structure

 --------------------------------------------------------
   Core                     21.99952 ( 99.998% of  22)
   Valence Lewis            21.41546 ( 97.343% of  22)
  ==================       ============================
   Total Lewis              43.41498 ( 98.670% of  44)
  -----------------------------------------------------
   Valence non-Lewis         0.20243 (  0.460% of  44)
   Rydberg non-Lewis         0.38260 (  0.870% of  44)
  ==================       ============================
   Total non-Lewis           0.58502 (  1.330% of  44)
 --------------------------------------------------------


       (Occupancy)   Bond orbital/ Coefficients/ Hybrids
 ---------------------------------------------------------------------------------
     1. (1.93945) BD ( 1) O   1 -Cl   3  
                ( 58.52%)   0.7650* O   1 s( 10.58%)p 8.40( 88.88%)d 0.05(  0.52%)
                                                  f 0.00(  0.02%)
                                            0.0003  0.3217 -0.0455 -0.0154 -0.0006
                                           -0.1916  0.0349  0.0074  0.0026  0.9219
                                           -0.0258 -0.0091 -0.0119  0.0062  0.0027
                                            0.0005 -0.0001 -0.0063 -0.0009 -0.0035
                                            0.0013  0.0001 -0.0003  0.0029  0.0004
                                           -0.0001 -0.0574 -0.0047 -0.0011 -0.0424
                                           -0.0035  0.0005 -0.0000 -0.0000  0.0028
                                           -0.0005 -0.0108  0.0011 -0.0005  0.0004
                                            0.0009 -0.0002  0.0036  0.0021 -0.0052
                                            0.0007
                ( 41.48%)   0.6440*Cl   3 s(  8.75%)p10.28( 90.00%)d 0.13(  1.14%)
                                                  f 0.01(  0.11%)
                                           -0.0000  0.0005  0.2900 -0.0576 -0.0104
                                           -0.0022  0.0001  0.2319 -0.0140 -0.0059
                                            0.0020 -0.0004 -0.9174  0.0645  0.0129
                                           -0.0043  0.0000  0.0012 -0.0000 -0.0004
                                            0.0001 -0.0516  0.0051 -0.0004  0.0013
                                           -0.0000 -0.0002 -0.0017 -0.0002 -0.0001
                                           -0.0735  0.0099  0.0007 -0.0563  0.0065
                                            0.0010 -0.0002 -0.0000 -0.0054  0.0009
                                            0.0203 -0.0030 -0.0000 -0.0001 -0.0003
                                            0.0002 -0.0179  0.0021  0.0186 -0.0022
     2. (1.96399) BD ( 1) O   1 - H   4  
                ( 80.43%)   0.8968* O   1 s( 28.96%)p 2.44( 70.57%)d 0.02(  0.46%)
                                                  f 0.00(  0.01%)
                                            0.0003  0.5381 -0.0028 -0.0081  0.0026
                                            0.8356 -0.0064 -0.0069 -0.0045 -0.0124
                                            0.0143  0.0012  0.0029  0.0831  0.0001
                                           -0.0007 -0.0009  0.0269  0.0049  0.0008
                                            0.0114  0.0008 -0.0005  0.0029  0.0005
                                            0.0001  0.0504  0.0044  0.0012 -0.0338
                                           -0.0014  0.0034 -0.0020 -0.0000 -0.0087
                                           -0.0002 -0.0003  0.0005  0.0012  0.0004
                                            0.0001 -0.0002  0.0010  0.0028 -0.0018
                                           -0.0006
                ( 19.57%)   0.4423* H   4 s( 99.81%)p 0.00(  0.19%)d 0.00(  0.00%)
                                            0.9981  0.0437  0.0047 -0.0018  0.0163
                                           -0.0352  0.0101  0.0136  0.0023  0.0049
                                            0.0067 -0.0038 -0.0001  0.0015  0.0019
                                           -0.0006 -0.0002  0.0004  0.0002  0.0018
                                            0.0006  0.0002 -0.0041
     3. (1.99969) CR ( 1) O   1           s(100.00%)p 0.00(  0.00%)
                                            1.0000 -0.0004  0.0000  0.0000 -0.0000
                                           -0.0001 -0.0000  0.0000  0.0000 -0.0002
                                            0.0000  0.0000  0.0000 -0.0000 -0.0000
                                            0.0000  0.0000 -0.0000 -0.0000 -0.0000
                                           -0.0000 -0.0000  0.0000 -0.0000 -0.0000
                                           -0.0000  0.0000 -0.0000 -0.0000  0.0000
                                            0.0000 -0.0000  0.0000  0.0000  0.0000
                                            0.0000  0.0000 -0.0000 -0.0000 -0.0000
                                           -0.0000  0.0000 -0.0000 -0.0000  0.0000
                                           -0.0000
     4. (2.00000) CR ( 1)Cl   2           s(100.00%)
                                            1.0000  0.0000  0.0000 -0.0000  0.0000
                                           -0.0000  0.0000  0.0000 -0.0000  0.0000
                                           -0.0000  0.0000 -0.0000 -0.0000 -0.0000
                                            0.0000  0.0000 -0.0000  0.0000 -0.0000
                                            0.0000  0.0000  0.0000 -0.0000  0.0000
                                            0.0000  0.0000 -0.0000 -0.0000 -0.0000
                                           -0.0000  0.0000 -0.0000  0.0000  0.0000
                                            0.0000  0.0000  0.0000  0.0000  0.0000
                                            0.0000  0.0000 -0.0000 -0.0000  0.0000
                                            0.0000 -0.0000 -0.0000 -0.0000 -0.0000
     5. (1.99994) CR ( 2)Cl   2           s(100.00%)
                                            0.0000  1.0000 -0.0001  0.0000 -0.0000
                                            0.0000 -0.0000 -0.0000  0.0000 -0.0000
                                            0.0000 -0.0000  0.0000  0.0000  0.0000
                                            0.0000 -0.0000  0.0000 -0.0000  0.0000
                                           -0.0000 -0.0000 -0.0000 -0.0000 -0.0000
                                           -0.0000 -0.0000  0.0000  0.0000  0.0000
                                            0.0000 -0.0000  0.0000 -0.0000 -0.0000
                                           -0.0000 -0.0000 -0.0000 -0.0000 -0.0000
                                           -0.0000 -0.0000  0.0000  0.0000 -0.0000
                                           -0.0000  0.0000  0.0000  0.0000  0.0000
     6. (2.00002) CR ( 3)Cl   2           s(  0.00%)p 1.00(100.00%)
                                            0.0000 -0.0000 -0.0000 -0.0000 -0.0000
                                           -0.0000  1.0000 -0.0000  0.0000 -0.0000
                                            0.0000  0.0000 -0.0000 -0.0000 -0.0000
                                            0.0000 -0.0000  0.0000  0.0000  0.0000
                                           -0.0000  0.0000  0.0000 -0.0000 -0.0000
                                           -0.0000  0.0000 -0.0000 -0.0000 -0.0000
                                           -0.0000 -0.0000  0.0000 -0.0000  0.0000
                                           -0.0000 -0.0000 -0.0000 -0.0000 -0.0000
                                            0.0000  0.0000  0.0000  0.0000  0.0000
                                            0.0000  0.0000  0.0000 -0.0000 -0.0000
     7. (2.00003) CR ( 4)Cl   2           s(  0.00%)p 1.00(100.00%)
                                            0.0000 -0.0000 -0.0000  0.0000 -0.0000
                                            0.0000  0.0000 -0.0000 -0.0000  0.0000
                                           -0.0000  1.0000  0.0000  0.0000  0.0000
                                           -0.0000  0.0000 -0.0000 -0.0000 -0.0000
                                            0.0000 -0.0000 -0.0000  0.0000  0.0000
                                           -0.0000 -0.0000  0.0000  0.0000  0.0000
                                            0.0000  0.0000  0.0000  0.0000  0.0000
                                            0.0000  0.0000 -0.0000  0.0000  0.0000
                                           -0.0000 -0.0000 -0.0000  0.0000 -0.0000
                                           -0.0000 -0.0000  0.0000  0.0000  0.0000
     8. (2.00003) CR ( 5)Cl   2           s(  0.00%)p 1.00(100.00%)
                                            0.0000 -0.0000 -0.0000 -0.0000  0.0000
                                           -0.0000 -0.0000  0.0000  0.0000 -0.0000
                                            0.0000  0.0000  0.0000  0.0000  0.0000
                                            0.0000  1.0000  0.0000  0.0000  0.0000
                                           -0.0000 -0.0000  0.0000  0.0000 -0.0000
                                           -0.0000  0.0000 -0.0000 -0.0000 -0.0000
                                           -0.0000 -0.0000  0.0000  0.0000  0.0000
                                            0.0000 -0.0000 -0.0000 -0.0000 -0.0000
                                           -0.0000  0.0000  0.0000  0.0000 -0.0000
                                           -0.0000  0.0000  0.0000  0.0000  0.0000
     9. (2.00000) CR ( 1)Cl   3           s(100.00%)
                                            1.0000  0.0000 -0.0000 -0.0000 -0.0000
                                           -0.0000  0.0000  0.0000 -0.0000 -0.0000
                                            0.0000 -0.0000 -0.0000  0.0000  0.0000
                                           -0.0000 -0.0000  0.0000  0.0000 -0.0000
                                            0.0000 -0.0000  0.0000 -0.0000  0.0000
                                           -0.0000 -0.0000 -0.0000 -0.0000 -0.0000
                                           -0.0000  0.0000  0.0000 -0.0000  0.0000
                                            0.0000 -0.0000 -0.0000 -0.0000  0.0000
                                            0.0000 -0.0000 -0.0000 -0.0000 -0.0000
                                            0.0000 -0.0000  0.0000  0.0000 -0.0000
    10. (1.99979) CR ( 2)Cl   3           s(100.00%)p 0.00(  0.00%)
                                            0.0000  1.0000 -0.0004  0.0000  0.0000
                                            0.0000 -0.0000 -0.0001  0.0000  0.0000
                                           -0.0000  0.0000  0.0004 -0.0000 -0.0000
                                            0.0000 -0.0000 -0.0000 -0.0000  0.0000
                                           -0.0000  0.0000 -0.0000  0.0000 -0.0000
                                            0.0000  0.0000  0.0000  0.0000  0.0000
                                            0.0000 -0.0000 -0.0000  0.0000 -0.0000
                                           -0.0000  0.0000 -0.0000  0.0000 -0.0000
                                           -0.0000  0.0000  0.0000  0.0000  0.0000
                                           -0.0000  0.0000 -0.0000 -0.0000  0.0000
    11. (2.00003) CR ( 3)Cl   3           s(  0.00%)p 1.00(100.00%)
                                            0.0000 -0.0000 -0.0000  0.0000  0.0000
                                            0.0000  1.0000  0.0001  0.0000  0.0000
                                           -0.0000  0.0000  0.0001 -0.0000 -0.0000
                                            0.0000 -0.0000 -0.0000  0.0000  0.0000
                                            0.0000  0.0000  0.0000  0.0000 -0.0000
                                            0.0000  0.0000  0.0000 -0.0000  0.0000
                                            0.0000 -0.0000 -0.0000  0.0000 -0.0000
                                           -0.0000 -0.0000  0.0000  0.0000 -0.0000
                                           -0.0000  0.0000  0.0000 -0.0000  0.0000
                                           -0.0000  0.0000 -0.0000 -0.0000  0.0000
    12. (1.99996) CR ( 4)Cl   3           s(  0.00%)p 1.00(100.00%)
                                           -0.0000  0.0000  0.0001 -0.0000 -0.0000
                                           -0.0000  0.0000  0.0001 -0.0000 -0.0000
                                            0.0000  1.0000 -0.0003  0.0000  0.0000
                                           -0.0000 -0.0000  0.0000  0.0000 -0.0000
                                            0.0000 -0.0000  0.0000  0.0000  0.0000
                                           -0.0000 -0.0000 -0.0000 -0.0000 -0.0000
                                           -0.0000  0.0000 -0.0000 -0.0000  0.0000
                                            0.0000 -0.0000  0.0000 -0.0000  0.0000
                                            0.0000 -0.0000 -0.0000 -0.0000 -0.0000
                                            0.0000 -0.0000  0.0000  0.0000 -0.0000
    13. (2.00003) CR ( 5)Cl   3           s(  0.00%)p 1.00(100.00%)
                                           -0.0000 -0.0000 -0.0000  0.0000  0.0000
                                           -0.0000 -0.0000  0.0000  0.0000 -0.0000
                                            0.0000 -0.0000  0.0000 -0.0000 -0.0000
                                            0.0000  1.0000  0.0002  0.0000  0.0000
                                           -0.0000 -0.0000 -0.0000 -0.0000 -0.0000
                                           -0.0000 -0.0000  0.0000  0.0000  0.0000
                                            0.0000 -0.0000 -0.0000  0.0000  0.0000
                                            0.0000 -0.0000  0.0000  0.0000 -0.0000
                                           -0.0000  0.0000 -0.0000  0.0000 -0.0000
                                            0.0000  0.0000  0.0000 -0.0000 -0.0000
    14. (1.96604) LP ( 1) O   1           s( 60.62%)p 0.65( 39.29%)d 0.00(  0.09%)
                                                  f 0.00(  0.00%)
                                            0.0002  0.7785  0.0106  0.0086 -0.0017
                                           -0.4986 -0.0076 -0.0047 -0.0013 -0.3739
                                           -0.0040 -0.0054 -0.0026 -0.0662 -0.0010
                                           -0.0006 -0.0001 -0.0266 -0.0019  0.0051
                                           -0.0032 -0.0000  0.0004 -0.0035 -0.0004
                                            0.0003 -0.0032  0.0009  0.0022  0.0110
                                            0.0006  0.0006  0.0008 -0.0000  0.0025
                                           -0.0002  0.0006  0.0005  0.0003 -0.0003
                                           -0.0003  0.0001  0.0051 -0.0027 -0.0000
                                            0.0007
    15. (1.95196) LP ( 2) O   1           s(  0.00%)p 1.00( 99.81%)d 0.00(  0.18%)
                                                  f 0.00(  0.01%)
                                           -0.0000  0.0048  0.0015  0.0008 -0.0001
                                           -0.1022 -0.0019 -0.0006 -0.0006 -0.0295
                                           -0.0005 -0.0002 -0.0004  0.9931  0.0183
                                            0.0060  0.0073 -0.0041 -0.0001  0.0008
                                            0.0159 -0.0055 -0.0114  0.0355  0.0038
                                           -0.0036 -0.0010  0.0007  0.0011  0.0054
                                           -0.0002 -0.0014 -0.0097  0.0005  0.0017
                                            0.0001  0.0002 -0.0001 -0.0045  0.0026
                                           -0.0031 -0.0001  0.0005 -0.0004  0.0006
                                           -0.0001
    16. (1.97678) LP ( 1)Cl   2           s( 89.52%)p 0.12( 10.48%)d 0.00(  0.00%)
                                                  f 0.00(  0.00%)
                                           -0.0000  0.0001  0.9461 -0.0004  0.0009
                                           -0.0003  0.0000  0.3229 -0.0021  0.0007
                                           -0.0001  0.0000 -0.0074 -0.0002 -0.0001
                                           -0.0000  0.0000 -0.0227  0.0001 -0.0000
                                            0.0000  0.0000  0.0001  0.0001  0.0004
                                            0.0000  0.0001 -0.0000 -0.0000 -0.0000
                                           -0.0012  0.0001 -0.0005  0.0009  0.0001
                                            0.0004  0.0000 -0.0000  0.0002  0.0001
                                            0.0000  0.0000  0.0000  0.0000  0.0000
                                            0.0000 -0.0002 -0.0001 -0.0000 -0.0000
    17. (1.95258) LP ( 2)Cl   2           s(  0.00%)p 1.00( 99.99%)d 0.00(  0.01%)
                                                  f 0.00(  0.00%)
                                            0.0000 -0.0000  0.0006 -0.0004  0.0004
                                           -0.0004 -0.0000  0.0669  0.0001 -0.0001
                                            0.0000  0.0000 -0.0594 -0.0002 -0.0001
                                            0.0000 -0.0000  0.9959  0.0031  0.0018
                                           -0.0006  0.0007  0.0001 -0.0001 -0.0108
                                           -0.0016  0.0013 -0.0002 -0.0001 -0.0000
                                           -0.0009 -0.0001  0.0003  0.0017  0.0005
                                            0.0001 -0.0023 -0.0013 -0.0008 -0.0004
                                            0.0001  0.0000  0.0029  0.0015 -0.0000
                                           -0.0001  0.0003  0.0001 -0.0002 -0.0001
    18. (1.95220) LP ( 3)Cl   2           s(  0.01%)p 1.00( 99.98%)d 0.00(  0.01%)
                                                  f 0.00(  0.00%)
                                            0.0000 -0.0000  0.0076  0.0004 -0.0002
                                            0.0004  0.0000  0.0050 -0.0001  0.0001
                                           -0.0001 -0.0000  0.9981  0.0032  0.0016
                                           -0.0006 -0.0000  0.0592  0.0002  0.0001
                                            0.0000 -0.0116 -0.0013  0.0015 -0.0007
                                           -0.0002  0.0000  0.0009  0.0003  0.0001
                                            0.0008  0.0006  0.0004  0.0002  0.0001
                                            0.0001 -0.0002 -0.0001  0.0000  0.0000
                                           -0.0010 -0.0005  0.0002  0.0001 -0.0004
                                           -0.0002 -0.0001  0.0000  0.0035  0.0017
    19. (1.82769) LP ( 4)Cl   2           s( 10.47%)p 8.54( 89.45%)d 0.01(  0.08%)
                                                  f 0.00(  0.01%)
                                           -0.0000 -0.0000  0.3236  0.0011 -0.0030
                                            0.0010  0.0000 -0.9436  0.0065  0.0040
                                           -0.0014 -0.0000 -0.0015  0.0004  0.0004
                                           -0.0002 -0.0000  0.0631  0.0001 -0.0002
                                            0.0002  0.0000 -0.0003 -0.0004 -0.0038
                                           -0.0009 -0.0002 -0.0000 -0.0000 -0.0000
                                            0.0229  0.0039 -0.0008 -0.0140 -0.0028
                                           -0.0002 -0.0007 -0.0003  0.0045  0.0021
                                           -0.0000 -0.0001  0.0010  0.0004  0.0000
                                            0.0000 -0.0055 -0.0021  0.0000  0.0002
    20. (1.97403) LP ( 1)Cl   3           s( 91.45%)p 0.09(  8.53%)d 0.00(  0.02%)
                                                  f 0.00(  0.00%)
                                            0.0000  0.0003  0.9563  0.0069  0.0012
                                            0.0003 -0.0000 -0.0416  0.0001  0.0006
                                            0.0001  0.0000  0.2889 -0.0065 -0.0030
                                            0.0014 -0.0000  0.0045  0.0001  0.0000
                                            0.0000  0.0057  0.0002  0.0003  0.0001
                                            0.0000 -0.0000  0.0001  0.0001  0.0001
                                            0.0109 -0.0007 -0.0003  0.0078  0.0005
                                            0.0003 -0.0001  0.0000  0.0004  0.0001
                                           -0.0021 -0.0004  0.0000 -0.0000 -0.0001
                                            0.0001  0.0019  0.0001 -0.0029  0.0002
    21. (1.95597) LP ( 2)Cl   3           s(  0.00%)p 1.00( 99.94%)d 0.00(  0.05%)
                                                  f 0.00(  0.01%)
                                            0.0000  0.0000  0.0025 -0.0009 -0.0004
                                            0.0003 -0.0000  0.0713  0.0010  0.0004
                                           -0.0000 -0.0000  0.0176  0.0003 -0.0000
                                            0.0001  0.0002 -0.9969 -0.0156 -0.0051
                                            0.0024  0.0007  0.0012  0.0005  0.0056
                                            0.0072  0.0025 -0.0079 -0.0173 -0.0078
                                           -0.0006 -0.0007 -0.0004 -0.0001 -0.0001
                                           -0.0000  0.0054 -0.0010 -0.0004  0.0002
                                            0.0001 -0.0001  0.0055 -0.0007  0.0037
                                           -0.0011 -0.0003 -0.0000 -0.0005  0.0002
    22. (1.95477) LP ( 3)Cl   3           s(  0.09%)p99.99( 99.86%)d 0.45(  0.04%)
                                                  f 0.09(  0.01%)
                                            0.0000 -0.0000  0.0296  0.0061  0.0037
                                           -0.0017  0.0002 -0.9680 -0.0127 -0.0014
                                            0.0001  0.0001 -0.2365 -0.0035 -0.0006
                                           -0.0008  0.0000 -0.0734 -0.0012 -0.0002
                                            0.0001  0.0031 -0.0122 -0.0057 -0.0001
                                            0.0003  0.0002  0.0002 -0.0010 -0.0005
                                            0.0070  0.0115  0.0060 -0.0009 -0.0028
                                           -0.0003  0.0005 -0.0001  0.0022 -0.0002
                                            0.0007  0.0002  0.0003  0.0001  0.0003
                                           -0.0001  0.0057 -0.0010  0.0065 -0.0011
    23. (0.01987) RY*( 1) O   1           s(  0.01%)p 1.00( 98.81%)d 0.01(  1.13%)
                                                  f 0.00(  0.05%)
                                           -0.0000  0.0000  0.0094  0.0010  0.0002
                                            0.0019 -0.0980  0.0032  0.0023  0.0012
                                           -0.0275  0.0009 -0.0002 -0.0225  0.9878
                                           -0.0357 -0.0149 -0.0101 -0.0018  0.0006
                                            0.0373 -0.0093 -0.0187  0.0920  0.0261
                                            0.0052 -0.0012  0.0018  0.0017  0.0130
                                            0.0007 -0.0014 -0.0114  0.0101  0.0011
                                           -0.0012  0.0004 -0.0003 -0.0119  0.0102
                                           -0.0030  0.0035  0.0018 -0.0014  0.0009
                                           -0.0010
    24. (0.01627) RY*( 2) O   1           s( 28.93%)p 2.39( 69.07%)d 0.06(  1.82%)
                                                  f 0.01(  0.19%)
                                           -0.0000  0.0035  0.5367 -0.0342 -0.0086
                                            0.0073 -0.6519  0.0050  0.0452  0.0406
                                           -0.5037 -0.0046  0.0348  0.0012 -0.0836
                                            0.0016  0.0058 -0.1172 -0.0250 -0.0085
                                           -0.0058  0.0013  0.0029 -0.0169 -0.0036
                                           -0.0014  0.0351  0.0071  0.0010  0.0452
                                            0.0025 -0.0064 -0.0016  0.0003 -0.0019
                                           -0.0021 -0.0053  0.0005  0.0058 -0.0030
                                           -0.0012  0.0009  0.0369 -0.0180 -0.0094
                                            0.0032
    25. (0.00805) RY*( 3) O   1           s( 19.26%)p 0.64( 12.23%)d 3.50( 67.39%)
                                                  f 0.06(  1.11%)
                                           -0.0000  0.0160  0.4328 -0.0698  0.0131
                                            0.0136  0.3182 -0.0316  0.0625 -0.0144
                                           -0.1084  0.0021  0.0583  0.0002  0.0243
                                           -0.0026  0.0022  0.6101  0.0085  0.0097
                                           -0.0084  0.0019 -0.0008  0.0366  0.0022
                                            0.0019 -0.5019 -0.0078 -0.0349  0.2162
                                           -0.0119  0.0043 -0.0034  0.0018  0.0025
                                           -0.0061 -0.0228  0.0139 -0.0042  0.0016
                                            0.0060 -0.0031 -0.0880  0.0385 -0.0295
                                            0.0143
    26. (0.00703) RY*( 4) O   1           s(  0.02%)p16.61(  0.37%)d99.99( 97.89%)
                                                  f77.57(  1.72%)
                                            0.0000  0.0009  0.0148 -0.0018 -0.0002
                                            0.0013  0.0025  0.0013  0.0004 -0.0004
                                            0.0003  0.0009  0.0015 -0.0192 -0.0559
                                           -0.0115 -0.0072 -0.0060  0.0020  0.0001
                                           -0.5632  0.0288 -0.0121  0.8087 -0.0341
                                            0.0146  0.0492 -0.0040  0.0002 -0.0541
                                            0.0025 -0.0025 -0.0386  0.0166 -0.0097
                                            0.0047  0.0000  0.0000 -0.1078  0.0494
                                           -0.0319  0.0135  0.0044 -0.0027  0.0071
                                           -0.0029
    27. (0.00639) RY*( 5) O   1           s(  1.50%)p13.81( 20.67%)d50.83( 76.07%)
                                                  f 1.18(  1.77%)
                                           -0.0000  0.0039  0.1136 -0.0444 -0.0082
                                            0.0594  0.3976 -0.0301 -0.0006 -0.0094
                                           -0.2041 -0.0048  0.0470 -0.0026  0.0116
                                           -0.0021  0.0017 -0.7134  0.0119 -0.0402
                                            0.0469 -0.0024  0.0016  0.0686 -0.0085
                                           -0.0022 -0.2851  0.0136 -0.0146  0.4002
                                           -0.0296  0.0164 -0.0045  0.0016  0.0597
                                           -0.0341  0.0268 -0.0169 -0.0058  0.0032
                                           -0.0062  0.0034  0.0536 -0.0161 -0.0849
                                            0.0385
    28. (0.00621) RY*( 6) O   1           s(  0.08%)p25.24(  1.90%)d99.99( 96.75%)
                                                  f16.90(  1.27%)
                                           -0.0000  0.0015  0.0254 -0.0099 -0.0026
                                            0.0114  0.0791 -0.0052 -0.0047 -0.0037
                                           -0.0544 -0.0006  0.0095  0.0329  0.0880
                                           -0.0089 -0.0243 -0.0563 -0.0024 -0.0058
                                           -0.8037  0.0559 -0.0312 -0.5553  0.0473
                                           -0.0031 -0.0286 -0.0008 -0.0009 -0.0528
                                            0.0030 -0.0019  0.0823 -0.0413 -0.0073
                                            0.0034 -0.0084  0.0029 -0.0037  0.0053
                                           -0.0565  0.0250  0.0057 -0.0015 -0.0133
                                            0.0058
    29. (0.00573) RY*( 7) O   1           s(  1.13%)p11.96( 13.46%)d73.99( 83.25%)
                                                  f 1.92(  2.16%)
                                           -0.0000  0.0199  0.1004 -0.0208  0.0186
                                           -0.0132 -0.1177 -0.0052  0.0233  0.0729
                                            0.3349 -0.0026 -0.0504 -0.0003 -0.0057
                                           -0.0003  0.0004  0.1144  0.0093  0.0103
                                           -0.0859  0.0125 -0.0007 -0.0331  0.0053
                                            0.0016  0.4150 -0.0261 -0.0131  0.7935
                                           -0.0883 -0.0012  0.0056 -0.0025 -0.0022
                                           -0.0008  0.1034 -0.0407  0.0042 -0.0020
                                           -0.0049  0.0018 -0.0244  0.0083  0.0849
                                           -0.0362
    30. (0.00361) RY*( 8) O   1           s( 30.55%)p 0.83( 25.38%)d 1.41( 43.19%)
                                                  f 0.03(  0.87%)
                                            0.0000 -0.0077  0.5271 -0.1639  0.0273
                                           -0.0369  0.4472 -0.0781  0.1807  0.0251
                                            0.0415  0.0092  0.0963 -0.0023  0.0424
                                           -0.0104  0.0041 -0.0614  0.0020 -0.0250
                                            0.0742 -0.0104  0.0035 -0.0115  0.0012
                                           -0.0001  0.5673 -0.0556  0.0266 -0.2993
                                            0.0794 -0.0163 -0.0124  0.0081 -0.0471
                                            0.0242  0.0008  0.0017  0.0166 -0.0090
                                            0.0019 -0.0003  0.0583 -0.0262  0.0355
                                           -0.0041
    31. (0.00243) RY*( 9) O   1           s( 13.78%)p 4.56( 62.86%)d 1.66( 22.89%)
                                                  f 0.03(  0.46%)
                                           -0.0000  0.0021  0.3634 -0.0751 -0.0113
                                            0.0072 -0.2527 -0.0137  0.0714  0.0154
                                            0.7470 -0.0305 -0.0135  0.0010 -0.0068
                                           -0.0001  0.0031 -0.2398  0.0361 -0.0411
                                           -0.0154  0.0031 -0.0022 -0.0089  0.0010
                                           -0.0009 -0.3521  0.0328 -0.1007 -0.1732
                                            0.0471 -0.0277 -0.0023  0.0003  0.0078
                                           -0.0164 -0.0239  0.0309  0.0027 -0.0006
                                           -0.0024  0.0006  0.0200 -0.0191 -0.0336
                                            0.0292
    32. (0.00077) RY*(10) O   1           s( 33.85%)p 1.65( 55.87%)d 0.26(  8.66%)
                                                  f 0.05(  1.61%)
                                           -0.0000 -0.0029  0.0315  0.5775  0.0635
                                            0.0060  0.0031 -0.6399  0.2383  0.0122
                                           -0.0216 -0.2204 -0.1993  0.0006 -0.0006
                                           -0.0553  0.0216 -0.0281  0.1479  0.0863
                                           -0.0042  0.0321 -0.0129 -0.0011  0.0115
                                            0.0004 -0.0132 -0.1345 -0.0774 -0.0050
                                            0.1172  0.1310 -0.0248  0.0037 -0.0080
                                           -0.0217  0.0104 -0.0030  0.0154 -0.0066
                                            0.0167 -0.0048 -0.0895  0.0166  0.0687
                                           -0.0355
    33. (0.00065) RY*(11) O   1           s(  0.01%)p99.99( 29.22%)d99.99( 48.09%)
                                                  f99.99( 22.69%)
                                            0.0000 -0.0003  0.0076  0.0040 -0.0055
                                            0.0006  0.0013 -0.0820 -0.0003  0.0003
                                           -0.0014 -0.0174 -0.0172 -0.0046  0.0246
                                            0.5323 -0.0301 -0.0044  0.0724  0.0058
                                           -0.0320 -0.5892 -0.0380  0.0185 -0.3264
                                           -0.0188  0.0045  0.0374  0.0025 -0.0075
                                           -0.1306 -0.0116  0.1585  0.0060 -0.0068
                                            0.0009 -0.0924  0.0126  0.2458 -0.0032
                                           -0.3521  0.0600 -0.0514  0.0019  0.0471
                                           -0.0102
    34. (0.00061) RY*(12) O   1           s(  3.46%)p 0.89(  3.09%)d16.28( 56.37%)
                                                  f10.71( 37.08%)
                                           -0.0000  0.0038 -0.0057  0.1576  0.0988
                                            0.0033 -0.0034  0.1581  0.0035  0.0091
                                            0.0174  0.0378  0.0623 -0.0000 -0.0005
                                            0.0096  0.0094  0.0499 -0.2362  0.0558
                                           -0.0122 -0.1624 -0.0140  0.0033 -0.0692
                                            0.0014 -0.0250 -0.0651  0.0053  0.0529
                                            0.6737  0.0959  0.0180 -0.0011 -0.0525
                                            0.0064  0.4609 -0.0509  0.0692 -0.0071
                                           -0.1338  0.0143  0.2654 -0.0196 -0.2410
                                            0.0293
    35. (0.00059) RY*(13) O   1           s(  0.06%)p99.99( 66.64%)d99.99( 17.99%)
                                                  f99.99( 15.30%)
                                           -0.0000 -0.0002  0.0109  0.0210 -0.0071
                                           -0.0001  0.0053  0.0597 -0.0266  0.0006
                                            0.0021  0.0071 -0.0139  0.0019 -0.0194
                                           -0.7810  0.2270 -0.0013  0.0581 -0.0002
                                           -0.0051 -0.3334  0.0182 -0.0218 -0.2360
                                           -0.0200  0.0020  0.0224 -0.0006 -0.0048
                                           -0.0889 -0.0014 -0.0823 -0.0161  0.0088
                                           -0.0007 -0.0692  0.0067  0.0440 -0.0413
                                           -0.3664  0.0166 -0.0321  0.0039  0.0431
                                           -0.0008
    36. (0.00051) RY*(14) O   1           s(  0.02%)p85.55(  1.74%)d99.99( 57.19%)
                                                  f99.99( 41.05%)
                                            0.0000 -0.0000  0.0025  0.0119  0.0075
                                            0.0004  0.0010  0.0057  0.0023  0.0001
                                           -0.0009 -0.0188 -0.0023 -0.0095 -0.0250
                                            0.1089 -0.0664 -0.0030 -0.0138 -0.0005
                                            0.0222 -0.2192  0.0525 -0.0097  0.7167
                                           -0.0793 -0.0010  0.0061 -0.0009  0.0009
                                           -0.0169  0.0043 -0.3954 -0.0125 -0.0069
                                           -0.0042 -0.0166  0.0026 -0.2209 -0.0230
                                           -0.4511  0.0003 -0.0207 -0.0008  0.0200
                                           -0.0011
    37. (0.00050) RY*(15) O   1           s(  2.51%)p 5.65( 14.20%)d17.89( 44.95%)
                                                  f15.25( 38.34%)
                                            0.0000  0.0004  0.0736  0.1351  0.0384
                                           -0.0045  0.0160  0.3151 -0.1483  0.0012
                                           -0.0058 -0.1077 -0.0870  0.0003  0.0040
                                            0.0342 -0.0037 -0.0277  0.5803 -0.0516
                                            0.0054 -0.0095  0.0112 -0.0063 -0.0018
                                           -0.0058  0.0352 -0.3147  0.0776 -0.0219
                                           -0.0438 -0.0187 -0.0264 -0.0018 -0.3725
                                           -0.0089  0.1337  0.0055 -0.0308 -0.0018
                                            0.0411 -0.0005 -0.2847 -0.0413 -0.3746
                                           -0.0143
    38. (0.00047) RY*(16) O   1           s(  0.02%)p99.99( 78.68%)d99.99(  2.58%)
                                                  f99.99( 18.72%)
                                           -0.0000  0.0049  0.0112  0.0040  0.0012
                                           -0.0060 -0.0117 -0.2362 -0.0116  0.0073
                                           -0.0089  0.8476 -0.1101 -0.0003 -0.0008
                                           -0.0043  0.0058 -0.0334  0.0307 -0.0417
                                            0.0039  0.0011  0.0058 -0.0047 -0.0032
[...]
                                            0.0168 -0.0413 -0.0060
   152. (0.00044) RY*( 7) H   4           s( 14.75%)p 5.05( 74.54%)d 0.73( 10.71%)
                                           -0.0037  0.0199  0.2910  0.2498  0.0482
                                           -0.0152  0.1482 -0.0394 -0.8248  0.1939
                                           -0.0071  0.0369 -0.0038  0.2048  0.1351
                                           -0.0641  0.0149  0.0388  0.0070 -0.1048
                                            0.0618  0.1445 -0.0728
   153. (0.00033) RY*( 8) H   4           s( 23.07%)p 2.26( 52.04%)d 1.08( 24.89%)
                                           -0.0041 -0.0115  0.3951  0.2729 -0.0482
                                            0.0003  0.3536 -0.0745  0.4996  0.2508
                                           -0.0439  0.2683  0.0324  0.2951 -0.0784
                                            0.0039 -0.0257 -0.0602  0.0041 -0.2794
                                            0.1968  0.1388 -0.1236
   154. (0.00031) RY*( 9) H   4           s(  3.53%)p24.51( 86.59%)d 2.80(  9.88%)
                                           -0.0030 -0.0171  0.1538  0.1066 -0.0239
                                            0.0309  0.0346 -0.0196  0.1232  0.0668
                                            0.1180 -0.9052  0.0991  0.0678 -0.0097
                                            0.0035  0.2401  0.0599 -0.0433 -0.1252
                                            0.0034  0.1226  0.0152
   155. (0.00025) RY*(10) H   4           s(  1.47%)p14.01( 20.57%)d53.11( 77.97%)
                                            0.0107  0.0354  0.0385  0.1087  0.0244
                                            0.1486 -0.4144 -0.0777 -0.0301  0.0452
                                           -0.0091  0.0381 -0.0269  0.0757 -0.0481
                                           -0.0021 -0.0061  0.0835 -0.0222 -0.6606
                                           -0.0790 -0.5281  0.2061
   156. (0.00023) RY*(11) H   4           s(  1.70%)p 1.62(  2.76%)d56.09( 95.54%)
                                            0.0023 -0.0014  0.0706  0.1097 -0.0028
                                            0.0615 -0.0295  0.0438  0.0645 -0.0787
                                           -0.0172  0.0953 -0.0356 -0.2407 -0.0309
                                           -0.1525 -0.0210  0.8913 -0.1936 -0.0283
                                           -0.0020  0.1924 -0.0557
   157. (0.00021) RY*(12) H   4           s(  5.26%)p 5.90( 31.01%)d12.12( 63.73%)
                                            0.0148  0.0214  0.0843  0.2117  0.0157
                                            0.3049 -0.4303  0.0518  0.0416 -0.1319
                                            0.0107  0.0969  0.0195 -0.2136  0.0141
                                           -0.0415 -0.0300 -0.2896  0.0701 -0.1841
                                           -0.2093  0.6496  0.0204
   158. (0.00017) RY*(13) H   4           s(  9.03%)p 1.66( 14.96%)d 8.42( 76.01%)
                                           -0.0042 -0.0341  0.2160  0.2060 -0.0156
                                           -0.1118  0.2564  0.0764 -0.0827 -0.2395
                                           -0.0008 -0.0315  0.0071 -0.7385 -0.1550
                                            0.0150  0.0333 -0.2000  0.0471 -0.1649
                                            0.2047 -0.2229 -0.1683
   159. (0.00012) RY*(14) H   4           s(  0.13%)p99.99( 32.78%)d99.99( 67.09%)
                                           -0.0013 -0.0055 -0.0006  0.0358  0.0128
                                           -0.0057  0.0169 -0.0006 -0.0036  0.0349
                                           -0.0125 -0.2049 -0.5329 -0.0114  0.0213
                                            0.4877 -0.6456  0.0483  0.0104 -0.0620
                                            0.0223  0.0656 -0.0672
   160. (0.00012) RY*(15) H   4           s( 63.53%)p 0.23( 14.55%)d 0.35( 21.92%)
                                           -0.0042 -0.0372 -0.1715  0.7775 -0.0095
                                           -0.2414 -0.2241  0.0051  0.1218  0.1475
                                           -0.0073 -0.0045  0.0147 -0.0253  0.2466
                                            0.0115 -0.0033 -0.0105  0.0089  0.3446
                                           -0.0636 -0.1847  0.0219
   161. (0.00009) RY*(16) H   4           s(  5.92%)p 3.95( 23.36%)d11.95( 70.72%)
   162. (0.00006) RY*(17) H   4           s(  0.94%)p36.32( 34.04%)d69.40( 65.03%)
   163. (0.00007) RY*(18) H   4           s( 23.82%)p 1.43( 34.17%)d 1.76( 42.01%)
   164. (0.00005) RY*(19) H   4           s(  0.02%)p10.07(  0.23%)d99.99( 99.75%)
   165. (0.00004) RY*(20) H   4           s( 26.43%)p 0.39( 10.22%)d 2.40( 63.35%)
   166. (0.00004) RY*(21) H   4           s(  3.69%)p14.70( 54.28%)d11.38( 42.03%)
   167. (0.00005) RY*(22) H   4           s(  3.11%)p 0.60(  1.86%)d30.59( 95.03%)
   168. (0.05766) BD*( 1) O   1 -Cl   3  
                ( 41.48%)   0.6440* O   1 s( 10.58%)p 8.40( 88.88%)d 0.05(  0.52%)
                                                  f 0.00(  0.02%)
                                           -0.0003 -0.3217  0.0455  0.0154  0.0006
                                            0.1916 -0.0349 -0.0074 -0.0026 -0.9219
                                            0.0258  0.0091  0.0119 -0.0062 -0.0027
                                           -0.0005  0.0001  0.0063  0.0009  0.0035
                                           -0.0013 -0.0001  0.0003 -0.0029 -0.0004
                                            0.0001  0.0574  0.0047  0.0011  0.0424
                                            0.0035 -0.0005  0.0000  0.0000 -0.0028
                                            0.0005  0.0108 -0.0011  0.0005 -0.0004
                                           -0.0009  0.0002 -0.0036 -0.0021  0.0052
                                           -0.0007
                ( 58.52%)  -0.7650*Cl   3 s(  8.75%)p10.28( 90.00%)d 0.13(  1.14%)
                                                  f 0.01(  0.11%)
                                            0.0000 -0.0005 -0.2900  0.0576  0.0104
                                            0.0022 -0.0001 -0.2319  0.0140  0.0059
                                           -0.0020  0.0004  0.9174 -0.0645 -0.0129
                                            0.0043 -0.0000 -0.0012  0.0000  0.0004
                                           -0.0001  0.0516 -0.0051  0.0004 -0.0013
                                            0.0000  0.0002  0.0017  0.0002  0.0001
                                            0.0735 -0.0099 -0.0007  0.0563 -0.0065
                                           -0.0010  0.0002  0.0000  0.0054 -0.0009
                                           -0.0203  0.0030  0.0000  0.0001  0.0003
                                           -0.0002  0.0179 -0.0021 -0.0186  0.0022
   169. (0.14477) BD*( 1) O   1 - H   4  
                ( 19.57%)   0.4423* O   1 s( 28.96%)p 2.44( 70.57%)d 0.02(  0.46%)
                                                  f 0.00(  0.01%)
                                           -0.0003 -0.5381  0.0028  0.0081 -0.0026
                                           -0.8356  0.0064  0.0069  0.0045  0.0124
                                           -0.0143 -0.0012 -0.0029 -0.0831 -0.0001
                                            0.0007  0.0009 -0.0269 -0.0049 -0.0008
                                           -0.0114 -0.0008  0.0005 -0.0029 -0.0005
                                           -0.0001 -0.0504 -0.0044 -0.0012  0.0338
                                            0.0014 -0.0034  0.0020  0.0000  0.0087
                                            0.0002  0.0003 -0.0005 -0.0012 -0.0004
                                           -0.0001  0.0002 -0.0010 -0.0028  0.0018
                                            0.0006
                ( 80.43%)  -0.8968* H   4 s( 99.81%)p 0.00(  0.19%)d 0.00(  0.00%)
                                           -0.9981 -0.0437 -0.0047  0.0018 -0.0163
                                            0.0352 -0.0101 -0.0136 -0.0023 -0.0049
                                           -0.0067  0.0038  0.0001 -0.0015 -0.0019
                                            0.0006  0.0002 -0.0004 -0.0002 -0.0018
                                           -0.0006 -0.0002  0.0041


 NHO Directionality and "Bond Bending" (deviations from line of nuclear centers)

         [Thresholds for printing:  angular deviation  >  1.0 degree]
                                    hybrid p-character > 25.0%
                                    orbital occupancy  >  0.10e

                                Line of Centers        Hybrid 1              Hybrid 2
                                ---------------  -------------------   ------------------
                NBO               Theta   Phi    Theta   Phi    Dev    Theta   Phi    Dev
 ========================================================================================
     1. BD (   1) O   1 -Cl   3    90.0  103.5    89.4   99.5   4.1      --     --    --
    14. LP (   1) O   1             --     --     96.0  217.0   --       --     --    --
    15. LP (   2) O   1             --     --      6.1  196.2   --       --     --    --
    17. LP (   2)Cl   2             --     --      5.1  318.3   --       --     --    --
    18. LP (   3)Cl   2             --     --     86.6   89.7   --       --     --    --
    19. LP (   4)Cl   2             --     --     86.1  180.1   --       --     --    --
    21. LP (   2)Cl   3             --     --    175.8   13.9   --       --     --    --
    22. LP (   3)Cl   3             --     --     94.2  193.8   --       --     --    --


 Natural Bond Orbitals (Summary):

           NBO                  Occupancy  
 -----------------------------------------------
 Molecular unit  1  (HOCl)
     1. BD (   1) O   1 -Cl   3          1.93945
     2. BD (   1) O   1 - H   4          1.96399
     3. CR (   1) O   1                  1.99969
     9. CR (   1)Cl   3                  2.00000
    10. CR (   2)Cl   3                  1.99979
    11. CR (   3)Cl   3                  2.00003
    12. CR (   4)Cl   3                  1.99996
    13. CR (   5)Cl   3                  2.00003
    14. LP (   1) O   1                  1.96604
    15. LP (   2) O   1                  1.95196
    20. LP (   1)Cl   3                  1.97403
    21. LP (   2)Cl   3                  1.95597
    22. LP (   3)Cl   3                  1.95477
    23. RY*(   1) O   1                  0.01987
    24. RY*(   2) O   1                  0.01627
    25. RY*(   3) O   1                  0.00805
    26. RY*(   4) O   1                  0.00703
    27. RY*(   5) O   1                  0.00639
    28. RY*(   6) O   1                  0.00621
    29. RY*(   7) O   1                  0.00573
    30. RY*(   8) O   1                  0.00361
    31. RY*(   9) O   1                  0.00243
    32. RY*(  10) O   1                  0.00077
    33. RY*(  11) O   1                  0.00065
    34. RY*(  12) O   1                  0.00061
    35. RY*(  13) O   1                  0.00059
    36. RY*(  14) O   1                  0.00051
    37. RY*(  15) O   1                  0.00050
    38. RY*(  16) O   1                  0.00047
    39. RY*(  17) O   1                  0.00048
    40. RY*(  18) O   1                  0.00047
    41. RY*(  19) O   1                  0.00045
    42. RY*(  20) O   1                  0.00045
    43. RY*(  21) O   1                  0.00045
    44. RY*(  22) O   1                  0.00042
    45. RY*(  23) O   1                  0.00036
    46. RY*(  24) O   1                  0.00032
    47. RY*(  25) O   1                  0.00025
    48. RY*(  26) O   1                  0.00017
    49. RY*(  27) O   1                  0.00012
    50. RY*(  28) O   1                  0.00013
    51. RY*(  29) O   1                  0.00012
    52. RY*(  30) O   1                  0.00009
    53. RY*(  31) O   1                  0.00008
    54. RY*(  32) O   1                  0.00008
    55. RY*(  33) O   1                  0.00009
    56. RY*(  34) O   1                  0.00008
    57. RY*(  35) O   1                  0.00006
    58. RY*(  36) O   1                  0.00006
    59. RY*(  37) O   1                  0.00007
    60. RY*(  38) O   1                  0.00006
    61. RY*(  39) O   1                  0.00004
    62. RY*(  40) O   1                  0.00002
    63. RY*(  41) O   1                 -0.00002
   105. RY*(   1)Cl   3                  0.02310
   106. RY*(   2)Cl   3                  0.01786
   107. RY*(   3)Cl   3                  0.01679
   108. RY*(   4)Cl   3                  0.01673
   109. RY*(   5)Cl   3                  0.01171
   110. RY*(   6)Cl   3                  0.00938
   111. RY*(   7)Cl   3                  0.00913
   112. RY*(   8)Cl   3                  0.00638
   113. RY*(   9)Cl   3                  0.00170
   114. RY*(  10)Cl   3                  0.00127
   115. RY*(  11)Cl   3                  0.00127
   116. RY*(  12)Cl   3                  0.00120
   117. RY*(  13)Cl   3                  0.00120
   118. RY*(  14)Cl   3                  0.00117
   119. RY*(  15)Cl   3                  0.00111
   120. RY*(  16)Cl   3                  0.00095
   121. RY*(  17)Cl   3                  0.00077
   122. RY*(  18)Cl   3                  0.00076
   123. RY*(  19)Cl   3                  0.00065
   124. RY*(  20)Cl   3                  0.00057
   125. RY*(  21)Cl   3                  0.00043
   126. RY*(  22)Cl   3                  0.00036
   127. RY*(  23)Cl   3                  0.00036
   128. RY*(  24)Cl   3                  0.00031
   129. RY*(  25)Cl   3                  0.00018
   130. RY*(  26)Cl   3                  0.00016
   131. RY*(  27)Cl   3                  0.00015
   132. RY*(  28)Cl   3                  0.00012
   133. RY*(  29)Cl   3                  0.00013
   134. RY*(  30)Cl   3                  0.00013
   135. RY*(  31)Cl   3                  0.00011
   136. RY*(  32)Cl   3                  0.00010
   137. RY*(  33)Cl   3                  0.00010
   138. RY*(  34)Cl   3                  0.00010
   139. RY*(  35)Cl   3                  0.00010
   140. RY*(  36)Cl   3                  0.00007
   141. RY*(  37)Cl   3                  0.00008
   142. RY*(  38)Cl   3                  0.00004
   143. RY*(  39)Cl   3                  0.00002
   144. RY*(  40)Cl   3                  0.00003
   145. RY*(  41)Cl   3                 -0.00000
   146. RY*(   1) H   4                  0.00995
   147. RY*(   2) H   4                  0.00542
   148. RY*(   3) H   4                  0.00503
   149. RY*(   4) H   4                  0.00374
   150. RY*(   5) H   4                  0.00079
   151. RY*(   6) H   4                  0.00055
   152. RY*(   7) H   4                  0.00044
   153. RY*(   8) H   4                  0.00033
   154. RY*(   9) H   4                  0.00031
   155. RY*(  10) H   4                  0.00025
   156. RY*(  11) H   4                  0.00023
   157. RY*(  12) H   4                  0.00021
   158. RY*(  13) H   4                  0.00017
   159. RY*(  14) H   4                  0.00012
   160. RY*(  15) H   4                  0.00012
   161. RY*(  16) H   4                  0.00009
   162. RY*(  17) H   4                  0.00006
   163. RY*(  18) H   4                  0.00007
   164. RY*(  19) H   4                  0.00005
   165. RY*(  20) H   4                  0.00004
   166. RY*(  21) H   4                  0.00004
   167. RY*(  22) H   4                  0.00005
   168. BD*(   1) O   1 -Cl   3          0.05766
   169. BD*(   1) O   1 - H   4          0.14477
       -------------------------------
              Total Lewis   25.70571  ( 98.3102%)
        Valence non-Lewis    0.20243  (  0.7742%)
        Rydberg non-Lewis    0.23942  (  0.9157%)
       -------------------------------
            Total unit  1   26.14756  (100.0000%)
           Charge unit  1   -0.14756

 Molecular unit  2  (Cl)
     4. CR (   1)Cl   2                  2.00000
     5. CR (   2)Cl   2                  1.99994
     6. CR (   3)Cl   2                  2.00002
     7. CR (   4)Cl   2                  2.00003
     8. CR (   5)Cl   2                  2.00003
    16. LP (   1)Cl   2                  1.97678
    17. LP (   2)Cl   2                  1.95258
    18. LP (   3)Cl   2                  1.95220
    19. LP (   4)Cl   2                  1.82769
    64. RY*(   1)Cl   2                  0.01836
    65. RY*(   2)Cl   2                  0.01830
    66. RY*(   3)Cl   2                  0.01824
    67. RY*(   4)Cl   2                  0.01823
    68. RY*(   5)Cl   2                  0.01767
    69. RY*(   6)Cl   2                  0.01240
    70. RY*(   7)Cl   2                  0.01231
    71. RY*(   8)Cl   2                  0.00971
    72. RY*(   9)Cl   2                  0.00169
    73. RY*(  10)Cl   2                  0.00128
    74. RY*(  11)Cl   2                  0.00129
    75. RY*(  12)Cl   2                  0.00128
    76. RY*(  13)Cl   2                  0.00129
    77. RY*(  14)Cl   2                  0.00126
    78. RY*(  15)Cl   2                  0.00126
    79. RY*(  16)Cl   2                  0.00123
    80. RY*(  17)Cl   2                  0.00096
    81. RY*(  18)Cl   2                  0.00096
    82. RY*(  19)Cl   2                  0.00069
    83. RY*(  20)Cl   2                  0.00067
    84. RY*(  21)Cl   2                  0.00063
    85. RY*(  22)Cl   2                  0.00052
    86. RY*(  23)Cl   2                  0.00051
    87. RY*(  24)Cl   2                  0.00049
    88. RY*(  25)Cl   2                  0.00021
    89. RY*(  26)Cl   2                  0.00018
    90. RY*(  27)Cl   2                  0.00018
    91. RY*(  28)Cl   2                  0.00015
    92. RY*(  29)Cl   2                  0.00015
    93. RY*(  30)Cl   2                  0.00014
    94. RY*(  31)Cl   2                  0.00014
    95. RY*(  32)Cl   2                  0.00014
    96. RY*(  33)Cl   2                  0.00012
    97. RY*(  34)Cl   2                  0.00009
    98. RY*(  35)Cl   2                  0.00010
    99. RY*(  36)Cl   2                  0.00009
   100. RY*(  37)Cl   2                  0.00010
   101. RY*(  38)Cl   2                  0.00007
   102. RY*(  39)Cl   2                  0.00005
   103. RY*(  40)Cl   2                  0.00003
   104. RY*(  41)Cl   2                  0.00001
       -------------------------------
              Total Lewis   17.70927  ( 99.1980%)
        Valence non-Lewis    0.00000  (  0.0000%)
        Rydberg non-Lewis    0.14317  (  0.8020%)
       -------------------------------
            Total unit  2   17.85244  (100.0000%)
           Charge unit  2   -0.85244
 Leave Link  607 at Wed Sep 22 16:31:06 2021, MaxMem= 16106127360 cpu:              78.2 elap:               2.8
 (Enter /sw/contrib/gaussian/g16/B01/g16/l9999.exe)
 1\1\GINC-N2096\SP\RMP2-FC\Aug-CC-pVTZ\Cl2H1O1(1-)\CGAVINH\22-Sep-2021\
 0\\#p pop=NBO SP NoSymm mp2/aug-cc-pvtz density=current\\title\\-1,1\O
 ,0,0.,0.,0.\Cl,0,2.904676,0.,0.\Cl,0,-0.3936866,1.6360486,0.\H,0,1.023
 759405,0.,0.089567342\\Version=ES64L-G16RevB.01\HF=-994.5235754\MP2=-9
 95.1917488\RMSD=3.902e-09\Dipole=-1.8349073,0.9147216,0.0295761\Quadru
 pole=-15.5271527,7.6065101,7.9206425,0.3604302,0.0326768,-0.0209292\PG
 =C01 [X(Cl2H1O1)]\\@


 WHERE THERE IS MUCH DESIRE TO LEARN, THERE OF NECESSITY WILL BE
 MUCH ARGUING, MUCH WRITING, MANY OPINIONS; FOR OPINION IN GOOD MEN
 IS BUT KNOWLEDGE IN THE MAKING. -- JOHN MILTON.
 Job cpu time:       0 days  0 hours  5 minutes  4.5 seconds.
 Elapsed time:       0 days  0 hours  0 minutes 16.8 seconds.
 File lengths (MBytes):  RWF=     14 Int=      0 D2E=      0 Chk=      8 Scr=      1
 Normal termination of Gaussian 16 at Wed Sep 22 16:31:07 2021.
