 Entering Gaussian System, Link 0=g16
 Input=clhocl_45_sp.gjf
 Output=clhocl_45_sp.log
 Initial command:
 /sw/contrib/gaussian/g16/B01/g16/l1.exe "/scr/Gau-29825.inp" -scrdir="/scr/"
 Entering Link 1 = /sw/contrib/gaussian/g16/B01/g16/l1.exe PID=     29826.
  
 Copyright (c) 1988-2017, Gaussian, Inc.  All Rights Reserved.
  
 This is part of the Gaussian(R) 16 program.  It is based on
 the Gaussian(R) 09 system (copyright 2009, Gaussian, Inc.),
 the Gaussian(R) 03 system (copyright 2003, Gaussian, Inc.),
 the Gaussian(R) 98 system (copyright 1998, Gaussian, Inc.),
 the Gaussian(R) 94 system (copyright 1995, Gaussian, Inc.),
 the Gaussian 92(TM) system (copyright 1992, Gaussian, Inc.),
 the Gaussian 90(TM) system (copyright 1990, Gaussian, Inc.),
 the Gaussian 88(TM) system (copyright 1988, Gaussian, Inc.),
 the Gaussian 86(TM) system (copyright 1986, Carnegie Mellon
 University), and the Gaussian 82(TM) system (copyright 1983,
 Carnegie Mellon University). Gaussian is a federally registered
 trademark of Gaussian, Inc.
  
 This software contains proprietary and confidential information,
 including trade secrets, belonging to Gaussian, Inc.
  
 This software is provided under written license and may be
 used, copied, transmitted, or stored only in accord with that
 written license.
  
 The following legend is applicable only to US Government
 contracts under FAR:
  
                    RESTRICTED RIGHTS LEGEND
  
 Use, reproduction and disclosure by the US Government is
 subject to restrictions as set forth in subparagraphs (a)
 and (c) of the Commercial Computer Software - Restricted
 Rights clause in FAR 52.227-19.
  
 Gaussian, Inc.
 340 Quinnipiac St., Bldg. 40, Wallingford CT 06492
  
  
 ---------------------------------------------------------------
 Warning -- This program may not be used in any manner that
 competes with the business of Gaussian, Inc. or will provide
 assistance to any competitor of Gaussian, Inc.  The licensee
 of this program is prohibited from giving any competitor of
 Gaussian, Inc. access to this program.  By using this program,
 the user acknowledges that Gaussian, Inc. is engaged in the
 business of creating and licensing software in the field of
 computational chemistry and represents and warrants to the
 licensee that it is not a competitor of Gaussian, Inc. and that
 it will not use this program in any manner prohibited above.
 ---------------------------------------------------------------
  

 Cite this work as:
 Gaussian 16, Revision B.01,
 M. J. Frisch, G. W. Trucks, H. B. Schlegel, G. E. Scuseria, 
 M. A. Robb, J. R. Cheeseman, G. Scalmani, V. Barone, 
 G. A. Petersson, H. Nakatsuji, X. Li, M. Caricato, A. V. Marenich, 
 J. Bloino, B. G. Janesko, R. Gomperts, B. Mennucci, H. P. Hratchian, 
 J. V. Ortiz, A. F. Izmaylov, J. L. Sonnenberg, D. Williams-Young, 
 F. Ding, F. Lipparini, F. Egidi, J. Goings, B. Peng, A. Petrone, 
 T. Henderson, D. Ranasinghe, V. G. Zakrzewski, J. Gao, N. Rega, 
 G. Zheng, W. Liang, M. Hada, M. Ehara, K. Toyota, R. Fukuda, 
 J. Hasegawa, M. Ishida, T. Nakajima, Y. Honda, O. Kitao, H. Nakai, 
 T. Vreven, K. Throssell, J. A. Montgomery, Jr., J. E. Peralta, 
 F. Ogliaro, M. J. Bearpark, J. J. Heyd, E. N. Brothers, K. N. Kudin, 
 V. N. Staroverov, T. A. Keith, R. Kobayashi, J. Normand, 
 K. Raghavachari, A. P. Rendell, J. C. Burant, S. S. Iyengar, 
 J. Tomasi, M. Cossi, J. M. Millam, M. Klene, C. Adamo, R. Cammi, 
 J. W. Ochterski, R. L. Martin, K. Morokuma, O. Farkas, 
 J. B. Foresman, and D. J. Fox, Gaussian, Inc., Wallingford CT, 2016.
 
 ******************************************
 Gaussian 16:  ES64L-G16RevB.01 20-Dec-2017
                22-Sep-2021 
 ******************************************
 %nproc=28
 Will use up to   28 processors via shared memory.
 %mem=120GB
 %chk=/gscratch/ilahie/mccoygrp/coire_hocl/clhocl/clhocl_45_sp.chk
 ----------------------------------------------------
 #p pop=NBO SP NoSymm mp2/aug-cc-pvtz density=current
 ----------------------------------------------------
 1/30=1,38=1,172=1/1;
 2/12=2,15=1,17=6,18=5,40=1/2;
 3/5=16,6=1,7=10,11=9,25=1,30=1,71=1/1,2,3;
 4//1;
 5/5=2,38=5/2;
 8/6=4,10=1/1;
 9/15=1,16=-3/6;
 10/5=1,13=10,31=1/2;
 6/7=2,8=2,9=2,10=2,22=-1,40=1/1,7;
 99/5=1,9=1/99;
 Leave Link    1 at Wed Sep 22 16:32:57 2021, MaxMem= 16106127360 cpu:               1.5 elap:               0.1
 (Enter /sw/contrib/gaussian/g16/B01/g16/l101.exe)
 -----
 title
 -----
 Symbolic Z-matrix:
 Charge = -1 Multiplicity = 1
 O                     0.        0.        0. 
 Cl                    2.90468   0.        0. 
 Cl                   -0.39369   1.63605   0. 
 H                     0.69455   0.        0.69455 
 
 ITRead=  0  0  0  0
 MicOpt= -1 -1 -1 -1
 NAtoms=      4 NQM=        4 NQMF=       0 NMMI=      0 NMMIF=      0
                NMic=       0 NMicF=      0.
                    Isotopes and Nuclear Properties:
 (Nuclear quadrupole moments (NQMom) in fm**2, nuclear magnetic moments (NMagM)
  in nuclear magnetons)

  Atom         1           2           3           4
 IAtWgt=          16          35          35           1
 AtmWgt=  15.9949146  34.9688527  34.9688527   1.0078250
 NucSpn=           0           3           3           1
 AtZEff=  -0.0000000  -0.0000000  -0.0000000  -0.0000000
 NQMom=    0.0000000  -8.1650000  -8.1650000   0.0000000
 NMagM=    0.0000000   0.8218740   0.8218740   2.7928460
 AtZNuc=   8.0000000  17.0000000  17.0000000   1.0000000
 Leave Link  101 at Wed Sep 22 16:32:57 2021, MaxMem= 16106127360 cpu:               2.2 elap:               0.1
 (Enter /sw/contrib/gaussian/g16/B01/g16/l202.exe)
                          Input orientation:                          
 ---------------------------------------------------------------------
 Center     Atomic      Atomic             Coordinates (Angstroms)
 Number     Number       Type             X           Y           Z
 ---------------------------------------------------------------------
      1          8           0        0.000000    0.000000    0.000000
      2         17           0        2.904676    0.000000    0.000000
      3         17           0       -0.393687    1.636049    0.000000
      4          1           0        0.694549    0.000000    0.694549
 ---------------------------------------------------------------------
                    Distance matrix (angstroms):
                    1          2          3          4
     1  O    0.000000
     2  Cl   2.904676   0.000000
     3  Cl   1.682749   3.681827   0.000000
     4  H    0.982240   2.316692   2.084061   0.000000
 Symmetry turned off by external request.
 Stoichiometry    Cl2HO(1-)
 Framework group  C1[X(Cl2HO)]
 Deg. of freedom     6
 Full point group                 C1      NOp   1
 Rotational constants (GHZ):          22.9901848           2.0563832           1.8941717
 Leave Link  202 at Wed Sep 22 16:32:57 2021, MaxMem= 16106127360 cpu:               2.2 elap:               0.1
 (Enter /sw/contrib/gaussian/g16/B01/g16/l301.exe)
 Standard basis: Aug-CC-pVTZ (5D, 7F)
 Ernie: Thresh=  0.10000D-02 Tol=  0.10000D-05 Strict=F.
 Ernie:  29 primitive shells out of 169 were deleted.
   169 basis functions,   327 primitive gaussians,   198 cartesian basis functions
    22 alpha electrons       22 beta electrons
       nuclear repulsion energy       121.5915241192 Hartrees.
 IExCor=    0 DFT=F Ex=HF Corr=None ExCW=0 ScaHFX=  1.000000
 ScaDFX=  1.000000  1.000000  1.000000  1.000000 ScalE2=  1.000000  1.000000
 IRadAn=      5 IRanWt=     -1 IRanGd=            0 ICorTp=0 IEmpDi=  4
 NAtoms=    4 NActive=    4 NUniq=    4 SFac= 1.00D+00 NAtFMM=   60 NAOKFM=F Big=F
 Integral buffers will be    131072 words long.
 Raffenetti 1 integral format.
 Two-electron integral symmetry is turned off.
 Leave Link  301 at Wed Sep 22 16:32:57 2021, MaxMem= 16106127360 cpu:               2.6 elap:               0.1
 (Enter /sw/contrib/gaussian/g16/B01/g16/l302.exe)
 NPDir=0 NMtPBC=     1 NCelOv=     1 NCel=       1 NClECP=     1 NCelD=      1
         NCelK=      1 NCelE2=     1 NClLst=     1 CellRange=     0.0.
 One-electron integrals computed using PRISM.
 NBasis=   169 RedAO= T EigKep=  2.97D-04  NBF=   169
 NBsUse=   169 1.00D-06 EigRej= -1.00D+00 NBFU=   169
 Leave Link  302 at Wed Sep 22 16:32:57 2021, MaxMem= 16106127360 cpu:               5.3 elap:               0.2
 (Enter /sw/contrib/gaussian/g16/B01/g16/l303.exe)
 DipDrv:  MaxL=1.
 Leave Link  303 at Wed Sep 22 16:32:57 2021, MaxMem= 16106127360 cpu:               1.4 elap:               0.1
 (Enter /sw/contrib/gaussian/g16/B01/g16/l401.exe)
 ExpMin= 2.53D-02 ExpMax= 4.56D+05 ExpMxC= 1.44D+03 IAcc=3 IRadAn=         5 AccDes= 0.00D+00
 Harris functional with IExCor=  205 and IRadAn=       5 diagonalized for initial guess.
 HarFok:  IExCor=  205 AccDes= 0.00D+00 IRadAn=         5 IDoV= 1 UseB2=F ITyADJ=14
 ICtDFT=  3500011 ScaDFX=  1.000000  1.000000  1.000000  1.000000
 FoFCou: FMM=F IPFlag=           0 FMFlag=      100000 FMFlg1=           0
         NFxFlg=           0 DoJE=T BraDBF=F KetDBF=T FulRan=T
         wScrn=  0.000000 ICntrl=       500 IOpCl=  0 I1Cent=   200000004 NGrid=           0
         NMat0=    1 NMatS0=      1 NMatT0=    0 NMatD0=    1 NMtDS0=    0 NMtDT0=    0
 Symmetry not used in FoFCou.
 Harris En= -993.810033753029    
 JPrj=0 DoOrth=F DoCkMO=F.
 Leave Link  401 at Wed Sep 22 16:32:57 2021, MaxMem= 16106127360 cpu:               6.7 elap:               0.3
 (Enter /sw/contrib/gaussian/g16/B01/g16/l502.exe)
 Keep R1 ints in memory in canonical form, NReq=117118953.
 FoFCou: FMM=F IPFlag=           0 FMFlag=           0 FMFlg1=           0
         NFxFlg=           0 DoJE=F BraDBF=F KetDBF=F FulRan=T
         wScrn=  0.000000 ICntrl=       600 IOpCl=  0 I1Cent=           0 NGrid=           0
         NMat0=    1 NMatS0=  14365 NMatT0=    0 NMatD0=    1 NMtDS0=    0 NMtDT0=    0
 Symmetry not used in FoFCou.
 Two-electron integral symmetry not used.
 Closed shell SCF:
 Using DIIS extrapolation, IDIIS=  1040.
 NGot= 16106127360 LenX= 16002858349 LenY= 16002818704
 Requested convergence on RMS density matrix=1.00D-08 within 128 cycles.
 Requested convergence on MAX density matrix=1.00D-06.
 Requested convergence on             energy=1.00D-06.
 No special actions if energy rises.

 Cycle   1  Pass 1  IDiag  1:
 E= -994.373250069689    
 DIIS: error= 3.21D-02 at cycle   1 NSaved=   1.
 NSaved= 1 IEnMin= 1 EnMin= -994.373250069689     IErMin= 1 ErrMin= 3.21D-02
 ErrMax= 3.21D-02  0.00D+00 EMaxC= 1.00D-01 BMatC= 4.23D-01 BMatP= 4.23D-01
 IDIUse=3 WtCom= 6.79D-01 WtEn= 3.21D-01
 Coeff-Com:  0.100D+01
 Coeff-En:   0.100D+01
 Coeff:      0.100D+01
 Gap=     0.537 Goal=   None    Shift=    0.000
 GapD=    0.537 DampG=2.000 DampE=0.500 DampFc=1.0000 IDamp=-1.
 RMSDP=2.14D-03 MaxDP=7.09D-02              OVMax= 1.22D-01

 Cycle   2  Pass 1  IDiag  1:
 E= -994.472048913302     Delta-E=       -0.098798843612 Rises=F Damp=F
 DIIS: error= 1.33D-02 at cycle   2 NSaved=   2.
 NSaved= 2 IEnMin= 2 EnMin= -994.472048913302     IErMin= 2 ErrMin= 1.33D-02
 ErrMax= 1.33D-02  0.00D+00 EMaxC= 1.00D-01 BMatC= 4.87D-02 BMatP= 4.23D-01
 IDIUse=3 WtCom= 8.67D-01 WtEn= 1.33D-01
 Coeff-Com:  0.166D+00 0.834D+00
 Coeff-En:   0.000D+00 0.100D+01
 Coeff:      0.144D+00 0.856D+00
 Gap=     0.344 Goal=   None    Shift=    0.000
 RMSDP=9.93D-04 MaxDP=4.04D-02 DE=-9.88D-02 OVMax= 7.67D-02

 Cycle   3  Pass 1  IDiag  1:
 E= -994.497514870668     Delta-E=       -0.025465957366 Rises=F Damp=F
 DIIS: error= 6.65D-03 at cycle   3 NSaved=   3.
 NSaved= 3 IEnMin= 3 EnMin= -994.497514870668     IErMin= 3 ErrMin= 6.65D-03
 ErrMax= 6.65D-03  0.00D+00 EMaxC= 1.00D-01 BMatC= 1.28D-02 BMatP= 4.87D-02
 IDIUse=3 WtCom= 9.33D-01 WtEn= 6.65D-02
 Coeff-Com: -0.144D-01 0.328D+00 0.686D+00
 Coeff-En:   0.000D+00 0.938D-01 0.906D+00
 Coeff:     -0.135D-01 0.312D+00 0.701D+00
 Gap=     0.330 Goal=   None    Shift=    0.000
 RMSDP=3.45D-04 MaxDP=1.32D-02 DE=-2.55D-02 OVMax= 3.41D-02

 Cycle   4  Pass 1  IDiag  1:
 E= -994.506249331049     Delta-E=       -0.008734460381 Rises=F Damp=F
 DIIS: error= 8.25D-04 at cycle   4 NSaved=   4.
 NSaved= 4 IEnMin= 4 EnMin= -994.506249331049     IErMin= 4 ErrMin= 8.25D-04
 ErrMax= 8.25D-04  0.00D+00 EMaxC= 1.00D-01 BMatC= 1.74D-04 BMatP= 1.28D-02
 IDIUse=3 WtCom= 9.92D-01 WtEn= 8.25D-03
 Coeff-Com: -0.445D-02 0.322D-01 0.130D+00 0.842D+00
 Coeff-En:   0.000D+00 0.000D+00 0.000D+00 0.100D+01
 Coeff:     -0.442D-02 0.319D-01 0.129D+00 0.843D+00
 Gap=     0.323 Goal=   None    Shift=    0.000
 RMSDP=5.45D-05 MaxDP=1.30D-03 DE=-8.73D-03 OVMax= 2.97D-03

 Cycle   5  Pass 1  IDiag  1:
 E= -994.506423053200     Delta-E=       -0.000173722151 Rises=F Damp=F
 DIIS: error= 2.32D-04 at cycle   5 NSaved=   5.
 NSaved= 5 IEnMin= 5 EnMin= -994.506423053200     IErMin= 5 ErrMin= 2.32D-04
 ErrMax= 2.32D-04  0.00D+00 EMaxC= 1.00D-01 BMatC= 1.49D-05 BMatP= 1.74D-04
 IDIUse=3 WtCom= 9.98D-01 WtEn= 2.32D-03
 Coeff-Com:  0.868D-03-0.377D-01-0.714D-01-0.889D-02 0.112D+01
 Coeff-En:   0.000D+00 0.000D+00 0.000D+00 0.000D+00 0.100D+01
 Coeff:      0.866D-03-0.376D-01-0.713D-01-0.887D-02 0.112D+01
 Gap=     0.325 Goal=   None    Shift=    0.000
 RMSDP=3.24D-05 MaxDP=1.12D-03 DE=-1.74D-04 OVMax= 3.05D-03

 Cycle   6  Pass 1  IDiag  1:
 E= -994.506460510260     Delta-E=       -0.000037457061 Rises=F Damp=F
 DIIS: error= 9.32D-05 at cycle   6 NSaved=   6.
 NSaved= 6 IEnMin= 6 EnMin= -994.506460510260     IErMin= 6 ErrMin= 9.32D-05
 ErrMax= 9.32D-05  0.00D+00 EMaxC= 1.00D-01 BMatC= 1.83D-06 BMatP= 1.49D-05
 IDIUse=1 WtCom= 1.00D+00 WtEn= 0.00D+00
 Coeff-Com:  0.309D-03 0.712D-02 0.142D-01-0.654D-01-0.391D+00 0.143D+01
 Coeff:      0.309D-03 0.712D-02 0.142D-01-0.654D-01-0.391D+00 0.143D+01
 Gap=     0.325 Goal=   None    Shift=    0.000
 RMSDP=1.55D-05 MaxDP=5.40D-04 DE=-3.75D-05 OVMax= 1.47D-03

 Cycle   7  Pass 1  IDiag  1:
 E= -994.506466802076     Delta-E=       -0.000006291815 Rises=F Damp=F
 DIIS: error= 2.14D-05 at cycle   7 NSaved=   7.
 NSaved= 7 IEnMin= 7 EnMin= -994.506466802076     IErMin= 7 ErrMin= 2.14D-05
 ErrMax= 2.14D-05  0.00D+00 EMaxC= 1.00D-01 BMatC= 1.13D-07 BMatP= 1.83D-06
 IDIUse=1 WtCom= 1.00D+00 WtEn= 0.00D+00
 Coeff-Com: -0.188D-03-0.248D-04 0.505D-03 0.229D-01 0.642D-01-0.540D+00
 Coeff-Com:  0.145D+01
 Coeff:     -0.188D-03-0.248D-04 0.505D-03 0.229D-01 0.642D-01-0.540D+00
 Coeff:      0.145D+01
 Gap=     0.325 Goal=   None    Shift=    0.000
 RMSDP=4.70D-06 MaxDP=1.66D-04 DE=-6.29D-06 OVMax= 4.56D-04

 Cycle   8  Pass 1  IDiag  1:
 E= -994.506467296956     Delta-E=       -0.000000494881 Rises=F Damp=F
 DIIS: error= 6.34D-06 at cycle   8 NSaved=   8.
 NSaved= 8 IEnMin= 8 EnMin= -994.506467296956     IErMin= 8 ErrMin= 6.34D-06
 ErrMax= 6.34D-06  0.00D+00 EMaxC= 1.00D-01 BMatC= 8.28D-09 BMatP= 1.13D-07
 IDIUse=1 WtCom= 1.00D+00 WtEn= 0.00D+00
 Coeff-Com: -0.333D-05-0.789D-03-0.140D-02 0.410D-02 0.320D-01-0.974D-01
 Coeff-Com: -0.407D-01 0.110D+01
 Coeff:     -0.333D-05-0.789D-03-0.140D-02 0.410D-02 0.320D-01-0.974D-01
 Coeff:     -0.407D-01 0.110D+01
 Gap=     0.325 Goal=   None    Shift=    0.000
 RMSDP=1.01D-06 MaxDP=2.31D-05 DE=-4.95D-07 OVMax= 1.08D-04

 Cycle   9  Pass 1  IDiag  1:
 E= -994.506467324547     Delta-E=       -0.000000027590 Rises=F Damp=F
 DIIS: error= 2.62D-06 at cycle   9 NSaved=   9.
 NSaved= 9 IEnMin= 9 EnMin= -994.506467324547     IErMin= 9 ErrMin= 2.62D-06
 ErrMax= 2.62D-06  0.00D+00 EMaxC= 1.00D-01 BMatC= 1.15D-09 BMatP= 8.28D-09
 IDIUse=1 WtCom= 1.00D+00 WtEn= 0.00D+00
 Coeff-Com:  0.193D-04 0.156D-03 0.314D-03-0.336D-02-0.152D-01 0.851D-01
 Coeff-Com: -0.165D+00-0.203D+00 0.130D+01
 Coeff:      0.193D-04 0.156D-03 0.314D-03-0.336D-02-0.152D-01 0.851D-01
 Coeff:     -0.165D+00-0.203D+00 0.130D+01
 Gap=     0.325 Goal=   None    Shift=    0.000
 RMSDP=4.90D-07 MaxDP=8.69D-06 DE=-2.76D-08 OVMax= 5.66D-05

 Cycle  10  Pass 1  IDiag  1:
 E= -994.506467329629     Delta-E=       -0.000000005082 Rises=F Damp=F
 DIIS: error= 1.08D-06 at cycle  10 NSaved=  10.
 NSaved=10 IEnMin=10 EnMin= -994.506467329629     IErMin=10 ErrMin= 1.08D-06
 ErrMax= 1.08D-06  0.00D+00 EMaxC= 1.00D-01 BMatC= 1.59D-10 BMatP= 1.15D-09
 IDIUse=1 WtCom= 1.00D+00 WtEn= 0.00D+00
 Coeff-Com: -0.174D-05 0.475D-04 0.366D-04 0.240D-03 0.123D-03-0.753D-02
 Coeff-Com:  0.415D-01-0.100D+00-0.281D+00 0.135D+01
 Coeff:     -0.174D-05 0.475D-04 0.366D-04 0.240D-03 0.123D-03-0.753D-02
 Coeff:      0.415D-01-0.100D+00-0.281D+00 0.135D+01
 Gap=     0.325 Goal=   None    Shift=    0.000
 RMSDP=2.15D-07 MaxDP=4.41D-06 DE=-5.08D-09 OVMax= 2.56D-05

 Cycle  11  Pass 1  IDiag  1:
 E= -994.506467330431     Delta-E=       -0.000000000802 Rises=F Damp=F
 DIIS: error= 3.44D-07 at cycle  11 NSaved=  11.
 NSaved=11 IEnMin=11 EnMin= -994.506467330431     IErMin=11 ErrMin= 3.44D-07
 ErrMax= 3.44D-07  0.00D+00 EMaxC= 1.00D-01 BMatC= 1.66D-11 BMatP= 1.59D-10
 IDIUse=1 WtCom= 1.00D+00 WtEn= 0.00D+00
 Coeff-Com: -0.298D-05-0.191D-04-0.306D-04 0.421D-03 0.173D-02-0.961D-02
 Coeff-Com:  0.158D-01 0.365D-01-0.114D+00-0.254D+00 0.132D+01
 Coeff:     -0.298D-05-0.191D-04-0.306D-04 0.421D-03 0.173D-02-0.961D-02
 Coeff:      0.158D-01 0.365D-01-0.114D+00-0.254D+00 0.132D+01
 Gap=     0.325 Goal=   None    Shift=    0.000
 RMSDP=7.80D-08 MaxDP=1.74D-06 DE=-8.02D-10 OVMax= 9.01D-06

 Cycle  12  Pass 1  IDiag  1:
 E= -994.506467330520     Delta-E=       -0.000000000089 Rises=F Damp=F
 DIIS: error= 6.67D-08 at cycle  12 NSaved=  12.
 NSaved=12 IEnMin=12 EnMin= -994.506467330520     IErMin=12 ErrMin= 6.67D-08
 ErrMax= 6.67D-08  0.00D+00 EMaxC= 1.00D-01 BMatC= 1.06D-12 BMatP= 1.66D-11
 IDIUse=1 WtCom= 1.00D+00 WtEn= 0.00D+00
 Coeff-Com:  0.478D-06-0.254D-05-0.129D-05-0.601D-04-0.179D-03 0.149D-02
 Coeff-Com: -0.465D-02 0.310D-02 0.338D-01-0.715D-01-0.149D+00 0.119D+01
 Coeff:      0.478D-06-0.254D-05-0.129D-05-0.601D-04-0.179D-03 0.149D-02
 Coeff:     -0.465D-02 0.310D-02 0.338D-01-0.715D-01-0.149D+00 0.119D+01
 Gap=     0.325 Goal=   None    Shift=    0.000
 RMSDP=1.65D-08 MaxDP=3.68D-07 DE=-8.87D-11 OVMax= 1.60D-06

 Cycle  13  Pass 1  IDiag  1:
 E= -994.506467330528     Delta-E=       -0.000000000008 Rises=F Damp=F
 DIIS: error= 2.05D-08 at cycle  13 NSaved=  13.
 NSaved=13 IEnMin=13 EnMin= -994.506467330528     IErMin=13 ErrMin= 2.05D-08
 ErrMax= 2.05D-08  0.00D+00 EMaxC= 1.00D-01 BMatC= 1.55D-13 BMatP= 1.06D-12
 IDIUse=1 WtCom= 1.00D+00 WtEn= 0.00D+00
 Coeff-Com:  0.226D-06 0.226D-05 0.240D-05-0.308D-04-0.134D-03 0.673D-03
 Coeff-Com: -0.625D-03-0.475D-02 0.519D-02 0.465D-01-0.137D+00-0.159D+00
 Coeff-Com:  0.125D+01
 Coeff:      0.226D-06 0.226D-05 0.240D-05-0.308D-04-0.134D-03 0.673D-03
 Coeff:     -0.625D-03-0.475D-02 0.519D-02 0.465D-01-0.137D+00-0.159D+00
 Coeff:      0.125D+01
 Gap=     0.325 Goal=   None    Shift=    0.000
 RMSDP=5.96D-09 MaxDP=1.19D-07 DE=-7.96D-12 OVMax= 4.60D-07

 SCF Done:  E(RHF) =  -994.506467331     A.U. after   13 cycles
            NFock= 13  Conv=0.60D-08     -V/T= 2.0001
 KE= 9.943842098849D+02 PE=-2.620910355781D+03 EE= 5.104281544466D+02
 Leave Link  502 at Wed Sep 22 16:33:01 2021, MaxMem= 16106127360 cpu:              25.3 elap:               3.2
 (Enter /sw/contrib/gaussian/g16/B01/g16/l801.exe)
 ExpMin= 2.53D-02 ExpMax= 4.56D+05 ExpMxC= 1.44D+03 IAcc=3 IRadAn=         5 AccDes= 0.00D+00
 HarFok:  IExCor=  205 AccDes= 0.00D+00 IRadAn=         5 IDoV=-2 UseB2=F ITyADJ=14
 ICtDFT= 12500011 ScaDFX=  1.000000  1.000000  1.000000  1.000000
 Largest valence mixing into a core orbital is  4.47D-04
 Largest core mixing into a valence orbital is  1.75D-04
 Range of M.O.s used for correlation:    12   169
 NBasis=   169 NAE=    22 NBE=    22 NFC=    11 NFV=     0
 NROrb=    158 NOA=    11 NOB=    11 NVA=   147 NVB=   147

 **** Warning!!: The largest alpha MO coefficient is  0.10787831D+02

 Leave Link  801 at Wed Sep 22 16:33:01 2021, MaxMem= 16106127360 cpu:               3.7 elap:               0.2
 (Enter /sw/contrib/gaussian/g16/B01/g16/l906.exe)
 Frozen-core derivative calculation, NFC=  11 NFV=   0.
 FulOut=F Deriv=T AODrv=F NAtomX=     4
   MMem=         144  MDisk=          11 MDiskD=          11
  W3Min=      736164 MinDsk=     1250177 NBas6D=         198
 NBas2D=       20187    NTT=       19701    LW2=     3500000
    MDV= 16105751396 MDiskM=      406660 NBas2p=       19980
 Fully in-core method, ICMem=   420417501.
 IMap=   1   2   3   4   5   6   7   8   9  10  11  12  13  14  15  16  17  18  19  20
 IMap=  21  22
 JobTyp=1 Pass  1 fully in-core, NPsUse= 28.
 Compute canonical integrals.
 FoFCou: FMM=F IPFlag=           0 FMFlag=           0 FMFlg1=           0
         NFxFlg=           0 DoJE=F BraDBF=F KetDBF=F FulRan=T
         wScrn=  0.000000 ICntrl=       600 IOpCl=  1 I1Cent=           0 NGrid=           0
         NMat0=    1 NMatS0=  20187 NMatT0=    0 NMatD0=    1 NMtDS0=    0 NMtDT0=    0
 Symmetry not used in FoFCou.
 Spin components of T(2) and E(2):
     alpha-alpha T2 =       0.2906935967D-01 E2=     -0.8348749331D-01
     alpha-beta  T2 =       0.1593489133D+00 E2=     -0.4971845283D+00
     beta-beta   T2 =       0.2906935967D-01 E2=     -0.8348749331D-01
 The integrals were generated   1 times.
 ANorm=    0.1103398220D+01
 E2 =    -0.6641595150D+00 EUMP2 =    -0.99517062684550D+03
 Leave Link  906 at Wed Sep 22 16:33:05 2021, MaxMem= 16106127360 cpu:             114.6 elap:               4.1
 (Enter /sw/contrib/gaussian/g16/B01/g16/l1002.exe)
 Minotr:  Closed shell wavefunction.
          Computing MP2/KS-MP2 derivatives.
          Using Z-Vector for PSCF gradient.
          Skipping F1 and S1 gradient terms here.
          Frozen-core window.
          Direct CPHF calculation.
          Differentiating once with respect to electric field.
                with respect to dipole field.
          Electric field/nuclear overlap derivatives assumed to be zero.
          Requested convergence is 1.0D-10 RMS, and 1.0D-09 maximum.
          NewPWx=F KeepS1=T KeepF1=T KeepIn=T MapXYZ=F SortEE=F KeepMc=T.
 Keep R1 ints in memory in canonical form, NReq=117123197.
 FoFCou: FMM=F IPFlag=           0 FMFlag=           0 FMFlg1=           0
         NFxFlg=           0 DoJE=F BraDBF=F KetDBF=F FulRan=T
         wScrn=  0.000000 ICntrl=       600 IOpCl=  0 I1Cent=           0 NGrid=           0
         NMat0=    1 NMatS0=  14365 NMatT0=    0 NMatD0=    1 NMtDS0=    0 NMtDT0=    0
 Symmetry not used in FoFCou.
 Two-electron integral symmetry not used.
          MDV=   16106127360 using IRadAn=       5.
          Solving linear equations separately, MaxMat=       0.
          There are     1 degrees of freedom in the 1st order CPHF.  IDoFFX=0 NUNeed=     1.
 LinEq1:  Iter=  0 NonCon=     1 RMS=3.07D-03 Max=3.96D-02 NDo=     1
 AX will form     1 AO Fock derivatives at one time.
 LinEq1:  Iter=  1 NonCon=     1 RMS=3.94D-04 Max=3.60D-03 NDo=     1
 LinEq1:  Iter=  2 NonCon=     1 RMS=1.57D-04 Max=1.89D-03 NDo=     1
 LinEq1:  Iter=  3 NonCon=     1 RMS=6.18D-05 Max=9.45D-04 NDo=     1
 LinEq1:  Iter=  4 NonCon=     1 RMS=2.77D-05 Max=4.96D-04 NDo=     1
 LinEq1:  Iter=  5 NonCon=     1 RMS=8.08D-06 Max=1.60D-04 NDo=     1
 LinEq1:  Iter=  6 NonCon=     1 RMS=2.58D-06 Max=3.41D-05 NDo=     1
 LinEq1:  Iter=  7 NonCon=     1 RMS=7.25D-07 Max=7.65D-06 NDo=     1
 LinEq1:  Iter=  8 NonCon=     1 RMS=1.43D-07 Max=2.06D-06 NDo=     1
 LinEq1:  Iter=  9 NonCon=     1 RMS=3.67D-08 Max=5.72D-07 NDo=     1
 LinEq1:  Iter= 10 NonCon=     1 RMS=1.02D-08 Max=1.79D-07 NDo=     1
 LinEq1:  Iter= 11 NonCon=     1 RMS=2.59D-09 Max=4.39D-08 NDo=     1
 LinEq1:  Iter= 12 NonCon=     1 RMS=7.39D-10 Max=7.05D-09 NDo=     1
 LinEq1:  Iter= 13 NonCon=     1 RMS=2.01D-10 Max=2.14D-09 NDo=     1
 LinEq1:  Iter= 14 NonCon=     0 RMS=4.99D-11 Max=6.51D-10 NDo=     1
 Linear equations converged to 1.000D-10 1.000D-09 after    14 iterations.
 End of Minotr F.D. properties file   721 does not exist.
 End of Minotr F.D. properties file   722 does not exist.
 End of Minotr F.D. properties file   788 does not exist.
 Leave Link 1002 at Wed Sep 22 16:33:09 2021, MaxMem= 16106127360 cpu:              26.5 elap:               3.7
 (Enter /sw/contrib/gaussian/g16/B01/g16/l601.exe)
 Copying SCF densities to generalized density rwf, IOpCl= 0 IROHF=0.

 **********************************************************************

            Population analysis using the MP2 Density.

 **********************************************************************

 Alpha  occ. eigenvalues -- -104.73615-104.52570 -20.47448 -10.45584 -10.25020
 Alpha  occ. eigenvalues --   -7.92304  -7.92033  -7.92016  -7.71630  -7.71621
 Alpha  occ. eigenvalues --   -7.71619  -1.24647  -0.90212  -0.75971  -0.55336
 Alpha  occ. eigenvalues --   -0.45215  -0.44314  -0.31412  -0.28722  -0.17711
 Alpha  occ. eigenvalues --   -0.17334  -0.17157
 Alpha virt. eigenvalues --    0.15361   0.18010   0.22265   0.23200   0.26365
 Alpha virt. eigenvalues --    0.27538   0.28055   0.28810   0.29955   0.31859
 Alpha virt. eigenvalues --    0.32897   0.35146   0.40441   0.41399   0.45941
 Alpha virt. eigenvalues --    0.47969   0.52723   0.53956   0.55668   0.57748
 Alpha virt. eigenvalues --    0.58408   0.58876   0.61091   0.62374   0.65197
 Alpha virt. eigenvalues --    0.66358   0.67316   0.68121   0.75925   0.79829
 Alpha virt. eigenvalues --    0.84942   0.87106   0.88584   0.89694   0.90506
 Alpha virt. eigenvalues --    0.92735   0.95496   0.97615   1.01131   1.05615
 Alpha virt. eigenvalues --    1.07978   1.08816   1.10331   1.11609   1.12479
 Alpha virt. eigenvalues --    1.15784   1.19419   1.20127   1.20540   1.22082
 Alpha virt. eigenvalues --    1.22346   1.23230   1.26392   1.27743   1.30151
 Alpha virt. eigenvalues --    1.33112   1.33381   1.39070   1.41850   1.43673
 Alpha virt. eigenvalues --    1.44504   1.48441   1.49484   1.52647   1.55961
 Alpha virt. eigenvalues --    1.58032   1.65230   1.67717   1.69539   1.71346
 Alpha virt. eigenvalues --    1.75970   1.79919   1.84369   1.86829   1.96402
 Alpha virt. eigenvalues --    1.98247   2.12580   2.35605   2.42637   2.49054
 Alpha virt. eigenvalues --    2.49806   2.53280   2.60110   2.60977   2.64271
 Alpha virt. eigenvalues --    2.67804   2.69037   2.70098   2.72000   2.74595
 Alpha virt. eigenvalues --    2.77512   2.81123   2.82232   2.82459   2.88550
 Alpha virt. eigenvalues --    2.89875   2.93306   2.96130   2.98321   3.00410
 Alpha virt. eigenvalues --    3.01841   3.10371   3.16092   3.20462   3.21540
 Alpha virt. eigenvalues --    3.23388   3.25865   3.29452   3.31887   3.35595
 Alpha virt. eigenvalues --    3.35820   3.40043   3.43086   3.47131   3.49442
 Alpha virt. eigenvalues --    3.52232   3.56160   3.58344   3.62683   3.91232
 Alpha virt. eigenvalues --    4.04983   4.37027   4.48208   4.55435   4.64292
 Alpha virt. eigenvalues --    4.73666   4.92315   5.01713   5.37520   5.46076
 Alpha virt. eigenvalues --    5.69039   6.11294   6.40021   6.66471   6.86000
 Alpha virt. eigenvalues --    6.90508   6.91981   6.98621   7.34093   7.36697
 Alpha virt. eigenvalues --    7.37492   7.46790   7.49243   7.72013   7.73087
 Alpha virt. eigenvalues --    8.39971  14.60322
          Condensed to atoms (all electrons):
               1          2          3          4
     1  O    8.500729  -0.083109  -0.121608   0.085894
     2  Cl  -0.083109  17.941162  -0.000161   0.066048
     3  Cl  -0.121608  -0.000161  17.050816   0.001048
     4  H    0.085894   0.066048   0.001048   0.611069
 Mulliken charges:
               1
     1  O   -0.381906
     2  Cl  -0.923941
     3  Cl   0.069905
     4  H    0.235941
 Sum of Mulliken charges =  -1.00000
 Mulliken charges with hydrogens summed into heavy atoms:
               1
     1  O   -0.145965
     2  Cl  -0.923941
     3  Cl   0.069905
 Electronic spatial extent (au):  <R**2>=            796.6415
 Charge=             -1.0000 electrons
 Dipole moment (field-independent basis, Debye):
    X=            -11.2212    Y=             -0.5766    Z=              0.6869  Tot=             11.2569
 Quadrupole moment (field-independent basis, Debye-Ang):
   XX=            -73.9770   YY=            -36.9233   ZZ=            -35.8288
   XY=              0.4886   XZ=              0.3746   YZ=             -0.2384
 Traceless Quadrupole moment (field-independent basis, Debye-Ang):
   XX=            -25.0673   YY=             11.9864   ZZ=             13.0809
   XY=              0.4886   XZ=              0.3746   YZ=             -0.2384
 Octapole moment (field-independent basis, Debye-Ang**2):
  XXX=           -241.6554  YYY=            -62.0734  ZZZ=             -1.5962  XYY=            -44.7166
  XXY=            -21.8893  XXZ=             -2.6551  XZZ=            -43.7465  YZZ=            -22.1638
  YYZ=             -1.1362  XYZ=              0.1275
 Hexadecapole moment (field-independent basis, Debye-Ang**3):
 XXXX=          -1244.4527 YYYY=           -245.2847 ZZZZ=            -52.3704 XXXY=             28.1076
 XXXZ=             -9.1703 YYYX=             22.3519 YYYZ=             -1.0607 ZZZX=             -1.9996
 ZZZY=             -0.3404 XXYY=           -199.4451 XXZZ=           -163.7795 YYZZ=            -54.2097
 XXYZ=             -0.2295 YYXZ=             -0.4688 ZZXY=              9.2776
 N-N= 1.215915241192D+02 E-N=-2.620957564173D+03  KE= 9.950462089104D+02
 No NMR shielding tensors so no spin-rotation constants.
 Leave Link  601 at Wed Sep 22 16:33:09 2021, MaxMem= 16106127360 cpu:               4.4 elap:               0.2
 (Enter /sw/contrib/gaussian/g16/B01/g16/l607.exe)
 ******************************Gaussian NBO Version 3.1******************************
             N A T U R A L   A T O M I C   O R B I T A L   A N D
          N A T U R A L   B O N D   O R B I T A L   A N A L Y S I S
 ******************************Gaussian NBO Version 3.1******************************
       /RESON  / : Allow strongly delocalized NBO set

 Analyzing the MP2 density

 Job title: title                                                           

 Storage needed:     86521 in NPA,    114817 in NBO (********** available)
 GSVD:  LWork=        1191 too small for GESVD, short by       52514 words or       52514 for optimal perf.


 NATURAL POPULATIONS:  Natural atomic orbital occupancies 
                                                          
   NAO  Atom  No  lang   Type(AO)    Occupancy
 --------------------------------------------
     1    O    1  S      Cor( 1S)     1.99971
     2    O    1  S      Val( 2S)     1.79374
     3    O    1  S      Ryd( 3S)     0.00926
     4    O    1  S      Ryd( 4S)     0.00109
     5    O    1  S      Ryd( 5S)     0.00015
     6    O    1  px     Val( 2p)     1.74591
     7    O    1  px     Ryd( 3p)     0.01489
     8    O    1  px     Ryd( 4p)     0.00070
     9    O    1  px     Ryd( 5p)     0.00037
    10    O    1  py     Val( 2p)     1.27581
    11    O    1  py     Ryd( 3p)     0.00767
    12    O    1  py     Ryd( 4p)     0.00061
    13    O    1  py     Ryd( 5p)     0.00031
    14    O    1  pz     Val( 2p)     1.77721
    15    O    1  pz     Ryd( 3p)     0.01533
    16    O    1  pz     Ryd( 4p)     0.00071
    17    O    1  pz     Ryd( 5p)     0.00025
    18    O    1  dxy    Ryd( 3d)     0.00914
    19    O    1  dxy    Ryd( 4d)     0.00051
    20    O    1  dxy    Ryd( 5d)     0.00019
    21    O    1  dxz    Ryd( 3d)     0.01124
    22    O    1  dxz    Ryd( 4d)     0.00054
    23    O    1  dxz    Ryd( 5d)     0.00013
    24    O    1  dyz    Ryd( 3d)     0.00999
    25    O    1  dyz    Ryd( 4d)     0.00055
    26    O    1  dyz    Ryd( 5d)     0.00009
    27    O    1  dx2y2  Ryd( 3d)     0.01032
    28    O    1  dx2y2  Ryd( 4d)     0.00052
    29    O    1  dx2y2  Ryd( 5d)     0.00021
    30    O    1  dz2    Ryd( 3d)     0.00979
    31    O    1  dz2    Ryd( 4d)     0.00056
    32    O    1  dz2    Ryd( 5d)     0.00020
    33    O    1  f(0)   Ryd( 4f)     0.00057
    34    O    1  f(0)   Ryd( 5f)     0.00011
    35    O    1  f(C1)  Ryd( 4f)     0.00058
    36    O    1  f(C1)  Ryd( 5f)     0.00012
    37    O    1  f(S1)  Ryd( 4f)     0.00059
    38    O    1  f(S1)  Ryd( 5f)     0.00012
    39    O    1  f(C2)  Ryd( 4f)     0.00065
    40    O    1  f(C2)  Ryd( 5f)     0.00014
    41    O    1  f(S2)  Ryd( 4f)     0.00060
    42    O    1  f(S2)  Ryd( 5f)     0.00012
    43    O    1  f(C3)  Ryd( 4f)     0.00066
    44    O    1  f(C3)  Ryd( 5f)     0.00014
    45    O    1  f(S3)  Ryd( 4f)     0.00063
    46    O    1  f(S3)  Ryd( 5f)     0.00011

    47   Cl    2  S      Cor( 1S)     2.00001
    48   Cl    2  S      Cor( 2S)     2.00000
    49   Cl    2  S      Val( 3S)     1.97914
    50   Cl    2  S      Ryd( 4S)     0.00330
    51   Cl    2  S      Ryd( 5S)     0.00032
    52   Cl    2  S      Ryd( 6S)     0.00011
    53   Cl    2  px     Cor( 2p)     2.00002
    54   Cl    2  px     Val( 3p)     1.92787
    55   Cl    2  px     Ryd( 4p)     0.01221
    56   Cl    2  px     Ryd( 5p)     0.00057
    57   Cl    2  px     Ryd( 6p)     0.00005
    58   Cl    2  py     Cor( 2p)     2.00003
    59   Cl    2  py     Val( 3p)     1.95180
    60   Cl    2  py     Ryd( 4p)     0.01360
    61   Cl    2  py     Ryd( 5p)     0.00058
    62   Cl    2  py     Ryd( 6p)     0.00006
    63   Cl    2  pz     Cor( 2p)     2.00002
    64   Cl    2  pz     Val( 3p)     1.94551
    65   Cl    2  pz     Ryd( 4p)     0.01348
    66   Cl    2  pz     Ryd( 5p)     0.00058
    67   Cl    2  pz     Ryd( 6p)     0.00004
    68   Cl    2  dxy    Ryd( 3d)     0.01865
    69   Cl    2  dxy    Ryd( 4d)     0.00088
    70   Cl    2  dxy    Ryd( 5d)     0.00013
    71   Cl    2  dxz    Ryd( 3d)     0.01881
    72   Cl    2  dxz    Ryd( 4d)     0.00093
    73   Cl    2  dxz    Ryd( 5d)     0.00015
    74   Cl    2  dyz    Ryd( 3d)     0.01841
    75   Cl    2  dyz    Ryd( 4d)     0.00100
    76   Cl    2  dyz    Ryd( 5d)     0.00011
    77   Cl    2  dx2y2  Ryd( 3d)     0.01836
    78   Cl    2  dx2y2  Ryd( 4d)     0.00094
    79   Cl    2  dx2y2  Ryd( 5d)     0.00014
    80   Cl    2  dz2    Ryd( 3d)     0.01840
    81   Cl    2  dz2    Ryd( 4d)     0.00096
    82   Cl    2  dz2    Ryd( 5d)     0.00011
    83   Cl    2  f(0)   Ryd( 4f)     0.00130
    84   Cl    2  f(0)   Ryd( 5f)     0.00015
    85   Cl    2  f(C1)  Ryd( 4f)     0.00129
    86   Cl    2  f(C1)  Ryd( 5f)     0.00016
    87   Cl    2  f(S1)  Ryd( 4f)     0.00130
    88   Cl    2  f(S1)  Ryd( 5f)     0.00015
    89   Cl    2  f(C2)  Ryd( 4f)     0.00130
    90   Cl    2  f(C2)  Ryd( 5f)     0.00016
    91   Cl    2  f(S2)  Ryd( 4f)     0.00131
    92   Cl    2  f(S2)  Ryd( 5f)     0.00015
    93   Cl    2  f(C3)  Ryd( 4f)     0.00129
    94   Cl    2  f(C3)  Ryd( 5f)     0.00017
    95   Cl    2  f(S3)  Ryd( 4f)     0.00130
    96   Cl    2  f(S3)  Ryd( 5f)     0.00016

    97   Cl    3  S      Cor( 1S)     2.00000
    98   Cl    3  S      Cor( 2S)     1.99981
    99   Cl    3  S      Val( 3S)     1.88324
   100   Cl    3  S      Ryd( 4S)     0.00855
   101   Cl    3  S      Ryd( 5S)     0.00055
   102   Cl    3  S      Ryd( 6S)     0.00017
   103   Cl    3  px     Cor( 2p)     2.00003
   104   Cl    3  px     Val( 3p)     1.89334
   105   Cl    3  px     Ryd( 4p)     0.00990
   106   Cl    3  px     Ryd( 5p)     0.00060
   107   Cl    3  px     Ryd( 6p)     0.00008
   108   Cl    3  py     Cor( 2p)     1.99997
   109   Cl    3  py     Val( 3p)     0.96365
   110   Cl    3  py     Ryd( 4p)     0.00713
   111   Cl    3  py     Ryd( 5p)     0.00051
   112   Cl    3  py     Ryd( 6p)     0.00020
   113   Cl    3  pz     Cor( 2p)     2.00003
   114   Cl    3  pz     Val( 3p)     1.95401
   115   Cl    3  pz     Ryd( 4p)     0.01025
   116   Cl    3  pz     Ryd( 5p)     0.00060
   117   Cl    3  pz     Ryd( 6p)     0.00003
   118   Cl    3  dxy    Ryd( 3d)     0.01897
   119   Cl    3  dxy    Ryd( 4d)     0.00077
   120   Cl    3  dxy    Ryd( 5d)     0.00027
   121   Cl    3  dxz    Ryd( 3d)     0.01715
   122   Cl    3  dxz    Ryd( 4d)     0.00081
   123   Cl    3  dxz    Ryd( 5d)     0.00021
   124   Cl    3  dyz    Ryd( 3d)     0.01867
   125   Cl    3  dyz    Ryd( 4d)     0.00086
   126   Cl    3  dyz    Ryd( 5d)     0.00033
   127   Cl    3  dx2y2  Ryd( 3d)     0.01893
   128   Cl    3  dx2y2  Ryd( 4d)     0.00073
   129   Cl    3  dx2y2  Ryd( 5d)     0.00025
   130   Cl    3  dz2    Ryd( 3d)     0.01739
   131   Cl    3  dz2    Ryd( 4d)     0.00063
   132   Cl    3  dz2    Ryd( 5d)     0.00018
   133   Cl    3  f(0)   Ryd( 4f)     0.00127
   134   Cl    3  f(0)   Ryd( 5f)     0.00013
   135   Cl    3  f(C1)  Ryd( 4f)     0.00127
   136   Cl    3  f(C1)  Ryd( 5f)     0.00013
   137   Cl    3  f(S1)  Ryd( 4f)     0.00140
   138   Cl    3  f(S1)  Ryd( 5f)     0.00013
   139   Cl    3  f(C2)  Ryd( 4f)     0.00127
   140   Cl    3  f(C2)  Ryd( 5f)     0.00014
   141   Cl    3  f(S2)  Ryd( 4f)     0.00122
   142   Cl    3  f(S2)  Ryd( 5f)     0.00013
   143   Cl    3  f(C3)  Ryd( 4f)     0.00147
   144   Cl    3  f(C3)  Ryd( 5f)     0.00014
   145   Cl    3  f(S3)  Ryd( 4f)     0.00147
   146   Cl    3  f(S3)  Ryd( 5f)     0.00015

   147    H    4  S      Val( 1S)     0.47992
   148    H    4  S      Ryd( 2S)     0.00470
   149    H    4  S      Ryd( 3S)     0.00027
   150    H    4  S      Ryd( 4S)     0.00015
   151    H    4  px     Ryd( 2p)     0.00599
   152    H    4  px     Ryd( 3p)     0.00064
   153    H    4  px     Ryd( 4p)     0.00026
   154    H    4  py     Ryd( 2p)     0.00248
   155    H    4  py     Ryd( 3p)     0.00040
   156    H    4  py     Ryd( 4p)     0.00011
   157    H    4  pz     Ryd( 2p)     0.00320
   158    H    4  pz     Ryd( 3p)     0.00057
   159    H    4  pz     Ryd( 4p)     0.00019
   160    H    4  dxy    Ryd( 3d)     0.00023
   161    H    4  dxy    Ryd( 4d)     0.00008
   162    H    4  dxz    Ryd( 3d)     0.00033
   163    H    4  dxz    Ryd( 4d)     0.00009
   164    H    4  dyz    Ryd( 3d)     0.00015
   165    H    4  dyz    Ryd( 4d)     0.00007
   166    H    4  dx2y2  Ryd( 3d)     0.00028
   167    H    4  dx2y2  Ryd( 4d)     0.00011
   168    H    4  dz2    Ryd( 3d)     0.00022
   169    H    4  dz2    Ryd( 4d)     0.00011


 Summary of Natural Population Analysis:                  
                                                          
                                       Natural Population 
                Natural  -----------------------------------------------
    Atom  No    Charge         Core      Valence    Rydberg      Total
 -----------------------------------------------------------------------
      O    1   -0.70285      1.99971     6.59266    0.11048     8.70285
     Cl    2   -0.95749     10.00008     7.80432    0.15309    17.95749
     Cl    3    0.16088      9.99983     6.69425    0.14503    16.83912
      H    4    0.49946      0.00000     0.47992    0.02062     0.50054
 =======================================================================
   * Total *   -1.00000     21.99963    21.57115    0.42922    44.00000

                                 Natural Population      
 --------------------------------------------------------
   Core                      21.99963 ( 99.9983% of  22)
   Valence                   21.57115 ( 98.0507% of  22)
   Natural Minimal Basis     43.57078 ( 99.0245% of  44)
   Natural Rydberg Basis      0.42922 (  0.9755% of  44)
 --------------------------------------------------------

    Atom  No          Natural Electron Configuration
 ----------------------------------------------------------------------------
      O    1      [core]2S( 1.79)2p( 4.80)3S( 0.01)3p( 0.04)3d( 0.05)
     Cl    2      [core]3S( 1.98)3p( 5.83)3d( 0.09)4p( 0.04)4f( 0.01)
     Cl    3      [core]3S( 1.88)3p( 4.81)4S( 0.01)3d( 0.09)4p( 0.03)4f( 0.01)
      H    4            1S( 0.48)2p( 0.01)


 NATURAL BOND ORBITAL ANALYSIS:

                       Occupancies       Lewis Structure    Low   High
           Occ.    -------------------  -----------------   occ   occ
  Cycle   Thresh.   Lewis   Non-Lewis     CR  BD  3C  LP    (L)   (NL)   Dev
 =============================================================================
   1(1)    1.90    43.51684   0.48316     11   2   0   9     0      0    0.04
 -----------------------------------------------------------------------------

 Structure accepted: No low occupancy Lewis orbitals

 --------------------------------------------------------
   Core                     21.99963 ( 99.998% of  22)
   Valence Lewis            21.51721 ( 97.806% of  22)
  ==================       ============================
   Total Lewis              43.51684 ( 98.902% of  44)
  -----------------------------------------------------
   Valence non-Lewis         0.10393 (  0.236% of  44)
   Rydberg non-Lewis         0.37923 (  0.862% of  44)
  ==================       ============================
   Total non-Lewis           0.48316 (  1.098% of  44)
 --------------------------------------------------------


       (Occupancy)   Bond orbital/ Coefficients/ Hybrids
 ---------------------------------------------------------------------------------
     1. (1.94028) BD ( 1) O   1 -Cl   3  
                ( 59.07%)   0.7686* O   1 s( 10.05%)p 8.89( 89.37%)d 0.06(  0.56%)
                                                  f 0.00(  0.02%)
                                            0.0003  0.3139 -0.0424 -0.0120 -0.0019
                                           -0.2290  0.0249  0.0057  0.0021  0.9160
                                           -0.0171 -0.0079 -0.0091  0.0264  0.0211
                                            0.0038 -0.0007 -0.0163 -0.0022 -0.0025
                                            0.0082  0.0008 -0.0012  0.0241  0.0033
                                           -0.0005 -0.0593 -0.0044  0.0002 -0.0335
                                           -0.0026 -0.0005 -0.0002  0.0004  0.0014
                                            0.0007 -0.0062 -0.0002 -0.0037  0.0020
                                            0.0055 -0.0010  0.0059  0.0008 -0.0076
                                            0.0011
                ( 40.93%)   0.6398*Cl   3 s(  8.53%)p10.57( 90.18%)d 0.14(  1.18%)
                                                  f 0.01(  0.11%)
                                           -0.0000  0.0005  0.2854 -0.0613 -0.0100
                                           -0.0027  0.0001  0.2251 -0.0144 -0.0041
                                            0.0011 -0.0004 -0.9199  0.0665  0.0127
                                           -0.0032  0.0000  0.0045 -0.0005 -0.0025
                                            0.0013 -0.0459  0.0059  0.0001  0.0083
                                            0.0006 -0.0009 -0.0123 -0.0017 -0.0010
                                           -0.0806  0.0096  0.0006 -0.0527  0.0060
                                           -0.0003 -0.0008  0.0001 -0.0045  0.0005
                                            0.0191 -0.0021  0.0001 -0.0006 -0.0020
                                            0.0013 -0.0177  0.0027  0.0197 -0.0024
     2. (1.96392) BD ( 1) O   1 - H   4  
                ( 77.34%)   0.8795* O   1 s( 24.00%)p 3.14( 75.44%)d 0.02(  0.54%)
                                                  f 0.00(  0.01%)
                                            0.0002  0.4899 -0.0037 -0.0069  0.0023
                                            0.5933 -0.0136 -0.0061 -0.0009 -0.0357
                                            0.0150  0.0013  0.0016  0.6329 -0.0070
                                           -0.0063 -0.0038  0.0176  0.0035  0.0010
                                            0.0598  0.0030 -0.0007  0.0210  0.0038
                                            0.0003  0.0194  0.0010  0.0018  0.0257
                                            0.0034  0.0021 -0.0060  0.0009  0.0071
                                            0.0009  0.0017 -0.0008  0.0029  0.0025
                                           -0.0003 -0.0008 -0.0029  0.0021 -0.0018
                                            0.0001
                ( 22.66%)   0.4760* H   4 s( 99.80%)p 0.00(  0.20%)d 0.00(  0.00%)
                                            0.9989  0.0172  0.0007  0.0003 -0.0034
                                           -0.0222 -0.0048  0.0102  0.0020 -0.0042
                                            0.0285 -0.0219 -0.0053  0.0009  0.0008
                                            0.0022 -0.0006  0.0018  0.0018 -0.0005
                                           -0.0021 -0.0006 -0.0015
     3. (1.99971) CR ( 1) O   1           s(100.00%)p 0.00(  0.00%)
                                            1.0000 -0.0004  0.0000  0.0000  0.0000
                                           -0.0000 -0.0000  0.0000  0.0000 -0.0002
                                            0.0000  0.0000  0.0000 -0.0001 -0.0000
                                            0.0000  0.0000  0.0000 -0.0000 -0.0000
                                           -0.0000 -0.0000  0.0000 -0.0000 -0.0000
                                           -0.0000  0.0000  0.0000 -0.0000  0.0000
                                           -0.0000 -0.0000  0.0000 -0.0000 -0.0000
                                           -0.0000  0.0000 -0.0000 -0.0000 -0.0000
                                           -0.0000  0.0000 -0.0000 -0.0000  0.0000
                                           -0.0000
     4. (2.00001) CR ( 1)Cl   2           s(100.00%)
                                            1.0000 -0.0000  0.0000  0.0000  0.0000
                                           -0.0000 -0.0000 -0.0000 -0.0000  0.0000
                                            0.0000 -0.0000  0.0000 -0.0000  0.0000
                                           -0.0000  0.0000  0.0000  0.0000 -0.0000
                                           -0.0000 -0.0000 -0.0000 -0.0000 -0.0000
                                           -0.0000 -0.0000  0.0000  0.0000  0.0000
                                            0.0000  0.0000  0.0000  0.0000  0.0000
                                            0.0000 -0.0000 -0.0000 -0.0000 -0.0000
                                           -0.0000 -0.0000  0.0000  0.0000 -0.0000
                                           -0.0000 -0.0000 -0.0000  0.0000  0.0000
     5. (2.00000) CR ( 2)Cl   2           s(100.00%)
                                           -0.0000  1.0000  0.0000  0.0000  0.0000
                                            0.0000 -0.0000 -0.0000 -0.0000  0.0000
                                            0.0000 -0.0000  0.0000 -0.0000  0.0000
                                           -0.0000  0.0000  0.0000  0.0000 -0.0000
                                           -0.0000 -0.0000 -0.0000 -0.0000 -0.0000
                                           -0.0000 -0.0000  0.0000  0.0000  0.0000
                                            0.0000  0.0000 -0.0000 -0.0000 -0.0000
                                            0.0000 -0.0000 -0.0000 -0.0000  0.0000
                                           -0.0000 -0.0000  0.0000  0.0000 -0.0000
                                           -0.0000 -0.0000 -0.0000  0.0000  0.0000
     6. (2.00002) CR ( 3)Cl   2           s(  0.00%)p 1.00(100.00%)
                                           -0.0000 -0.0000  0.0000  0.0000  0.0000
                                           -0.0000  1.0000 -0.0000 -0.0000  0.0000
                                            0.0000 -0.0000 -0.0000 -0.0000  0.0000
                                           -0.0000  0.0000  0.0000  0.0000 -0.0000
                                           -0.0000  0.0000 -0.0000 -0.0000 -0.0000
                                           -0.0000 -0.0000 -0.0000 -0.0000  0.0000
                                            0.0000  0.0000  0.0000 -0.0000  0.0000
                                            0.0000 -0.0000 -0.0000 -0.0000 -0.0000
                                           -0.0000 -0.0000  0.0000  0.0000  0.0000
                                           -0.0000 -0.0000 -0.0000  0.0000  0.0000
     7. (2.00003) CR ( 4)Cl   2           s(  0.00%)p 1.00(100.00%)
                                           -0.0000 -0.0000  0.0000  0.0000 -0.0000
                                            0.0000 -0.0000 -0.0000 -0.0000  0.0000
                                           -0.0000  1.0000  0.0000  0.0000  0.0000
                                           -0.0000  0.0000  0.0000  0.0000 -0.0000
                                           -0.0000 -0.0000 -0.0000 -0.0000 -0.0000
                                           -0.0000 -0.0000  0.0000  0.0000  0.0000
                                            0.0000  0.0000  0.0000 -0.0000 -0.0000
                                            0.0000 -0.0000 -0.0000  0.0000  0.0000
                                           -0.0000 -0.0000  0.0000  0.0000 -0.0000
                                           -0.0000 -0.0000 -0.0000  0.0000  0.0000
     8. (2.00002) CR ( 5)Cl   2           s(  0.00%)p 1.00(100.00%)
                                            0.0000  0.0000 -0.0000 -0.0000  0.0000
                                           -0.0000  0.0000  0.0001 -0.0000 -0.0000
                                           -0.0000  0.0000  0.0000 -0.0000 -0.0000
                                            0.0000  1.0000  0.0000 -0.0000  0.0000
                                            0.0000  0.0000  0.0000  0.0000  0.0000
                                            0.0000  0.0000  0.0000  0.0000  0.0000
                                           -0.0000 -0.0000  0.0000  0.0000  0.0000
                                            0.0000  0.0000  0.0000 -0.0000 -0.0000
                                            0.0000  0.0000 -0.0000 -0.0000 -0.0000
                                           -0.0000  0.0000  0.0000 -0.0000 -0.0000
     9. (2.00000) CR ( 1)Cl   3           s(100.00%)
                                            1.0000  0.0000  0.0000 -0.0000 -0.0000
                                           -0.0000  0.0000  0.0000 -0.0000 -0.0000
                                            0.0000 -0.0000 -0.0000  0.0000  0.0000
                                           -0.0000  0.0000  0.0000 -0.0000 -0.0000
                                            0.0000 -0.0000  0.0000  0.0000  0.0000
                                            0.0000 -0.0000 -0.0000 -0.0000 -0.0000
                                           -0.0000  0.0000  0.0000 -0.0000  0.0000
                                           -0.0000 -0.0000  0.0000 -0.0000  0.0000
                                            0.0000 -0.0000 -0.0000 -0.0000 -0.0000
                                            0.0000 -0.0000  0.0000  0.0000 -0.0000
    10. (1.99981) CR ( 2)Cl   3           s(100.00%)p 0.00(  0.00%)
                                            0.0000  1.0000 -0.0004  0.0000  0.0000
                                            0.0000 -0.0000 -0.0001  0.0000  0.0000
                                           -0.0000  0.0000  0.0004 -0.0000 -0.0000
                                            0.0000 -0.0000 -0.0000  0.0000  0.0000
                                           -0.0000  0.0000 -0.0000 -0.0000 -0.0000
                                           -0.0000  0.0000  0.0000  0.0000  0.0000
                                            0.0000 -0.0000 -0.0000  0.0000 -0.0000
                                            0.0000  0.0000 -0.0000  0.0000 -0.0000
                                           -0.0000  0.0000 -0.0000  0.0000  0.0000
                                           -0.0000  0.0000 -0.0000 -0.0000  0.0000
    11. (2.00003) CR ( 3)Cl   3           s(  0.00%)p 1.00(100.00%)
                                            0.0000 -0.0000 -0.0000  0.0000  0.0000
                                            0.0000  1.0000  0.0001  0.0000  0.0000
                                           -0.0000  0.0000  0.0001 -0.0000 -0.0000
                                            0.0000 -0.0000  0.0000  0.0000  0.0000
                                           -0.0000  0.0000  0.0000  0.0000 -0.0000
                                            0.0000  0.0000  0.0000 -0.0000  0.0000
                                            0.0000 -0.0000 -0.0000  0.0000  0.0000
                                            0.0000 -0.0000  0.0000  0.0000 -0.0000
                                           -0.0000  0.0000  0.0000 -0.0000  0.0000
                                           -0.0000  0.0000 -0.0000 -0.0000  0.0000
    12. (1.99997) CR ( 4)Cl   3           s(  0.00%)p 1.00(100.00%)
                                           -0.0000  0.0000  0.0001 -0.0000 -0.0000
                                           -0.0000  0.0000  0.0001 -0.0000 -0.0000
                                            0.0000  1.0000 -0.0003  0.0000  0.0000
                                           -0.0000  0.0000  0.0000 -0.0000 -0.0000
                                            0.0000 -0.0000  0.0000  0.0000  0.0000
                                            0.0000 -0.0000 -0.0000 -0.0000 -0.0000
                                           -0.0000  0.0000 -0.0000 -0.0000  0.0000
                                           -0.0000 -0.0000  0.0000 -0.0000  0.0000
                                            0.0000 -0.0000  0.0000 -0.0000 -0.0000
                                            0.0000 -0.0000  0.0000  0.0000 -0.0000
    13. (2.00003) CR ( 5)Cl   3           s(  0.00%)p 1.00(100.00%)
                                            0.0000 -0.0000 -0.0000  0.0000  0.0000
                                           -0.0000 -0.0000  0.0000  0.0000 -0.0000
                                            0.0000  0.0000  0.0000 -0.0000  0.0000
                                           -0.0000  1.0000  0.0002  0.0000  0.0000
                                           -0.0000 -0.0000 -0.0000 -0.0000 -0.0000
                                           -0.0000 -0.0000  0.0000  0.0000  0.0000
                                            0.0000 -0.0000 -0.0000  0.0000  0.0000
                                           -0.0000 -0.0000 -0.0000  0.0000 -0.0000
                                           -0.0000  0.0000 -0.0000  0.0000 -0.0000
                                            0.0000  0.0000  0.0000 -0.0000 -0.0000
    14. (1.96892) LP ( 1) O   1           s( 66.07%)p 0.51( 33.84%)d 0.00(  0.09%)
                                                  f 0.00(  0.00%)
                                            0.0002  0.8127  0.0110  0.0061 -0.0008
                                           -0.2733 -0.0059 -0.0033 -0.0026 -0.3345
                                           -0.0040 -0.0052 -0.0023 -0.3894 -0.0054
                                           -0.0041 -0.0013 -0.0150 -0.0005  0.0037
                                           -0.0091  0.0005  0.0012 -0.0229 -0.0027
                                            0.0016  0.0031  0.0006  0.0012 -0.0067
                                           -0.0006  0.0012  0.0025 -0.0004 -0.0007
                                           -0.0004 -0.0022  0.0013  0.0027 -0.0012
                                           -0.0017  0.0006  0.0035 -0.0016  0.0003
                                            0.0005
    15. (1.95303) LP ( 2) O   1           s(  0.03%)p99.99( 99.73%)d 7.82(  0.23%)
                                                  f 0.53(  0.02%)
                                           -0.0000 -0.0036  0.0155  0.0063 -0.0013
                                           -0.7179 -0.0130 -0.0040 -0.0026 -0.1963
                                           -0.0061 -0.0016 -0.0025  0.6654  0.0151
                                            0.0052  0.0047 -0.0265 -0.0017  0.0038
                                           -0.0167 -0.0040 -0.0028  0.0187  0.0028
                                           -0.0011  0.0028  0.0049  0.0055  0.0283
                                           -0.0010 -0.0066  0.0005  0.0005  0.0053
                                           -0.0001  0.0007 -0.0006 -0.0078  0.0008
                                           -0.0036  0.0001  0.0051 -0.0022  0.0046
                                           -0.0005
    16. (1.98005) LP ( 1)Cl   2           s( 98.51%)p 0.02(  1.49%)d 0.00(  0.00%)
                                                  f 0.00(  0.00%)
                                            0.0000  0.0000  0.9925 -0.0001  0.0000
                                           -0.0001 -0.0000  0.1113 -0.0012  0.0004
                                            0.0003 -0.0000 -0.0007 -0.0000  0.0000
                                            0.0001  0.0000 -0.0501  0.0008 -0.0001
                                           -0.0003 -0.0001 -0.0001 -0.0001 -0.0012
                                           -0.0006  0.0000 -0.0000 -0.0000 -0.0000
                                            0.0014  0.0007  0.0000 -0.0007 -0.0003
                                           -0.0000 -0.0004 -0.0003  0.0002  0.0001
                                           -0.0000 -0.0000  0.0005  0.0004  0.0000
                                            0.0000 -0.0004 -0.0003  0.0001  0.0001
    17. (1.95203) LP ( 2)Cl   2           s(  0.00%)p 1.00( 99.99%)d 0.00(  0.01%)
                                                  f 0.00(  0.00%)
                                           -0.0000 -0.0000  0.0037  0.0004 -0.0007
                                            0.0009  0.0000 -0.1156  0.0000 -0.0001
                                           -0.0001 -0.0000  0.9733  0.0001  0.0007
                                           -0.0001  0.0000 -0.1982  0.0003 -0.0001
                                           -0.0002 -0.0070 -0.0023 -0.0004  0.0003
                                           -0.0004 -0.0004  0.0041  0.0022  0.0012
                                            0.0012  0.0006  0.0003 -0.0012 -0.0005
                                           -0.0002 -0.0001 -0.0001  0.0005  0.0003
                                           -0.0001 -0.0001  0.0001  0.0002 -0.0016
                                           -0.0011 -0.0001 -0.0000  0.0016  0.0011
    18. (1.95119) LP ( 3)Cl   2           s(  0.00%)p 1.00( 99.99%)d 0.00(  0.00%)
                                                  f 0.00(  0.00%)
                                            0.0000  0.0000  0.0032  0.0005 -0.0020
                                            0.0021  0.0000 -0.4245  0.0015 -0.0001
                                           -0.0001  0.0000 -0.2288  0.0002 -0.0000
                                            0.0000  0.0000 -0.8760  0.0012 -0.0004
                                           -0.0005  0.0014  0.0002 -0.0002  0.0024
                                           -0.0003 -0.0010 -0.0011 -0.0006 -0.0004
                                            0.0013  0.0002 -0.0006 -0.0050 -0.0024
                                           -0.0011 -0.0002 -0.0003  0.0020  0.0013
                                            0.0000  0.0000 -0.0001  0.0001  0.0005
                                            0.0004 -0.0005 -0.0002 -0.0003 -0.0001
    19. (1.92205) LP ( 4)Cl   2           s(  1.49%)p66.22( 98.48%)d 0.02(  0.03%)
                                                  f 0.00(  0.00%)
                                           -0.0000 -0.0000  0.1219  0.0011 -0.0001
                                            0.0007 -0.0001 -0.8909 -0.0004  0.0011
                                            0.0001 -0.0000 -0.0173 -0.0000  0.0002
                                           -0.0003  0.0000  0.4367  0.0035 -0.0005
                                           -0.0009 -0.0000 -0.0005 -0.0005 -0.0142
                                           -0.0043 -0.0014 -0.0001 -0.0000  0.0000
                                            0.0091  0.0022 -0.0001 -0.0019 -0.0005
                                            0.0001 -0.0020 -0.0013  0.0001  0.0003
                                           -0.0001 -0.0001  0.0029  0.0018  0.0000
                                           -0.0001 -0.0018 -0.0011  0.0001  0.0002
    20. (1.97458) LP ( 1)Cl   3           s( 91.72%)p 0.09(  8.26%)d 0.00(  0.02%)
                                                  f 0.00(  0.00%)
                                            0.0000  0.0003  0.9577  0.0074  0.0012
                                            0.0003 -0.0000 -0.0594 -0.0006  0.0003
                                            0.0001  0.0000  0.2799 -0.0064 -0.0028
                                            0.0011  0.0000  0.0260  0.0009  0.0001
                                            0.0002  0.0049 -0.0001  0.0003  0.0008
                                            0.0001 -0.0003  0.0006  0.0006  0.0006
                                            0.0107 -0.0006 -0.0000  0.0087  0.0008
                                            0.0002 -0.0003  0.0001  0.0007 -0.0001
                                           -0.0024 -0.0002  0.0000 -0.0001 -0.0006
                                            0.0003  0.0017  0.0004 -0.0026 -0.0000
    21. (1.95618) LP ( 2)Cl   3           s(  0.03%)p99.99( 99.91%)d 2.22(  0.06%)
                                                  f 0.36(  0.01%)
                                            0.0000  0.0000  0.0126 -0.0086 -0.0039
                                            0.0019 -0.0001  0.6807  0.0091  0.0029
                                           -0.0006 -0.0000  0.1681  0.0025 -0.0002
                                            0.0011  0.0001 -0.7122 -0.0112 -0.0033
                                            0.0014  0.0032  0.0102  0.0046  0.0067
                                            0.0080  0.0028 -0.0034 -0.0114 -0.0058
                                           -0.0060 -0.0086 -0.0045  0.0003  0.0014
                                            0.0002  0.0026  0.0005 -0.0017  0.0002
                                            0.0001 -0.0003  0.0055 -0.0017  0.0023
                                           -0.0003 -0.0042  0.0008 -0.0046  0.0012
    22. (1.95500) LP ( 3)Cl   3           s(  0.06%)p99.99( 99.89%)d 0.66(  0.04%)
                                                  f 0.14(  0.01%)
                                            0.0000 -0.0000  0.0246  0.0041  0.0031
                                           -0.0013  0.0001 -0.6926 -0.0091 -0.0010
                                            0.0003  0.0000 -0.1662 -0.0024 -0.0006
                                           -0.0007  0.0001 -0.7009 -0.0113 -0.0017
                                            0.0004  0.0046 -0.0076 -0.0039  0.0008
                                            0.0050  0.0027  0.0026 -0.0092 -0.0053
                                            0.0063  0.0092  0.0049 -0.0032 -0.0033
                                           -0.0001  0.0039 -0.0003 -0.0000  0.0009
                                            0.0011 -0.0000  0.0040 -0.0004  0.0030
                                           -0.0006  0.0047 -0.0010  0.0049 -0.0007
    23. (0.01953) RY*( 1) O   1           s(  0.28%)p99.99( 97.90%)d 6.37(  1.76%)
                                                  f 0.20(  0.06%)
                                           -0.0000 -0.0009  0.0523  0.0051  0.0011
                                            0.0188 -0.7133  0.0295  0.0087  0.0091
                                           -0.1977  0.0064 -0.0042 -0.0182  0.6548
                                           -0.0246 -0.0010 -0.0765 -0.0171 -0.0015
                                           -0.0413 -0.0125 -0.0076  0.0509  0.0172
                                            0.0053  0.0012  0.0088  0.0069  0.0804
                                            0.0048 -0.0066 -0.0031  0.0025  0.0050
                                           -0.0057  0.0031 -0.0015 -0.0095  0.0080
                                           -0.0046  0.0032  0.0120 -0.0086  0.0057
                                           -0.0057
    24. (0.01513) RY*( 2) O   1           s( 28.70%)p 2.36( 67.73%)d 0.11(  3.27%)
                                                  f 0.01(  0.30%)
                                           -0.0000  0.0009  0.5312 -0.0694 -0.0018
                                            0.0035 -0.3485  0.0075  0.0199  0.0434
                                           -0.4820 -0.0020  0.0356  0.0074 -0.5650
                                            0.0095  0.0226 -0.0767 -0.0152 -0.0060
                                           -0.0260 -0.0014  0.0084 -0.1486 -0.0254
                                           -0.0088  0.0536  0.0008 -0.0026 -0.0108
                                           -0.0006  0.0003  0.0118 -0.0086  0.0215
                                           -0.0097 -0.0194  0.0089  0.0264 -0.0119
                                           -0.0073  0.0050  0.0245 -0.0119 -0.0093
                                            0.0029
    25. (0.00771) RY*( 3) O   1           s( 13.13%)p 0.44(  5.83%)d 6.04( 79.39%)
                                                  f 0.13(  1.65%)
                                            0.0000  0.0133  0.3589 -0.0480  0.0085
                                            0.0075  0.1654 -0.0085  0.0525 -0.0157
                                           -0.1093  0.0016  0.0323 -0.0040  0.1197
                                           -0.0106  0.0178  0.5817 -0.0110 -0.0032
                                           -0.2864  0.0018 -0.0137  0.3681  0.0077
                                            0.0051 -0.4538 -0.0063 -0.0225  0.1762
                                           -0.0054  0.0021 -0.0026 -0.0014 -0.0158
                                           -0.0004  0.0139 -0.0027 -0.0729  0.0300
                                            0.0252 -0.0108 -0.0767  0.0277 -0.0440
                                            0.0218
    26. (0.00710) RY*( 4) O   1           s(  1.51%)p 0.29(  0.44%)d63.68( 96.31%)
                                                  f 1.15(  1.74%)
                                           -0.0000  0.0074  0.1223 -0.0097 -0.0032
                                            0.0150  0.0559  0.0098 -0.0018 -0.0005
                                           -0.0082  0.0072  0.0106 -0.0111 -0.0169
                                           -0.0086  0.0149 -0.2519  0.0221  0.0000
                                           -0.2526  0.0143 -0.0033  0.7390 -0.0351
                                            0.0016  0.4199 -0.0257  0.0046 -0.3323
                                            0.0185 -0.0098 -0.0794  0.0329 -0.0204
                                            0.0089  0.0218 -0.0086 -0.0562  0.0218
                                           -0.0150  0.0072  0.0464 -0.0236  0.0459
                                           -0.0169
    27. (0.00630) RY*( 5) O   1           s(  0.12%)p36.38(  4.40%)d99.99( 93.96%)
                                                  f12.60(  1.52%)
                                           -0.0000  0.0006  0.0303 -0.0168 -0.0023
                                            0.0401  0.1905 -0.0134  0.0034 -0.0025
                                           -0.0707 -0.0015  0.0229 -0.0157  0.0095
                                           -0.0021  0.0054 -0.6548  0.0448 -0.0104
                                           -0.2008  0.0126 -0.0049  0.1129 -0.0220
                                           -0.0085 -0.2645  0.0123 -0.0136  0.6180
                                           -0.0489  0.0160  0.0440 -0.0220  0.0373
                                           -0.0180  0.0301 -0.0142 -0.0455  0.0227
                                           -0.0530  0.0240  0.0511 -0.0188 -0.0304
                                            0.0119
    28. (0.00615) RY*( 6) O   1           s(  1.77%)p15.99( 28.24%)d38.76( 68.42%)
                                                  f 0.89(  1.58%)
                                           -0.0000  0.0127  0.1296 -0.0172 -0.0202
                                            0.0451  0.3369 -0.0122 -0.0186 -0.0072
                                           -0.2557 -0.0035  0.0296  0.0509  0.3109
                                           -0.0242 -0.0143 -0.1336 -0.0012 -0.0063
                                           -0.5564  0.0374 -0.0208 -0.4602  0.0308
                                           -0.0108  0.0253 -0.0016  0.0124 -0.3749
                                            0.0261 -0.0067  0.0246 -0.0139 -0.0632
                                            0.0329 -0.0655  0.0256  0.0079 -0.0006
                                           -0.0562  0.0238  0.0246 -0.0101 -0.0208
                                            0.0061
    29. (0.00572) RY*( 7) O   1           s(  1.02%)p13.10( 13.32%)d82.03( 83.43%)
                                                  f 2.20(  2.23%)
                                           -0.0000  0.0190  0.0968 -0.0173  0.0118
                                           -0.0106 -0.0985  0.0039  0.0121  0.0732
                                            0.3350 -0.0047 -0.0484 -0.0070 -0.0564
                                            0.0001  0.0055  0.2487 -0.0146  0.0027
                                           -0.4329  0.0661 -0.0013 -0.1806  0.0330
                                            0.0116  0.5680 -0.0566 -0.0120  0.4677
                                           -0.0433 -0.0072  0.0386 -0.0180 -0.0150
                                            0.0041  0.0780 -0.0291  0.0297 -0.0110
                                           -0.0216  0.0076 -0.0464  0.0166  0.0905
                                           -0.0346
    30. (0.00276) RY*( 8) O   1           s(  8.90%)p 4.59( 40.84%)d 5.55( 49.39%)
                                                  f 0.10(  0.87%)
                                            0.0000 -0.0045  0.2932 -0.0535  0.0109
                                           -0.0219  0.4103 -0.0299  0.0795  0.0181
                                           -0.3343  0.0222  0.0489 -0.0235  0.3301
                                           -0.0638  0.0617  0.0657  0.0148  0.0183
                                            0.4917 -0.1442  0.0326 -0.0150  0.0048
                                            0.0005  0.4090 -0.0347  0.0730  0.2236
                                           -0.0025  0.0359  0.0150  0.0000  0.0476
                                           -0.0419  0.0311 -0.0157  0.0206 -0.0212
                                            0.0293 -0.0067 -0.0100  0.0019  0.0357
                                           -0.0114
    31. (0.00244) RY*( 9) O   1           s( 39.43%)p 1.14( 44.80%)d 0.38( 15.01%)
                                                  f 0.02(  0.76%)
                                           -0.0000 -0.0025  0.6128 -0.1367 -0.0107
                                           -0.0025 -0.0300 -0.0116  0.1314  0.0194
                                            0.6381 -0.0227  0.0517 -0.0008  0.1221
                                           -0.0460  0.0434 -0.2108  0.0471 -0.0343
                                            0.1513 -0.1028 -0.0063 -0.1072  0.0255
                                            0.0002 -0.1368 -0.0046 -0.0521 -0.1724
                                            0.0724 -0.0134  0.0194 -0.0116  0.0420
                                           -0.0381 -0.0299  0.0326  0.0040 -0.0037
                                           -0.0014  0.0018  0.0184 -0.0254 -0.0143
                                            0.0266
    32. (0.00078) RY*(10) O   1           s( 57.99%)p 0.46( 26.64%)d 0.18( 10.18%)
                                                  f 0.09(  5.19%)
                                           -0.0000 -0.0013  0.0628  0.7587  0.0192
                                            0.0062 -0.0098 -0.1202  0.2105  0.0143
                                           -0.0039 -0.1722 -0.1780  0.0017 -0.0375
                                           -0.3681  0.0951 -0.0165  0.0995  0.0828
                                           -0.0224 -0.0144 -0.1237 -0.0087  0.0455
                                            0.0051 -0.0118 -0.0270  0.0746 -0.0131
                                            0.2346  0.0702  0.1046 -0.0591  0.1194
                                           -0.0361  0.0555 -0.0111 -0.1060  0.0257
                                            0.0283 -0.0118 -0.0753  0.0001  0.0081
                                           -0.0115
    33. (0.00070) RY*(11) O   1           s(  4.38%)p 3.93( 17.21%)d15.99( 70.02%)
                                                  f 1.91(  8.38%)
                                           -0.0000  0.0014  0.0901  0.1880 -0.0181
                                            0.0052  0.0063  0.1905 -0.2803  0.0090
                                            0.0434  0.0440 -0.0826  0.0004  0.0196
                                           -0.0595  0.2062  0.0295  0.3597  0.0971
                                            0.0018 -0.0543  0.0018  0.0017 -0.1466
                                           -0.0163  0.0035  0.4514  0.0846 -0.0185
                                           -0.5692 -0.0254  0.0343 -0.0108  0.0197
                                            0.0007 -0.2492  0.0463  0.0365 -0.0164
                                           -0.0169  0.0057 -0.0189 -0.0029  0.1233
                                           -0.0206
    34. (0.00064) RY*(12) O   1           s(  0.04%)p99.99( 74.84%)d99.99( 11.96%)
                                                  f99.99( 13.15%)
                                            0.0000 -0.0023  0.0095  0.0144  0.0091
                                            0.0027 -0.0226 -0.7024  0.2035 -0.0006
                                           -0.0192 -0.1996 -0.0683 -0.0020  0.0277
                                            0.4013 -0.0804 -0.0345  0.1843 -0.0165
                                            0.0062  0.1199  0.0055  0.0129  0.0087
                                            0.0117  0.0156 -0.0514 -0.0106 -0.0269
                                           -0.2551 -0.0248  0.0574  0.0153 -0.0074
                                           -0.0148 -0.1757  0.0174  0.0269  0.0213
                                            0.2046 -0.0192 -0.2237 -0.0111  0.0424
                                           -0.0339
    35. (0.00057) RY*(13) O   1           s(  3.26%)p 4.94( 16.08%)d13.23( 43.10%)
                                                  f11.53( 37.56%)
                                           -0.0000  0.0042 -0.0103  0.1587  0.0851
                                            0.0050 -0.0107 -0.1105  0.0380  0.0099
                                            0.0130  0.0098  0.0613  0.0000 -0.0030
                                            0.3698 -0.0781  0.0413 -0.0690  0.0594
                                           -0.0600 -0.5116 -0.0384  0.0416 -0.2278
                                            0.0508  0.0084  0.2321  0.0534  0.0116
                                            0.2014  0.0223  0.1613  0.0063 -0.0132
                                           -0.0028  0.0306 -0.0038  0.3226 -0.0045
                                           -0.4892  0.0345  0.0170 -0.0079 -0.0589
                                           -0.0031
    36. (0.00050) RY*(14) O   1           s(  0.78%)p21.53( 16.77%)d19.84( 15.45%)
                                                  f86.06( 67.01%)
                                           -0.0000  0.0033  0.0443  0.0738 -0.0191
                                            0.0053  0.0217  0.1072 -0.0292 -0.0001
                                            0.0142  0.2689 -0.0461  0.0027  0.0323
                                            0.2811  0.0086  0.0028 -0.0313  0.0410
                                           -0.0100  0.1629 -0.0651  0.0102 -0.2490
                                            0.0562  0.0181  0.1285  0.0545 -0.0178
                                            0.1834 -0.0440  0.5577  0.0403  0.0844
                                            0.0111  0.1162 -0.0053  0.0036  0.0165
                                            0.5194  0.0176  0.2531  0.0055 -0.0460
                                           -0.0003
    37. (0.00051) RY*(15) O   1           s(  0.18%)p47.74(  8.74%)d99.99( 61.58%)
                                                  f99.99( 29.49%)
                                           -0.0000 -0.0008  0.0166  0.0357 -0.0168
                                            0.0081  0.0076 -0.2080 -0.0035  0.0017
                                            0.0177 -0.1894  0.0095 -0.0051 -0.0099
                                            0.0567  0.0667  0.0189 -0.4378  0.0663
                                           -0.0056 -0.1051  0.0111 -0.0087  0.4002
                                           -0.0644  0.0238  0.4557 -0.0111 -0.0098
                                           -0.1843  0.0387 -0.0521 -0.0098  0.0146
                                            0.0032  0.2130  0.0128 -0.2558 -0.0147
                                            0.0608 -0.0058  0.4170  0.0152 -0.0527
                                           -0.0059
    38. (0.00050) RY*(16) O   1           s(  0.13%)p78.10(  9.95%)d99.99( 18.02%)
                                                  f99.99( 71.90%)
                                            0.0000 -0.0023  0.0276  0.0130 -0.0184
                                           -0.0039 -0.0142 -0.0031 -0.1265 -0.0005
                                            0.0086 -0.2798 -0.0253  0.0032  0.0161
                                            0.0229  0.0589  0.0280  0.3781 -0.0219
                                            0.0173  0.0145  0.0338 -0.0211 -0.1066
                                           -0.0044  0.0288 -0.1055  0.0447 -0.0110
                                           -0.0898  0.0197 -0.0874 -0.0064 -0.2947
                                           -0.0049  0.4652  0.0048  0.1090 -0.0076
                                            0.0426 -0.0009  0.1781 -0.0143 -0.6013
                                           -0.0277
    39. (0.00048) RY*(17) O   1           s(  0.43%)p99.99( 52.21%)d13.95(  6.04%)
                                                  f95.52( 41.32%)
                                           -0.0000  0.0023  0.0240  0.0403  0.0461
                                           -0.0028 -0.0101 -0.3462  0.0335  0.0064
                                           -0.0076  0.5950 -0.1368  0.0014 -0.0009
                                           -0.1561  0.0610  0.0044  0.1046  0.0166
                                            0.0256  0.0613  0.0162 -0.0262 -0.0505
                                           -0.0152 -0.0811 -0.0484 -0.1319 -0.0429
                                           -0.1126 -0.0120 -0.0873 -0.0047 -0.2430
                                           -0.0330  0.4153  0.0398  0.0838 -0.0036
                                           -0.1547 -0.0136  0.1815  0.0202  0.3241
                                            0.0428
    40. (0.00047) RY*(18) O   1           s(  4.69%)p 8.95( 41.93%)d 6.35( 29.75%)
                                                  f 5.04( 23.63%)
                                           -0.0000  0.0042  0.0777  0.1887  0.0722
                                            0.0037  0.0237  0.2679 -0.0677 -0.0000
                                           -0.0164  0.2167 -0.1388 -0.0045  0.0141
                                            0.5111 -0.1203 -0.0205  0.2534 -0.0012
                                            0.0200 -0.0104 -0.0208 -0.0286  0.4579
                                           -0.0795 -0.0092 -0.1133  0.0196 -0.0328
                                           -0.0065 -0.0258 -0.1556 -0.0181  0.3026
                                            0.0403  0.2358  0.0392 -0.1808 -0.0140
                                           -0.0804 -0.0078 -0.1452 -0.0287  0.0068
[...]
   151. (0.00044) RY*( 6) H   4           s(  3.02%)p27.81( 83.93%)d 4.32( 13.05%)
                                            0.0011  0.1392 -0.0017  0.1039  0.0933
                                            0.7013 -0.3984 -0.0129 -0.2630 -0.0808
                                            0.1433 -0.2762 -0.0859  0.2233  0.0107
                                            0.1385  0.0772 -0.0251  0.0154  0.1077
                                            0.1100 -0.1569  0.0789
   152. (0.00034) RY*( 7) H   4           s(  1.91%)p37.84( 72.36%)d13.45( 25.72%)
                                           -0.0072 -0.0454 -0.0148  0.1296  0.0648
                                           -0.0320  0.4500 -0.0350 -0.6499  0.0352
                                            0.1556 -0.2582 -0.0163 -0.1440  0.1230
                                            0.2282 -0.1373  0.1273  0.1056 -0.2522
                                           -0.1773  0.1478  0.0785
   153. (0.00026) RY*( 8) H   4           s( 20.27%)p 0.92( 18.72%)d 3.01( 61.02%)
                                            0.0071 -0.0243  0.4238  0.1498 -0.0203
                                            0.3046  0.0099  0.0181  0.2055 -0.0244
                                            0.0031  0.0951 -0.2043 -0.5314 -0.0615
                                           -0.1060  0.1202  0.4623 -0.0999 -0.2573
                                           -0.0477 -0.0454  0.0633
   154. (0.00024) RY*( 9) H   4           s(  6.50%)p 3.79( 24.63%)d10.60( 68.87%)
                                            0.0015 -0.0671  0.1176  0.2160  0.0697
                                           -0.0357  0.0616 -0.0712  0.2451 -0.0412
                                            0.0066  0.1664 -0.3766  0.3471 -0.0962
                                            0.5004  0.0437 -0.2658 -0.1001 -0.4705
                                           -0.0109  0.0271  0.0614
   155. (0.00021) RY*(10) H   4           s( 10.68%)p 3.05( 32.58%)d 5.31( 56.74%)
                                           -0.0103 -0.0227 -0.1533  0.2875  0.0607
                                           -0.3345 -0.3299  0.1095 -0.0704  0.1552
                                           -0.0103 -0.0085 -0.2454 -0.3616 -0.0233
                                            0.4871  0.0707  0.1208  0.0022  0.4032
                                            0.1276  0.0052 -0.0201
   156. (0.00017) RY*(11) H   4           s( 24.34%)p 2.18( 53.15%)d 0.92( 22.50%)
                                           -0.0183 -0.0888  0.4766 -0.0899 -0.1162
                                           -0.2334  0.0596 -0.0135  0.1645 -0.0396
                                           -0.0208 -0.6301 -0.1836  0.1265  0.0127
                                           -0.0242  0.0152 -0.0796 -0.0501  0.2725
                                           -0.1819 -0.0905  0.2893
   157. (0.00015) RY*(12) H   4           s(  5.23%)p10.54( 55.13%)d 7.58( 39.64%)
                                           -0.0108 -0.0020  0.2082 -0.0940  0.0706
                                           -0.2948 -0.3686 -0.0356 -0.0696 -0.2876
                                           -0.0990 -0.2554  0.3996 -0.0067  0.0615
                                            0.1778  0.0446  0.1515  0.0405 -0.4007
                                            0.1520 -0.1847 -0.3414
   158. (0.00013) RY*(13) H   4           s( 46.14%)p 0.34( 15.62%)d 0.83( 38.24%)
                                            0.0019  0.0234  0.4012  0.5476  0.0177
                                            0.0865  0.0226  0.0319  0.0815  0.1981
                                            0.0541 -0.0179  0.3127 -0.0081  0.0212
                                           -0.0702 -0.3571 -0.2657  0.0277  0.1198
                                            0.1821  0.2792 -0.2293
   159. (0.00011) RY*(14) H   4           s(  3.05%)p 6.93( 21.15%)d24.84( 75.80%)
                                            0.0082  0.0766  0.0906  0.1280  0.0445
                                            0.0009  0.1225 -0.0151 -0.0670  0.2821
                                           -0.1096  0.1946  0.2457  0.0951 -0.1765
                                            0.1444 -0.1904  0.0820 -0.1067  0.0946
                                           -0.3052 -0.7342  0.0375
   160. (0.00009) RY*(15) H   4           s(  1.48%)p29.19( 43.21%)d37.36( 55.31%)
   161. (0.00007) RY*(16) H   4           s(  0.17%)p84.85( 14.41%)d99.99( 85.42%)
   162. (0.00006) RY*(17) H   4           s(  0.74%)p 9.03(  6.67%)d99.99( 92.59%)
   163. (0.00006) RY*(18) H   4           s(  1.79%)p 0.53(  0.94%)d54.38( 97.27%)
   164. (0.00005) RY*(19) H   4           s( 32.40%)p 0.46( 14.94%)d 1.63( 52.66%)
   165. (0.00004) RY*(20) H   4           s(  0.03%)p99.99( 33.44%)d99.99( 66.53%)
   166. (0.00003) RY*(21) H   4           s( 16.97%)p 1.99( 33.72%)d 2.91( 49.31%)
   167. (0.00003) RY*(22) H   4           s(  7.57%)p 2.72( 20.57%)d 9.49( 71.86%)
   168. (0.05778) BD*( 1) O   1 -Cl   3  
                ( 40.93%)   0.6398* O   1 s( 10.05%)p 8.89( 89.37%)d 0.06(  0.56%)
                                                  f 0.00(  0.02%)
                                           -0.0003 -0.3139  0.0424  0.0120  0.0019
                                            0.2290 -0.0249 -0.0057 -0.0021 -0.9160
                                            0.0171  0.0079  0.0091 -0.0264 -0.0211
                                           -0.0038  0.0007  0.0163  0.0022  0.0025
                                           -0.0082 -0.0008  0.0012 -0.0241 -0.0033
                                            0.0005  0.0593  0.0044 -0.0002  0.0335
                                            0.0026  0.0005  0.0002 -0.0004 -0.0014
                                           -0.0007  0.0062  0.0002  0.0037 -0.0020
                                           -0.0055  0.0010 -0.0059 -0.0008  0.0076
                                           -0.0011
                ( 59.07%)  -0.7686*Cl   3 s(  8.53%)p10.57( 90.18%)d 0.14(  1.18%)
                                                  f 0.01(  0.11%)
                                            0.0000 -0.0005 -0.2854  0.0613  0.0100
                                            0.0027 -0.0001 -0.2251  0.0144  0.0041
                                           -0.0011  0.0004  0.9199 -0.0665 -0.0127
                                            0.0032 -0.0000 -0.0045  0.0005  0.0025
                                           -0.0013  0.0459 -0.0059 -0.0001 -0.0083
                                           -0.0006  0.0009  0.0123  0.0017  0.0010
                                            0.0806 -0.0096 -0.0006  0.0527 -0.0060
                                            0.0003  0.0008 -0.0001  0.0045 -0.0005
                                           -0.0191  0.0021 -0.0001  0.0006  0.0020
                                           -0.0013  0.0177 -0.0027 -0.0197  0.0024
   169. (0.04615) BD*( 1) O   1 - H   4  
                ( 22.66%)   0.4760* O   1 s( 24.00%)p 3.14( 75.44%)d 0.02(  0.54%)
                                                  f 0.00(  0.01%)
                                           -0.0002 -0.4899  0.0037  0.0069 -0.0023
                                           -0.5933  0.0136  0.0061  0.0009  0.0357
                                           -0.0150 -0.0013 -0.0016 -0.6329  0.0070
                                            0.0063  0.0038 -0.0176 -0.0035 -0.0010
                                           -0.0598 -0.0030  0.0007 -0.0210 -0.0038
                                           -0.0003 -0.0194 -0.0010 -0.0018 -0.0257
                                           -0.0034 -0.0021  0.0060 -0.0009 -0.0071
                                           -0.0009 -0.0017  0.0008 -0.0029 -0.0025
                                            0.0003  0.0008  0.0029 -0.0021  0.0018
                                           -0.0001
                ( 77.34%)  -0.8795* H   4 s( 99.80%)p 0.00(  0.20%)d 0.00(  0.00%)
                                           -0.9989 -0.0172 -0.0007 -0.0003  0.0034
                                            0.0222  0.0048 -0.0102 -0.0020  0.0042
                                           -0.0285  0.0219  0.0053 -0.0009 -0.0008
                                           -0.0022  0.0006 -0.0018 -0.0018  0.0005
                                            0.0021  0.0006  0.0015


 NHO Directionality and "Bond Bending" (deviations from line of nuclear centers)

         [Thresholds for printing:  angular deviation  >  1.0 degree]
                                    hybrid p-character > 25.0%
                                    orbital occupancy  >  0.10e

                                Line of Centers        Hybrid 1              Hybrid 2
                                ---------------  -------------------   ------------------
                NBO               Theta   Phi    Theta   Phi    Dev    Theta   Phi    Dev
 ========================================================================================
     1. BD (   1) O   1 -Cl   3    90.0  103.5    86.8  102.5   3.4      --     --    --
     2. BD (   1) O   1 - H   4    45.0    0.0    42.9  358.2   2.4      --     --    --
    14. LP (   1) O   1             --     --    131.8  230.5   --       --     --    --
    15. LP (   2) O   1             --     --     48.0  195.6   --       --     --    --
    17. LP (   2)Cl   2             --     --    101.4   96.8   --       --     --    --
    18. LP (   3)Cl   2             --     --    151.2  208.4   --       --     --    --
    19. LP (   4)Cl   2             --     --     63.8  181.1   --       --     --    --
    21. LP (   2)Cl   3             --     --    135.5   13.9   --       --     --    --
    22. LP (   3)Cl   3             --     --    134.6  193.6   --       --     --    --


 Natural Bond Orbitals (Summary):

           NBO                  Occupancy  
 -----------------------------------------------
 Molecular unit  1  (HOCl)
     1. BD (   1) O   1 -Cl   3          1.94028
     2. BD (   1) O   1 - H   4          1.96392
     3. CR (   1) O   1                  1.99971
     9. CR (   1)Cl   3                  2.00000
    10. CR (   2)Cl   3                  1.99981
    11. CR (   3)Cl   3                  2.00003
    12. CR (   4)Cl   3                  1.99997
    13. CR (   5)Cl   3                  2.00003
    14. LP (   1) O   1                  1.96892
    15. LP (   2) O   1                  1.95303
    20. LP (   1)Cl   3                  1.97458
    21. LP (   2)Cl   3                  1.95618
    22. LP (   3)Cl   3                  1.95500
    23. RY*(   1) O   1                  0.01953
    24. RY*(   2) O   1                  0.01513
    25. RY*(   3) O   1                  0.00771
    26. RY*(   4) O   1                  0.00710
    27. RY*(   5) O   1                  0.00630
    28. RY*(   6) O   1                  0.00615
    29. RY*(   7) O   1                  0.00572
    30. RY*(   8) O   1                  0.00276
    31. RY*(   9) O   1                  0.00244
    32. RY*(  10) O   1                  0.00078
    33. RY*(  11) O   1                  0.00070
    34. RY*(  12) O   1                  0.00064
    35. RY*(  13) O   1                  0.00057
    36. RY*(  14) O   1                  0.00050
    37. RY*(  15) O   1                  0.00051
    38. RY*(  16) O   1                  0.00050
    39. RY*(  17) O   1                  0.00048
    40. RY*(  18) O   1                  0.00047
    41. RY*(  19) O   1                  0.00045
    42. RY*(  20) O   1                  0.00045
    43. RY*(  21) O   1                  0.00044
    44. RY*(  22) O   1                  0.00041
    45. RY*(  23) O   1                  0.00034
    46. RY*(  24) O   1                  0.00031
    47. RY*(  25) O   1                  0.00024
    48. RY*(  26) O   1                  0.00018
    49. RY*(  27) O   1                  0.00015
    50. RY*(  28) O   1                  0.00012
    51. RY*(  29) O   1                  0.00012
    52. RY*(  30) O   1                  0.00012
    53. RY*(  31) O   1                  0.00010
    54. RY*(  32) O   1                  0.00008
    55. RY*(  33) O   1                  0.00008
    56. RY*(  34) O   1                  0.00007
    57. RY*(  35) O   1                  0.00007
    58. RY*(  36) O   1                  0.00008
    59. RY*(  37) O   1                  0.00006
    60. RY*(  38) O   1                  0.00004
    61. RY*(  39) O   1                  0.00004
    62. RY*(  40) O   1                  0.00003
    63. RY*(  41) O   1                  0.00003
   105. RY*(   1)Cl   3                  0.02267
   106. RY*(   2)Cl   3                  0.01758
   107. RY*(   3)Cl   3                  0.01684
   108. RY*(   4)Cl   3                  0.01638
   109. RY*(   5)Cl   3                  0.01166
   110. RY*(   6)Cl   3                  0.00918
   111. RY*(   7)Cl   3                  0.00900
   112. RY*(   8)Cl   3                  0.00629
   113. RY*(   9)Cl   3                  0.00176
   114. RY*(  10)Cl   3                  0.00126
   115. RY*(  11)Cl   3                  0.00127
   116. RY*(  12)Cl   3                  0.00119
   117. RY*(  13)Cl   3                  0.00119
   118. RY*(  14)Cl   3                  0.00116
   119. RY*(  15)Cl   3                  0.00109
   120. RY*(  16)Cl   3                  0.00094
   121. RY*(  17)Cl   3                  0.00076
   122. RY*(  18)Cl   3                  0.00074
   123. RY*(  19)Cl   3                  0.00063
   124. RY*(  20)Cl   3                  0.00055
   125. RY*(  21)Cl   3                  0.00041
   126. RY*(  22)Cl   3                  0.00038
   127. RY*(  23)Cl   3                  0.00032
   128. RY*(  24)Cl   3                  0.00030
   129. RY*(  25)Cl   3                  0.00019
   130. RY*(  26)Cl   3                  0.00016
   131. RY*(  27)Cl   3                  0.00014
   132. RY*(  28)Cl   3                  0.00013
   133. RY*(  29)Cl   3                  0.00011
   134. RY*(  30)Cl   3                  0.00011
   135. RY*(  31)Cl   3                  0.00011
   136. RY*(  32)Cl   3                  0.00011
   137. RY*(  33)Cl   3                  0.00012
   138. RY*(  34)Cl   3                  0.00009
   139. RY*(  35)Cl   3                  0.00009
   140. RY*(  36)Cl   3                  0.00009
   141. RY*(  37)Cl   3                  0.00006
   142. RY*(  38)Cl   3                  0.00004
   143. RY*(  39)Cl   3                  0.00004
   144. RY*(  40)Cl   3                  0.00002
   145. RY*(  41)Cl   3                  0.00001
   146. RY*(   1) H   4                  0.00743
   147. RY*(   2) H   4                  0.00444
   148. RY*(   3) H   4                  0.00268
   149. RY*(   4) H   4                  0.00231
   150. RY*(   5) H   4                  0.00055
   151. RY*(   6) H   4                  0.00044
   152. RY*(   7) H   4                  0.00034
   153. RY*(   8) H   4                  0.00026
   154. RY*(   9) H   4                  0.00024
   155. RY*(  10) H   4                  0.00021
   156. RY*(  11) H   4                  0.00017
   157. RY*(  12) H   4                  0.00015
   158. RY*(  13) H   4                  0.00013
   159. RY*(  14) H   4                  0.00011
   160. RY*(  15) H   4                  0.00009
   161. RY*(  16) H   4                  0.00007
   162. RY*(  17) H   4                  0.00006
   163. RY*(  18) H   4                  0.00006
   164. RY*(  19) H   4                  0.00005
   165. RY*(  20) H   4                  0.00004
   166. RY*(  21) H   4                  0.00003
   167. RY*(  22) H   4                  0.00003
   168. BD*(   1) O   1 -Cl   3          0.05778
   169. BD*(   1) O   1 - H   4          0.04615
       -------------------------------
              Total Lewis   25.71145  ( 98.7288%)
        Valence non-Lewis    0.10393  (  0.3991%)
        Rydberg non-Lewis    0.22713  (  0.8722%)
       -------------------------------
            Total unit  1   26.04251  (100.0000%)
           Charge unit  1   -0.04251

 Molecular unit  2  (Cl)
     4. CR (   1)Cl   2                  2.00001
     5. CR (   2)Cl   2                  2.00000
     6. CR (   3)Cl   2                  2.00002
     7. CR (   4)Cl   2                  2.00003
     8. CR (   5)Cl   2                  2.00002
    16. LP (   1)Cl   2                  1.98005
    17. LP (   2)Cl   2                  1.95203
    18. LP (   3)Cl   2                  1.95119
    19. LP (   4)Cl   2                  1.92205
    64. RY*(   1)Cl   2                  0.01857
    65. RY*(   2)Cl   2                  0.01850
    66. RY*(   3)Cl   2                  0.01838
    67. RY*(   4)Cl   2                  0.01838
    68. RY*(   5)Cl   2                  0.01825
    69. RY*(   6)Cl   2                  0.01359
    70. RY*(   7)Cl   2                  0.01353
    71. RY*(   8)Cl   2                  0.01207
    72. RY*(   9)Cl   2                  0.00355
    73. RY*(  10)Cl   2                  0.00129
    74. RY*(  11)Cl   2                  0.00129
    75. RY*(  12)Cl   2                  0.00130
    76. RY*(  13)Cl   2                  0.00130
    77. RY*(  14)Cl   2                  0.00130
    78. RY*(  15)Cl   2                  0.00130
    79. RY*(  16)Cl   2                  0.00128
    80. RY*(  17)Cl   2                  0.00101
    81. RY*(  18)Cl   2                  0.00101
    82. RY*(  19)Cl   2                  0.00087
    83. RY*(  20)Cl   2                  0.00083
    84. RY*(  21)Cl   2                  0.00080
    85. RY*(  22)Cl   2                  0.00056
    86. RY*(  23)Cl   2                  0.00057
    87. RY*(  24)Cl   2                  0.00054
    88. RY*(  25)Cl   2                  0.00026
    89. RY*(  26)Cl   2                  0.00018
    90. RY*(  27)Cl   2                  0.00016
    91. RY*(  28)Cl   2                  0.00015
    92. RY*(  29)Cl   2                  0.00014
    93. RY*(  30)Cl   2                  0.00015
    94. RY*(  31)Cl   2                  0.00014
    95. RY*(  32)Cl   2                  0.00014
    96. RY*(  33)Cl   2                  0.00013
    97. RY*(  34)Cl   2                  0.00010
    98. RY*(  35)Cl   2                  0.00010
    99. RY*(  36)Cl   2                  0.00011
   100. RY*(  37)Cl   2                  0.00011
   101. RY*(  38)Cl   2                  0.00008
   102. RY*(  39)Cl   2                  0.00004
   103. RY*(  40)Cl   2                  0.00002
   104. RY*(  41)Cl   2                  0.00002
       -------------------------------
              Total Lewis   17.80539  ( 99.1530%)
        Valence non-Lewis    0.00000  (  0.0000%)
        Rydberg non-Lewis    0.15210  (  0.8470%)
       -------------------------------
            Total unit  2   17.95749  (100.0000%)
           Charge unit  2   -0.95749
 Leave Link  607 at Wed Sep 22 16:33:12 2021, MaxMem= 16106127360 cpu:              70.0 elap:               2.5
 (Enter /sw/contrib/gaussian/g16/B01/g16/l9999.exe)
 1\1\GINC-N2096\SP\RMP2-FC\Aug-CC-pVTZ\Cl2H1O1(1-)\CGAVINH\22-Sep-2021\
 0\\#p pop=NBO SP NoSymm mp2/aug-cc-pvtz density=current\\title\\-1,1\O
 ,0,0.,0.,0.\Cl,0,2.904676,0.,0.\Cl,0,-0.3936866,1.6360486,0.\H,0,0.694
 548565,0.,0.694548565\\Version=ES64L-G16RevB.01\HF=-994.5064673\MP2=-9
 95.1706268\RMSD=5.955e-09\Dipole=-2.5082556,0.9954485,0.3007699\Quadru
 pole=-18.6369214,8.9115762,9.7253452,0.3632944,0.278485,-0.1772526\PG=
 C01 [X(Cl2H1O1)]\\@


 WISDOM IS KNOWING WHAT TO DO,
 SKILL IS KNOWING HOW TO DO IT,
 AND VIRTUE IS NOT DOING IT.
 Job cpu time:       0 days  0 hours  4 minutes 29.1 seconds.
 Elapsed time:       0 days  0 hours  0 minutes 15.1 seconds.
 File lengths (MBytes):  RWF=     14 Int=      0 D2E=      0 Chk=      8 Scr=      1
 Normal termination of Gaussian 16 at Wed Sep 22 16:33:12 2021.
