 Entering Gaussian System, Link 0=g16
 Input=clhocl_oop_freq.gjf
 Output=clhocl_oop_freq.log
 Initial command:
 /sw/contrib/gaussian/g16/B01/g16/l1.exe "/scr/Gau-2104.inp" -scrdir="/scr/"
 Entering Link 1 = /sw/contrib/gaussian/g16/B01/g16/l1.exe PID=      2105.
  
 Copyright (c) 1988-2017, Gaussian, Inc.  All Rights Reserved.
  
 This is part of the Gaussian(R) 16 program.  It is based on
 the Gaussian(R) 09 system (copyright 2009, Gaussian, Inc.),
 the Gaussian(R) 03 system (copyright 2003, Gaussian, Inc.),
 the Gaussian(R) 98 system (copyright 1998, Gaussian, Inc.),
 the Gaussian(R) 94 system (copyright 1995, Gaussian, Inc.),
 the Gaussian 92(TM) system (copyright 1992, Gaussian, Inc.),
 the Gaussian 90(TM) system (copyright 1990, Gaussian, Inc.),
 the Gaussian 88(TM) system (copyright 1988, Gaussian, Inc.),
 the Gaussian 86(TM) system (copyright 1986, Carnegie Mellon
 University), and the Gaussian 82(TM) system (copyright 1983,
 Carnegie Mellon University). Gaussian is a federally registered
 trademark of Gaussian, Inc.
  
 This software contains proprietary and confidential information,
 including trade secrets, belonging to Gaussian, Inc.
  
 This software is provided under written license and may be
 used, copied, transmitted, or stored only in accord with that
 written license.
  
 The following legend is applicable only to US Government
 contracts under FAR:
  
                    RESTRICTED RIGHTS LEGEND
  
 Use, reproduction and disclosure by the US Government is
 subject to restrictions as set forth in subparagraphs (a)
 and (c) of the Commercial Computer Software - Restricted
 Rights clause in FAR 52.227-19.
  
 Gaussian, Inc.
 340 Quinnipiac St., Bldg. 40, Wallingford CT 06492
  
  
 ---------------------------------------------------------------
 Warning -- This program may not be used in any manner that
 competes with the business of Gaussian, Inc. or will provide
 assistance to any competitor of Gaussian, Inc.  The licensee
 of this program is prohibited from giving any competitor of
 Gaussian, Inc. access to this program.  By using this program,
 the user acknowledges that Gaussian, Inc. is engaged in the
 business of creating and licensing software in the field of
 computational chemistry and represents and warrants to the
 licensee that it is not a competitor of Gaussian, Inc. and that
 it will not use this program in any manner prohibited above.
 ---------------------------------------------------------------
  

 Cite this work as:
 Gaussian 16, Revision B.01,
 M. J. Frisch, G. W. Trucks, H. B. Schlegel, G. E. Scuseria, 
 M. A. Robb, J. R. Cheeseman, G. Scalmani, V. Barone, 
 G. A. Petersson, H. Nakatsuji, X. Li, M. Caricato, A. V. Marenich, 
 J. Bloino, B. G. Janesko, R. Gomperts, B. Mennucci, H. P. Hratchian, 
 J. V. Ortiz, A. F. Izmaylov, J. L. Sonnenberg, D. Williams-Young, 
 F. Ding, F. Lipparini, F. Egidi, J. Goings, B. Peng, A. Petrone, 
 T. Henderson, D. Ranasinghe, V. G. Zakrzewski, J. Gao, N. Rega, 
 G. Zheng, W. Liang, M. Hada, M. Ehara, K. Toyota, R. Fukuda, 
 J. Hasegawa, M. Ishida, T. Nakajima, Y. Honda, O. Kitao, H. Nakai, 
 T. Vreven, K. Throssell, J. A. Montgomery, Jr., J. E. Peralta, 
 F. Ogliaro, M. J. Bearpark, J. J. Heyd, E. N. Brothers, K. N. Kudin, 
 V. N. Staroverov, T. A. Keith, R. Kobayashi, J. Normand, 
 K. Raghavachari, A. P. Rendell, J. C. Burant, S. S. Iyengar, 
 J. Tomasi, M. Cossi, J. M. Millam, M. Klene, C. Adamo, R. Cammi, 
 J. W. Ochterski, R. L. Martin, K. Morokuma, O. Farkas, 
 J. B. Foresman, and D. J. Fox, Gaussian, Inc., Wallingford CT, 2016.
 
 ******************************************
 Gaussian 16:  ES64L-G16RevB.01 20-Dec-2017
                22-Oct-2021 
 ******************************************
 %nproc=28
 Will use up to   28 processors via shared memory.
 %mem=120GB
 %chk=/gscratch/ilahie/mccoygrp/coire_hocl/oop_s_rOH_opt/clhocl/clhocl_oop_s.chk
 ----------------------------------------------------------
 #p opt=(z-matrix) freq=anh mp2/aug-cc-pvtz density=current
 ----------------------------------------------------------
 1/10=7,18=40,38=1,80=1/1,3;
 2/12=2,17=6,18=5,29=3,40=1/2;
 3/5=16,6=1,7=10,11=9,25=1,30=1,71=1/1,2,3;
 4//1;
 5/5=2,38=5/2;
 8/6=4,10=1/1;
 9/15=2,16=-3/6;
 10/5=1/2;
 6/7=2,8=2,9=2,10=2,22=-1/1;
 7/12=2,29=1/1,2,3,16;
 1/10=7,18=40,80=1/3(2);
 2/29=3/2;
 99//99;
 2/29=3/2;
 3/5=16,6=1,7=10,11=9,25=1,30=1,71=1/1,2,3;
 4/5=5,16=3,69=1/1;
 5/5=2,38=5/2;
 8/6=4,10=1/1;
 9/15=2,16=-3/6;
 10/5=1/2;
 7/12=2/1,2,3,16;
 1/18=40,80=1/3(-8);
 2/29=3/2;
 6/7=2,8=2,9=2,10=2,22=-1/1;
 99/9=10/99;
 Leave Link    1 at Fri Oct 22 07:10:52 2021, MaxMem= 16106127360 cpu:               1.0 elap:               0.0
 (Enter /sw/contrib/gaussian/g16/B01/g16/l101.exe)
 -----
 title
 -----
 Symbolic Z-matrix:
 Charge = -1 Multiplicity = 1
 O
 X                    1     10. 
 Cl                   1    r1       2     90. 
 Cl                   1    r2       2     90.      3    a1       0
 H                    1    r3       2    oop      3    a1       0
       Variables:
  r1                    1.68275                  
  r2                    2.90468                  
  r3                    1.02843                  
  a1                  103.53016                  
  OOP                  90.                       
 
 ITRead=  0  0  0  0
 MicOpt= -1 -1 -1 -1
 NAtoms=      4 NQM=        4 NQMF=       0 NMMI=      0 NMMIF=      0
                NMic=       0 NMicF=      0.
                    Isotopes and Nuclear Properties:
 (Nuclear quadrupole moments (NQMom) in fm**2, nuclear magnetic moments (NMagM)
  in nuclear magnetons)

  Atom         1           2           3           4
 IAtWgt=          16          35          35           1
 AtmWgt=  15.9949146  34.9688527  34.9688527   1.0078250
 NucSpn=           0           3           3           1
 AtZEff=  -0.0000000  -0.0000000  -0.0000000  -0.0000000
 NQMom=    0.0000000  -8.1650000  -8.1650000   0.0000000
 NMagM=    0.0000000   0.8218740   0.8218740   2.7928460
 AtZNuc=   8.0000000  17.0000000  17.0000000   1.0000000
 Leave Link  101 at Fri Oct 22 07:10:53 2021, MaxMem= 16106127360 cpu:               3.7 elap:               0.2
 (Enter /sw/contrib/gaussian/g16/B01/g16/l103.exe)

 GradGradGradGradGradGradGradGradGradGradGradGradGradGradGradGradGradGrad
 Berny optimization.
 Initialization pass.
                       ----------------------------
                       !    Initial Parameters    !
                       ! (Angstroms and Degrees)  !
 ----------------------                            ----------------------
 !      Name          Value   Derivative information (Atomic Units)     !
 ------------------------------------------------------------------------
 !       r1          1.6827   estimate D2E/DX2                          !
 !       r2          2.9047   estimate D2E/DX2                          !
 !       r3          1.0284   estimate D2E/DX2                          !
 !       a1        103.5302   estimate D2E/DX2                          !
 !       OOP        90.0      estimate D2E/DX2                          !
 ------------------------------------------------------------------------
 Trust Radius=3.00D-01 FncErr=1.00D-07 GrdErr=1.00D-07 EigMax=2.50D+02 EigMin=1.00D-04
 Number of steps in this run=     20 maximum allowed number of steps=    100.
 GradGradGradGradGradGradGradGradGradGradGradGradGradGradGradGradGradGrad

 Leave Link  103 at Fri Oct 22 07:10:53 2021, MaxMem= 16106127360 cpu:               0.5 elap:               0.0
 (Enter /sw/contrib/gaussian/g16/B01/g16/l202.exe)
 ---------------------------------------------------------------------------------------------------
                            Z-MATRIX (ANGSTROMS AND DEGREES)
   CD    Cent   Atom    N1       Length/X        N2       Alpha/Y        N3        Beta/Z          J
 ---------------------------------------------------------------------------------------------------
      1      1  O 
      2         X        1  10.000000(     1)
      3      2  Cl       1   1.682749(     2)      2   90.000(     5)
      4      3  Cl       1   2.904676(     3)      2   90.000(     6)      3  103.530(     8)      0
      5      4  H        1   1.028426(     4)      2   90.000(     7)      3  103.530(     9)      0
 ---------------------------------------------------------------------------------------------------
                         Z-Matrix orientation:                         
 ---------------------------------------------------------------------
 Center     Atomic      Atomic             Coordinates (Angstroms)
 Number     Number       Type             X           Y           Z
 ---------------------------------------------------------------------
      1          8           0        0.000000    0.000000    0.000000
      2         -1           0        0.000000    0.000000   10.000000
      3         17           0        1.682749    0.000000    0.000000
      4         17           0       -0.679570   -2.824062    0.000000
      5          1           0       -0.240608   -0.999884    0.000000
 ---------------------------------------------------------------------
                    Distance matrix (angstroms):
                    1          2          3          4          5
     1  O    0.000000
     2  X   10.000000   0.000000
     3  Cl   1.682749  10.140594   0.000000
     4  Cl   2.904676  10.413316   3.681831   0.000000
     5  H    1.028426  10.052744   2.167734   1.876250   0.000000
 Stoichiometry    Cl2HO(1-)
 Framework group  CS[SG(Cl2HO)]
 Deg. of freedom     5
 Full point group                 CS      NOp   2
 Largest Abelian subgroup         CS      NOp   2
 Largest concise Abelian subgroup C1      NOp   1
                         Standard orientation:                         
 ---------------------------------------------------------------------
 Center     Atomic      Atomic             Coordinates (Angstroms)
 Number     Number       Type             X           Y           Z
 ---------------------------------------------------------------------
      1          8           0       -1.028255    0.628168   -0.000000
      2         17           0       -1.392054   -1.014785    0.000000
      3         17           0        1.875939    0.681123   -0.000000
      4          1           0        0.000000    0.646917   -0.000000
 ---------------------------------------------------------------------
 Rotational constants (GHZ):          23.6984666           2.0597172           1.8950148
 Leave Link  202 at Fri Oct 22 07:10:53 2021, MaxMem= 16106127360 cpu:               1.7 elap:               0.1
 (Enter /sw/contrib/gaussian/g16/B01/g16/l301.exe)
 Standard basis: Aug-CC-pVTZ (5D, 7F)
 Ernie: Thresh=  0.10000D-02 Tol=  0.10000D-05 Strict=F.
 Ernie:  29 primitive shells out of 169 were deleted.
 There are   135 symmetry adapted cartesian basis functions of A'  symmetry.
 There are    63 symmetry adapted cartesian basis functions of A"  symmetry.
 There are   112 symmetry adapted basis functions of A'  symmetry.
 There are    57 symmetry adapted basis functions of A"  symmetry.
   169 basis functions,   327 primitive gaussians,   198 cartesian basis functions
    22 alpha electrons       22 beta electrons
       nuclear repulsion energy       122.1428414662 Hartrees.
 IExCor=    0 DFT=F Ex=HF Corr=None ExCW=0 ScaHFX=  1.000000
 ScaDFX=  1.000000  1.000000  1.000000  1.000000 ScalE2=  1.000000  1.000000
 IRadAn=      5 IRanWt=     -1 IRanGd=            0 ICorTp=0 IEmpDi=  4
 NAtoms=    4 NActive=    4 NUniq=    4 SFac= 1.00D+00 NAtFMM=   60 NAOKFM=F Big=F
 Integral buffers will be    131072 words long.
 Raffenetti 1 integral format.
 Two-electron integral symmetry is turned on.
 Leave Link  301 at Fri Oct 22 07:10:53 2021, MaxMem= 16106127360 cpu:               1.6 elap:               0.1
 (Enter /sw/contrib/gaussian/g16/B01/g16/l302.exe)
 NPDir=0 NMtPBC=     1 NCelOv=     1 NCel=       1 NClECP=     1 NCelD=      1
         NCelK=      1 NCelE2=     1 NClLst=     1 CellRange=     0.0.
 One-electron integrals computed using PRISM.
 One-electron integral symmetry used in STVInt
 NBasis=   169 RedAO= T EigKep=  2.39D-04  NBF=   112    57
 NBsUse=   169 1.00D-06 EigRej= -1.00D+00 NBFU=   112    57
 Leave Link  302 at Fri Oct 22 07:10:53 2021, MaxMem= 16106127360 cpu:               4.4 elap:               0.2
 (Enter /sw/contrib/gaussian/g16/B01/g16/l303.exe)
 DipDrv:  MaxL=1.
 Leave Link  303 at Fri Oct 22 07:10:53 2021, MaxMem= 16106127360 cpu:               0.9 elap:               0.1
 (Enter /sw/contrib/gaussian/g16/B01/g16/l401.exe)
 ExpMin= 2.53D-02 ExpMax= 4.56D+05 ExpMxC= 1.44D+03 IAcc=3 IRadAn=         5 AccDes= 0.00D+00
 Harris functional with IExCor=  205 and IRadAn=       5 diagonalized for initial guess.
 HarFok:  IExCor=  205 AccDes= 0.00D+00 IRadAn=         5 IDoV= 1 UseB2=F ITyADJ=14
 ICtDFT=  3500011 ScaDFX=  1.000000  1.000000  1.000000  1.000000
 FoFCou: FMM=F IPFlag=           0 FMFlag=      100000 FMFlg1=           0
         NFxFlg=           0 DoJE=T BraDBF=F KetDBF=T FulRan=T
         wScrn=  0.000000 ICntrl=       500 IOpCl=  0 I1Cent=   200000004 NGrid=           0
         NMat0=    1 NMatS0=      1 NMatT0=    0 NMatD0=    1 NMtDS0=    0 NMtDT0=    0
 Petite list used in FoFCou.
 Harris En= -993.822299165695    
 JPrj=0 DoOrth=F DoCkMO=F.
 Initial guess orbital symmetries:
       Occupied  (A') (A') (A') (A') (A') (A') (A') (A") (A') (A')
                 (A") (A') (A') (A') (A') (A') (A") (A') (A') (A")
                 (A') (A")
       Virtual   (A') (A') (A') (A') (A") (A') (A') (A") (A') (A')
                 (A") (A') (A') (A") (A') (A') (A') (A") (A') (A")
                 (A') (A") (A') (A') (A') (A") (A') (A') (A') (A")
                 (A') (A") (A') (A") (A') (A') (A") (A') (A") (A')
                 (A") (A') (A') (A') (A") (A') (A') (A") (A') (A')
                 (A") (A') (A') (A") (A") (A') (A") (A') (A') (A")
                 (A') (A") (A') (A') (A') (A') (A') (A") (A") (A")
                 (A') (A') (A') (A") (A') (A') (A') (A") (A') (A')
                 (A") (A') (A") (A') (A") (A') (A') (A") (A') (A')
                 (A") (A") (A') (A") (A') (A') (A') (A') (A") (A")
                 (A') (A") (A') (A') (A") (A') (A") (A") (A') (A')
                 (A') (A') (A") (A") (A') (A') (A") (A') (A') (A')
                 (A') (A") (A") (A') (A") (A') (A') (A') (A') (A")
                 (A') (A') (A') (A') (A") (A') (A") (A') (A") (A")
                 (A') (A') (A") (A') (A') (A') (A')
 The electronic state of the initial guess is 1-A'.
 Leave Link  401 at Fri Oct 22 07:10:53 2021, MaxMem= 16106127360 cpu:               7.0 elap:               0.3
 (Enter /sw/contrib/gaussian/g16/B01/g16/l502.exe)
 Keep R1 ints in memory in symmetry-blocked form, NReq=155449223.
 FoFCou: FMM=F IPFlag=           0 FMFlag=           0 FMFlg1=           0
         NFxFlg=           0 DoJE=F BraDBF=F KetDBF=F FulRan=T
         wScrn=  0.000000 ICntrl=       600 IOpCl=  0 I1Cent=           0 NGrid=           0
         NMat0=    1 NMatS0=  14365 NMatT0=    0 NMatD0=    1 NMtDS0=    0 NMtDT0=    0
 Petite list used in FoFCou.
 Closed shell SCF:
 Using DIIS extrapolation, IDIIS=  1040.
 NGot= 16106127360 LenX= 16053777278 LenY= 16053737633
 Requested convergence on RMS density matrix=1.00D-08 within 128 cycles.
 Requested convergence on MAX density matrix=1.00D-06.
 Requested convergence on             energy=1.00D-06.
 No special actions if energy rises.

 Cycle   1  Pass 1  IDiag  1:
 E= -994.396653337275    
 DIIS: error= 3.32D-02 at cycle   1 NSaved=   1.
 NSaved= 1 IEnMin= 1 EnMin= -994.396653337275     IErMin= 1 ErrMin= 3.32D-02
 ErrMax= 3.32D-02  0.00D+00 EMaxC= 1.00D-01 BMatC= 4.24D-01 BMatP= 4.24D-01
 IDIUse=3 WtCom= 6.68D-01 WtEn= 3.32D-01
 Coeff-Com:  0.100D+01
 Coeff-En:   0.100D+01
 Coeff:      0.100D+01
 Gap=     0.542 Goal=   None    Shift=    0.000
 GapD=    0.542 DampG=2.000 DampE=0.500 DampFc=1.0000 IDamp=-1.
 RMSDP=2.17D-03 MaxDP=7.08D-02              OVMax= 1.24D-01

 Cycle   2  Pass 1  IDiag  1:
 E= -994.488556283125     Delta-E=       -0.091902945849 Rises=F Damp=F
 DIIS: error= 2.04D-02 at cycle   2 NSaved=   2.
 NSaved= 2 IEnMin= 2 EnMin= -994.488556283125     IErMin= 2 ErrMin= 2.04D-02
 ErrMax= 2.04D-02  0.00D+00 EMaxC= 1.00D-01 BMatC= 5.04D-02 BMatP= 4.24D-01
 IDIUse=3 WtCom= 7.96D-01 WtEn= 2.04D-01
 Coeff-Com:  0.169D+00 0.831D+00
 Coeff-En:   0.000D+00 0.100D+01
 Coeff:      0.135D+00 0.865D+00
 Gap=     0.372 Goal=   None    Shift=    0.000
 RMSDP=9.87D-04 MaxDP=3.93D-02 DE=-9.19D-02 OVMax= 8.10D-02

 Cycle   3  Pass 1  IDiag  1:
 E= -994.513230608476     Delta-E=       -0.024674325351 Rises=F Damp=F
 DIIS: error= 9.51D-03 at cycle   3 NSaved=   3.
 NSaved= 3 IEnMin= 3 EnMin= -994.513230608476     IErMin= 3 ErrMin= 9.51D-03
 ErrMax= 9.51D-03  0.00D+00 EMaxC= 1.00D-01 BMatC= 1.53D-02 BMatP= 5.04D-02
 IDIUse=3 WtCom= 9.05D-01 WtEn= 9.51D-02
 Coeff-Com: -0.158D-01 0.345D+00 0.670D+00
 Coeff-En:   0.000D+00 0.145D+00 0.855D+00
 Coeff:     -0.143D-01 0.326D+00 0.688D+00
 Gap=     0.364 Goal=   None    Shift=    0.000
 RMSDP=3.76D-04 MaxDP=1.44D-02 DE=-2.47D-02 OVMax= 3.71D-02

 Cycle   4  Pass 1  IDiag  1:
 E= -994.523644035483     Delta-E=       -0.010413427007 Rises=F Damp=F
 DIIS: error= 1.32D-03 at cycle   4 NSaved=   4.
 NSaved= 4 IEnMin= 4 EnMin= -994.523644035483     IErMin= 4 ErrMin= 1.32D-03
 ErrMax= 1.32D-03  0.00D+00 EMaxC= 1.00D-01 BMatC= 1.76D-04 BMatP= 1.53D-02
 IDIUse=3 WtCom= 9.87D-01 WtEn= 1.32D-02
 Coeff-Com: -0.391D-02 0.162D-01 0.990D-01 0.889D+00
 Coeff-En:   0.000D+00 0.000D+00 0.000D+00 0.100D+01
 Coeff:     -0.386D-02 0.160D-01 0.977D-01 0.890D+00
 Gap=     0.357 Goal=   None    Shift=    0.000
 RMSDP=5.64D-05 MaxDP=1.50D-03 DE=-1.04D-02 OVMax= 3.08D-03

 Cycle   5  Pass 1  IDiag  1:
 E= -994.523832805161     Delta-E=       -0.000188769678 Rises=F Damp=F
 DIIS: error= 2.67D-04 at cycle   5 NSaved=   5.
 NSaved= 5 IEnMin= 5 EnMin= -994.523832805161     IErMin= 5 ErrMin= 2.67D-04
 ErrMax= 2.67D-04  0.00D+00 EMaxC= 1.00D-01 BMatC= 1.62D-05 BMatP= 1.76D-04
 IDIUse=3 WtCom= 9.97D-01 WtEn= 2.67D-03
 Coeff-Com:  0.106D-02-0.399D-01-0.690D-01 0.245D-01 0.108D+01
 Coeff-En:   0.000D+00 0.000D+00 0.000D+00 0.000D+00 0.100D+01
 Coeff:      0.105D-02-0.398D-01-0.688D-01 0.244D-01 0.108D+01
 Gap=     0.359 Goal=   None    Shift=    0.000
 RMSDP=3.21D-05 MaxDP=1.17D-03 DE=-1.89D-04 OVMax= 3.09D-03

 Cycle   6  Pass 1  IDiag  1:
 E= -994.523873099677     Delta-E=       -0.000040294516 Rises=F Damp=F
 DIIS: error= 1.33D-04 at cycle   6 NSaved=   6.
 NSaved= 6 IEnMin= 6 EnMin= -994.523873099677     IErMin= 6 ErrMin= 1.33D-04
 ErrMax= 1.33D-04  0.00D+00 EMaxC= 1.00D-01 BMatC= 2.11D-06 BMatP= 1.62D-05
 IDIUse=3 WtCom= 9.99D-01 WtEn= 1.33D-03
 Coeff-Com:  0.209D-03 0.935D-02 0.164D-01-0.817D-01-0.417D+00 0.147D+01
 Coeff-En:   0.000D+00 0.000D+00 0.000D+00 0.000D+00 0.000D+00 0.100D+01
 Coeff:      0.209D-03 0.934D-02 0.164D-01-0.816D-01-0.417D+00 0.147D+01
 Gap=     0.359 Goal=   None    Shift=    0.000
 RMSDP=1.69D-05 MaxDP=6.29D-04 DE=-4.03D-05 OVMax= 1.68D-03

 Cycle   7  Pass 1  IDiag  1:
 E= -994.523880768253     Delta-E=       -0.000007668576 Rises=F Damp=F
 DIIS: error= 4.31D-05 at cycle   7 NSaved=   7.
 NSaved= 7 IEnMin= 7 EnMin= -994.523880768253     IErMin= 7 ErrMin= 4.31D-05
 ErrMax= 4.31D-05  0.00D+00 EMaxC= 1.00D-01 BMatC= 1.32D-07 BMatP= 2.11D-06
 IDIUse=1 WtCom= 1.00D+00 WtEn= 0.00D+00
 Coeff-Com: -0.149D-03-0.125D-02-0.154D-02 0.314D-01 0.953D-01-0.624D+00
 Coeff-Com:  0.150D+01
 Coeff:     -0.149D-03-0.125D-02-0.154D-02 0.314D-01 0.953D-01-0.624D+00
 Coeff:      0.150D+01
 Gap=     0.359 Goal=   None    Shift=    0.000
 RMSDP=5.27D-06 MaxDP=1.89D-04 DE=-7.67D-06 OVMax= 5.15D-04

 Cycle   8  Pass 1  IDiag  1:
 E= -994.523881377483     Delta-E=       -0.000000609230 Rises=F Damp=F
 DIIS: error= 7.88D-06 at cycle   8 NSaved=   8.
 NSaved= 8 IEnMin= 8 EnMin= -994.523881377483     IErMin= 8 ErrMin= 7.88D-06
 ErrMax= 7.88D-06  0.00D+00 EMaxC= 1.00D-01 BMatC= 9.05D-09 BMatP= 1.32D-07
 IDIUse=1 WtCom= 1.00D+00 WtEn= 0.00D+00
 Coeff-Com:  0.825D-05-0.427D-03-0.548D-03-0.542D-03 0.663D-02 0.242D-01
 Coeff-Com: -0.274D+00 0.124D+01
 Coeff:      0.825D-05-0.427D-03-0.548D-03-0.542D-03 0.663D-02 0.242D-01
 Coeff:     -0.274D+00 0.124D+01
 Gap=     0.359 Goal=   None    Shift=    0.000
 RMSDP=1.22D-06 MaxDP=2.47D-05 DE=-6.09D-07 OVMax= 1.36D-04

 Cycle   9  Pass 1  IDiag  1:
 E= -994.523881413611     Delta-E=       -0.000000036129 Rises=F Damp=F
 DIIS: error= 3.89D-06 at cycle   9 NSaved=   9.
 NSaved= 9 IEnMin= 9 EnMin= -994.523881413611     IErMin= 9 ErrMin= 3.89D-06
 ErrMax= 3.89D-06  0.00D+00 EMaxC= 1.00D-01 BMatC= 1.27D-09 BMatP= 9.05D-09
 IDIUse=1 WtCom= 1.00D+00 WtEn= 0.00D+00
 Coeff-Com:  0.193D-04 0.199D-03 0.223D-03-0.348D-02-0.117D-01 0.653D-01
 Coeff-Com: -0.996D-01-0.363D+00 0.141D+01
 Coeff:      0.193D-04 0.199D-03 0.223D-03-0.348D-02-0.117D-01 0.653D-01
 Coeff:     -0.996D-01-0.363D+00 0.141D+01
 Gap=     0.359 Goal=   None    Shift=    0.000
 RMSDP=6.06D-07 MaxDP=1.36D-05 DE=-3.61D-08 OVMax= 6.90D-05

 Cycle  10  Pass 1  IDiag  1:
 E= -994.523881420394     Delta-E=       -0.000000006783 Rises=F Damp=F
 DIIS: error= 1.65D-06 at cycle  10 NSaved=  10.
 NSaved=10 IEnMin=10 EnMin= -994.523881420394     IErMin=10 ErrMin= 1.65D-06
 ErrMax= 1.65D-06  0.00D+00 EMaxC= 1.00D-01 BMatC= 1.88D-10 BMatP= 1.27D-09
 IDIUse=1 WtCom= 1.00D+00 WtEn= 0.00D+00
 Coeff-Com: -0.566D-05 0.336D-04 0.224D-04 0.917D-03 0.154D-02-0.183D-01
 Coeff-Com:  0.674D-01-0.144D+00-0.209D+00 0.130D+01
 Coeff:     -0.566D-05 0.336D-04 0.224D-04 0.917D-03 0.154D-02-0.183D-01
 Coeff:      0.674D-01-0.144D+00-0.209D+00 0.130D+01
 Gap=     0.359 Goal=   None    Shift=    0.000
 RMSDP=2.32D-07 MaxDP=5.74D-06 DE=-6.78D-09 OVMax= 2.53D-05

 Cycle  11  Pass 1  IDiag  1:
 E= -994.523881421275     Delta-E=       -0.000000000880 Rises=F Damp=F
 DIIS: error= 5.21D-07 at cycle  11 NSaved=  11.
 NSaved=11 IEnMin=11 EnMin= -994.523881421275     IErMin=11 ErrMin= 5.21D-07
 ErrMax= 5.21D-07  0.00D+00 EMaxC= 1.00D-01 BMatC= 1.34D-11 BMatP= 1.88D-10
 IDIUse=1 WtCom= 1.00D+00 WtEn= 0.00D+00
 Coeff-Com: -0.222D-05-0.273D-04-0.307D-04 0.426D-03 0.142D-02-0.745D-02
 Coeff-Com:  0.912D-02 0.495D-01-0.145D+00-0.130D+00 0.122D+01
 Coeff:     -0.222D-05-0.273D-04-0.307D-04 0.426D-03 0.142D-02-0.745D-02
 Coeff:      0.912D-02 0.495D-01-0.145D+00-0.130D+00 0.122D+01
 Gap=     0.359 Goal=   None    Shift=    0.000
 RMSDP=6.75D-08 MaxDP=1.73D-06 DE=-8.80D-10 OVMax= 7.09D-06

 Cycle  12  Pass 1  IDiag  1:
 E= -994.523881421343     Delta-E=       -0.000000000068 Rises=F Damp=F
 DIIS: error= 1.02D-07 at cycle  12 NSaved=  12.
 NSaved=12 IEnMin=12 EnMin= -994.523881421343     IErMin=12 ErrMin= 1.02D-07
 ErrMax= 1.02D-07  0.00D+00 EMaxC= 1.00D-01 BMatC= 7.71D-13 BMatP= 1.34D-11
 IDIUse=1 WtCom= 1.00D+00 WtEn= 0.00D+00
 Coeff-Com:  0.610D-06 0.233D-05 0.393D-05-0.115D-03-0.321D-03 0.208D-02
 Coeff-Com: -0.461D-02-0.884D-03 0.362D-01-0.636D-01-0.155D+00 0.119D+01
 Coeff:      0.610D-06 0.233D-05 0.393D-05-0.115D-03-0.321D-03 0.208D-02
 Coeff:     -0.461D-02-0.884D-03 0.362D-01-0.636D-01-0.155D+00 0.119D+01
 Gap=     0.359 Goal=   None    Shift=    0.000
 RMSDP=1.33D-08 MaxDP=3.33D-07 DE=-6.80D-11 OVMax= 1.12D-06

 Cycle  13  Pass 1  IDiag  1:
 E= -994.523881421346     Delta-E=       -0.000000000003 Rises=F Damp=F
 DIIS: error= 2.51D-08 at cycle  13 NSaved=  13.
 NSaved=13 IEnMin=13 EnMin= -994.523881421346     IErMin=13 ErrMin= 2.51D-08
 ErrMax= 2.51D-08  0.00D+00 EMaxC= 1.00D-01 BMatC= 7.80D-14 BMatP= 7.71D-13
 IDIUse=1 WtCom= 1.00D+00 WtEn= 0.00D+00
 Coeff-Com:  0.204D-06 0.154D-05 0.736D-06-0.289D-04-0.848D-04 0.520D-03
 Coeff-Com: -0.692D-03-0.425D-02 0.128D-01 0.943D-02-0.102D+00-0.427D-01
 Coeff-Com:  0.113D+01
 Coeff:      0.204D-06 0.154D-05 0.736D-06-0.289D-04-0.848D-04 0.520D-03
 Coeff:     -0.692D-03-0.425D-02 0.128D-01 0.943D-02-0.102D+00-0.427D-01
 Coeff:      0.113D+01
 Gap=     0.359 Goal=   None    Shift=    0.000
 RMSDP=3.89D-09 MaxDP=9.26D-08 DE=-3.18D-12 OVMax= 3.45D-07

 SCF Done:  E(RHF) =  -994.523881421     A.U. after   13 cycles
            NFock= 13  Conv=0.39D-08     -V/T= 2.0002
 KE= 9.943646910881D+02 PE=-2.622051417005D+03 EE= 5.110200030289D+02
 Leave Link  502 at Fri Oct 22 07:10:55 2021, MaxMem= 16106127360 cpu:              34.6 elap:               2.0
 (Enter /sw/contrib/gaussian/g16/B01/g16/l801.exe)
 ExpMin= 2.53D-02 ExpMax= 4.56D+05 ExpMxC= 1.44D+03 IAcc=3 IRadAn=         5 AccDes= 0.00D+00
 HarFok:  IExCor=  205 AccDes= 0.00D+00 IRadAn=         5 IDoV=-2 UseB2=F ITyADJ=14
 ICtDFT= 12500011 ScaDFX=  1.000000  1.000000  1.000000  1.000000
 Largest valence mixing into a core orbital is  4.47D-04
 Largest core mixing into a valence orbital is  1.72D-04
 Range of M.O.s used for correlation:    12   169
 NBasis=   169 NAE=    22 NBE=    22 NFC=    11 NFV=     0
 NROrb=    158 NOA=    11 NOB=    11 NVA=   147 NVB=   147

 **** Warning!!: The largest alpha MO coefficient is  0.20680114D+02

 Leave Link  801 at Fri Oct 22 07:10:56 2021, MaxMem= 16106127360 cpu:               2.2 elap:               0.1
 (Enter /sw/contrib/gaussian/g16/B01/g16/l906.exe)
 Frozen-core derivative calculation, NFC=  11 NFV=   0.
 FulOut=F Deriv=T AODrv=T NAtomX=     4
   MMem=         143  MDisk=          11 MDiskD=          11
  W3Min=      736164 MinDsk=     1250177 NBas6D=         198
 NBas2D=       20187    NTT=       19701    LW2=     3500000
    MDV= 16105706297 MDiskM=      406659 NBas2p=       20117
 Fully direct method using O(ONN) memory.
 IMap=   1   2   3   4   5   6   7   8   9  10  11  12  13  14  15  16  17  18  19  20
 IMap=  21  22
 JobTyp=1 Pass  1:  I=  12 to  22 NPSUse= 28 ParTrn=T ParDer=T DoDerP=T.
 Spin components of T(2) and E(2):
     alpha-alpha T2 =       0.2940689513D-01 E2=     -0.8446098431D-01
     alpha-beta  T2 =       0.1597221331D+00 E2=     -0.4993223455D+00
     beta-beta   T2 =       0.2940689513D-01 E2=     -0.8446098431D-01
 The integrals were generated   1 times.
 ANorm=    0.1103873146D+01
 E2 =    -0.6682443141D+00 EUMP2 =    -0.99519212573550D+03
 Leave Link  906 at Fri Oct 22 07:11:06 2021, MaxMem= 16106127360 cpu:             290.1 elap:              10.4
 (Enter /sw/contrib/gaussian/g16/B01/g16/l1002.exe)
 Minotr:  Closed shell wavefunction.
          Computing MP2/KS-MP2 derivatives.
          Using Z-Vector for PSCF gradient.
          Skipping F1 and S1 gradient terms here.
          IDoAtm=1111
          Frozen-core window.
          Direct CPHF calculation.
          Differentiating once with respect to electric field.
                with respect to dipole field.
          Differentiating once with respect to nuclear coordinates.
          Using symmetry in CPHF.
          Requested convergence is 1.0D-10 RMS, and 1.0D-09 maximum.
          NewPWx=F KeepS1=T KeepF1=T KeepIn=T MapXYZ=F SortEE=F KeepMc=T.
 Keep R1 ints in memory in symmetry-blocked form, NReq=155450263.
 FoFCou: FMM=F IPFlag=           0 FMFlag=           0 FMFlg1=           0
         NFxFlg=           0 DoJE=F BraDBF=F KetDBF=F FulRan=T
         wScrn=  0.000000 ICntrl=       600 IOpCl=  0 I1Cent=           0 NGrid=           0
         NMat0=    1 NMatS0=  14365 NMatT0=    0 NMatD0=    1 NMtDS0=    0 NMtDT0=    0
 Petite list used in FoFCou.
          MDV=   16106127360 using IRadAn=       5.
          Solving linear equations separately, MaxMat=       0.
          There are     1 degrees of freedom in the 1st order CPHF.  IDoFFX=0 NUNeed=     1.
 LinEq1:  Iter=  0 NonCon=     1 RMS=3.10D-03 Max=4.66D-02 NDo=     1
 AX will form     1 AO Fock derivatives at one time.
 LinEq1:  Iter=  1 NonCon=     1 RMS=3.88D-04 Max=5.07D-03 NDo=     1
 LinEq1:  Iter=  2 NonCon=     1 RMS=1.62D-04 Max=3.35D-03 NDo=     1
 LinEq1:  Iter=  3 NonCon=     1 RMS=6.26D-05 Max=1.05D-03 NDo=     1
 LinEq1:  Iter=  4 NonCon=     1 RMS=2.64D-05 Max=6.73D-04 NDo=     1
 LinEq1:  Iter=  5 NonCon=     1 RMS=5.86D-06 Max=7.34D-05 NDo=     1
 LinEq1:  Iter=  6 NonCon=     1 RMS=1.53D-06 Max=1.75D-05 NDo=     1
 LinEq1:  Iter=  7 NonCon=     1 RMS=3.22D-07 Max=3.97D-06 NDo=     1
 LinEq1:  Iter=  8 NonCon=     1 RMS=5.47D-08 Max=6.98D-07 NDo=     1
 LinEq1:  Iter=  9 NonCon=     1 RMS=1.27D-08 Max=1.52D-07 NDo=     1
 LinEq1:  Iter= 10 NonCon=     1 RMS=3.33D-09 Max=4.87D-08 NDo=     1
 LinEq1:  Iter= 11 NonCon=     1 RMS=7.83D-10 Max=1.12D-08 NDo=     1
 LinEq1:  Iter= 12 NonCon=     1 RMS=1.72D-10 Max=3.51D-09 NDo=     1
 LinEq1:  Iter= 13 NonCon=     0 RMS=4.12D-11 Max=8.98D-10 NDo=     1
 Linear equations converged to 1.000D-10 1.000D-09 after    13 iterations.
 End of Minotr F.D. properties file   721 does not exist.
 End of Minotr F.D. properties file   722 does not exist.
 End of Minotr F.D. properties file   788 does not exist.
 Leave Link 1002 at Fri Oct 22 07:11:08 2021, MaxMem= 16106127360 cpu:              36.3 elap:               2.1
 (Enter /sw/contrib/gaussian/g16/B01/g16/l601.exe)
 Copying SCF densities to generalized density rwf, IOpCl= 0 IROHF=0.

 **********************************************************************

            Population analysis using the MP2 Density.

 **********************************************************************

 Orbital symmetries:
       Occupied  (A') (A') (A') (A') (A') (A') (A') (A") (A') (A")
                 (A') (A') (A') (A') (A') (A") (A') (A') (A") (A')
                 (A") (A')
       Virtual   (A') (A') (A') (A") (A') (A') (A") (A') (A') (A")
                 (A') (A') (A') (A') (A") (A') (A') (A") (A') (A")
                 (A') (A") (A') (A') (A') (A") (A') (A') (A") (A')
                 (A') (A") (A') (A') (A") (A') (A") (A') (A') (A')
                 (A") (A") (A') (A') (A") (A') (A') (A") (A') (A")
                 (A') (A') (A') (A") (A") (A') (A') (A") (A') (A")
                 (A') (A") (A') (A') (A') (A") (A') (A") (A') (A")
                 (A') (A') (A') (A") (A') (A') (A') (A") (A') (A')
                 (A") (A") (A') (A') (A') (A") (A') (A") (A') (A")
                 (A') (A") (A') (A') (A") (A') (A") (A') (A') (A")
                 (A") (A') (A') (A") (A') (A') (A") (A') (A") (A')
                 (A") (A') (A') (A") (A') (A') (A") (A') (A') (A')
                 (A') (A") (A") (A') (A") (A') (A') (A') (A') (A")
                 (A') (A') (A') (A') (A") (A') (A") (A') (A") (A')
                 (A") (A') (A") (A') (A') (A') (A')
 The electronic state is 1-A'.
 Alpha  occ. eigenvalues -- -104.72204-104.54993 -20.44821 -10.44158 -10.27484
 Alpha  occ. eigenvalues --   -7.90874  -7.90616  -7.90607  -7.74101  -7.74083
 Alpha  occ. eigenvalues --   -7.74082  -1.21497  -0.88528  -0.79005  -0.52672
 Alpha  occ. eigenvalues --   -0.43110  -0.42308  -0.29979  -0.27057  -0.20595
 Alpha  occ. eigenvalues --   -0.19782  -0.19778
 Alpha virt. eigenvalues --    0.16128   0.18669   0.22582   0.23557   0.25819
 Alpha virt. eigenvalues --    0.27266   0.27486   0.29641   0.31077   0.32744
 Alpha virt. eigenvalues --    0.33745   0.35026   0.38581   0.45309   0.46288
 Alpha virt. eigenvalues --    0.51599   0.52521   0.53870   0.56527   0.56893
 Alpha virt. eigenvalues --    0.58587   0.60027   0.60589   0.65226   0.66083
 Alpha virt. eigenvalues --    0.68408   0.68536   0.75315   0.78522   0.78987
 Alpha virt. eigenvalues --    0.83067   0.87505   0.88417   0.90032   0.91088
 Alpha virt. eigenvalues --    0.92276   0.96713   1.00846   1.04893   1.05747
 Alpha virt. eigenvalues --    1.06369   1.08965   1.09415   1.10277   1.14232
 Alpha virt. eigenvalues --    1.15039   1.17087   1.18581   1.18823   1.21512
 Alpha virt. eigenvalues --    1.22867   1.24606   1.29565   1.32554   1.33074
 Alpha virt. eigenvalues --    1.37705   1.40877   1.42546   1.42948   1.47654
 Alpha virt. eigenvalues --    1.48530   1.50176   1.54398   1.61901   1.65749
 Alpha virt. eigenvalues --    1.67608   1.68678   1.72645   1.74566   1.79763
 Alpha virt. eigenvalues --    1.80847   1.84346   1.86444   1.91490   1.94481
 Alpha virt. eigenvalues --    2.01018   2.29646   2.39647   2.50947   2.51923
 Alpha virt. eigenvalues --    2.53901   2.59742   2.60286   2.62704   2.66934
 Alpha virt. eigenvalues --    2.69044   2.71321   2.72649   2.74043   2.77399
 Alpha virt. eigenvalues --    2.78127   2.80167   2.80212   2.82217   2.89347
 Alpha virt. eigenvalues --    2.92071   2.99266   2.99307   3.04484   3.09602
 Alpha virt. eigenvalues --    3.15218   3.16477   3.20496   3.22630   3.24320
 Alpha virt. eigenvalues --    3.28556   3.30594   3.32457   3.33850   3.34082
 Alpha virt. eigenvalues --    3.39970   3.40573   3.41726   3.47395   3.51333
 Alpha virt. eigenvalues --    3.54491   3.56414   3.59737   3.70574   3.95724
 Alpha virt. eigenvalues --    4.26423   4.31296   4.47260   4.54785   4.59851
 Alpha virt. eigenvalues --    4.79572   4.99273   5.17498   5.37541   5.37962
 Alpha virt. eigenvalues --    5.66076   6.39210   6.58980   6.69462   6.86611
 Alpha virt. eigenvalues --    6.91228   6.92793   7.01990   7.26423   7.31846
 Alpha virt. eigenvalues --    7.35594   7.45997   7.57683   7.77499   7.84714
 Alpha virt. eigenvalues --    8.37810  14.44338
          Condensed to atoms (all electrons):
               1          2          3          4
     1  O    8.658532  -0.121592  -0.097478   0.060514
     2  Cl  -0.121592  17.082805   0.003606  -0.002395
     3  Cl  -0.097478   0.003606  17.856025   0.067367
     4  H    0.060514  -0.002395   0.067367   0.582594
 Mulliken charges:
               1
     1  O   -0.499976
     2  Cl   0.037576
     3  Cl  -0.829520
     4  H    0.291920
 Sum of Mulliken charges =  -1.00000
 Mulliken charges with hydrogens summed into heavy atoms:
               1
     1  O   -0.208056
     2  Cl   0.037576
     3  Cl  -0.829520
 Electronic spatial extent (au):  <R**2>=            560.4143
 Charge=             -1.0000 electrons
 Dipole moment (field-independent basis, Debye):
    X=             -4.5889    Y=             -2.4046    Z=              0.0000  Tot=              5.1807
 Quadrupole moment (field-independent basis, Debye-Ang):
   XX=            -53.5325   YY=            -38.2288   ZZ=            -36.6607
   XY=             -4.5626   XZ=              0.0000   YZ=              0.0000
 Traceless Quadrupole moment (field-independent basis, Debye-Ang):
   XX=            -10.7251   YY=              4.5785   ZZ=              6.1466
   XY=             -4.5626   XZ=              0.0000   YZ=              0.0000
 Octapole moment (field-independent basis, Debye-Ang**2):
  XXX=            -36.8257  YYY=             -8.7401  ZZZ=              0.0000  XYY=             -9.1638
  XXY=            -11.3280  XXZ=              0.0000  XZZ=             -5.3728  YZZ=             -1.3949
  YYZ=              0.0000  XYZ=              0.0000
 Hexadecapole moment (field-independent basis, Debye-Ang**3):
 XXXX=           -636.6990 YYYY=           -183.3023 ZZZZ=            -49.5848 XXXY=           -125.9569
 XXXZ=              0.0000 YYYX=           -104.8391 YYYZ=              0.0000 ZZZX=              0.0000
 ZZZY=              0.0000 XXYY=           -136.7031 XXZZ=           -107.6078 YYZZ=            -41.6414
 XXYZ=              0.0000 YYXZ=              0.0000 ZZXY=            -36.8507
 N-N= 1.221428414662D+02 E-N=-2.622104558587D+03  KE= 9.950214933994D+02
 Symmetry A'   KE= 8.990270734054D+02
 Symmetry A"   KE= 9.599441999395D+01
 No NMR shielding tensors so no spin-rotation constants.
 Leave Link  601 at Fri Oct 22 07:11:08 2021, MaxMem= 16106127360 cpu:               4.5 elap:               0.2
 (Enter /sw/contrib/gaussian/g16/B01/g16/l701.exe)
 ... and contract with generalized density number  2.
 Compute integral first derivatives.
 Leave Link  701 at Fri Oct 22 07:11:09 2021, MaxMem= 16106127360 cpu:               7.1 elap:               0.3
 (Enter /sw/contrib/gaussian/g16/B01/g16/l702.exe)
 L702 exits ... SP integral derivatives will be done elsewhere.
 Leave Link  702 at Fri Oct 22 07:11:09 2021, MaxMem= 16106127360 cpu:               0.5 elap:               0.0
 (Enter /sw/contrib/gaussian/g16/B01/g16/l703.exe)
 Integral derivatives from FoFJK, PRISM(SPDF).
 Compute integral first derivatives, UseDBF=F ICtDFT=           0.
 Calling FoFJK, ICntrl=  10002127 FMM=F ISym2X=1 I1Cent= 0 IOpClX= 0 NMat=1 NMatS=1 NMatT=0.
 FoFJK:  IHMeth= 1 ICntrl=10002127 DoSepK=F KAlg= 0 I1Cent=           0 FoldK=F
 IRaf=         0 NMat=       1 IRICut=       1 DoRegI=T DoRafI=F ISym2E= 1 IDoP0=0 IntGTp=1.
 FoFCou: FMM=F IPFlag=           0 FMFlag=      100000 FMFlg1=         800
         NFxFlg=           0 DoJE=F BraDBF=F KetDBF=F FulRan=T
         wScrn=  0.000000 ICntrl=  10002127 IOpCl=  0 I1Cent=           0 NGrid=           0
         NMat0=    1 NMatS0=      1 NMatT0=    0 NMatD0=    1 NMtDS0=    0 NMtDT0=    0
 Petite list used in FoFCou.
 Leave Link  703 at Fri Oct 22 07:11:10 2021, MaxMem= 16106127360 cpu:              40.5 elap:               1.5
 (Enter /sw/contrib/gaussian/g16/B01/g16/l716.exe)
 Dipole        =-1.80540848D+00-9.46025891D-01 1.40156570D-33
 ***** Axes restored to original set *****
 -------------------------------------------------------------------
 Center     Atomic                   Forces (Hartrees/Bohr)
 Number     Number              X              Y              Z
 -------------------------------------------------------------------
      1        8          -0.001152328    0.000291982   -0.000000000
      2       17           0.000010631    0.000042863    0.000000000
      3       17          -0.000685125    0.000101372   -0.000000000
      4        1           0.001826821   -0.000436217    0.000000000
 -------------------------------------------------------------------
 Cartesian Forces:  Max     0.001826821 RMS     0.000672204
 -----------------------------------------------------------------------------------------------
                       Internal Coordinate Forces (Hartree/Bohr or radian)
  Cent   Atom   N1       Length/X         N2         Alpha/Y        N3         Beta/Z          J
 -----------------------------------------------------------------------------------------------
      1  O 
         X        1   0.000000(     1)
      2  Cl       1   0.000011(     2)      2  -0.000000(     5)
      3  Cl       1   0.000062(     3)      2   0.000000(     6)      3   0.003786(     8)     0
      4  H        1  -0.000003(     4)      2  -0.000000(     7)      3  -0.003650(     9)     0
 -----------------------------------------------------------------------------------------------
 Internal  Forces:  Max     0.003786489 RMS     0.001753247
 Force constants in Cartesian coordinates: 
                1             2             3             4             5 
      1  0.470155D+00
      2  0.495338D-01  0.496014D+00
      3  0.000000D+00  0.000000D+00  0.176810D-01
      4 -0.380493D+00  0.000000D+00  0.000000D+00  0.380493D+00
      5  0.390966D-01 -0.499539D-01  0.000000D+00  0.000000D+00  0.405459D-01
      6  0.000000D+00  0.000000D+00  0.000000D+00  0.000000D+00  0.000000D+00
      7 -0.205651D-03  0.729113D-02  0.000000D+00  0.000000D+00 -0.139252D-01
      8 -0.663408D-02 -0.295292D-01  0.000000D+00  0.000000D+00  0.335090D-02
      9  0.000000D+00  0.000000D+00  0.969146D-02  0.000000D+00  0.000000D+00
     10 -0.894566D-01 -0.568249D-01  0.000000D+00  0.000000D+00 -0.251713D-01
     11 -0.819963D-01 -0.416531D+00  0.000000D+00  0.000000D+00  0.605712D-02
     12  0.000000D+00  0.000000D+00 -0.273725D-01  0.000000D+00  0.000000D+00
                6             7             8             9            10 
      6  0.100000D+01
      7  0.000000D+00  0.143833D-01
      8  0.000000D+00  0.322243D-02  0.269992D-01
      9  0.000000D+00  0.000000D+00  0.000000D+00  0.531216D-02
     10  0.000000D+00 -0.141777D-01  0.341165D-02  0.000000D+00  0.103634D+00
     11  0.000000D+00  0.341165D-02 -0.820964D-03  0.000000D+00  0.785846D-01
     12  0.000000D+00  0.000000D+00  0.000000D+00 -0.150036D-01  0.000000D+00
               11            12 
     11  0.411295D+00
     12  0.000000D+00  0.423761D-01
 Force constants in internal coordinates: 
                1             2             3             4             5 
      1  0.000000D+00
      2  0.000000D+00  0.380493D+00
      3  0.000000D+00  0.000000D+00  0.277747D-01
      4  0.000000D+00  0.000000D+00  0.000000D+00  0.430205D+00
      5  0.000000D+00  0.000000D+00  0.000000D+00  0.000000D+00  0.101120D+02
      6  0.000000D+00  0.000000D+00  0.000000D+00  0.000000D+00  0.000000D+00
      7  0.000000D+00  0.000000D+00  0.000000D+00  0.000000D+00  0.000000D+00
      8  0.000000D+00  0.000000D+00  0.000000D+00  0.000000D+00  0.000000D+00
      9  0.000000D+00  0.000000D+00  0.000000D+00  0.000000D+00  0.000000D+00
                6             7             8             9 
      6  0.160053D+00
      7 -0.160053D+00  0.160053D+00
      8  0.000000D+00  0.000000D+00  0.410000D+00
      9  0.000000D+00  0.000000D+00 -0.160000D+00  0.320000D+00
 Leave Link  716 at Fri Oct 22 07:11:10 2021, MaxMem= 16106127360 cpu:               2.1 elap:               0.1
 (Enter /sw/contrib/gaussian/g16/B01/g16/l103.exe)

 GradGradGradGradGradGradGradGradGradGradGradGradGradGradGradGradGradGrad
 Berny optimization.
 Search for a local minimum.
 Step number   1 out of a maximum of   20
 All quantities printed in internal units (Hartrees-Bohrs-Radians)
 Second derivative matrix not updated -- first step.
 The second derivative matrix:
                          r1        r2        r3        a1        OOP
           r1           0.38049
           r2           0.00000   0.02777
           r3           0.00000   0.00000   0.43021
           a1          -0.00000   0.00000   0.00000   0.41000
           OOP         -0.00000   0.00000   0.00000   0.00000   0.16005
 ITU=  0
     Eigenvalues ---    0.02777   0.16005   0.38049   0.41000   0.43021
 RFO step:  Lambda=-1.82875734D-07 EMin= 2.77746501D-02
 Linear search not attempted -- first point.
 Variable       Old X    -DE/DX   Delta X   Delta X   Delta X     New X
                                 (Linear)    (Quad)   (Total)
    r1        3.17994   0.00001   0.00000   0.00003   0.00003   3.17996
    r2        5.48904   0.00006   0.00000   0.00222   0.00222   5.49126
    r3        1.94344  -0.00000   0.00000  -0.00001  -0.00001   1.94344
    a1        1.80694   0.00014   0.00000   0.00033   0.00033   1.80727
   OOP        1.57080  -0.00000   0.00000  -0.00000   0.00000   1.57080
         Item               Value     Threshold  Converged?
 Maximum Force            0.000136     0.000450     YES
 RMS     Force            0.000067     0.000300     YES
 Maximum Displacement     0.002223     0.001800     NO 
 RMS     Displacement     0.001005     0.001200     YES
 Predicted change in Energy=-9.143787D-08
 Lowest energy point so far.  Saving SCF results.
 GradGradGradGradGradGradGradGradGradGradGradGradGradGradGradGradGradGrad

 Leave Link  103 at Fri Oct 22 07:11:10 2021, MaxMem= 16106127360 cpu:               0.5 elap:               0.0
 (Enter /sw/contrib/gaussian/g16/B01/g16/l202.exe)
 ---------------------------------------------------------------------------------------------------
                            Z-MATRIX (ANGSTROMS AND DEGREES)
   CD    Cent   Atom    N1       Length/X        N2       Alpha/Y        N3        Beta/Z          J
 ---------------------------------------------------------------------------------------------------
      1      1  O 
      2         X        1  10.000000(     1)
      3      2  Cl       1   1.682764(     2)      2   90.000(     5)
      4      3  Cl       1   2.905852(     3)      2   90.000(     6)      3  103.549(     8)      0
      5      4  H        1   1.028422(     4)      2   90.000(     7)      3  103.549(     9)      0
 ---------------------------------------------------------------------------------------------------
                         Z-Matrix orientation:                         
 ---------------------------------------------------------------------
 Center     Atomic      Atomic             Coordinates (Angstroms)
 Number     Number       Type             X           Y           Z
 ---------------------------------------------------------------------
      1          8           0        0.000000    0.000000    0.000000
      2         -1           0        0.000000    0.000000   10.000000
      3         17           0        1.682764    0.000000    0.000000
      4         17           0       -0.680784   -2.824980    0.000000
      5          1           0       -0.240939   -0.999800    0.000000
 ---------------------------------------------------------------------
                    Distance matrix (angstroms):
                    1          2          3          4          5
     1  O    0.000000
     2  X   10.000000   0.000000
     3  Cl   1.682764  10.140596   0.000000
     4  Cl   2.905852  10.413644   3.683323   0.000000
     5  H    1.028422  10.052743   2.168002   1.877431   0.000000
 Stoichiometry    Cl2HO(1-)
 Framework group  CS[SG(Cl2HO)]
 Deg. of freedom     5
 Full point group                 CS      NOp   2
 RotChk:  IX=0 Diff= 1.02D-03
 Largest Abelian subgroup         CS      NOp   2
 Largest concise Abelian subgroup C1      NOp   1
                         Standard orientation:                         
 ---------------------------------------------------------------------
 Center     Atomic      Atomic             Coordinates (Angstroms)
 Number     Number       Type             X           Y           Z
 ---------------------------------------------------------------------
      1          8           0       -1.028258    0.628517    0.000000
      2         17           0       -1.393246   -1.014187    0.000000
      3         17           0        1.877132    0.680364    0.000000
      4          1           0        0.000000    0.646866    0.000000
 ---------------------------------------------------------------------
 Rotational constants (GHZ):          23.7022006           2.0580019           1.8935865
 Leave Link  202 at Fri Oct 22 07:11:10 2021, MaxMem= 16106127360 cpu:               0.4 elap:               0.0
 (Enter /sw/contrib/gaussian/g16/B01/g16/l301.exe)
 Standard basis: Aug-CC-pVTZ (5D, 7F)
 Ernie: Thresh=  0.10000D-02 Tol=  0.10000D-05 Strict=F.
 Ernie:  29 primitive shells out of 169 were deleted.
 There are   135 symmetry adapted cartesian basis functions of A'  symmetry.
 There are    63 symmetry adapted cartesian basis functions of A"  symmetry.
 There are   112 symmetry adapted basis functions of A'  symmetry.
 There are    57 symmetry adapted basis functions of A"  symmetry.
   169 basis functions,   327 primitive gaussians,   198 cartesian basis functions
    22 alpha electrons       22 beta electrons
       nuclear repulsion energy       122.1120952145 Hartrees.
 IExCor=    0 DFT=F Ex=HF Corr=None ExCW=0 ScaHFX=  1.000000
 ScaDFX=  1.000000  1.000000  1.000000  1.000000 ScalE2=  1.000000  1.000000
 IRadAn=      5 IRanWt=     -1 IRanGd=            0 ICorTp=0 IEmpDi=  4
 NAtoms=    4 NActive=    4 NUniq=    4 SFac= 1.00D+00 NAtFMM=   60 NAOKFM=F Big=F
 Integral buffers will be    131072 words long.
 Raffenetti 1 integral format.
 Two-electron integral symmetry is turned on.
 Leave Link  301 at Fri Oct 22 07:11:10 2021, MaxMem= 16106127360 cpu:               2.4 elap:               0.1
 (Enter /sw/contrib/gaussian/g16/B01/g16/l302.exe)
 NPDir=0 NMtPBC=     1 NCelOv=     1 NCel=       1 NClECP=     1 NCelD=      1
         NCelK=      1 NCelE2=     1 NClLst=     1 CellRange=     0.0.
 One-electron integrals computed using PRISM.
 One-electron integral symmetry used in STVInt
 NBasis=   169 RedAO= T EigKep=  2.39D-04  NBF=   112    57
 NBsUse=   169 1.00D-06 EigRej= -1.00D+00 NBFU=   112    57
 Leave Link  302 at Fri Oct 22 07:11:11 2021, MaxMem= 16106127360 cpu:               4.4 elap:               0.2
 (Enter /sw/contrib/gaussian/g16/B01/g16/l303.exe)
 DipDrv:  MaxL=1.
 Leave Link  303 at Fri Oct 22 07:11:11 2021, MaxMem= 16106127360 cpu:               0.9 elap:               0.1
 (Enter /sw/contrib/gaussian/g16/B01/g16/l401.exe)
 Initial guess from the checkpoint file:  "/gscratch/ilahie/mccoygrp/coire_hocl/oop_s_rOH_opt/clhocl/clhocl_oop_s.chk"
 B after Tr=     0.000000   -0.000000   -0.000000
         Rot=    1.000000   -0.000000    0.000000    0.000290 Ang=   0.03 deg.
 Guess basis will be translated and rotated to current coordinates.
 JPrj=2 DoOrth=T DoCkMO=T.
 Initial guess orbital symmetries:
       Occupied  (A') (A') (A') (A') (A') (A') (A') (A") (A') (A")
                 (A') (A') (A') (A') (A') (A") (A') (A') (A") (A')
                 (A") (A')
       Virtual   (A') (A') (A') (A") (A') (A') (A") (A') (A') (A")
                 (A') (A') (A') (A') (A") (A') (A') (A") (A') (A")
                 (A') (A") (A') (A') (A') (A") (A') (A') (A") (A')
                 (A') (A") (A') (A') (A") (A') (A") (A') (A') (A')
                 (A") (A") (A') (A') (A") (A') (A') (A") (A') (A")
                 (A') (A') (A') (A") (A") (A') (A') (A") (A') (A")
                 (A') (A") (A') (A') (A') (A") (A') (A") (A') (A")
                 (A') (A') (A') (A") (A') (A') (A') (A") (A') (A')
                 (A") (A") (A') (A') (A') (A") (A') (A") (A') (A")
                 (A') (A") (A') (A') (A") (A') (A") (A') (A') (A")
                 (A") (A') (A') (A") (A') (A') (A") (A') (A") (A')
                 (A") (A') (A') (A") (A') (A') (A") (A') (A') (A')
                 (A') (A") (A") (A') (A") (A') (A') (A') (A') (A")
                 (A') (A') (A') (A') (A") (A') (A") (A') (A") (A')
                 (A") (A') (A") (A') (A') (A') (A')
 The electronic state of the initial guess is 1-A'.
 Leave Link  401 at Fri Oct 22 07:11:11 2021, MaxMem= 16106127360 cpu:               2.7 elap:               0.1
 (Enter /sw/contrib/gaussian/g16/B01/g16/l502.exe)
 Keep R1 ints in memory in symmetry-blocked form, NReq=155449223.
 FoFCou: FMM=F IPFlag=           0 FMFlag=           0 FMFlg1=           0
         NFxFlg=           0 DoJE=F BraDBF=F KetDBF=F FulRan=T
         wScrn=  0.000000 ICntrl=       600 IOpCl=  0 I1Cent=           0 NGrid=           0
         NMat0=    1 NMatS0=  14365 NMatT0=    0 NMatD0=    1 NMtDS0=    0 NMtDT0=    0
 Petite list used in FoFCou.
 Closed shell SCF:
 Using DIIS extrapolation, IDIIS=  1040.
 NGot= 16106127360 LenX= 16053777278 LenY= 16053737633
 Requested convergence on RMS density matrix=1.00D-08 within 128 cycles.
 Requested convergence on MAX density matrix=1.00D-06.
 Requested convergence on             energy=1.00D-06.
 No special actions if energy rises.

 Cycle   1  Pass 1  IDiag  1:
 E= -994.523901097942    
 DIIS: error= 1.57D-05 at cycle   1 NSaved=   1.
 NSaved= 1 IEnMin= 1 EnMin= -994.523901097942     IErMin= 1 ErrMin= 1.57D-05
 ErrMax= 1.57D-05  0.00D+00 EMaxC= 1.00D-01 BMatC= 5.66D-08 BMatP= 5.66D-08
 IDIUse=1 WtCom= 1.00D+00 WtEn= 0.00D+00
 Coeff-Com:  0.100D+01
 Coeff:      0.100D+01
 Gap=     0.359 Goal=   None    Shift=    0.000
 RMSDP=2.40D-06 MaxDP=1.03D-04              OVMax= 1.04D-04

 Cycle   2  Pass 1  IDiag  1:
 E= -994.523901167834     Delta-E=       -0.000000069891 Rises=F Damp=F
 DIIS: error= 4.94D-06 at cycle   2 NSaved=   2.
 NSaved= 2 IEnMin= 2 EnMin= -994.523901167834     IErMin= 2 ErrMin= 4.94D-06
 ErrMax= 4.94D-06  0.00D+00 EMaxC= 1.00D-01 BMatC= 3.61D-09 BMatP= 5.66D-08
 IDIUse=1 WtCom= 1.00D+00 WtEn= 0.00D+00
 Coeff-Com: -0.972D-01 0.110D+01
 Coeff:     -0.972D-01 0.110D+01
 Gap=     0.359 Goal=   None    Shift=    0.000
 RMSDP=5.20D-07 MaxDP=2.50D-05 DE=-6.99D-08 OVMax= 3.58D-05

 Cycle   3  Pass 1  IDiag  1:
 E= -994.523901174515     Delta-E=       -0.000000006681 Rises=F Damp=F
 DIIS: error= 2.24D-06 at cycle   3 NSaved=   3.
 NSaved= 3 IEnMin= 3 EnMin= -994.523901174515     IErMin= 3 ErrMin= 2.24D-06
 ErrMax= 2.24D-06  0.00D+00 EMaxC= 1.00D-01 BMatC= 8.60D-10 BMatP= 3.61D-09
 IDIUse=1 WtCom= 1.00D+00 WtEn= 0.00D+00
 Coeff-Com: -0.702D-01 0.289D+00 0.781D+00
 Coeff:     -0.702D-01 0.289D+00 0.781D+00
 Gap=     0.359 Goal=   None    Shift=    0.000
 RMSDP=1.58D-07 MaxDP=3.92D-06 DE=-6.68D-09 OVMax= 1.39D-05

 Cycle   4  Pass 1  IDiag  1:
 E= -994.523901175774     Delta-E=       -0.000000001259 Rises=F Damp=F
 DIIS: error= 1.12D-06 at cycle   4 NSaved=   4.
 NSaved= 4 IEnMin= 4 EnMin= -994.523901175774     IErMin= 4 ErrMin= 1.12D-06
 ErrMax= 1.12D-06  0.00D+00 EMaxC= 1.00D-01 BMatC= 1.51D-10 BMatP= 8.60D-10
 IDIUse=1 WtCom= 1.00D+00 WtEn= 0.00D+00
 Coeff-Com:  0.105D-01-0.154D+00 0.811D-01 0.106D+01
 Coeff:      0.105D-01-0.154D+00 0.811D-01 0.106D+01
 Gap=     0.359 Goal=   None    Shift=    0.000
 RMSDP=1.29D-07 MaxDP=3.03D-06 DE=-1.26D-09 OVMax= 1.17D-05

 Cycle   5  Pass 1  IDiag  1:
 E= -994.523901176194     Delta-E=       -0.000000000419 Rises=F Damp=F
 DIIS: error= 5.16D-07 at cycle   5 NSaved=   5.
 NSaved= 5 IEnMin= 5 EnMin= -994.523901176194     IErMin= 5 ErrMin= 5.16D-07
 ErrMax= 5.16D-07  0.00D+00 EMaxC= 1.00D-01 BMatC= 2.12D-11 BMatP= 1.51D-10
 IDIUse=1 WtCom= 1.00D+00 WtEn= 0.00D+00
 Coeff-Com:  0.116D-01-0.550D-01-0.124D+00 0.199D-01 0.115D+01
 Coeff:      0.116D-01-0.550D-01-0.124D+00 0.199D-01 0.115D+01
 Gap=     0.359 Goal=   None    Shift=    0.000
 RMSDP=6.70D-08 MaxDP=1.93D-06 DE=-4.19D-10 OVMax= 6.83D-06

 Cycle   6  Pass 1  IDiag  1:
 E= -994.523901176285     Delta-E=       -0.000000000092 Rises=F Damp=F
 DIIS: error= 1.93D-07 at cycle   6 NSaved=   6.
 NSaved= 6 IEnMin= 6 EnMin= -994.523901176285     IErMin= 6 ErrMin= 1.93D-07
 ErrMax= 1.93D-07  0.00D+00 EMaxC= 1.00D-01 BMatC= 2.56D-12 BMatP= 2.12D-11
 IDIUse=1 WtCom= 1.00D+00 WtEn= 0.00D+00
 Coeff-Com: -0.364D-02 0.334D-01 0.119D-01-0.170D+00-0.157D+00 0.129D+01
 Coeff:     -0.364D-02 0.334D-01 0.119D-01-0.170D+00-0.157D+00 0.129D+01
 Gap=     0.359 Goal=   None    Shift=    0.000
 RMSDP=2.77D-08 MaxDP=7.88D-07 DE=-9.19D-11 OVMax= 3.19D-06

 Cycle   7  Pass 1  IDiag  1:
 E= -994.523901176297     Delta-E=       -0.000000000011 Rises=F Damp=F
 DIIS: error= 6.38D-08 at cycle   7 NSaved=   7.
 NSaved= 7 IEnMin= 7 EnMin= -994.523901176297     IErMin= 7 ErrMin= 6.38D-08
 ErrMax= 6.38D-08  0.00D+00 EMaxC= 1.00D-01 BMatC= 3.09D-13 BMatP= 2.56D-12
 IDIUse=1 WtCom= 1.00D+00 WtEn= 0.00D+00
 Coeff-Com: -0.406D-03-0.846D-03 0.719D-02 0.303D-01-0.755D-01-0.269D+00
 Coeff-Com:  0.131D+01
 Coeff:     -0.406D-03-0.846D-03 0.719D-02 0.303D-01-0.755D-01-0.269D+00
 Coeff:      0.131D+01
 Gap=     0.359 Goal=   None    Shift=    0.000
 RMSDP=9.53D-09 MaxDP=2.22D-07 DE=-1.11D-11 OVMax= 1.01D-06

 SCF Done:  E(RHF) =  -994.523901176     A.U. after    7 cycles
            NFock=  7  Conv=0.95D-08     -V/T= 2.0002
 KE= 9.943640576129D+02 PE=-2.621987979228D+03 EE= 5.109879252244D+02
 Leave Link  502 at Fri Oct 22 07:11:13 2021, MaxMem= 16106127360 cpu:              62.8 elap:               2.7
 (Enter /sw/contrib/gaussian/g16/B01/g16/l801.exe)
 ExpMin= 2.53D-02 ExpMax= 4.56D+05 ExpMxC= 1.44D+03 IAcc=3 IRadAn=         5 AccDes= 0.00D+00
 HarFok:  IExCor=  205 AccDes= 0.00D+00 IRadAn=         5 IDoV=-2 UseB2=F ITyADJ=14
 ICtDFT= 12500011 ScaDFX=  1.000000  1.000000  1.000000  1.000000
 Largest valence mixing into a core orbital is  4.47D-04
 Largest core mixing into a valence orbital is  1.72D-04
 Range of M.O.s used for correlation:    12   169
 NBasis=   169 NAE=    22 NBE=    22 NFC=    11 NFV=     0
 NROrb=    158 NOA=    11 NOB=    11 NVA=   147 NVB=   147

 **** Warning!!: The largest alpha MO coefficient is  0.20671527D+02

 Leave Link  801 at Fri Oct 22 07:11:14 2021, MaxMem= 16106127360 cpu:               2.4 elap:               0.1
 (Enter /sw/contrib/gaussian/g16/B01/g16/l906.exe)
 Frozen-core derivative calculation, NFC=  11 NFV=   0.
 FulOut=F Deriv=T AODrv=T NAtomX=     4
   MMem=         143  MDisk=          11 MDiskD=          11
  W3Min=      736164 MinDsk=     1250177 NBas6D=         198
 NBas2D=       20187    NTT=       19701    LW2=     3500000
    MDV= 16105706297 MDiskM=      406659 NBas2p=       20117
 Fully direct method using O(ONN) memory.
 IMap=   1   2   3   4   5   6   7   8   9  10  11  12  13  14  15  16  17  18  19  20
 IMap=  21  22
 JobTyp=1 Pass  1:  I=  12 to  22 NPSUse= 28 ParTrn=T ParDer=T DoDerP=T.
 Spin components of T(2) and E(2):
     alpha-alpha T2 =       0.2940540785D-01 E2=     -0.8445584787D-01
     alpha-beta  T2 =       0.1597226112D+00 E2=     -0.4993129443D+00
     beta-beta   T2 =       0.2940540785D-01 E2=     -0.8445584787D-01
 The integrals were generated   1 times.
 ANorm=    0.1103872016D+01
 E2 =    -0.6682246401D+00 EUMP2 =    -0.99519212581637D+03
 Leave Link  906 at Fri Oct 22 07:11:24 2021, MaxMem= 16106127360 cpu:             294.9 elap:              10.6
 (Enter /sw/contrib/gaussian/g16/B01/g16/l1002.exe)
 Minotr:  Closed shell wavefunction.
          Computing MP2/KS-MP2 derivatives.
          Using Z-Vector for PSCF gradient.
          Skipping F1 and S1 gradient terms here.
          IDoAtm=1111
          Frozen-core window.
          Direct CPHF calculation.
          Differentiating once with respect to electric field.
                with respect to dipole field.
          Differentiating once with respect to nuclear coordinates.
          Using symmetry in CPHF.
          Requested convergence is 1.0D-10 RMS, and 1.0D-09 maximum.
          NewPWx=F KeepS1=T KeepF1=T KeepIn=T MapXYZ=F SortEE=F KeepMc=T.
 Keep R1 ints in memory in symmetry-blocked form, NReq=155450263.
 FoFCou: FMM=F IPFlag=           0 FMFlag=           0 FMFlg1=           0
         NFxFlg=           0 DoJE=F BraDBF=F KetDBF=F FulRan=T
         wScrn=  0.000000 ICntrl=       600 IOpCl=  0 I1Cent=           0 NGrid=           0
         NMat0=    1 NMatS0=  14365 NMatT0=    0 NMatD0=    1 NMtDS0=    0 NMtDT0=    0
 Petite list used in FoFCou.
          MDV=   16106127360 using IRadAn=       5.
          Solving linear equations separately, MaxMat=       0.
          There are     1 degrees of freedom in the 1st order CPHF.  IDoFFX=0 NUNeed=     1.
 LinEq1:  Iter=  0 NonCon=     1 RMS=3.10D-03 Max=4.66D-02 NDo=     1
 AX will form     1 AO Fock derivatives at one time.
 LinEq1:  Iter=  1 NonCon=     1 RMS=3.88D-04 Max=5.07D-03 NDo=     1
 LinEq1:  Iter=  2 NonCon=     1 RMS=1.62D-04 Max=3.35D-03 NDo=     1
 LinEq1:  Iter=  3 NonCon=     1 RMS=6.26D-05 Max=1.05D-03 NDo=     1
 LinEq1:  Iter=  4 NonCon=     1 RMS=2.64D-05 Max=6.73D-04 NDo=     1
 LinEq1:  Iter=  5 NonCon=     1 RMS=5.86D-06 Max=7.34D-05 NDo=     1
 LinEq1:  Iter=  6 NonCon=     1 RMS=1.53D-06 Max=1.75D-05 NDo=     1
 LinEq1:  Iter=  7 NonCon=     1 RMS=3.22D-07 Max=3.98D-06 NDo=     1
 LinEq1:  Iter=  8 NonCon=     1 RMS=5.47D-08 Max=6.93D-07 NDo=     1
 LinEq1:  Iter=  9 NonCon=     1 RMS=1.27D-08 Max=1.52D-07 NDo=     1
 LinEq1:  Iter= 10 NonCon=     1 RMS=3.34D-09 Max=4.89D-08 NDo=     1
 LinEq1:  Iter= 11 NonCon=     1 RMS=7.96D-10 Max=1.24D-08 NDo=     1
 LinEq1:  Iter= 12 NonCon=     1 RMS=1.78D-10 Max=3.80D-09 NDo=     1
 LinEq1:  Iter= 13 NonCon=     0 RMS=4.31D-11 Max=9.00D-10 NDo=     1
 Linear equations converged to 1.000D-10 1.000D-09 after    13 iterations.
 End of Minotr F.D. properties file   721 does not exist.
 End of Minotr F.D. properties file   722 does not exist.
 End of Minotr F.D. properties file   788 does not exist.
 Leave Link 1002 at Fri Oct 22 07:11:26 2021, MaxMem= 16106127360 cpu:              33.4 elap:               2.0
 (Enter /sw/contrib/gaussian/g16/B01/g16/l701.exe)
 ... and contract with generalized density number  2.
 Compute integral first derivatives.
 Leave Link  701 at Fri Oct 22 07:11:26 2021, MaxMem= 16106127360 cpu:               5.2 elap:               0.2
 (Enter /sw/contrib/gaussian/g16/B01/g16/l702.exe)
 L702 exits ... SP integral derivatives will be done elsewhere.
 Leave Link  702 at Fri Oct 22 07:11:27 2021, MaxMem= 16106127360 cpu:               1.3 elap:               0.1
 (Enter /sw/contrib/gaussian/g16/B01/g16/l703.exe)
 Integral derivatives from FoFJK, PRISM(SPDF).
 Compute integral first derivatives, UseDBF=F ICtDFT=           0.
 Calling FoFJK, ICntrl=  10002127 FMM=F ISym2X=1 I1Cent= 0 IOpClX= 0 NMat=1 NMatS=1 NMatT=0.
 FoFJK:  IHMeth= 1 ICntrl=10002127 DoSepK=F KAlg= 0 I1Cent=           0 FoldK=F
 IRaf=         0 NMat=       1 IRICut=       1 DoRegI=T DoRafI=F ISym2E= 1 IDoP0=0 IntGTp=1.
 FoFCou: FMM=F IPFlag=           0 FMFlag=      100000 FMFlg1=         800
         NFxFlg=           0 DoJE=F BraDBF=F KetDBF=F FulRan=T
         wScrn=  0.000000 ICntrl=  10002127 IOpCl=  0 I1Cent=           0 NGrid=           0
         NMat0=    1 NMatS0=      1 NMatT0=    0 NMatD0=    1 NMtDS0=    0 NMtDT0=    0
 Petite list used in FoFCou.
 Leave Link  703 at Fri Oct 22 07:11:28 2021, MaxMem= 16106127360 cpu:              40.6 elap:               1.5
 (Enter /sw/contrib/gaussian/g16/B01/g16/l716.exe)
 Dipole        =-1.80813836D+00-9.45666350D-01-7.07714189D-33
 ***** Axes restored to original set *****
 -------------------------------------------------------------------
 Center     Atomic                   Forces (Hartrees/Bohr)
 Number     Number              X              Y              Z
 -------------------------------------------------------------------
      1        8          -0.001194293    0.000212425   -0.000000000
      2       17          -0.000006299    0.000020729    0.000000000
      3       17          -0.000664030    0.000180505   -0.000000000
      4        1           0.001864622   -0.000413660    0.000000000
 -------------------------------------------------------------------
 Cartesian Forces:  Max     0.001864622 RMS     0.000682726
 -----------------------------------------------------------------------------------------------
                       Internal Coordinate Forces (Hartree/Bohr or radian)
  Cent   Atom   N1       Length/X         N2         Alpha/Y        N3         Beta/Z          J
 -----------------------------------------------------------------------------------------------
      1  O 
         X        1   0.000000(     1)
      2  Cl       1  -0.000006(     2)      2  -0.000000(     5)
      3  Cl       1  -0.000020(     3)      2   0.000000(     6)      3   0.003777(     8)     0
      4  H        1  -0.000035(     4)      2  -0.000000(     7)      3  -0.003711(     9)     0
 -----------------------------------------------------------------------------------------------
 Internal  Forces:  Max     0.003777102 RMS     0.001765144
 Leave Link  716 at Fri Oct 22 07:11:28 2021, MaxMem= 16106127360 cpu:               1.2 elap:               0.1
 (Enter /sw/contrib/gaussian/g16/B01/g16/l103.exe)

 GradGradGradGradGradGradGradGradGradGradGradGradGradGradGradGradGradGrad
 Berny optimization.
 Search for a local minimum.
 Step number   2 out of a maximum of   20
 All quantities printed in internal units (Hartrees-Bohrs-Radians)
 Update second derivatives using D2CorN and points    1    2
 DE= -8.09D-08 DEPred=-9.14D-08 R= 8.85D-01
 Trust test= 8.85D-01 RLast= 2.25D-03 DXMaxT set to 3.00D-01
 The second derivative matrix:
                          r1        r2        r3        a1        OOP
           r1           0.38053
           r2           0.00144   0.03654
           r3           0.00009   0.00762   0.43015
           a1           0.00003  -0.01383   0.00119   0.40566
           OOP          0.00000   0.00000   0.00000   0.00000   0.16005
 ITU=  0  0
     Eigenvalues ---    0.03586   0.16005   0.38053   0.40615   0.43034
 RFO step:  Lambda=-1.74110556D-08 EMin= 3.58641139D-02
 Quartic linear search produced a step of -0.10694.
 Variable       Old X    -DE/DX   Delta X   Delta X   Delta X     New X
                                 (Linear)    (Quad)   (Total)
    r1        3.17996  -0.00001  -0.00000  -0.00001  -0.00001   3.17995
    r2        5.49126  -0.00002  -0.00024  -0.00022  -0.00046   5.49081
    r3        1.94344  -0.00003   0.00000  -0.00007  -0.00007   1.94337
    a1        1.80727   0.00007  -0.00004   0.00017   0.00014   1.80741
   OOP        1.57080  -0.00000   0.00000  -0.00000   0.00000   1.57080
         Item               Value     Threshold  Converged?
 Maximum Force            0.000066     0.000450     YES
 RMS     Force            0.000035     0.000300     YES
 Maximum Displacement     0.000459     0.001800     YES
 RMS     Displacement     0.000217     0.001200     YES
 Predicted change in Energy=-1.081956D-08
 Optimization completed.
    -- Stationary point found.
                       ----------------------------
                       !   Optimized Parameters   !
                       ! (Angstroms and Degrees)  !
 ----------------------                            ----------------------
 !      Name          Value   Derivative information (Atomic Units)     !
 ------------------------------------------------------------------------
 !       r1          1.6828   -DE/DX =    0.0                           !
 !       r2          2.9059   -DE/DX =    0.0                           !
 !       r3          1.0284   -DE/DX =    0.0                           !
 !       a1        103.5492   -DE/DX =    0.0001                        !
 !       OOP        90.0      -DE/DX =    0.0                           !
 ------------------------------------------------------------------------
 Lowest energy point so far.  Saving SCF results.
 Largest change from initial coordinates is atom    3       0.000 Angstoms.
 GradGradGradGradGradGradGradGradGradGradGradGradGradGradGradGradGradGrad

 Leave Link  103 at Fri Oct 22 07:11:28 2021, MaxMem= 16106127360 cpu:               0.5 elap:               0.0
 (Enter /sw/contrib/gaussian/g16/B01/g16/l202.exe)
 ---------------------------------------------------------------------------------------------------
                            Z-MATRIX (ANGSTROMS AND DEGREES)
   CD    Cent   Atom    N1       Length/X        N2       Alpha/Y        N3        Beta/Z          J
 ---------------------------------------------------------------------------------------------------
      1      1  O 
      2         X        1  10.000000(     1)
      3      2  Cl       1   1.682764(     2)      2   90.000(     5)
      4      3  Cl       1   2.905852(     3)      2   90.000(     6)      3  103.549(     8)      0
      5      4  H        1   1.028422(     4)      2   90.000(     7)      3  103.549(     9)      0
 ---------------------------------------------------------------------------------------------------
                         Z-Matrix orientation:                         
 ---------------------------------------------------------------------
 Center     Atomic      Atomic             Coordinates (Angstroms)
 Number     Number       Type             X           Y           Z
 ---------------------------------------------------------------------
      1          8           0        0.000000    0.000000    0.000000
      2         -1           0        0.000000    0.000000   10.000000
      3         17           0        1.682764    0.000000    0.000000
      4         17           0       -0.680784   -2.824980    0.000000
      5          1           0       -0.240939   -0.999800    0.000000
 ---------------------------------------------------------------------
                    Distance matrix (angstroms):
                    1          2          3          4          5
     1  O    0.000000
     2  X   10.000000   0.000000
     3  Cl   1.682764  10.140596   0.000000
     4  Cl   2.905852  10.413644   3.683323   0.000000
     5  H    1.028422  10.052743   2.168002   1.877431   0.000000
 Stoichiometry    Cl2HO(1-)
 Framework group  CS[SG(Cl2HO)]
 Deg. of freedom     5
 Full point group                 CS      NOp   2
 RotChk:  IX=0 Diff= 1.63D-16
 Largest Abelian subgroup         CS      NOp   2
 Largest concise Abelian subgroup C1      NOp   1
                         Standard orientation:                         
 ---------------------------------------------------------------------
 Center     Atomic      Atomic             Coordinates (Angstroms)
 Number     Number       Type             X           Y           Z
 ---------------------------------------------------------------------
      1          8           0       -1.028258    0.628517    0.000000
      2         17           0       -1.393246   -1.014187    0.000000
      3         17           0        1.877132    0.680364    0.000000
      4          1           0        0.000000    0.646866    0.000000
 ---------------------------------------------------------------------
 Rotational constants (GHZ):          23.7022006           2.0580019           1.8935865
 Leave Link  202 at Fri Oct 22 07:11:28 2021, MaxMem= 16106127360 cpu:               0.5 elap:               0.0
 (Enter /sw/contrib/gaussian/g16/B01/g16/l601.exe)
 Copying SCF densities to generalized density rwf, IOpCl= 0 IROHF=0.

 **********************************************************************

            Population analysis using the MP2 Density.

 **********************************************************************

 Orbital symmetries:
       Occupied  (A') (A') (A') (A') (A') (A') (A') (A") (A') (A")
                 (A') (A') (A') (A') (A') (A") (A') (A') (A") (A')
                 (A") (A')
       Virtual   (A') (A') (A') (A") (A') (A') (A") (A') (A') (A")
                 (A') (A') (A') (A') (A") (A') (A') (A") (A') (A")
                 (A') (A") (A') (A') (A') (A") (A') (A') (A") (A')
                 (A') (A") (A') (A') (A") (A') (A") (A') (A') (A')
                 (A") (A") (A') (A') (A") (A') (A') (A") (A') (A")
                 (A') (A') (A') (A") (A") (A') (A') (A") (A') (A")
                 (A') (A") (A') (A') (A') (A") (A') (A") (A') (A")
                 (A') (A') (A') (A") (A') (A') (A') (A") (A') (A')
                 (A") (A") (A') (A') (A') (A") (A') (A") (A') (A")
                 (A') (A") (A') (A') (A") (A') (A") (A') (A') (A")
                 (A") (A') (A') (A") (A') (A') (A") (A') (A") (A')
                 (A") (A') (A') (A") (A') (A') (A") (A') (A') (A')
                 (A') (A") (A") (A') (A") (A') (A') (A') (A') (A")
                 (A') (A') (A') (A') (A") (A') (A") (A') (A") (A')
                 (A") (A') (A") (A') (A') (A') (A')
 The electronic state is 1-A'.
 Alpha  occ. eigenvalues -- -104.72212-104.54991 -20.44832 -10.44165 -10.27481
 Alpha  occ. eigenvalues --   -7.90882  -7.90624  -7.90615  -7.74099  -7.74080
 Alpha  occ. eigenvalues --   -7.74080  -1.21503  -0.88536  -0.78999  -0.52678
 Alpha  occ. eigenvalues --   -0.43118  -0.42316  -0.29985  -0.27064  -0.20592
 Alpha  occ. eigenvalues --   -0.19778  -0.19774
 Alpha virt. eigenvalues --    0.16127   0.18667   0.22583   0.23554   0.25818
 Alpha virt. eigenvalues --    0.27266   0.27486   0.29636   0.31075   0.32743
 Alpha virt. eigenvalues --    0.33742   0.35024   0.38580   0.45305   0.46282
 Alpha virt. eigenvalues --    0.51589   0.52513   0.53869   0.56522   0.56887
 Alpha virt. eigenvalues --    0.58581   0.60020   0.60584   0.65225   0.66078
 Alpha virt. eigenvalues --    0.68408   0.68536   0.75309   0.78515   0.78978
 Alpha virt. eigenvalues --    0.83068   0.87510   0.88418   0.90030   0.91084
 Alpha virt. eigenvalues --    0.92268   0.96706   1.00830   1.04903   1.05737
 Alpha virt. eigenvalues --    1.06366   1.08961   1.09414   1.10274   1.14218
 Alpha virt. eigenvalues --    1.15025   1.17083   1.18583   1.18819   1.21509
 Alpha virt. eigenvalues --    1.22857   1.24586   1.29550   1.32543   1.33063
 Alpha virt. eigenvalues --    1.37688   1.40865   1.42547   1.42946   1.47617
 Alpha virt. eigenvalues --    1.48516   1.50159   1.54399   1.61868   1.65731
 Alpha virt. eigenvalues --    1.67600   1.68660   1.72622   1.74554   1.79757
 Alpha virt. eigenvalues --    1.80813   1.84306   1.86432   1.91464   1.94479
 Alpha virt. eigenvalues --    2.00995   2.29630   2.39634   2.50918   2.51910
 Alpha virt. eigenvalues --    2.53893   2.59722   2.60278   2.62688   2.66918
 Alpha virt. eigenvalues --    2.69036   2.71303   2.72643   2.74028   2.77391
 Alpha virt. eigenvalues --    2.78117   2.80163   2.80202   2.82209   2.89361
 Alpha virt. eigenvalues --    2.92072   2.99226   2.99297   3.04478   3.09593
 Alpha virt. eigenvalues --    3.15191   3.16441   3.20490   3.22620   3.24303
 Alpha virt. eigenvalues --    3.28554   3.30587   3.32455   3.33840   3.34069
 Alpha virt. eigenvalues --    3.39969   3.40584   3.41716   3.47410   3.51341
 Alpha virt. eigenvalues --    3.54471   3.56404   3.59701   3.70484   3.95696
 Alpha virt. eigenvalues --    4.26405   4.31287   4.47233   4.54780   4.59842
 Alpha virt. eigenvalues --    4.79554   4.99250   5.17471   5.37426   5.37934
 Alpha virt. eigenvalues --    5.66059   6.39133   6.58927   6.69418   6.86591
 Alpha virt. eigenvalues --    6.91213   6.92786   7.01971   7.26408   7.31836
 Alpha virt. eigenvalues --    7.35581   7.45969   7.57667   7.77459   7.84699
 Alpha virt. eigenvalues --    8.37762  14.44229
          Condensed to atoms (all electrons):
               1          2          3          4
     1  O    8.658251  -0.121557  -0.097283   0.060527
     2  Cl  -0.121557  17.082602   0.003631  -0.002369
     3  Cl  -0.097283   0.003631  17.856018   0.067437
     4  H    0.060527  -0.002369   0.067437   0.582358
 Mulliken charges:
               1
     1  O   -0.499937
     2  Cl   0.037693
     3  Cl  -0.829803
     4  H    0.292048
 Sum of Mulliken charges =  -1.00000
 Mulliken charges with hydrogens summed into heavy atoms:
               1
     1  O   -0.207890
     2  Cl   0.037693
     3  Cl  -0.829803
 Electronic spatial extent (au):  <R**2>=            560.7767
 Charge=             -1.0000 electrons
 Dipole moment (field-independent basis, Debye):
    X=             -4.5958    Y=             -2.4036    Z=             -0.0000  Tot=              5.1864
 Quadrupole moment (field-independent basis, Debye-Ang):
   XX=            -53.5527   YY=            -38.2252   ZZ=            -36.6616
   XY=             -4.5591   XZ=              0.0000   YZ=              0.0000
 Traceless Quadrupole moment (field-independent basis, Debye-Ang):
   XX=            -10.7395   YY=              4.5880   ZZ=              6.1515
   XY=             -4.5591   XZ=              0.0000   YZ=              0.0000
 Octapole moment (field-independent basis, Debye-Ang**2):
  XXX=            -36.8987  YYY=             -8.7341  ZZZ=             -0.0000  XYY=             -9.1699
  XXY=            -11.3347  XXZ=              0.0000  XZZ=             -5.3795  YZZ=             -1.3944
  YYZ=              0.0000  XYZ=              0.0000
 Hexadecapole moment (field-independent basis, Debye-Ang**3):
 XXXX=           -637.5486 YYYY=           -183.1286 ZZZZ=            -49.5885 XXXY=           -125.9490
 XXXZ=              0.0000 YYYX=           -104.8034 YYYZ=              0.0000 ZZZX=              0.0000
 ZZZY=              0.0000 XXYY=           -136.7746 XXZZ=           -107.7301 YYZZ=            -41.6107
 XXYZ=              0.0000 YYXZ=              0.0000 ZZXY=            -36.8445
 N-N= 1.221120952145D+02 E-N=-2.622041325342D+03  KE= 9.950209367559D+02
 Symmetry A'   KE= 8.990263917846D+02
 Symmetry A"   KE= 9.599454497131D+01
 No NMR shielding tensors so no spin-rotation constants.
 Leave Link  601 at Fri Oct 22 07:11:28 2021, MaxMem= 16106127360 cpu:               4.3 elap:               0.2
 (Enter /sw/contrib/gaussian/g16/B01/g16/l9999.exe)
 1\1\GINC-N2199\FOpt\RMP2-FC\Aug-CC-pVTZ\Cl2H1O1(1-)\CGAVINH\22-Oct-202
 1\1\\#p opt=(z-matrix) freq=anh mp2/aug-cc-pvtz density=current\\title
 \\-1,1\O\X,1,10.\Cl,1,r1,2,90.\Cl,1,r2,2,90.,3,a1,0\H,1,r3,2,OOP,3,a1,
 0\\r1=1.68276421\r2=2.90585223\r3=1.02842163\a1=103.54921216\OOP=90.\\
 Version=ES64L-G16RevB.01\State=1-A'\HF=-994.5239012\MP2=-995.1921258\R
 MSD=9.529e-09\RMSF=6.827e-04\Dipole=-1.8081384,-0.9456664,0.\Quadrupol
 e=-7.9845704,3.4110451,4.5735252,-3.3895583,0.,0.\PG=CS [SG(Cl2H1O1)]\
 \@


 THERE ARE PEOPLE SO ADDICTED TO EXAGERATING THEY
 CAN'T TELL THE TRUTH WITHOUT LYING. -- FORTUNE COOKIE
 Leave Link 9999 at Fri Oct 22 07:11:28 2021, MaxMem= 16106127360 cpu:               0.9 elap:               0.1
 Job cpu time:       0 days  0 hours 14 minutes 58.0 seconds.
 Elapsed time:       0 days  0 hours  0 minutes 35.9 seconds.
 File lengths (MBytes):  RWF=     19 Int=      0 D2E=      0 Chk=      8 Scr=      1
 Normal termination of Gaussian 16 at Fri Oct 22 07:11:28 2021.
 (Enter /sw/contrib/gaussian/g16/B01/g16/l1.exe)
 Link1:  Proceeding to internal job step number  2.
 ----------------------------------------------------------------------
 #P Geom=AllCheck Guess=TCheck SCRF=Check GenChk RMP2(FC)/Aug-CC-pVTZ F
 req
 ----------------------------------------------------------------------
 1/10=4,29=7,30=1,38=21,40=1,80=1/1,6,3;
 2/12=2,40=1/2;
 3/5=16,6=1,7=10,11=1,14=-4,25=1,30=1,70=2,71=2,116=1,140=1/1,2,3;
 4/5=101,69=2/1;
 5/5=2,38=6,98=1/2;
 8/6=3,8=1,10=1,19=11,30=-1/1;
 9/15=3,16=-3/6;
 11/6=1,8=1,15=11,17=12,24=-1,27=1,28=-2,29=300,32=6,42=3/1,2,10;
 10/6=2,21=1,60=-2/2;
 8/6=4,8=1,10=1,19=11,30=-1/11,4;
 10/5=1,20=4,60=-2/2;
 11/12=2,14=11,16=1,17=2,28=-2,42=3,76=2/2,10,12;
 6/7=2,8=2,9=2,10=2,22=-1/1;
 7/10=1,12=2,25=1,44=2,71=2/1,2,3,16;
 1/38=20,80=1/6(3);
 7/8=1,25=202,44=-1,71=1,92=10/16,17;
 1/10=4,30=1,38=20,80=1/3;
 99//99;
 3/5=16,6=1,7=10,11=1,14=-2,25=1,30=1,70=5,71=2,116=1,140=1/1,2,3;
 4/5=5,16=3,69=2/1;
 5/5=2,38=5,98=1/2;
 8/6=3,8=1,10=1,19=11,30=-1/1;
 9/15=3,16=-3/6;
 11/6=1,8=1,15=11,17=12,24=-1,27=1,28=-2,29=300,32=6,42=3/1,2,10;
 10/6=2,21=1,60=-2/2;
 8/6=4,8=1,10=1,19=11,30=-1/11,4;
 10/5=1,20=4,60=-2/2;
 11/12=2,14=11,16=1,17=2,28=-2,42=3,76=2/2,10,12;
 6/7=2,8=2,9=2,10=2,22=-1/1;
 7/7=1,10=1,12=2,25=1,44=2,71=1/1,2,3,16;
 1/38=20,80=1/6(-12);
 7/8=1,25=202,44=-1,71=1,92=10/16,17;
 1/10=4,30=1,38=20,80=1/3;
 99//99;
 Leave Link    1 at Fri Oct 22 07:11:29 2021, MaxMem= 16106127360 cpu:               0.7 elap:               0.0
 (Enter /sw/contrib/gaussian/g16/B01/g16/l101.exe)
 Structure from the checkpoint file:  "/gscratch/ilahie/mccoygrp/coire_hocl/oop_s_rOH_opt/clhocl/clhocl_oop_s.chk"
 -----
 title
 -----
 Charge = -1 Multiplicity = 1
 Z-Matrix found in chk file.
 O
 X,1,10.
 Cl,1,r1,2,90.
 Cl,1,r2,2,90.,3,a1,0
 H,1,r3,2,OOP,3,a1,0
      Variables:
 r1=1.68276421
 r2=2.90585223
 r3=1.02842163
 a1=103.54921216
 OOP=90.
 Recover connectivity data from disk.
 ITRead=  0  0  0  0
 MicOpt= -1 -1 -1 -1
 NAtoms=      4 NQM=        4 NQMF=       0 NMMI=      0 NMMIF=      0
                NMic=       0 NMicF=      0.
                    Isotopes and Nuclear Properties:
 (Nuclear quadrupole moments (NQMom) in fm**2, nuclear magnetic moments (NMagM)
  in nuclear magnetons)

  Atom         1           2           3           4
 IAtWgt=          16          35          35           1
 AtmWgt=  15.9949146  34.9688527  34.9688527   1.0078250
 NucSpn=           0           3           3           1
 AtZEff=   5.6000000  14.2400000  14.2400000   1.0000000
 NQMom=    0.0000000  -8.1650000  -8.1650000   0.0000000
 NMagM=    0.0000000   0.8218740   0.8218740   2.7928460
 AtZNuc=   8.0000000  17.0000000  17.0000000   1.0000000
 Leave Link  101 at Fri Oct 22 07:11:29 2021, MaxMem= 16106127360 cpu:               3.8 elap:               0.2
 (Enter /sw/contrib/gaussian/g16/B01/g16/l106.exe)
 Numerical evaluation of third derivatives.
 Nuclear step= 0.010000 Angstroms, electric field step= 0.000333 atomic units, NStep=1.
 Leave Link  106 at Fri Oct 22 07:11:29 2021, MaxMem= 16106127360 cpu:               0.2 elap:               0.0
 (Enter /sw/contrib/gaussian/g16/B01/g16/l103.exe)

 GradGradGradGradGradGradGradGradGradGradGradGradGradGradGradGradGradGrad
 Berny optimization.
 Initialization pass.
                       ----------------------------
                       !    Initial Parameters    !
                       ! (Angstroms and Degrees)  !
 ----------------------                            ----------------------
 !      Name          Value   Derivative information (Atomic Units)     !
[...]
      4(1)                   282.951    283.456     52.63083960     62.80473878
      5(1)                   104.941    105.868      8.35458822      7.85850541
      6(1)                   842.725    840.046     27.34981234     27.06748298

 Overtones
 ---------
   Mode(n)                  E(harm)   E(anharm)                      I(anharm)
      1(2)                  5413.391   4106.397                     21.80130266
      2(2)                  2895.319   2827.674                     86.83210061
      3(2)                  1561.303   1536.543                      0.19023484
      4(2)                   565.902    559.725                      0.77577849
      5(2)                   209.882    212.704                      0.05344577
      6(2)                  1685.449   1640.930                    140.36852914

 Combination Bands
 -----------------
   Mode(n)     Mode(n)      E(harm)   E(anharm)                      I(anharm)
      2(1)        1(1)      4154.355   3619.374                      0.19612439
      3(1)        1(1)      3487.347   3056.928                      1.15750440
      3(1)        2(1)      2228.311   2169.993                      8.48632871
      4(1)        1(1)      2989.646   2599.483                    118.69472201
      4(1)        2(1)      1730.610   1682.395                      4.79477851
      4(1)        3(1)      1063.602   1055.587                      0.02495873
      5(1)        1(1)      2811.637   2397.412                     38.83757256
      5(1)        2(1)      1552.601   1507.142                      7.25299942
      5(1)        3(1)       885.592    876.760                      0.05261859
      5(1)        4(1)       387.892    387.398                      0.61650493
      6(1)        1(1)      3549.420   3211.214                      0.03111917
      6(1)        2(1)      2290.384   2243.386                      0.04448676
      6(1)        3(1)      1623.376   1610.823                      0.03001174
      6(1)        4(1)      1125.675   1113.051                      0.10558809
      6(1)        5(1)       947.666    943.381                      0.02938447

 Units: Transition energies (E) in cm^-1
        Dipole strengths (DS) in 10^-40 esu^2.cm^2

 Fundamental Bands
 -----------------
   Mode(n)                  E(harm)   E(anharm)       DS(harm)      DS(anharm)
      1(1)                  2706.695   2267.893   4032.77735545   4453.96956313
      2(1)                  1447.660   1405.566     36.96462737     52.23960119
      3(1)                   780.651    771.578     46.19638828     49.90902397
      4(1)                   282.951    283.456    742.05628741    883.92200838
      5(1)                   104.941    105.868    317.60464370    296.13009763
      6(1)                   842.725    840.046    129.47206986    128.54411235

 Overtones
 ---------
   Mode(n)                  E(harm)   E(anharm)                     DS(anharm)
      1(2)                  5413.391   4106.397                     21.18014384
      2(2)                  2895.319   2827.674                    122.50630049
      3(2)                  1561.303   1536.543                      0.49391551
      4(2)                   565.902    559.725                      5.52930533
      5(2)                   209.882    212.704                      1.00240781
      6(2)                  1685.449   1640.930                    341.26131237

 Combination Bands
 -----------------
   Mode(n)     Mode(n)      E(harm)   E(anharm)                     DS(anharm)
      2(1)        1(1)      4154.355   3619.374                      0.21617503
      3(1)        1(1)      3487.347   3056.928                      1.51058375
      3(1)        2(1)      2228.311   2169.993                     15.60159279
      4(1)        1(1)      2989.646   2599.483                    182.15950846
      4(1)        2(1)      1730.610   1682.395                     11.36967421
      4(1)        3(1)      1063.602   1055.587                      0.09432695
      5(1)        1(1)      2811.637   2397.412                     64.62741594
      5(1)        2(1)      1552.601   1507.142                     19.19865704
      5(1)        3(1)       885.592    876.760                      0.23942295
      5(1)        4(1)       387.892    387.398                      6.34873297
      6(1)        1(1)      3549.420   3211.214                      0.03866038
      6(1)        2(1)      2290.384   2243.386                      0.07911052
      6(1)        3(1)      1623.376   1610.823                      0.07432770
      6(1)        4(1)      1125.675   1113.051                      0.37844883
      6(1)        5(1)       947.666    943.381                      0.12426198

 Leave Link  717 at Fri Oct 22 07:42:19 2021, MaxMem= 16106127360 cpu:               7.1 elap:               0.3
 (Enter /sw/contrib/gaussian/g16/B01/g16/l103.exe)

 GradGradGradGradGradGradGradGradGradGradGradGradGradGradGradGradGradGrad
 Berny optimization.
 Search for a local minimum.
 Step number   1 out of a maximum of    2
 All quantities printed in internal units (Hartrees-Bohrs-Radians)
 Second derivative matrix not updated -- analytic derivatives used.
 The second derivative matrix:
                          r1        r2        r3        a1        OOP
           r1           0.26679
           r2          -0.00309   0.03621
           r3          -0.00316   0.01479   0.26068
           a1           0.04898   0.00350   0.00191   0.18427
           OOP          0.00000   0.00000   0.00000   0.00000   0.09947
 ITU=  0
     Eigenvalues ---    0.03509   0.09947   0.16152   0.26160   0.28974
 Angle between quadratic step and forces=  39.70 degrees.
 Linear search not attempted -- first point.
 Variable       Old X    -DE/DX   Delta X   Delta X   Delta X     New X
                                 (Linear)    (Quad)   (Total)
    r1        3.17996  -0.00001   0.00000  -0.00010  -0.00010   3.17986
    r2        5.49126  -0.00002   0.00000  -0.00055  -0.00055   5.49071
    r3        1.94344  -0.00003   0.00000  -0.00011  -0.00011   1.94333
    a1        1.80727   0.00007   0.00000   0.00040   0.00040   1.80767
   OOP        1.57080  -0.00000   0.00000  -0.00000   0.00000   1.57080
         Item               Value     Threshold  Converged?
 Maximum Force            0.000066     0.000450     YES
 RMS     Force            0.000035     0.000300     YES
 Maximum Displacement     0.000554     0.001800     YES
 RMS     Displacement     0.000312     0.001200     YES
 Predicted change in Energy=-2.074767D-08
 Optimization completed.
    -- Stationary point found.
                       ----------------------------
                       !   Optimized Parameters   !
                       ! (Angstroms and Degrees)  !
 ----------------------                            ----------------------
 !      Name          Value   Derivative information (Atomic Units)     !
 ------------------------------------------------------------------------
 !       r1          1.6828   -DE/DX =    0.0                           !
 !       r2          2.9059   -DE/DX =    0.0                           !
 !       r3          1.0284   -DE/DX =    0.0                           !
 !       a1        103.5492   -DE/DX =    0.0001                        !
 !       OOP        90.0      -DE/DX =    0.0                           !
 ------------------------------------------------------------------------
 GradGradGradGradGradGradGradGradGradGradGradGradGradGradGradGradGradGrad

 Leave Link  103 at Fri Oct 22 07:42:19 2021, MaxMem= 16106127360 cpu:               1.6 elap:               0.1
 (Enter /sw/contrib/gaussian/g16/B01/g16/l9999.exe)

 ----------------------------------------------------------------------

 Electric dipole moment (input orientation):
 (Debye = 10**-18 statcoulomb cm , SI units = C m)
                  (au)            (Debye)         (10**-30 SI)
   Tot        0.204050D+01      0.518644D+01      0.173001D+02
   x          0.131534D+01      0.334325D+01      0.111519D+02
   y          0.155998D+01      0.396508D+01      0.132261D+02
   z          0.000000D+00      0.000000D+00      0.000000D+00

 Dipole polarizability, Alpha (input orientation).
 (esu units = cm**3 , SI units = C**2 m**2 J**-1)
 Alpha(0;0):
               (au)            (10**-24 esu)      (10**-40 SI)
   iso        0.519401D+02      0.769673D+01      0.856377D+01
   aniso      0.193617D+02      0.286911D+01      0.319231D+01
   xx         0.555779D+02      0.823580D+01      0.916356D+01
   yx         0.819211D+01      0.121395D+01      0.135070D+01
   yy         0.570439D+02      0.845303D+01      0.940526D+01
   zx         0.000000D+00      0.000000D+00      0.000000D+00
   zy         0.000000D+00      0.000000D+00      0.000000D+00
   zz         0.431986D+02      0.640138D+01      0.712249D+01

 ----------------------------------------------------------------------

 Dipole orientation:
     8          0.00000000         -0.00000000          0.00000000
    17          1.85860403         -1.56712603          2.04984750
    17          1.87892662         -1.58426150         -4.91057433
     1          0.66497833         -0.56069224         -1.73792073

 Electric dipole moment (dipole orientation):
 (Debye = 10**-18 statcoulomb cm , SI units = C m)
                  (au)            (Debye)         (10**-30 SI)
   Tot        0.204050D+01      0.518644D+01      0.173001D+02
   x          0.000000D+00      0.000000D+00      0.000000D+00
   y          0.000000D+00      0.000000D+00      0.000000D+00
   z          0.204050D+01      0.518644D+01      0.173001D+02

 Dipole polarizability, Alpha (dipole orientation).
 (esu units = cm**3 , SI units = C**2 m**2 J**-1)
 Alpha(0;0):
               (au)            (10**-24 esu)      (10**-40 SI)
   iso        0.519401D+02      0.769673D+01      0.856377D+01
   aniso      0.193617D+02      0.286911D+01      0.319231D+01
   xx         0.460708D+02      0.682698D+01      0.759604D+01
   yx        -0.242173D+01     -0.358863D+00     -0.399289D+00
   yy         0.452406D+02      0.670396D+01      0.745916D+01
   zx         0.505801D+00      0.749520D-01      0.833953D-01
   zy        -0.426478D+00     -0.631975D-01     -0.703167D-01
   zz         0.645091D+02      0.955926D+01      0.106361D+02

 ----------------------------------------------------------------------
 1\1\GINC-N2199\Freq\RMP2-FC\Aug-CC-pVTZ\Cl2H1O1(1-)\CGAVINH\22-Oct-202
 1\1\\#P Geom=AllCheck Guess=TCheck SCRF=Check GenChk RMP2(FC)/Aug-CC-p
 VTZ Freq\\title\\-1,1\O\X,1,10.\Cl,1,r1,2,90.\Cl,1,r2,2,90.,3,a1,0\H,1
 ,r3,2,OOP,3,a1,0\\r1=1.68276421\r2=2.90585223\r3=1.02842163\a1=103.549
 21216\OOP=90.\\Version=ES64L-G16RevB.01\State=1-A'\HF=-994.5239012\MP2
 =-995.1921258\RMSD=1.895e-09\RMSF=6.827e-04\ZeroPoint=0.0140463\Therma
 l=0.0182032\Dipole=1.3153351,1.5599812,0.\DipoleDeriv=-0.6064801,-0.25
 56022,0.,-0.48122,-1.0735119,0.,0.,0.,-0.3016476,0.1637779,0.0223329,0
 .,0.0332652,-0.1093492,0.,0.,0.,-0.0999369,-0.80731,-0.1365259,0.,-0.2
 660347,-1.2494073,0.,0.,0.,-0.7491396,0.2500122,0.3697952,0.,0.7139895
 ,1.4322684,0.,0.,0.,0.1507241\Polar=55.5779309,8.1921114,57.0438594,0.
 ,0.,43.1986199\Quadrupole=1.4395704,-6.0130956,4.5735252,-5.4834807,0.
 ,0.\PG=CS [SG(Cl2H1O1)]\NImag=0\\0.28919557,0.05934640,0.34075697,0.,0
 .,0.01011979,-0.24010917,-0.02826168,0.,0.26679324,0.01450247,-0.02368
 131,0.,0.01540851,0.01822427,0.,0.,0.00039168,0.,0.,0.00000354,0.00004
 732,-0.01384762,0.,0.00272049,0.00002984,0.,0.00540863,-0.01569939,-0.
 04646866,0.,0.00251852,-0.00114025,0.,0.00848008,0.03390942,0.,0.,0.00
 581959,0.,0.,0.00022249,0.,0.,0.00336208,-0.04913373,-0.01723710,0.,-0
 .02940457,-0.02994081,0.,-0.00817645,0.00470080,0.,0.08671475,-0.05814
 947,-0.27060700,0.,0.01033465,0.00659729,0.,0.00533771,0.01369950,0.,0
 .04247711,0.25031021,0.,0.,-0.01633106,0.,0.,-0.00061772,0.,0.,-0.0094
 0416,0.,0.,0.02635293\\0.00119429,-0.00021243,0.,0.00000629,-0.0000207
 2,0.,0.00066403,-0.00018051,0.,-0.00186461,0.00041366,0.\\-0.00362265,
 0.00355080,0.00715777,0.,0.,-0.00158817,0.00119044,-0.01128478,0.,-0.0
 0419375,-0.01205155,-0.00131944,0.,0.01216164,0.00063498,0.,0.,0.00069
 280,0.,0.,0.00014692,-0.00062112,-0.00190368,0.,0.00019237,0.00054126,
 0.,0.00010860,0.00092903,0.00272206,0.,-0.00081259,0.00003121,0.,-0.00
 015667,-0.00288617,0.,0.,-0.00025897,0.,0.,0.00002514,0.,0.,0.00020604
 ,0.00305333,0.00963767,0.,0.00281094,-0.00065135,0.,0.00032016,0.00004
 023,0.,-0.00618442,0.00757172,-0.00856039,0.,-0.00006427,0.00065325,0.
 ,0.00151910,0.00013290,0.,-0.00902655,0.00777424,0.,0.,0.00115434,0.,0
 .,-0.00086486,0.,0.,0.00002779,0.,0.,-0.00031727,0.00285777,0.00335554
 ,0.01417674,0.,0.,0.00427763,0.00539824,0.01107260,0.,-0.00204090,0.01
 394831,-0.00014080,0.,-0.01398194,-0.00009999,0.,0.,-0.00118334,0.,0.,
 0.00058488,0.00013761,0.00698476,0.,-0.00090001,-0.00041191,0.,-0.0002
 2066,0.00462568,0.01685133,0.,0.00025279,0.00062311,0.,-0.00643306,-0.
 02243609,0.,0.,-0.00178526,0.,0.,-0.00012288,0.,0.,0.00133320,-0.00839
 363,-0.02141291,0.,-0.00245733,0.00044554,0.,0.00098305,0.00155459,0.,
 0.00986790,-0.02192953,-0.03088727,0.,0.00265655,-0.00038232,0.,-0.000
 13980,0.00496165,0.,0.01941278,0.02630794,0.,0.,-0.00130902,0.,0.,0.00
 072134,0.,0.,0.00057494,0.,0.,0.00001274,0.20771977,0.02568678,-0.0106
 0726,0.,0.,-0.02196419,-0.20149708,-0.01275433,0.,0.21238407,-0.001576
 53,0.01579997,0.,0.00810520,-0.01836048,0.,0.,0.02332592,0.,0.,-0.0240
 9282,-0.00146349,-0.00002901,0.,0.00060993,0.00011649,0.,0.00057787,-0
 .00254501,0.00306866,0.,0.00159202,0.00078701,0.,-0.00095454,-0.005841
 08,0.,0.,-0.00019980,0.,0.,-0.00018999,0.,0.,0.00047918,-0.00475921,-0
 .01290344,0.,-0.01149691,-0.00664516,0.,0.00027569,0.00190753,0.,0.015
 98044,-0.02156524,-0.00826138,0.,0.00305710,0.00177349,0.,0.00086706,0
 .00198539,0.,0.01764107,0.00450249,0.,0.,-0.00116194,0.,0.,0.00095689,
 0.,0.,-0.00008940,0.,0.,0.00029445,0.,0.,0.,-0.02793232,-0.16813329,0.
 ,0.,0.,0.01445243,0.,0.,0.,0.01416355,0.,0.,-0.00911939,0.01385067,0.,
 -0.00672293,-0.01003334,0.,0.,0.,0.00244339,0.,0.,0.00001248,0.,0.,0.,
 0.01062511,0.,0.,-0.00023206,0.,0.,-0.00311693,-0.00851927,0.,0.000973
 85,-0.00007292,0.,-0.00030982,-0.00139982,0.,0.,0.,0.01103650,0.,0.,0.
 01582984,0.,0.,0.00245290,0.,0.,0.,0.14334463,0.,0.,-0.00358528,0.,0.,
 0.00999201,0.,0.,0.04016865,0.16280189,0.,-0.00870335,-0.00405730,0.,-
 0.00214605,-0.00899323,0.,-0.02931924,-0.14975136,0.,-0.06286295,-0.09
 484729,0.00851609,0.,0.,0.03283075,0.00243457,-0.00283987,0.,0.0374910
 4,-0.00525155,0.02108163,0.,0.02413377,0.00066512,0.,0.,-0.01108253,0.
 ,0.,-0.00558670,-0.00207029,-0.00829146,0.,0.00118535,-0.00052198,0.,-
 0.00084955,0.01295696,0.00352844,0.,0.00042558,0.00165827,0.,-0.002738
 86,-0.00212684,0.,0.,-0.00042771,0.,0.,0.00004139,0.,0.,0.00017374,0.0
 6249867,0.10597862,0.,-0.04111096,-0.01836024,0.,0.00173450,-0.0106436
 8,0.,-0.02312221,0.08714188,-0.03312616,0.,-0.02171948,-0.02340502,0.,
 0.01155230,-0.00305986,0.,-0.07697470,0.05959103,0.,0.,-0.02132051,0.,
 0.,0.01662784,0.,0.,0.00021258,0.,0.,0.00448010,-0.05249031,0.31717799
 ,1.23191793,0.,0.,-0.14120027,0.02631793,-0.03643819,0.,-0.00135532,0.
 01256460,-0.01951138,0.,0.01422354,0.01180615,0.,0.,-0.00208330,0.,0.,
 0.00287195,0.00185073,0.01432289,0.,-0.00233112,-0.00108768,0.,-0.0089
 0437,0.01973227,0.04651249,0.,-0.00485111,0.00132811,0.,-0.00130697,-0
 .01491846,0.,0.,-0.00184290,0.,0.,-0.00002494,0.,0.,-0.00864264,0.0243
 2165,-0.29506270,0.,-0.02263149,-0.02570046,0.,0.00938475,-0.01357419,
 0.,-0.01107491,-0.34947486,-1.25891904,0.,0.02706576,0.00637712,0.,-0.
 01192824,-0.03292214,0.,0.33433734,1.28546406,0.,0.,0.14512647,0.,0.,-
 0.00076371,0.,0.,0.01051048,0.,0.,-0.15487325,-0.00698482,-0.00137408,
 -0.00045003,0.,0.,0.00087415,0.00779862,0.00068270,0.,-0.00813333,0.00
 026413,-0.00182745,0.,-0.00042950,0.00215398,0.,0.,-0.00072460,0.,0.,0
 .00070632,0.00005134,0.00042105,0.,-0.00027183,-0.00034166,0.,0.000132
 53,0.00006675,0.00055795,0.,-0.00010712,-0.00031006,0.,-0.00009769,-0.
 00028313,0.,0.,-0.00005342,0.,0.,0.00003898,0.,0.,0.00000284,-0.000865
 15,0.00027033,0.,0.00060630,0.00050705,0.,0.00008816,0.00013806,0.,0.0
 0017069,0.00104319,0.00171953,0.,-0.00014606,-0.00001661,0.,0.00001830
 ,0.00003547,0.,-0.00091544,-0.00173839,0.,0.,-0.00009613,0.,0.,-0.0000
 2143,0.,0.,0.00001179,0.,0.,0.00010578,-0.00979901,0.00309523,0.000904
 89,0.,0.,-0.00086841,0.01017667,0.00082021,0.,-0.01125919,-0.00112884,
 -0.00139437,0.,-0.00014883,0.00175665,0.,0.,-0.00100402,0.,0.,0.000965
 48,-0.00000817,-0.00322782,0.,0.00011446,0.00008141,0.,-0.00023187,-0.
 00164289,-0.00582772,0.,-0.00037805,-0.00055321,0.,0.00486132,0.012564
 63,0.,0.,0.00066008,0.,0.,0.00007872,0.,0.,-0.00168683,-0.00036948,-0.
 00068762,0.,0.00096790,0.00119626,0.,0.00012516,-0.00284044,0.,-0.0007
 2358,-0.00032351,0.00631721,0.,-0.00029333,0.00019073,0.,-0.00171497,-
 0.00618439,0.,0.00233180,-0.00032355,0.,0.,0.00121235,0.,0.,-0.0000406
 0,0.,0.,0.00094779,0.,0.,-0.00211954,0.16070656,-0.00375555,-0.0369793
 3,0.,0.,-0.01999357,-0.15981033,0.00206999,0.,0.16292146,-0.00211026,0
 .02264884,0.,0.00287718,-0.02271954,0.,0.,0.02289931,0.,0.,-0.02404044
 ,0.00002572,-0.00010252,0.,0.00002248,0.00012506,0.,-0.00009899,-0.001
 66449,-0.00002869,0.,0.00226655,0.00034449,0.,-0.00041736,0.00018836,0
 .,0.,0.00003229,0.,0.,-0.00004723,0.,0.,0.00010579,-0.00092195,0.00178
 808,0.,-0.00313371,-0.00089194,0.,0.00005067,-0.00018469,0.,0.00400499
 ,0.00753030,0.01435918,0.,-0.00721369,-0.00027376,0.,0.00039484,-0.000
 50418,0.,-0.00071146,-0.01358123,0.,0.,-0.00293802,0.,0.,0.00118815,0.
 ,0.,-0.00009065,0.,0.,0.00184053,0.02817629,-0.19112824,-0.82111441,0.
 ,0.,0.26873875,-0.01207122,0.02243525,0.,0.00430157,-0.01325935,0.0272
 7673,0.,-0.00585477,-0.01632051,0.,0.,-0.01470079,0.,0.,0.00804270,-0.
 00050972,0.00035033,0.,0.00042836,0.00021503,0.,0.00089818,-0.00067341
 ,0.00555259,0.,0.00025276,-0.00091136,0.,-0.00613769,-0.02291542,0.,0.
 ,0.00542718,0.,0.,0.00005928,0.,0.,-0.00019944,-0.01559533,0.16834265,
 0.,0.00734088,0.01889921,0.,-0.00081658,0.00655827,0.,0.00907103,0.205
 06099,0.78828509,0.,-0.01683312,-0.01004475,0.,0.00557226,0.01827414,0
 .,-0.19380013,-0.79651448,0.,0.,-0.25946515,0.,0.,0.00659857,0.,0.,-0.
 00528644,0.,0.,0.25815301,0.06146493,-0.17256120,-0.76614790,0.,0.,0.0
 3239604,-0.00957424,0.03982838,0.,0.01236844,-0.04445825,0.04520396,0.
 ,0.01489182,-0.01724633,0.,0.,0.01893517,0.,0.,-0.02117524,0.00529681,
 -0.00088670,0.,0.00110510,-0.00006872,0.,-0.00139734,-0.00993625,0.005
 30829,0.,0.00171235,-0.00300892,0.,-0.00487686,-0.02427127,0.,0.,-0.00
 085464,0.,0.,0.00035660,0.,0.,0.00256805,-0.05718751,0.13361952,0.,-0.
 00389945,0.02963515,0.,-0.00500440,0.01310073,0.,0.06609136,0.22695570
 ,0.71563564,0.,-0.05643254,-0.02494881,0.,0.00583224,0.02197191,0.,-0.
 17635539,-0.71265874,0.,0.,-0.05047657,0.,0.,0.00188324,0.,0.,-0.00206
 966,0.,0.,0.05066300,-0.53475105,1.20595878,4.25095610,0.,0.,-0.852991
 85,0.02974809,-0.00067129,0.,-0.01202771,0.01308228,-0.00382616,0.,-0.
 00572937,-0.00382789,0.,0.,-0.00606952,0.,0.,0.00684926,-0.00027138,0.
 01481883,0.,-0.00011769,-0.00018271,0.,0.01619440,0.01242457,0.0527005
 2,0.,0.00578410,0.00103777,0.,0.00308011,0.03143233,0.,0.,-0.00219505,
 0.,0.,-0.00030454,0.,0.,0.01516482,0.50527434,-1.22010632,0.,-0.017603
 05,-0.00717016,0.,-0.01580538,-0.02128877,0.,-0.47186591,-1.23146563,-
 4.29983046,0.,0.00061660,0.00661608,0.,-0.01771621,-0.08517058,0.,1.24
 856524,4.37838496,0.,0.,0.86125641,0.,0.,-0.00047568,0.,0.,-0.01266484
 ,0.,0.,-0.84811589\\@


 CONFIDENCE IS WHAT YOU FEEL BEFORE YOU FULLY
 COMPREHEND THE SITUATION.
 Job cpu time:       0 days 14 hours  5 minutes 15.3 seconds.
 Elapsed time:       0 days  0 hours 30 minutes 45.1 seconds.
 File lengths (MBytes):  RWF=   5667 Int=      0 D2E=      0 Chk=     48 Scr=      1
 Normal termination of Gaussian 16 at Fri Oct 22 07:42:20 2021.
