 Entering Gaussian System, Link 0=g16
 Input=brhocl_pp_10_sp.gjf
 Output=brhocl_pp_10_sp.log
 Initial command:
 /sw/contrib/gaussian/g16/B01/g16/l1.exe "/scr/Gau-3006.inp" -scrdir="/scr/"
 Entering Link 1 = /sw/contrib/gaussian/g16/B01/g16/l1.exe PID=      3007.
  
 Copyright (c) 1988-2017, Gaussian, Inc.  All Rights Reserved.
  
 This is part of the Gaussian(R) 16 program.  It is based on
 the Gaussian(R) 09 system (copyright 2009, Gaussian, Inc.),
 the Gaussian(R) 03 system (copyright 2003, Gaussian, Inc.),
 the Gaussian(R) 98 system (copyright 1998, Gaussian, Inc.),
 the Gaussian(R) 94 system (copyright 1995, Gaussian, Inc.),
 the Gaussian 92(TM) system (copyright 1992, Gaussian, Inc.),
 the Gaussian 90(TM) system (copyright 1990, Gaussian, Inc.),
 the Gaussian 88(TM) system (copyright 1988, Gaussian, Inc.),
 the Gaussian 86(TM) system (copyright 1986, Carnegie Mellon
 University), and the Gaussian 82(TM) system (copyright 1983,
 Carnegie Mellon University). Gaussian is a federally registered
 trademark of Gaussian, Inc.
  
 This software contains proprietary and confidential information,
 including trade secrets, belonging to Gaussian, Inc.
  
 This software is provided under written license and may be
 used, copied, transmitted, or stored only in accord with that
 written license.
  
 The following legend is applicable only to US Government
 contracts under FAR:
  
                    RESTRICTED RIGHTS LEGEND
  
 Use, reproduction and disclosure by the US Government is
 subject to restrictions as set forth in subparagraphs (a)
 and (c) of the Commercial Computer Software - Restricted
 Rights clause in FAR 52.227-19.
  
 Gaussian, Inc.
 340 Quinnipiac St., Bldg. 40, Wallingford CT 06492
  
  
 ---------------------------------------------------------------
 Warning -- This program may not be used in any manner that
 competes with the business of Gaussian, Inc. or will provide
 assistance to any competitor of Gaussian, Inc.  The licensee
 of this program is prohibited from giving any competitor of
 Gaussian, Inc. access to this program.  By using this program,
 the user acknowledges that Gaussian, Inc. is engaged in the
 business of creating and licensing software in the field of
 computational chemistry and represents and warrants to the
 licensee that it is not a competitor of Gaussian, Inc. and that
 it will not use this program in any manner prohibited above.
 ---------------------------------------------------------------
  

 Cite this work as:
 Gaussian 16, Revision B.01,
 M. J. Frisch, G. W. Trucks, H. B. Schlegel, G. E. Scuseria, 
 M. A. Robb, J. R. Cheeseman, G. Scalmani, V. Barone, 
 G. A. Petersson, H. Nakatsuji, X. Li, M. Caricato, A. V. Marenich, 
 J. Bloino, B. G. Janesko, R. Gomperts, B. Mennucci, H. P. Hratchian, 
 J. V. Ortiz, A. F. Izmaylov, J. L. Sonnenberg, D. Williams-Young, 
 F. Ding, F. Lipparini, F. Egidi, J. Goings, B. Peng, A. Petrone, 
 T. Henderson, D. Ranasinghe, V. G. Zakrzewski, J. Gao, N. Rega, 
 G. Zheng, W. Liang, M. Hada, M. Ehara, K. Toyota, R. Fukuda, 
 J. Hasegawa, M. Ishida, T. Nakajima, Y. Honda, O. Kitao, H. Nakai, 
 T. Vreven, K. Throssell, J. A. Montgomery, Jr., J. E. Peralta, 
 F. Ogliaro, M. J. Bearpark, J. J. Heyd, E. N. Brothers, K. N. Kudin, 
 V. N. Staroverov, T. A. Keith, R. Kobayashi, J. Normand, 
 K. Raghavachari, A. P. Rendell, J. C. Burant, S. S. Iyengar, 
 J. Tomasi, M. Cossi, J. M. Millam, M. Klene, C. Adamo, R. Cammi, 
 J. W. Ochterski, R. L. Martin, K. Morokuma, O. Farkas, 
 J. B. Foresman, and D. J. Fox, Gaussian, Inc., Wallingford CT, 2016.
 
 ******************************************
 Gaussian 16:  ES64L-G16RevB.01 20-Dec-2017
                30-Sep-2021 
 ******************************************
 %nproc=28
 Will use up to   28 processors via shared memory.
 %mem=120GB
 %chk=/gscratch/ilahie/mccoygrp/coire_hocl/brhocl_pp/brhocl_pp_10_sp.chk
 --------------------------------------------------------
 #p pop=NBO SP NoSymm mp2/gen Pseudo=read density=current
 --------------------------------------------------------
 1/30=1,38=1,172=1/1;
 2/12=2,15=1,17=6,18=5,40=1/2;
 3/5=7,11=9,16=1,17=8,25=1,30=1,71=1/1,2,3;
 4//1;
 5/5=2,38=5/2;
 8/6=4,10=1/1;
 9/15=1,16=-3/6;
 10/5=1,13=10,31=1/2;
 6/7=2,8=2,9=2,10=2,22=-1,40=1/1,7;
 99/5=1,9=1/99;
 Leave Link    1 at Thu Sep 30 14:39:08 2021, MaxMem= 16106127360 cpu:               1.1 elap:               0.0
 (Enter /sw/contrib/gaussian/g16/B01/g16/l101.exe)
 -----
 title
 -----
 Symbolic Z-matrix:
 Charge = -1 Multiplicity = 1
 O                     0.        0.        0. 
 Br                    3.06793   0.        0. 
 Cl                   -0.39181   1.63826   0. 
 H                     0.9994    0.        0.17622 
 
 ITRead=  0  0  0  0
 MicOpt= -1 -1 -1 -1
 NAtoms=      4 NQM=        4 NQMF=       0 NMMI=      0 NMMIF=      0
                NMic=       0 NMicF=      0.
                    Isotopes and Nuclear Properties:
 (Nuclear quadrupole moments (NQMom) in fm**2, nuclear magnetic moments (NMagM)
  in nuclear magnetons)

  Atom         1           2           3           4
 IAtWgt=          16          79          35           1
 AtmWgt=  15.9949146  78.9183361  34.9688527   1.0078250
 NucSpn=           0           3           3           1
 AtZEff=  -0.0000000  -0.0000000  -0.0000000  -0.0000000
 NQMom=    0.0000000  31.3000000  -8.1650000   0.0000000
 NMagM=    0.0000000   2.1063990   0.8218740   2.7928460
 AtZNuc=   8.0000000  35.0000000  17.0000000   1.0000000
 Leave Link  101 at Thu Sep 30 14:39:08 2021, MaxMem= 16106127360 cpu:               2.8 elap:               0.2
 (Enter /sw/contrib/gaussian/g16/B01/g16/l202.exe)
                          Input orientation:                          
 ---------------------------------------------------------------------
 Center     Atomic      Atomic             Coordinates (Angstroms)
 Number     Number       Type             X           Y           Z
 ---------------------------------------------------------------------
      1          8           0        0.000000    0.000000    0.000000
      2         35           0        3.067932    0.000000    0.000000
      3         17           0       -0.391810    1.638264    0.000000
      4          1           0        0.999403    0.000000    0.176222
 ---------------------------------------------------------------------
                    Distance matrix (angstroms):
                    1          2          3          4
     1  O    0.000000
     2  Br   3.067932   0.000000
     3  Cl   1.684465   3.828018   0.000000
     4  H    1.014820   2.076022   2.156487   0.000000
 Symmetry turned off by external request.
 Stoichiometry    BrClHO(1-)
 Framework group  C1[X(BrClHO)]
 Deg. of freedom     6
 Full point group                 C1      NOp   1
 Rotational constants (GHZ):          22.6335722           1.2841410           1.2153731
 Leave Link  202 at Thu Sep 30 14:39:09 2021, MaxMem= 16106127360 cpu:               1.8 elap:               0.1
 (Enter /sw/contrib/gaussian/g16/B01/g16/l301.exe)
 General basis read from cards:  (5D, 7F)
 Centers:       4      1      3
 aug-cc-pVTZ
 ****
 Centers:       2
 S 10 1.00
     Exponent=  9.6593900000D+03 Coefficients=  3.7100000000D-04
     Exponent=  1.4559600000D+03 Coefficients=  2.5710000000D-03
     Exponent=  3.2591400000D+02 Coefficients=  8.4850000000D-03
     Exponent=  4.6565700000D+01 Coefficients=  7.8222000000D-02
     Exponent=  1.8246900000D+01 Coefficients= -3.9714900000D-01
     Exponent=  3.8020100000D+00 Coefficients=  6.8586400000D-01
     Exponent=  1.7863200000D+00 Coefficients=  4.8681900000D-01
     Exponent=  6.0271400000D-01 Coefficients=  3.4913000000D-02
     Exponent=  2.8401400000D-01 Coefficients= -6.5730000000D-03
     Exponent=  1.2027100000D-01 Coefficients=  1.6420000000D-03
 S 10 1.00
     Exponent=  9.6593900000D+03 Coefficients= -1.5200000000D-04
     Exponent=  1.4559600000D+03 Coefficients= -1.0080000000D-03
     Exponent=  3.2591400000D+02 Coefficients= -3.6090000000D-03
     Exponent=  4.6565700000D+01 Coefficients= -2.7872000000D-02
     Exponent=  1.8246900000D+01 Coefficients=  1.5131700000D-01
     Exponent=  3.8020100000D+00 Coefficients= -3.5149700000D-01
     Exponent=  1.7863200000D+00 Coefficients= -4.1070300000D-01
     Exponent=  6.0271400000D-01 Coefficients=  3.4731600000D-01
     Exponent=  2.8401400000D-01 Coefficients=  6.7549100000D-01
     Exponent=  1.2027100000D-01 Coefficients=  2.4400800000D-01
 S 1 1.00
     Exponent=  6.0271400000D-01 Coefficients=  1.0000000000D+00
 S 1 1.00
     Exponent=  2.8401400000D-01 Coefficients=  1.0000000000D+00
 S 1 1.00
     Exponent=  1.2027100000D-01 Coefficients=  1.0000000000D+00
 S 1 1.00
     Exponent=  4.4500000000D-02 Coefficients=  1.0000000000D+00
 P 9 1.00
     Exponent=  4.9218700000D+02 Coefficients=  4.7200000000D-04
     Exponent=  9.2364200000D+01 Coefficients=  5.4940000000D-03
     Exponent=  2.7071800000D+01 Coefficients= -8.8030000000D-02
     Exponent=  7.2653900000D+00 Coefficients=  3.4348500000D-01
     Exponent=  3.4848100000D+00 Coefficients=  5.1020800000D-01
     Exponent=  1.6404800000D+00 Coefficients=  2.4863100000D-01
     Exponent=  6.4857000000D-01 Coefficients=  2.2201000000D-02
     Exponent=  2.5640700000D-01 Coefficients= -4.1900000000D-04
     Exponent=  9.5304000000D-02 Coefficients=  6.5600000000D-04
 P 9 1.00
     Exponent=  4.9218700000D+02 Coefficients= -1.5800000000D-04
     Exponent=  9.2364200000D+01 Coefficients= -1.3440000000D-03
     Exponent=  2.7071800000D+01 Coefficients=  2.4616000000D-02
     Exponent=  7.2653900000D+00 Coefficients= -1.1253200000D-01
     Exponent=  3.4848100000D+00 Coefficients= -1.7977500000D-01
     Exponent=  1.6404800000D+00 Coefficients= -7.3661000000D-02
     Exponent=  6.4857000000D-01 Coefficients=  3.4873400000D-01
     Exponent=  2.5640700000D-01 Coefficients=  5.5794800000D-01
     Exponent=  9.5304000000D-02 Coefficients=  2.6645600000D-01
 P 1 1.00
     Exponent=  7.6660000000D-01 Coefficients=  1.0000000000D+00
 P 1 1.00
     Exponent=  1.1820000000D-01 Coefficients=  1.0000000000D+00
 P 1 1.00
     Exponent=  3.9600000000D-02 Coefficients=  1.0000000000D+00
 D 8 1.00
     Exponent=  3.3899600000D+02 Coefficients=  1.5240000000D-03
     Exponent=  1.0321700000D+02 Coefficients=  1.5673000000D-02
     Exponent=  4.2363800000D+01 Coefficients=  7.2400000000D-02
     Exponent=  1.8435600000D+01 Coefficients=  1.8630300000D-01
     Exponent=  8.3725400000D+00 Coefficients=  3.2388100000D-01
     Exponent=  3.8022200000D+00 Coefficients=  3.7453400000D-01
     Exponent=  1.6867700000D+00 Coefficients=  2.5741800000D-01
     Exponent=  6.7752000000D-01 Coefficients=  6.8051000000D-02
 D 1 1.00
     Exponent=  6.7752000000D-01 Coefficients=  1.0000000000D+00
 D 1 1.00
     Exponent=  2.5530000000D-01 Coefficients=  1.0000000000D+00
 D 1 1.00
     Exponent=  1.0090000000D-01 Coefficients=  1.0000000000D+00
 F 1 1.00
     Exponent=  5.6060000000D-01 Coefficients=  1.0000000000D+00
 F 1 1.00
     Exponent=  2.4540000000D-01 Coefficients=  1.0000000000D+00
 ****
 ======================================================================================================
                                       Pseudopotential Parameters
 ======================================================================================================
  Center     Atomic      Valence      Angular      Power
  Number     Number     Electrons     Momentum     of R      Exponent        Coefficient   SO-Coeffient
 ======================================================================================================
    1          8
                                   No pseudopotential on this center.
    2         35           25
                                      G and up 
                                                     2        1.0000000        0.00000000    0.00000000
                                      S - G
                                                     2       70.0242570       49.96283400    0.00000000
                                                     2       31.1784120      370.01420500    0.00000000
                                                     2        7.1565930       10.24143900    0.00000000
                                      P - G
                                                     2       46.7734710       99.11224400    0.00000000
                                                     2       46.1841200      198.25304600    0.00000000
                                                     2       21.7138580       28.26174000    0.00000000
                                                     2       20.9417920       56.62336600    0.00000000
                                      D - G
                                                     2       50.6988390      -18.60585300    0.00000000
                                                     2       50.6447640      -27.92328000    0.00000000
                                                     2       15.4475090       -0.37969300    0.00000000
                                                     2       15.5002590       -0.78058300    0.00000000
                                                     2        2.8003910        0.03596800    0.00000000
                                                     2        1.0774800        0.09439700    0.00000000
                                      F - G
                                                     2       14.4656060       -1.09126900    0.00000000
                                                     2       21.2340650       -2.88769100    0.00000000
    3         17
                                   No pseudopotential on this center.
    4          1
                                   No pseudopotential on this center.
 ======================================================================================================
 Ernie: Thresh=  0.10000D-02 Tol=  0.10000D-05 Strict=F.
 Ernie:  25 primitive shells out of 163 were deleted.
   174 basis functions,   373 primitive gaussians,   204 cartesian basis functions
    26 alpha electrons       26 beta electrons
       nuclear repulsion energy       150.6887317162 Hartrees.
 IExCor=    0 DFT=F Ex=HF Corr=None ExCW=0 ScaHFX=  1.000000
 ScaDFX=  1.000000  1.000000  1.000000  1.000000 ScalE2=  1.000000  1.000000
 IRadAn=      5 IRanWt=     -1 IRanGd=            0 ICorTp=0 IEmpDi=  4
 NAtoms=    4 NActive=    4 NUniq=    4 SFac= 1.00D+00 NAtFMM=   60 NAOKFM=F Big=F
 Integral buffers will be    131072 words long.
 Raffenetti 1 integral format.
 Two-electron integral symmetry is turned off.
 Leave Link  301 at Thu Sep 30 14:39:09 2021, MaxMem= 16106127360 cpu:               2.4 elap:               0.1
 (Enter /sw/contrib/gaussian/g16/B01/g16/l302.exe)
 NPDir=0 NMtPBC=     1 NCelOv=     1 NCel=       1 NClECP=     1 NCelD=      1
         NCelK=      1 NCelE2=     1 NClLst=     1 CellRange=     0.0.
 One-electron integrals computed using PRISM.
   1 Symmetry operations used in ECPInt.
 ECPInt:  NShTT=    1596 NPrTT=    9902 LenC2=    1595 LenP2D=    7765.
 LDataN:  DoStor=T MaxTD1= 7 Len=  274
 NBasis=   174 RedAO= T EigKep=  2.43D-04  NBF=   174
 NBsUse=   174 1.00D-06 EigRej= -1.00D+00 NBFU=   174
 Leave Link  302 at Thu Sep 30 14:39:09 2021, MaxMem= 16106127360 cpu:               7.7 elap:               0.3
 (Enter /sw/contrib/gaussian/g16/B01/g16/l303.exe)
 DipDrv:  MaxL=1.
 Leave Link  303 at Thu Sep 30 14:39:09 2021, MaxMem= 16106127360 cpu:               0.8 elap:               0.1
 (Enter /sw/contrib/gaussian/g16/B01/g16/l401.exe)
 ExpMin= 2.53D-02 ExpMax= 4.56D+05 ExpMxC= 1.44D+03 IAcc=3 IRadAn=         5 AccDes= 0.00D+00
 Harris functional with IExCor=  205 and IRadAn=       5 diagonalized for initial guess.
 HarFok:  IExCor=  205 AccDes= 0.00D+00 IRadAn=         5 IDoV= 1 UseB2=F ITyADJ=14
 ICtDFT=  3500011 ScaDFX=  1.000000  1.000000  1.000000  1.000000
 FoFCou: FMM=F IPFlag=           0 FMFlag=      100000 FMFlg1=           0
         NFxFlg=           0 DoJE=T BraDBF=F KetDBF=T FulRan=T
         wScrn=  0.000000 ICntrl=       500 IOpCl=  0 I1Cent=   200000004 NGrid=           0
         NMat0=    1 NMatS0=      1 NMatT0=    0 NMatD0=    1 NMtDS0=    0 NMtDT0=    0
 Symmetry not used in FoFCou.
 Harris En= -951.935926471356    
 JPrj=0 DoOrth=F DoCkMO=F.
 Leave Link  401 at Thu Sep 30 14:39:09 2021, MaxMem= 16106127360 cpu:               7.3 elap:               0.3
 (Enter /sw/contrib/gaussian/g16/B01/g16/l502.exe)
 Keep R1 ints in memory in canonical form, NReq=152797144.
 FoFCou: FMM=F IPFlag=           0 FMFlag=           0 FMFlg1=           0
         NFxFlg=           0 DoJE=F BraDBF=F KetDBF=F FulRan=T
         wScrn=  0.000000 ICntrl=       600 IOpCl=  0 I1Cent=           0 NGrid=           0
         NMat0=    1 NMatS0=  15225 NMatT0=    0 NMatD0=    1 NMtDS0=    0 NMtDT0=    0
 Symmetry not used in FoFCou.
 Two-electron integral symmetry not used.
 Closed shell SCF:
 Using DIIS extrapolation, IDIIS=  1040.
 NGot= 16106127360 LenX= 15990129197 LenY= 15990087140
 Requested convergence on RMS density matrix=1.00D-08 within 128 cycles.
 Requested convergence on MAX density matrix=1.00D-06.
 Requested convergence on             energy=1.00D-06.
 No special actions if energy rises.

 Cycle   1  Pass 1  IDiag  1:
 E= -950.370179359436    
 DIIS: error= 2.33D-02 at cycle   1 NSaved=   1.
 NSaved= 1 IEnMin= 1 EnMin= -950.370179359436     IErMin= 1 ErrMin= 2.33D-02
 ErrMax= 2.33D-02  0.00D+00 EMaxC= 1.00D-01 BMatC= 3.45D-01 BMatP= 3.45D-01
 IDIUse=3 WtCom= 7.67D-01 WtEn= 2.33D-01
 Coeff-Com:  0.100D+01
 Coeff-En:   0.100D+01
 Coeff:      0.100D+01
 Gap=     0.558 Goal=   None    Shift=    0.000
 GapD=    0.558 DampG=2.000 DampE=0.500 DampFc=1.0000 IDamp=-1.
 RMSDP=3.85D-03 MaxDP=2.58D-01              OVMax= 1.28D-01

 Cycle   2  Pass 1  IDiag  1:
 E= -950.492681134321     Delta-E=       -0.122501774885 Rises=F Damp=F
 DIIS: error= 1.64D-02 at cycle   2 NSaved=   2.
 NSaved= 2 IEnMin= 2 EnMin= -950.492681134321     IErMin= 2 ErrMin= 1.64D-02
 ErrMax= 1.64D-02  0.00D+00 EMaxC= 1.00D-01 BMatC= 4.26D-02 BMatP= 3.45D-01
 IDIUse=3 WtCom= 8.36D-01 WtEn= 1.64D-01
 Coeff-Com:  0.177D+00 0.823D+00
 Coeff-En:   0.000D+00 0.100D+01
 Coeff:      0.148D+00 0.852D+00
 Gap=     0.337 Goal=   None    Shift=    0.000
 RMSDP=1.08D-03 MaxDP=4.87D-02 DE=-1.23D-01 OVMax= 6.71D-02

 Cycle   3  Pass 1  IDiag  1:
 E= -950.514629539700     Delta-E=       -0.021948405378 Rises=F Damp=F
 DIIS: error= 7.52D-03 at cycle   3 NSaved=   3.
 NSaved= 3 IEnMin= 3 EnMin= -950.514629539700     IErMin= 3 ErrMin= 7.52D-03
 ErrMax= 7.52D-03  0.00D+00 EMaxC= 1.00D-01 BMatC= 1.04D-02 BMatP= 4.26D-02
 IDIUse=3 WtCom= 9.25D-01 WtEn= 7.52D-02
 Coeff-Com: -0.111D-01 0.320D+00 0.691D+00
 Coeff-En:   0.000D+00 0.685D-01 0.932D+00
 Coeff:     -0.102D-01 0.301D+00 0.709D+00
 Gap=     0.333 Goal=   None    Shift=    0.000
 RMSDP=3.44D-04 MaxDP=1.24D-02 DE=-2.19D-02 OVMax= 3.21D-02

 Cycle   4  Pass 1  IDiag  1:
 E= -950.521658544058     Delta-E=       -0.007029004358 Rises=F Damp=F
 DIIS: error= 1.50D-03 at cycle   4 NSaved=   4.
 NSaved= 4 IEnMin= 4 EnMin= -950.521658544058     IErMin= 4 ErrMin= 1.50D-03
 ErrMax= 1.50D-03  0.00D+00 EMaxC= 1.00D-01 BMatC= 2.30D-04 BMatP= 1.04D-02
 IDIUse=3 WtCom= 9.85D-01 WtEn= 1.50D-02
 Coeff-Com: -0.463D-02 0.386D-01 0.159D+00 0.807D+00
 Coeff-En:   0.000D+00 0.000D+00 0.000D+00 0.100D+01
 Coeff:     -0.456D-02 0.381D-01 0.157D+00 0.810D+00
 Gap=     0.328 Goal=   None    Shift=    0.000
 RMSDP=6.76D-05 MaxDP=1.97D-03 DE=-7.03D-03 OVMax= 3.20D-03

 Cycle   5  Pass 1  IDiag  1:
 E= -950.521866564078     Delta-E=       -0.000208020021 Rises=F Damp=F
 DIIS: error= 2.73D-04 at cycle   5 NSaved=   5.
 NSaved= 5 IEnMin= 5 EnMin= -950.521866564078     IErMin= 5 ErrMin= 2.73D-04
 ErrMax= 2.73D-04  0.00D+00 EMaxC= 1.00D-01 BMatC= 2.09D-05 BMatP= 2.30D-04
 IDIUse=3 WtCom= 9.97D-01 WtEn= 2.73D-03
 Coeff-Com: -0.379D-03-0.340D-01-0.584D-01 0.744D-01 0.102D+01
 Coeff-En:   0.000D+00 0.000D+00 0.000D+00 0.000D+00 0.100D+01
 Coeff:     -0.378D-03-0.339D-01-0.582D-01 0.741D-01 0.102D+01
 Gap=     0.329 Goal=   None    Shift=    0.000
 RMSDP=3.60D-05 MaxDP=1.23D-03 DE=-2.08D-04 OVMax= 3.32D-03

 Cycle   6  Pass 1  IDiag  1:
 E= -950.521910912358     Delta-E=       -0.000044348280 Rises=F Damp=F
 DIIS: error= 1.37D-04 at cycle   6 NSaved=   6.
 NSaved= 6 IEnMin= 6 EnMin= -950.521910912358     IErMin= 6 ErrMin= 1.37D-04
 ErrMax= 1.37D-04  0.00D+00 EMaxC= 1.00D-01 BMatC= 2.89D-06 BMatP= 2.09D-05
 IDIUse=3 WtCom= 9.99D-01 WtEn= 1.37D-03
 Coeff-Com:  0.928D-03 0.917D-03-0.885D-03-0.957D-01-0.313D+00 0.141D+01
 Coeff-En:   0.000D+00 0.000D+00 0.000D+00 0.000D+00 0.000D+00 0.100D+01
 Coeff:      0.926D-03 0.916D-03-0.884D-03-0.955D-01-0.312D+00 0.141D+01
 Gap=     0.329 Goal=   None    Shift=    0.000
 RMSDP=1.98D-05 MaxDP=6.91D-04 DE=-4.43D-05 OVMax= 1.92D-03

 Cycle   7  Pass 1  IDiag  1:
 E= -950.521921017129     Delta-E=       -0.000010104770 Rises=F Damp=F
 DIIS: error= 4.61D-05 at cycle   7 NSaved=   7.
 NSaved= 7 IEnMin= 7 EnMin= -950.521921017129     IErMin= 7 ErrMin= 4.61D-05
 ErrMax= 4.61D-05  0.00D+00 EMaxC= 1.00D-01 BMatC= 2.01D-07 BMatP= 2.89D-06
 IDIUse=1 WtCom= 1.00D+00 WtEn= 0.00D+00
 Coeff-Com: -0.319D-03 0.248D-02 0.620D-02 0.194D-01 0.326D-01-0.485D+00
 Coeff-Com:  0.142D+01
 Coeff:     -0.319D-03 0.248D-02 0.620D-02 0.194D-01 0.326D-01-0.485D+00
 Coeff:      0.142D+01
 Gap=     0.329 Goal=   None    Shift=    0.000
 RMSDP=6.24D-06 MaxDP=2.25D-04 DE=-1.01D-05 OVMax= 6.22D-04

 Cycle   8  Pass 1  IDiag  1:
 E= -950.521921865545     Delta-E=       -0.000000848417 Rises=F Damp=F
 DIIS: error= 8.08D-06 at cycle   8 NSaved=   8.
 NSaved= 8 IEnMin= 8 EnMin= -950.521921865545     IErMin= 8 ErrMin= 8.08D-06
 ErrMax= 8.08D-06  0.00D+00 EMaxC= 1.00D-01 BMatC= 1.60D-08 BMatP= 2.01D-07
 IDIUse=1 WtCom= 1.00D+00 WtEn= 0.00D+00
 Coeff-Com: -0.627D-04-0.256D-03-0.587D-04 0.840D-02 0.324D-01-0.149D+00
 Coeff-Com:  0.924D-01 0.102D+01
 Coeff:     -0.627D-04-0.256D-03-0.587D-04 0.840D-02 0.324D-01-0.149D+00
 Coeff:      0.924D-01 0.102D+01
 Gap=     0.329 Goal=   None    Shift=    0.000
 RMSDP=1.30D-06 MaxDP=4.20D-05 DE=-8.48D-07 OVMax= 1.27D-04

 Cycle   9  Pass 1  IDiag  1:
 E= -950.521921911075     Delta-E=       -0.000000045530 Rises=F Damp=F
 DIIS: error= 3.77D-06 at cycle   9 NSaved=   9.
 NSaved= 9 IEnMin= 9 EnMin= -950.521921911075     IErMin= 9 ErrMin= 3.77D-06
 ErrMax= 3.77D-06  0.00D+00 EMaxC= 1.00D-01 BMatC= 1.98D-09 BMatP= 1.60D-08
 IDIUse=1 WtCom= 1.00D+00 WtEn= 0.00D+00
 Coeff-Com:  0.329D-04-0.253D-03-0.511D-03-0.261D-02-0.935D-02 0.721D-01
 Coeff-Com: -0.157D+00-0.189D+00 0.129D+01
 Coeff:      0.329D-04-0.253D-03-0.511D-03-0.261D-02-0.935D-02 0.721D-01
 Coeff:     -0.157D+00-0.189D+00 0.129D+01
 Gap=     0.329 Goal=   None    Shift=    0.000
 RMSDP=6.47D-07 MaxDP=2.12D-05 DE=-4.55D-08 OVMax= 7.05D-05

 Cycle  10  Pass 1  IDiag  1:
 E= -950.521921919666     Delta-E=       -0.000000008591 Rises=F Damp=F
 DIIS: error= 2.03D-06 at cycle  10 NSaved=  10.
 NSaved=10 IEnMin=10 EnMin= -950.521921919666     IErMin=10 ErrMin= 2.03D-06
 ErrMax= 2.03D-06  0.00D+00 EMaxC= 1.00D-01 BMatC= 3.05D-10 BMatP= 1.98D-09
 IDIUse=1 WtCom= 1.00D+00 WtEn= 0.00D+00
 Coeff-Com: -0.509D-05 0.140D-03 0.195D-03-0.993D-04 0.454D-03-0.117D-01
 Coeff-Com:  0.540D-01-0.584D-01-0.534D+00 0.155D+01
 Coeff:     -0.509D-05 0.140D-03 0.195D-03-0.993D-04 0.454D-03-0.117D-01
 Coeff:      0.540D-01-0.584D-01-0.534D+00 0.155D+01
 Gap=     0.329 Goal=   None    Shift=    0.000
 RMSDP=3.33D-07 MaxDP=7.61D-06 DE=-8.59D-09 OVMax= 3.87D-05

 Cycle  11  Pass 1  IDiag  1:
 E= -950.521921921401     Delta-E=       -0.000000001735 Rises=F Damp=F
 DIIS: error= 6.87D-07 at cycle  11 NSaved=  11.
 NSaved=11 IEnMin=11 EnMin= -950.521921921401     IErMin=11 ErrMin= 6.87D-07
 ErrMax= 6.87D-07  0.00D+00 EMaxC= 1.00D-01 BMatC= 2.67D-11 BMatP= 3.05D-10
 IDIUse=1 WtCom= 1.00D+00 WtEn= 0.00D+00
 Coeff-Com: -0.274D-05 0.209D-06 0.152D-04 0.370D-03 0.781D-03-0.555D-02
 Coeff-Com:  0.718D-02 0.287D-01-0.200D-01-0.376D+00 0.136D+01
 Coeff:     -0.274D-05 0.209D-06 0.152D-04 0.370D-03 0.781D-03-0.555D-02
 Coeff:      0.718D-02 0.287D-01-0.200D-01-0.376D+00 0.136D+01
 Gap=     0.329 Goal=   None    Shift=    0.000
 RMSDP=1.05D-07 MaxDP=2.49D-06 DE=-1.74D-09 OVMax= 1.15D-05

 Cycle  12  Pass 1  IDiag  1:
 E= -950.521921921544     Delta-E=       -0.000000000143 Rises=F Damp=F
 DIIS: error= 1.16D-07 at cycle  12 NSaved=  12.
 NSaved=12 IEnMin=12 EnMin= -950.521921921544     IErMin=12 ErrMin= 1.16D-07
 ErrMax= 1.16D-07  0.00D+00 EMaxC= 1.00D-01 BMatC= 1.32D-12 BMatP= 2.67D-11
 IDIUse=1 WtCom= 1.00D+00 WtEn= 0.00D+00
 Coeff-Com:  0.800D-07-0.109D-04-0.140D-04 0.503D-04 0.284D-04 0.454D-03
 Coeff-Com: -0.368D-02 0.615D-02 0.413D-01-0.135D+00 0.476D-01 0.104D+01
 Coeff:      0.800D-07-0.109D-04-0.140D-04 0.503D-04 0.284D-04 0.454D-03
 Coeff:     -0.368D-02 0.615D-02 0.413D-01-0.135D+00 0.476D-01 0.104D+01
 Gap=     0.329 Goal=   None    Shift=    0.000
 RMSDP=2.00D-08 MaxDP=9.74D-07 DE=-1.43D-10 OVMax= 1.64D-06

 Cycle  13  Pass 1  IDiag  1:
 E= -950.521921921549     Delta-E=       -0.000000000004 Rises=F Damp=F
 DIIS: error= 1.95D-08 at cycle  13 NSaved=  13.
 NSaved=13 IEnMin=13 EnMin= -950.521921921549     IErMin=13 ErrMin= 1.95D-08
 ErrMax= 1.95D-08  0.00D+00 EMaxC= 1.00D-01 BMatC= 1.08D-13 BMatP= 1.32D-12
 IDIUse=1 WtCom= 1.00D+00 WtEn= 0.00D+00
 Coeff-Com:  0.171D-06 0.230D-05 0.140D-05-0.371D-04-0.513D-04 0.260D-03
 Coeff-Com:  0.266D-03-0.275D-02-0.821D-02 0.528D-01-0.969D-01-0.232D+00
 Coeff-Com:  0.129D+01
 Coeff:      0.171D-06 0.230D-05 0.140D-05-0.371D-04-0.513D-04 0.260D-03
 Coeff:      0.266D-03-0.275D-02-0.821D-02 0.528D-01-0.969D-01-0.232D+00
 Coeff:      0.129D+01
 Gap=     0.329 Goal=   None    Shift=    0.000
 RMSDP=6.66D-09 MaxDP=4.07D-07 DE=-4.09D-12 OVMax= 3.75D-07

 SCF Done:  E(RHF) =  -950.521921922     A.U. after   13 cycles
            NFock= 13  Conv=0.67D-08     -V/T= 2.1444
 KE= 8.305604238353D+02 PE=-2.611848726340D+03 EE= 6.800776488673D+02
 Leave Link  502 at Thu Sep 30 14:39:13 2021, MaxMem= 16106127360 cpu:              45.1 elap:               4.1
 (Enter /sw/contrib/gaussian/g16/B01/g16/l801.exe)
 ExpMin= 2.53D-02 ExpMax= 4.56D+05 ExpMxC= 1.44D+03 IAcc=3 IRadAn=         5 AccDes= 0.00D+00
 HarFok:  IExCor=  205 AccDes= 0.00D+00 IRadAn=         5 IDoV=-2 UseB2=F ITyADJ=14
 ICtDFT= 12500011 ScaDFX=  1.000000  1.000000  1.000000  1.000000
 Largest valence mixing into a core orbital is  4.47D-04
 Largest core mixing into a valence orbital is  1.58D-04
 Range of M.O.s used for correlation:    11   174
 NBasis=   174 NAE=    26 NBE=    26 NFC=    10 NFV=     0
 NROrb=    164 NOA=    16 NOB=    16 NVA=   148 NVB=   148

 **** Warning!!: The largest alpha MO coefficient is  0.16269129D+02

 Leave Link  801 at Thu Sep 30 14:39:14 2021, MaxMem= 16106127360 cpu:               3.5 elap:               0.2
 (Enter /sw/contrib/gaussian/g16/B01/g16/l906.exe)
 Frozen-core derivative calculation, NFC=  10 NFV=   0.
 FulOut=F Deriv=T AODrv=F NAtomX=     4
   MMem=         130  MDisk=          16 MDiskD=          16
  W3Min=      922896 MinDsk=     1491158 NBas6D=         204
 NBas2D=       21411    NTT=       20910    LW2=    16556320
    MDV= 16105732564 MDiskM=      394699 NBas2p=       21383
 Fully in-core method, ICMem=   510791049.
 IMap=   1   2   3   4   5   6   7   8   9  10  11  12  13  14  15  16  17  18  19  20
 IMap=  21  22  23  24  25  26
 JobTyp=1 Pass  1 fully in-core, NPsUse= 28.
 Compute canonical integrals.
 FoFCou: FMM=F IPFlag=           0 FMFlag=           0 FMFlg1=           0
         NFxFlg=           0 DoJE=F BraDBF=F KetDBF=F FulRan=T
         wScrn=  0.000000 ICntrl=       600 IOpCl=  1 I1Cent=           0 NGrid=           0
         NMat0=    1 NMatS0=  21411 NMatT0=    0 NMatD0=    1 NMtDS0=    0 NMtDT0=    0
 Symmetry not used in FoFCou.
 Spin components of T(2) and E(2):
     alpha-alpha T2 =       0.3029880734D-01 E2=     -0.9380394734D-01
     alpha-beta  T2 =       0.1613778025D+00 E2=     -0.5154541794D+00
     beta-beta   T2 =       0.3029880734D-01 E2=     -0.9380394734D-01
 The integrals were generated   1 times.
 ANorm=    0.1105429969D+01
 E2 =    -0.7030620741D+00 EUMP2 =    -0.95122498399566D+03
 Leave Link  906 at Thu Sep 30 14:39:20 2021, MaxMem= 16106127360 cpu:             163.7 elap:               5.9
 (Enter /sw/contrib/gaussian/g16/B01/g16/l1002.exe)
 Minotr:  Closed shell wavefunction.
          Computing MP2/KS-MP2 derivatives.
          Using Z-Vector for PSCF gradient.
          Skipping F1 and S1 gradient terms here.
          Frozen-core window.
          Direct CPHF calculation.
          Differentiating once with respect to electric field.
                with respect to dipole field.
          Electric field/nuclear overlap derivatives assumed to be zero.
          Requested convergence is 1.0D-10 RMS, and 1.0D-09 maximum.
          NewPWx=F KeepS1=T KeepF1=T KeepIn=T MapXYZ=F SortEE=F KeepMc=T.
 Keep R1 ints in memory in canonical form, NReq=152801989.
 FoFCou: FMM=F IPFlag=           0 FMFlag=           0 FMFlg1=           0
         NFxFlg=           0 DoJE=F BraDBF=F KetDBF=F FulRan=T
         wScrn=  0.000000 ICntrl=       600 IOpCl=  0 I1Cent=           0 NGrid=           0
         NMat0=    1 NMatS0=  15225 NMatT0=    0 NMatD0=    1 NMtDS0=    0 NMtDT0=    0
 Symmetry not used in FoFCou.
 Two-electron integral symmetry not used.
          MDV=   16106127360 using IRadAn=       5.
          Solving linear equations separately, MaxMat=       0.
          There are     1 degrees of freedom in the 1st order CPHF.  IDoFFX=0 NUNeed=     1.
 LinEq1:  Iter=  0 NonCon=     1 RMS=2.90D-03 Max=4.20D-02 NDo=     1
 AX will form     1 AO Fock derivatives at one time.
 LinEq1:  Iter=  1 NonCon=     1 RMS=4.66D-04 Max=4.67D-03 NDo=     1
 LinEq1:  Iter=  2 NonCon=     1 RMS=2.17D-04 Max=4.08D-03 NDo=     1
 LinEq1:  Iter=  3 NonCon=     1 RMS=6.92D-05 Max=1.01D-03 NDo=     1
 LinEq1:  Iter=  4 NonCon=     1 RMS=3.03D-05 Max=9.08D-04 NDo=     1
 LinEq1:  Iter=  5 NonCon=     1 RMS=1.06D-05 Max=1.53D-04 NDo=     1
 LinEq1:  Iter=  6 NonCon=     1 RMS=2.34D-06 Max=4.28D-05 NDo=     1
 LinEq1:  Iter=  7 NonCon=     1 RMS=6.64D-07 Max=1.55D-05 NDo=     1
 LinEq1:  Iter=  8 NonCon=     1 RMS=2.25D-07 Max=4.98D-06 NDo=     1
 LinEq1:  Iter=  9 NonCon=     1 RMS=6.54D-08 Max=9.31D-07 NDo=     1
 LinEq1:  Iter= 10 NonCon=     1 RMS=1.67D-08 Max=1.93D-07 NDo=     1
 LinEq1:  Iter= 11 NonCon=     1 RMS=3.62D-09 Max=5.96D-08 NDo=     1
 LinEq1:  Iter= 12 NonCon=     1 RMS=6.88D-10 Max=1.79D-08 NDo=     1
 LinEq1:  Iter= 13 NonCon=     1 RMS=2.14D-10 Max=3.95D-09 NDo=     1
 LinEq1:  Iter= 14 NonCon=     1 RMS=6.66D-11 Max=1.02D-09 NDo=     1
 LinEq1:  Iter= 15 NonCon=     0 RMS=1.18D-11 Max=2.15D-10 NDo=     1
 Linear equations converged to 1.000D-10 1.000D-09 after    15 iterations.
 End of Minotr F.D. properties file   721 does not exist.
 End of Minotr F.D. properties file   722 does not exist.
 End of Minotr F.D. properties file   788 does not exist.
 Leave Link 1002 at Thu Sep 30 14:39:24 2021, MaxMem= 16106127360 cpu:              37.0 elap:               4.4
 (Enter /sw/contrib/gaussian/g16/B01/g16/l601.exe)
 Copying SCF densities to generalized density rwf, IOpCl= 0 IROHF=0.

 **********************************************************************

            Population analysis using the MP2 Density.

 **********************************************************************

 Alpha  occ. eigenvalues -- -104.73137 -20.46211 -10.45087  -9.55801  -7.91804
 Alpha  occ. eigenvalues --   -7.91540  -7.91529  -7.30601  -7.30534  -7.30534
 Alpha  occ. eigenvalues --   -2.85703  -2.85678  -2.85677  -2.85614  -2.85614
 Alpha  occ. eigenvalues --   -1.22887  -0.89553  -0.75614  -0.53952  -0.44237
 Alpha  occ. eigenvalues --   -0.43410  -0.30808  -0.28082  -0.18325  -0.17367
 Alpha  occ. eigenvalues --   -0.17352
 Alpha virt. eigenvalues --    0.15593   0.18169   0.22382   0.23158   0.25132
 Alpha virt. eigenvalues --    0.26521   0.26765   0.28638   0.30416   0.30997
 Alpha virt. eigenvalues --    0.32740   0.33034   0.35910   0.42741   0.43793
 Alpha virt. eigenvalues --    0.46118   0.47954   0.48416   0.50407   0.54101
 Alpha virt. eigenvalues --    0.54938   0.56762   0.58626   0.59568   0.59774
 Alpha virt. eigenvalues --    0.61135   0.65531   0.71738   0.75588   0.77841
 Alpha virt. eigenvalues --    0.80832   0.83252   0.83788   0.85614   0.89022
 Alpha virt. eigenvalues --    0.89595   0.90738   0.94201   0.98327   0.98574
 Alpha virt. eigenvalues --    0.98868   0.99533   1.00337   1.02663   1.03280
 Alpha virt. eigenvalues --    1.06318   1.08793   1.09683   1.10717   1.13300
 Alpha virt. eigenvalues --    1.14500   1.15058   1.16026   1.19288   1.19987
 Alpha virt. eigenvalues --    1.21877   1.26265   1.28526   1.30871   1.34273
 Alpha virt. eigenvalues --    1.35709   1.38346   1.46804   1.47447   1.49834
 Alpha virt. eigenvalues --    1.52733   1.58005   1.62347   1.66087   1.70024
 Alpha virt. eigenvalues --    1.71144   1.76336   1.79439   1.80541   1.89716
 Alpha virt. eigenvalues --    1.97286   2.18128   2.38360   2.40229   2.45504
 Alpha virt. eigenvalues --    2.46142   2.47617   2.49644   2.51306   2.53148
 Alpha virt. eigenvalues --    2.53606   2.54186   2.54243   2.56045   2.56278
 Alpha virt. eigenvalues --    2.60621   2.61337   2.63086   2.64367   2.65052
 Alpha virt. eigenvalues --    2.67969   2.68659   2.70313   2.71434   2.72334
 Alpha virt. eigenvalues --    2.74149   2.75407   2.77384   2.78989   2.84321
 Alpha virt. eigenvalues --    2.88090   3.00324   3.07852   3.08238   3.11112
 Alpha virt. eigenvalues --    3.19786   3.21357   3.22583   3.28196   3.30587
 Alpha virt. eigenvalues --    3.33690   3.44086   3.52925   3.54906   3.59943
 Alpha virt. eigenvalues --    3.93107   4.24273   4.31507   4.48036   4.54732
 Alpha virt. eigenvalues --    4.59406   4.77389   4.98811   5.09453   5.32800
 Alpha virt. eigenvalues --    5.39652   5.66024   6.43209   6.58378   6.85978
 Alpha virt. eigenvalues --    6.90260   6.91846   6.99784   7.28738   7.33363
 Alpha virt. eigenvalues --    7.34802   7.44501   7.55238   7.74739   7.80565
 Alpha virt. eigenvalues --    8.34862  14.50759  79.88313
          Condensed to atoms (all electrons):
               1          2          3          4
     1  O    8.642240  -0.086290  -0.117783   0.043924
     2  Br  -0.086290  25.925793   0.007886   0.013192
     3  Cl  -0.117783   0.007886  17.070950  -0.008844
     4  H    0.043924   0.013192  -0.008844   0.656846
 Mulliken charges:
               1
     1  O   -0.482091
     2  Br  -0.860581
     3  Cl   0.047790
     4  H    0.294881
 Sum of Mulliken charges =  -1.00000
 Mulliken charges with hydrogens summed into heavy atoms:
               1
     1  O   -0.187209
     2  Br  -0.860581
     3  Cl   0.047790
 Electronic spatial extent (au):  <R**2>=           1138.6717
 Charge=             -1.0000 electrons
 Dipole moment (field-independent basis, Debye):
    X=            -10.5512    Y=             -0.6589    Z=              0.1133  Tot=             10.5724
 Quadrupole moment (field-independent basis, Debye-Ang):
   XX=            -78.9200   YY=            -42.9971   ZZ=            -42.7817
   XY=              0.4434   XZ=              0.0264   YZ=             -0.0544
 Traceless Quadrupole moment (field-independent basis, Debye-Ang):
   XX=            -24.0204   YY=             11.9025   ZZ=             12.1179
   XY=              0.4434   XZ=              0.0264   YZ=             -0.0544
 Octapole moment (field-independent basis, Debye-Ang**2):
  XXX=           -305.3308  YYY=            -63.0952  ZZZ=             -0.6988  XYY=            -65.1277
  XXY=            -21.7351  XXZ=             -1.1694  XZZ=            -64.5987  YZZ=            -22.3068
  YYZ=             -0.3319  XYZ=              0.0346
 Hexadecapole moment (field-independent basis, Debye-Ang**3):
 XXXX=          -1685.6385 YYYY=           -258.4011 ZZZZ=            -61.7070 XXXY=             28.3263
 XXXZ=             -4.8804 YYYX=             22.0808 YYYZ=             -0.2747 ZZZX=             -1.0924
 ZZZY=             -0.0885 XXYY=           -271.9485 XXZZ=           -236.5376 YYZZ=            -57.8219
 XXYZ=             -0.0636 YYXZ=             -0.2567 ZZXY=              9.2862
 N-N= 1.506887317162D+02 E-N=-2.610648066358D+03  KE= 8.303920872548D+02
 No NMR shielding tensors so no spin-rotation constants.
 Leave Link  601 at Thu Sep 30 14:39:24 2021, MaxMem= 16106127360 cpu:               4.1 elap:               0.2
 (Enter /sw/contrib/gaussian/g16/B01/g16/l607.exe)
 ******************************Gaussian NBO Version 3.1******************************
             N A T U R A L   A T O M I C   O R B I T A L   A N D
          N A T U R A L   B O N D   O R B I T A L   A N A L Y S I S
 ******************************Gaussian NBO Version 3.1******************************
       /RESON  / : Allow strongly delocalized NBO set

 Analyzing the MP2 density

 Job title: title                                                           

 Storage needed:     91686 in NPA,    121697 in NBO (********** available)
 GSVD:  LWork=        2436 too small for GESVD, short by       52200 words or       52200 for optimal perf.


 NATURAL POPULATIONS:  Natural atomic orbital occupancies 
                                                          
   NAO  Atom  No  lang   Type(AO)    Occupancy
 --------------------------------------------
     1    O    1  S      Cor( 1S)     1.99970
     2    O    1  S      Val( 2S)     1.79113
     3    O    1  S      Ryd( 3S)     0.00973
     4    O    1  S      Ryd( 4S)     0.00114
     5    O    1  S      Ryd( 5S)     0.00019
     6    O    1  px     Val( 2p)     1.65889
     7    O    1  px     Ryd( 3p)     0.01145
     8    O    1  px     Ryd( 4p)     0.00076
     9    O    1  px     Ryd( 5p)     0.00047
    10    O    1  py     Val( 2p)     1.26526
    11    O    1  py     Ryd( 3p)     0.00783
    12    O    1  py     Ryd( 4p)     0.00063
    13    O    1  py     Ryd( 5p)     0.00039
    14    O    1  pz     Val( 2p)     1.93830
    15    O    1  pz     Ryd( 3p)     0.01994
    16    O    1  pz     Ryd( 4p)     0.00067
    17    O    1  pz     Ryd( 5p)     0.00017
    18    O    1  dxy    Ryd( 3d)     0.00941
    19    O    1  dxy    Ryd( 4d)     0.00046
    20    O    1  dxy    Ryd( 5d)     0.00018
    21    O    1  dxz    Ryd( 3d)     0.00765
    22    O    1  dxz    Ryd( 4d)     0.00061
    23    O    1  dxz    Ryd( 5d)     0.00031
    24    O    1  dyz    Ryd( 3d)     0.00931
    25    O    1  dyz    Ryd( 4d)     0.00057
    26    O    1  dyz    Ryd( 5d)     0.00011
    27    O    1  dx2y2  Ryd( 3d)     0.01258
    28    O    1  dx2y2  Ryd( 4d)     0.00037
    29    O    1  dx2y2  Ryd( 5d)     0.00015
    30    O    1  dz2    Ryd( 3d)     0.00953
    31    O    1  dz2    Ryd( 4d)     0.00057
    32    O    1  dz2    Ryd( 5d)     0.00017
    33    O    1  f(0)   Ryd( 4f)     0.00070
    34    O    1  f(0)   Ryd( 5f)     0.00011
    35    O    1  f(C1)  Ryd( 4f)     0.00059
    36    O    1  f(C1)  Ryd( 5f)     0.00011
    37    O    1  f(S1)  Ryd( 4f)     0.00066
    38    O    1  f(S1)  Ryd( 5f)     0.00012
    39    O    1  f(C2)  Ryd( 4f)     0.00058
    40    O    1  f(C2)  Ryd( 5f)     0.00013
    41    O    1  f(S2)  Ryd( 4f)     0.00056
    42    O    1  f(S2)  Ryd( 5f)     0.00012
    43    O    1  f(C3)  Ryd( 4f)     0.00056
    44    O    1  f(C3)  Ryd( 5f)     0.00015
    45    O    1  f(S3)  Ryd( 4f)     0.00057
    46    O    1  f(S3)  Ryd( 5f)     0.00012

    47   Br    2  S      Cor( 3S)     1.99985
    48   Br    2  S      Val( 4S)     1.96779
    49   Br    2  S      Ryd( 5S)     0.00188
    50   Br    2  S      Ryd( 6S)     0.00043
    51   Br    2  S      Ryd( 7S)     0.00016
    52   Br    2  S      Ryd( 8S)     0.00000
    53   Br    2  px     Cor( 3p)     1.99992
    54   Br    2  px     Val( 4p)     1.85366
    55   Br    2  px     Ryd( 5p)     0.00960
    56   Br    2  px     Ryd( 6p)     0.00072
    57   Br    2  px     Ryd( 7p)     0.00015
    58   Br    2  py     Cor( 3p)     2.00001
    59   Br    2  py     Val( 4p)     1.95351
    60   Br    2  py     Ryd( 5p)     0.01128
    61   Br    2  py     Ryd( 6p)     0.00079
    62   Br    2  py     Ryd( 7p)     0.00010
    63   Br    2  pz     Cor( 3p)     2.00000
    64   Br    2  pz     Val( 4p)     1.95236
    65   Br    2  pz     Ryd( 5p)     0.01132
    66   Br    2  pz     Ryd( 6p)     0.00079
    67   Br    2  pz     Ryd( 7p)     0.00010
    68   Br    2  dxy    Cor( 3d)     1.99768
    69   Br    2  dxy    Ryd( 4d)     0.01867
    70   Br    2  dxy    Ryd( 5d)     0.00136
    71   Br    2  dxy    Ryd( 6d)     0.00022
    72   Br    2  dxz    Cor( 3d)     1.99768
    73   Br    2  dxz    Ryd( 4d)     0.01874
    74   Br    2  dxz    Ryd( 5d)     0.00142
    75   Br    2  dxz    Ryd( 6d)     0.00019
    76   Br    2  dyz    Cor( 3d)     1.99771
    77   Br    2  dyz    Ryd( 4d)     0.01844
    78   Br    2  dyz    Ryd( 5d)     0.00173
    79   Br    2  dyz    Ryd( 6d)     0.00023
    80   Br    2  dx2y2  Cor( 3d)     1.99763
    81   Br    2  dx2y2  Ryd( 4d)     0.01824
    82   Br    2  dx2y2  Ryd( 5d)     0.00161
    83   Br    2  dx2y2  Ryd( 6d)     0.00020
    84   Br    2  dz2    Cor( 3d)     1.99768
    85   Br    2  dz2    Ryd( 4d)     0.01837
    86   Br    2  dz2    Ryd( 5d)     0.00168
    87   Br    2  dz2    Ryd( 6d)     0.00020
    88   Br    2  f(0)   Ryd( 4f)     0.00172
    89   Br    2  f(0)   Ryd( 5f)     0.00026
    90   Br    2  f(C1)  Ryd( 4f)     0.00174
    91   Br    2  f(C1)  Ryd( 5f)     0.00028
    92   Br    2  f(S1)  Ryd( 4f)     0.00173
    93   Br    2  f(S1)  Ryd( 5f)     0.00024
    94   Br    2  f(C2)  Ryd( 4f)     0.00170
    95   Br    2  f(C2)  Ryd( 5f)     0.00026
    96   Br    2  f(S2)  Ryd( 4f)     0.00175
    97   Br    2  f(S2)  Ryd( 5f)     0.00025
    98   Br    2  f(C3)  Ryd( 4f)     0.00174
    99   Br    2  f(C3)  Ryd( 5f)     0.00028
   100   Br    2  f(S3)  Ryd( 4f)     0.00167
   101   Br    2  f(S3)  Ryd( 5f)     0.00026

   102   Cl    3  S      Cor( 1S)     2.00000
   103   Cl    3  S      Cor( 2S)     1.99979
   104   Cl    3  S      Val( 3S)     1.88167
   105   Cl    3  S      Ryd( 4S)     0.00789
   106   Cl    3  S      Ryd( 5S)     0.00053
   107   Cl    3  S      Ryd( 6S)     0.00017
   108   Cl    3  px     Cor( 2p)     2.00003
   109   Cl    3  px     Val( 3p)     1.89035
   110   Cl    3  px     Ryd( 4p)     0.00950
   111   Cl    3  px     Ryd( 5p)     0.00053
   112   Cl    3  px     Ryd( 6p)     0.00008
   113   Cl    3  py     Cor( 2p)     1.99996
   114   Cl    3  py     Val( 3p)     0.97169
   115   Cl    3  py     Ryd( 4p)     0.00695
   116   Cl    3  py     Ryd( 5p)     0.00052
   117   Cl    3  py     Ryd( 6p)     0.00023
   118   Cl    3  pz     Cor( 2p)     2.00003
   119   Cl    3  pz     Val( 3p)     1.95444
   120   Cl    3  pz     Ryd( 4p)     0.01062
   121   Cl    3  pz     Ryd( 5p)     0.00067
   122   Cl    3  pz     Ryd( 6p)     0.00003
   123   Cl    3  dxy    Ryd( 3d)     0.01738
   124   Cl    3  dxy    Ryd( 4d)     0.00070
   125   Cl    3  dxy    Ryd( 5d)     0.00025
   126   Cl    3  dxz    Ryd( 3d)     0.01718
   127   Cl    3  dxz    Ryd( 4d)     0.00076
   128   Cl    3  dxz    Ryd( 5d)     0.00019
   129   Cl    3  dyz    Ryd( 3d)     0.02094
   130   Cl    3  dyz    Ryd( 4d)     0.00106
   131   Cl    3  dyz    Ryd( 5d)     0.00037
   132   Cl    3  dx2y2  Ryd( 3d)     0.01811
   133   Cl    3  dx2y2  Ryd( 4d)     0.00064
   134   Cl    3  dx2y2  Ryd( 5d)     0.00025
   135   Cl    3  dz2    Ryd( 3d)     0.01752
   136   Cl    3  dz2    Ryd( 4d)     0.00060
   137   Cl    3  dz2    Ryd( 5d)     0.00017
   138   Cl    3  f(0)   Ryd( 4f)     0.00131
   139   Cl    3  f(0)   Ryd( 5f)     0.00013
   140   Cl    3  f(C1)  Ryd( 4f)     0.00128
   141   Cl    3  f(C1)  Ryd( 5f)     0.00013
   142   Cl    3  f(S1)  Ryd( 4f)     0.00143
   143   Cl    3  f(S1)  Ryd( 5f)     0.00014
   144   Cl    3  f(C2)  Ryd( 4f)     0.00130
   145   Cl    3  f(C2)  Ryd( 5f)     0.00013
   146   Cl    3  f(S2)  Ryd( 4f)     0.00123
   147   Cl    3  f(S2)  Ryd( 5f)     0.00014
   148   Cl    3  f(C3)  Ryd( 4f)     0.00140
   149   Cl    3  f(C3)  Ryd( 5f)     0.00013
   150   Cl    3  f(S3)  Ryd( 4f)     0.00143
   151   Cl    3  f(S3)  Ryd( 5f)     0.00014

   152    H    4  S      Val( 1S)     0.49789
   153    H    4  S      Ryd( 2S)     0.00853
   154    H    4  S      Ryd( 3S)     0.00030
   155    H    4  S      Ryd( 4S)     0.00019
   156    H    4  px     Ryd( 2p)     0.00556
   157    H    4  px     Ryd( 3p)     0.00107
   158    H    4  px     Ryd( 4p)     0.00032
   159    H    4  py     Ryd( 2p)     0.00391
   160    H    4  py     Ryd( 3p)     0.00044
   161    H    4  py     Ryd( 4p)     0.00013
   162    H    4  pz     Ryd( 2p)     0.00528
   163    H    4  pz     Ryd( 3p)     0.00040
   164    H    4  pz     Ryd( 4p)     0.00025
   165    H    4  dxy    Ryd( 3d)     0.00027
   166    H    4  dxy    Ryd( 4d)     0.00009
   167    H    4  dxz    Ryd( 3d)     0.00041
   168    H    4  dxz    Ryd( 4d)     0.00012
   169    H    4  dyz    Ryd( 3d)     0.00023
   170    H    4  dyz    Ryd( 4d)     0.00006
   171    H    4  dx2y2  Ryd( 3d)     0.00023
   172    H    4  dx2y2  Ryd( 4d)     0.00013
   173    H    4  dz2    Ryd( 3d)     0.00026
   174    H    4  dz2    Ryd( 4d)     0.00009

 [ 10 electrons found in the effective core potential]

 WARNING:  5 low occupancy (<1.9990e) core orbitals found on Br    2


 Summary of Natural Population Analysis:                  
                                                          
                                       Natural Population 
                Natural  -----------------------------------------------
    Atom  No    Charge         Core      Valence    Rydberg      Total
 -----------------------------------------------------------------------
      O    1   -0.76369      1.99970     6.65358    0.11041     8.76369
     Br    2   -0.86800     27.98816     7.72732    0.15252    35.86800
     Cl    3    0.15786      9.99980     6.69815    0.14418    16.84214
      H    4    0.47383      0.00000     0.49789    0.02828     0.52617
 =======================================================================
   * Total *   -1.00000     39.98766    21.57695    0.43539    62.00000

                                 Natural Population      
 --------------------------------------------------------
   Effective Core            10.00000
   Core                      29.98766 ( 99.9589% of  30)
   Valence                   21.57695 ( 98.0770% of  22)
   Natural Minimal Basis     61.56461 ( 99.2978% of  62)
   Natural Rydberg Basis      0.43539 (  0.7022% of  62)
 --------------------------------------------------------

    Atom  No          Natural Electron Configuration
 ----------------------------------------------------------------------------
      O    1      [core]2S( 1.79)2p( 4.86)3S( 0.01)3p( 0.04)3d( 0.05)
     Br    2      [core]4S( 1.97)4p( 5.76)4d( 0.09)5p( 0.03)4f( 0.01)5d( 0.01)
     Cl    3      [core]3S( 1.88)3p( 4.82)4S( 0.01)3d( 0.09)4p( 0.03)4f( 0.01)
      H    4            1S( 0.50)2S( 0.01)2p( 0.01)


 NATURAL BOND ORBITAL ANALYSIS:

                       Occupancies       Lewis Structure    Low   High
           Occ.    -------------------  -----------------   occ   occ
  Cycle   Thresh.   Lewis   Non-Lewis     CR  BD  3C  LP    (L)   (NL)   Dev
 =============================================================================
   1(1)    1.90    61.42367   0.57633     15   2   0   9     1      1    0.16
   2(2)    1.90    61.15790   0.84210     15   2   0   9     1      1    0.55
   3(3)    1.90    61.42367   0.57633     15   2   0   9     1      1    0.16
   4(1)    1.80    61.42367   0.57633     15   2   0   9     0      1    0.16
   5(2)    1.80    61.42367   0.57633     15   2   0   9     0      1    0.16
   6(1)    1.70    61.42367   0.57633     15   2   0   9     0      1    0.16
   7(2)    1.70    61.42367   0.57633     15   2   0   9     0      1    0.16
   8(1)    1.60    61.42367   0.57633     15   2   0   9     0      1    0.16
   9(2)    1.60    61.42367   0.57633     15   2   0   9     0      1    0.16
  10(1)    1.50    61.05545   0.94455     15   1   0  10     0      1    0.55
  11(2)    1.50    61.05545   0.94455     15   1   0  10     0      1    0.55
  12(1)    1.90    61.42367   0.57633     15   2   0   9     1      1    0.16
 -----------------------------------------------------------------------------

 Structure accepted: RESONANCE keyword permits strongly delocalized structure

 WARNING:  5 low occupancy (<1.9990e) core orbitals found on Br    2

 --------------------------------------------------------
   Effective Core           10.00000
   Core                     29.98766 ( 99.959% of  30)
   Valence Lewis            21.43601 ( 97.436% of  22)
  ==================       ============================
   Total Lewis              61.42367 ( 99.070% of  62)
  -----------------------------------------------------
   Valence non-Lewis         0.18680 (  0.301% of  62)
   Rydberg non-Lewis         0.38952 (  0.628% of  62)
  ==================       ============================
   Total non-Lewis           0.57633 (  0.930% of  62)
 --------------------------------------------------------


       (Occupancy)   Bond orbital/ Coefficients/ Hybrids
 ---------------------------------------------------------------------------------
     1. (1.93935) BD ( 1) O   1 -Cl   3  
                ( 58.86%)   0.7672* O   1 s( 10.49%)p 8.49( 88.98%)d 0.05(  0.52%)
                                                  f 0.00(  0.02%)
                                            0.0003  0.3207 -0.0423 -0.0147 -0.0008
                                           -0.1928  0.0345  0.0073  0.0025  0.9222
                                           -0.0243 -0.0089 -0.0109  0.0112  0.0054
                                            0.0010 -0.0002 -0.0054 -0.0006 -0.0032
                                            0.0026  0.0002 -0.0006  0.0059  0.0008
                                           -0.0003 -0.0574 -0.0046 -0.0010 -0.0418
                                           -0.0034  0.0006 -0.0000 -0.0000  0.0028
                                           -0.0004 -0.0107  0.0010 -0.0011  0.0007
                                            0.0018 -0.0004  0.0036  0.0020 -0.0050
                                            0.0006
                ( 41.14%)   0.6414*Cl   3 s(  8.57%)p10.52( 90.16%)d 0.13(  1.16%)
                                                  f 0.01(  0.11%)
                                           -0.0000  0.0005  0.2873 -0.0556 -0.0101
                                           -0.0025  0.0001  0.2312 -0.0134 -0.0057
                                            0.0019 -0.0004 -0.9185  0.0640  0.0129
                                           -0.0041  0.0000  0.0023  0.0000 -0.0007
                                            0.0003 -0.0517  0.0049 -0.0004  0.0026
                                           -0.0000 -0.0004 -0.0033 -0.0004 -0.0003
                                           -0.0743  0.0095  0.0007 -0.0565  0.0061
                                            0.0010 -0.0003  0.0000 -0.0054  0.0009
                                            0.0204 -0.0030  0.0000 -0.0002 -0.0006
                                            0.0004 -0.0177  0.0021  0.0187 -0.0021
     2. (1.96416) BD ( 1) O   1 - H   4  
                ( 79.90%)   0.8939* O   1 s( 28.57%)p 2.48( 70.94%)d 0.02(  0.48%)
                                                  f 0.00(  0.01%)
                                            0.0003  0.5344 -0.0062 -0.0083  0.0022
                                            0.8261 -0.0083 -0.0070 -0.0049 -0.0129
                                            0.0153  0.0014  0.0023  0.1624 -0.0002
                                           -0.0015 -0.0015  0.0262  0.0048  0.0010
                                            0.0225  0.0015 -0.0008  0.0056  0.0010
                                            0.0001  0.0498  0.0039  0.0014 -0.0322
                                           -0.0013  0.0029 -0.0039 -0.0000 -0.0078
                                           -0.0001 -0.0002  0.0005  0.0024  0.0008
                                            0.0002 -0.0004  0.0008  0.0029 -0.0018
                                           -0.0005
                ( 20.10%)   0.4483* H   4 s( 99.82%)p 0.00(  0.18%)d 0.00(  0.00%)
                                            0.9981  0.0446  0.0036 -0.0021  0.0145
                                           -0.0333  0.0106  0.0140  0.0018  0.0041
                                            0.0105 -0.0069  0.0004  0.0012  0.0019
                                           -0.0008 -0.0004  0.0006  0.0004  0.0024
                                           -0.0002 -0.0009 -0.0031
     3. (1.99970) CR ( 1) O   1           s(100.00%)p 0.00(  0.00%)
                                            1.0000 -0.0004  0.0000  0.0000 -0.0000
                                           -0.0001 -0.0000  0.0000  0.0000 -0.0002
                                            0.0000  0.0000  0.0000 -0.0000 -0.0000
                                            0.0000  0.0000 -0.0000 -0.0000 -0.0000
                                           -0.0000 -0.0000  0.0000 -0.0000 -0.0000
                                           -0.0000  0.0000  0.0000 -0.0000  0.0000
                                            0.0000 -0.0000  0.0000  0.0000  0.0000
                                            0.0000  0.0000 -0.0000 -0.0000 -0.0000
                                           -0.0000  0.0000 -0.0000 -0.0000  0.0000
                                           -0.0000
     4. (1.99985) CR ( 1)Br   2           s(100.00%)
                                            1.0000 -0.0002  0.0000 -0.0000 -0.0000
                                            0.0000 -0.0000 -0.0001  0.0000 -0.0000
                                            0.0000  0.0000  0.0000  0.0000  0.0000
                                            0.0000  0.0000  0.0000 -0.0000  0.0000
                                           -0.0000  0.0000 -0.0000  0.0000 -0.0000
                                           -0.0000 -0.0000  0.0000 -0.0000 -0.0000
                                            0.0000 -0.0000  0.0000  0.0000  0.0000
                                            0.0000  0.0000 -0.0000 -0.0000 -0.0000
                                           -0.0000 -0.0000 -0.0000 -0.0000 -0.0000
                                           -0.0000 -0.0000  0.0000 -0.0000 -0.0000
                                           -0.0000  0.0000  0.0000  0.0000  0.0000
     5. (1.99992) CR ( 2)Br   2           s(  0.00%)p 1.00(100.00%)
                                            0.0000  0.0001 -0.0000  0.0000  0.0000
                                           -0.0000 -1.0000  0.0000 -0.0000  0.0000
                                           -0.0000  0.0000  0.0000 -0.0000 -0.0000
                                           -0.0000  0.0000  0.0000  0.0000  0.0000
                                           -0.0000  0.0000 -0.0000 -0.0000  0.0000
                                            0.0000 -0.0000  0.0000  0.0000  0.0000
                                           -0.0000  0.0000 -0.0000 -0.0000 -0.0000
                                           -0.0000  0.0000  0.0000  0.0000 -0.0000
                                            0.0000 -0.0000 -0.0000 -0.0000 -0.0000
                                           -0.0000  0.0000  0.0000  0.0000 -0.0000
                                           -0.0000 -0.0000 -0.0000  0.0000 -0.0000
     6. (2.00000) CR ( 3)Br   2           s(  0.00%)p 1.00(100.00%)
                                            0.0000 -0.0000 -0.0000  0.0000  0.0000
                                            0.0000 -0.0000  0.0000  0.0000 -0.0000
                                            0.0000  1.0000 -0.0002 -0.0000 -0.0000
                                            0.0000  0.0000 -0.0000 -0.0000 -0.0000
                                           -0.0000 -0.0000  0.0000 -0.0000 -0.0000
                                           -0.0000  0.0000 -0.0000  0.0000  0.0000
                                           -0.0000  0.0000 -0.0000  0.0000 -0.0000
                                            0.0000 -0.0000 -0.0000 -0.0000  0.0000
                                           -0.0000  0.0000  0.0000 -0.0000 -0.0000
                                            0.0000  0.0000 -0.0000 -0.0000  0.0000
                                            0.0000  0.0000  0.0000 -0.0000 -0.0000
     7. (2.00000) CR ( 4)Br   2           s(  0.00%)p 1.00(100.00%)
                                            0.0000  0.0000  0.0000 -0.0000 -0.0000
                                           -0.0000 -0.0000 -0.0000 -0.0000  0.0000
                                           -0.0000  0.0000  0.0000  0.0000  0.0000
                                            0.0000  1.0000 -0.0002 -0.0000 -0.0000
                                            0.0000  0.0000 -0.0000 -0.0000 -0.0000
                                           -0.0000  0.0000 -0.0000 -0.0000 -0.0000
                                            0.0000 -0.0000  0.0000 -0.0000  0.0000
                                           -0.0000 -0.0000  0.0000 -0.0000  0.0000
                                           -0.0000  0.0000  0.0000  0.0000  0.0000
                                            0.0000 -0.0000 -0.0000 -0.0000  0.0000
                                            0.0000 -0.0000 -0.0000  0.0000  0.0000
     8. (1.99768) CR ( 5)Br   2           s(  0.00%)p 0.00(  0.00%)d 1.00(100.00%)
                                            0.0000  0.0000 -0.0000  0.0000  0.0000
                                            0.0000 -0.0000  0.0000  0.0000 -0.0000
                                            0.0000 -0.0000 -0.0000 -0.0000 -0.0000
                                            0.0000  0.0000  0.0000 -0.0000  0.0000
                                           -0.0000  1.0000  0.0000 -0.0000 -0.0000
                                           -0.0000 -0.0000 -0.0000  0.0000  0.0000
                                           -0.0000  0.0000 -0.0000  0.0000 -0.0000
                                            0.0000 -0.0000 -0.0000 -0.0000  0.0000
                                           -0.0000  0.0000  0.0000 -0.0000 -0.0000
                                            0.0000  0.0000 -0.0000 -0.0000  0.0000
                                            0.0000  0.0000  0.0000 -0.0000 -0.0000
     9. (1.99768) CR ( 6)Br   2           s(  0.00%)p 0.00(  0.00%)d 1.00(100.00%)
                                           -0.0000 -0.0000  0.0000 -0.0000 -0.0000
                                           -0.0000 -0.0000 -0.0000  0.0000 -0.0000
                                           -0.0000 -0.0000 -0.0000 -0.0000 -0.0000
                                            0.0000 -0.0000 -0.0000 -0.0000 -0.0000
                                            0.0000 -0.0000  0.0000 -0.0000 -0.0000
                                            1.0000  0.0000 -0.0000 -0.0000 -0.0000
                                            0.0000 -0.0000  0.0000  0.0000  0.0000
                                            0.0000 -0.0000 -0.0000 -0.0000  0.0000
                                           -0.0000  0.0000  0.0000  0.0000  0.0000
                                            0.0000 -0.0000 -0.0000 -0.0000  0.0000
                                            0.0000 -0.0000 -0.0000 -0.0000 -0.0000
    10. (1.99771) CR ( 7)Br   2           s(  0.00%)p 0.00(  0.00%)d 1.00(100.00%)
                                           -0.0000 -0.0000  0.0000 -0.0000 -0.0000
                                           -0.0000 -0.0000 -0.0000 -0.0000  0.0000
                                           -0.0000  0.0000  0.0000  0.0000  0.0000
                                           -0.0000 -0.0000 -0.0000 -0.0000 -0.0000
                                            0.0000  0.0000 -0.0000  0.0000  0.0000
                                           -0.0000  0.0000 -0.0000 -0.0000  1.0000
                                            0.0000 -0.0000  0.0000 -0.0000  0.0000
                                           -0.0000  0.0000  0.0000 -0.0000  0.0000
                                            0.0000  0.0000  0.0000  0.0000  0.0000
                                           -0.0000 -0.0000 -0.0000 -0.0000 -0.0000
                                           -0.0000 -0.0000 -0.0000  0.0000  0.0000
    11. (1.99763) CR ( 8)Br   2           s(  0.00%)p 0.00(  0.00%)d 1.00(100.00%)
                                            0.0000  0.0000 -0.0000  0.0000  0.0000
                                           -0.0000  0.0000  0.0000 -0.0000  0.0000
                                           -0.0000  0.0000  0.0000  0.0000  0.0000
                                           -0.0000 -0.0000 -0.0000  0.0000 -0.0000
                                            0.0000  0.0000 -0.0000 -0.0000  0.0000
                                            0.0000  0.0000  0.0000  0.0000 -0.0000
                                            0.0000 -0.0000  0.0000  1.0000 -0.0000
                                           -0.0000 -0.0000  0.0000  0.0000  0.0000
                                            0.0000  0.0000 -0.0000  0.0000  0.0000
                                           -0.0000  0.0000 -0.0000  0.0000 -0.0000
                                            0.0000 -0.0000 -0.0000  0.0000  0.0000
    12. (1.99768) CR ( 9)Br   2           s(  0.00%)p 0.00(  0.00%)d 1.00(100.00%)
                                           -0.0000 -0.0000  0.0000 -0.0000 -0.0000
                                            0.0000 -0.0000 -0.0000  0.0000 -0.0000
                                            0.0000 -0.0000 -0.0000 -0.0000 -0.0000
                                            0.0000  0.0000  0.0000  0.0000  0.0000
                                           -0.0000 -0.0000  0.0000  0.0000 -0.0000
                                           -0.0000 -0.0000  0.0000  0.0000  0.0000
                                           -0.0000  0.0000 -0.0000  0.0000  0.0000
                                            0.0000  0.0000  1.0000 -0.0000 -0.0000
                                           -0.0000 -0.0000 -0.0000 -0.0000 -0.0000
                                            0.0000 -0.0000  0.0000  0.0000  0.0000
                                           -0.0000  0.0000  0.0000 -0.0000 -0.0000
    13. (2.00000) CR ( 1)Cl   3           s(100.00%)
                                            1.0000  0.0000 -0.0000 -0.0000 -0.0000
                                           -0.0000  0.0000  0.0000 -0.0000 -0.0000
                                            0.0000 -0.0000 -0.0000  0.0000  0.0000
                                           -0.0000 -0.0000  0.0000  0.0000 -0.0000
                                            0.0000 -0.0000  0.0000 -0.0000  0.0000
                                           -0.0000 -0.0000 -0.0000 -0.0000 -0.0000
                                           -0.0000  0.0000  0.0000 -0.0000  0.0000
                                            0.0000 -0.0000  0.0000 -0.0000  0.0000
                                            0.0000 -0.0000 -0.0000 -0.0000 -0.0000
                                            0.0000 -0.0000  0.0000  0.0000 -0.0000
    14. (1.99979) CR ( 2)Cl   3           s(100.00%)p 0.00(  0.00%)
                                            0.0000  1.0000 -0.0004  0.0000  0.0000
                                            0.0000 -0.0000 -0.0001  0.0000  0.0000
                                           -0.0000  0.0000  0.0004 -0.0000 -0.0000
                                            0.0000 -0.0000 -0.0000 -0.0000  0.0000
                                           -0.0000  0.0000 -0.0000 -0.0000 -0.0000
                                            0.0000  0.0000  0.0000  0.0000  0.0000
                                            0.0000 -0.0000 -0.0000  0.0000 -0.0000
                                           -0.0000  0.0000 -0.0000  0.0000 -0.0000
                                           -0.0000  0.0000 -0.0000  0.0000  0.0000
                                           -0.0000  0.0000 -0.0000 -0.0000  0.0000
    15. (2.00003) CR ( 3)Cl   3           s(  0.00%)p 1.00(100.00%)
                                            0.0000 -0.0000 -0.0000  0.0000  0.0000
                                            0.0000  1.0000  0.0001  0.0000  0.0000
                                           -0.0000  0.0000  0.0001 -0.0000 -0.0000
                                            0.0000 -0.0000 -0.0000  0.0000  0.0000
                                            0.0000  0.0000  0.0000  0.0000 -0.0000
                                            0.0000  0.0000  0.0000 -0.0000  0.0000
                                            0.0000 -0.0000 -0.0000  0.0000 -0.0000
                                           -0.0000 -0.0000  0.0000  0.0000 -0.0000
                                           -0.0000  0.0000  0.0000 -0.0000  0.0000
                                           -0.0000  0.0000 -0.0000 -0.0000  0.0000
    16. (1.99996) CR ( 4)Cl   3           s(  0.00%)p 1.00(100.00%)
                                           -0.0000  0.0000  0.0001 -0.0000 -0.0000
                                           -0.0000  0.0000  0.0002 -0.0000 -0.0000
                                            0.0000  1.0000 -0.0003  0.0000  0.0000
                                           -0.0000 -0.0000  0.0000  0.0000 -0.0000
                                            0.0000 -0.0000  0.0000  0.0000  0.0000
                                           -0.0000 -0.0000 -0.0000 -0.0000 -0.0000
                                           -0.0000  0.0000 -0.0000 -0.0000  0.0000
                                            0.0000 -0.0000  0.0000 -0.0000  0.0000
                                            0.0000 -0.0000 -0.0000 -0.0000 -0.0000
                                            0.0000 -0.0000  0.0000  0.0000 -0.0000
    17. (2.00003) CR ( 5)Cl   3           s(  0.00%)p 1.00(100.00%)
                                           -0.0000 -0.0000 -0.0000  0.0000  0.0000
                                           -0.0000 -0.0000  0.0000  0.0000 -0.0000
                                            0.0000 -0.0000  0.0000 -0.0000  0.0000
                                            0.0000  1.0000  0.0002  0.0000  0.0000
                                           -0.0000 -0.0000 -0.0000 -0.0000 -0.0000
                                           -0.0000 -0.0000  0.0000  0.0000  0.0000
                                            0.0000 -0.0000 -0.0000  0.0000  0.0000
                                            0.0000 -0.0000  0.0000  0.0000 -0.0000
                                           -0.0000  0.0000 -0.0000  0.0000 -0.0000
                                            0.0000 -0.0000  0.0000 -0.0000 -0.0000
    18. (1.96647) LP ( 1) O   1           s( 61.08%)p 0.64( 38.82%)d 0.00(  0.09%)
                                                  f 0.00(  0.00%)
                                            0.0002  0.7814  0.0117  0.0084 -0.0014
                                           -0.4843 -0.0073 -0.0045 -0.0011 -0.3705
                                           -0.0047 -0.0055 -0.0025 -0.1276 -0.0019
                                           -0.0011 -0.0003 -0.0264 -0.0020  0.0047
                                           -0.0063 -0.0002  0.0005 -0.0069 -0.0008
                                            0.0005 -0.0033  0.0008  0.0019  0.0104
                                            0.0007  0.0009  0.0015 -0.0001  0.0023
                                           -0.0003  0.0005  0.0005  0.0004 -0.0005
                                           -0.0007  0.0003  0.0050 -0.0026 -0.0002
                                            0.0007
    19. (1.95231) LP ( 2) O   1           s(  0.01%)p 1.00( 99.80%)d 0.00(  0.18%)
                                                  f 0.00(  0.01%)
                                           -0.0000  0.0094  0.0026  0.0014 -0.0002
                                           -0.1989 -0.0040 -0.0011 -0.0011 -0.0566
                                           -0.0010 -0.0003 -0.0008  0.9771  0.0186
                                            0.0060  0.0072 -0.0080 -0.0003  0.0015
                                            0.0158 -0.0049 -0.0104  0.0347  0.0039
                                           -0.0032 -0.0022  0.0013  0.0021  0.0109
                                           -0.0004 -0.0027 -0.0094  0.0007  0.0035
                                            0.0001  0.0005 -0.0002 -0.0042  0.0023
                                           -0.0031 -0.0001  0.0010 -0.0008  0.0011
                                           -0.0002
    20. (1.97846) LP ( 1)Br   2           s( 92.19%)p 0.08(  7.81%)d 0.00(  0.00%)
                                                  f 0.00(  0.00%)
                                            0.0002  0.9602 -0.0003  0.0008  0.0005
                                           -0.0001  0.0001  0.2772 -0.0015  0.0005
                                           -0.0001 -0.0000 -0.0071 -0.0001 -0.0001
                                           -0.0001 -0.0000 -0.0343  0.0001 -0.0000
                                            0.0000 -0.0000  0.0000 -0.0001  0.0001
                                            0.0000  0.0006  0.0000  0.0001  0.0000
                                           -0.0000  0.0000 -0.0000 -0.0000 -0.0005
                                           -0.0002 -0.0001  0.0000  0.0004  0.0001
                                            0.0002 -0.0000 -0.0000  0.0002  0.0001
                                            0.0000  0.0000  0.0000  0.0000  0.0000
                                            0.0000 -0.0002 -0.0001 -0.0000 -0.0000
    21. (1.95408) LP ( 2)Br   2           s(  0.00%)p 1.00( 99.99%)d 0.00(  0.01%)
                                                  f 0.00(  0.00%)
                                           -0.0000 -0.0001 -0.0008  0.0003  0.0012
                                            0.0001  0.0000  0.1199  0.0002 -0.0002
                                            0.0001 -0.0000 -0.1092 -0.0004 -0.0002
                                            0.0001  0.0002  0.9867  0.0031  0.0017
                                           -0.0007 -0.0000  0.0011 -0.0002 -0.0001
                                            0.0000 -0.0086  0.0016  0.0017  0.0000
                                           -0.0003  0.0002 -0.0001  0.0000 -0.0014
                                            0.0002  0.0005 -0.0000  0.0026 -0.0008
                                            0.0003 -0.0021 -0.0011 -0.0014 -0.0009
                                            0.0001  0.0001  0.0026  0.0014  0.0001
                                           -0.0001  0.0005  0.0001 -0.0004 -0.0002
    22. (1.95377) LP ( 3)Br   2           s(  0.01%)p 1.00( 99.98%)d 0.00(  0.01%)
                                                  f 0.00(  0.00%)
                                           -0.0000  0.0074  0.0003 -0.0000 -0.0006
                                           -0.0001  0.0000  0.0134 -0.0000  0.0001
                                           -0.0000  0.0002  0.9939  0.0033  0.0016
                                           -0.0007  0.0000  0.1084  0.0004  0.0002
                                           -0.0000  0.0000 -0.0097  0.0014  0.0020
                                            0.0000 -0.0010  0.0003  0.0001 -0.0000
                                            0.0015 -0.0005  0.0004 -0.0000  0.0008
                                           -0.0005  0.0007  0.0000  0.0004 -0.0002
                                            0.0001 -0.0003 -0.0002 -0.0001 -0.0000
                                           -0.0009 -0.0005  0.0004  0.0002 -0.0008
                                           -0.0005 -0.0001 -0.0000  0.0034  0.0016
    23. (1.84289) LP ( 4)Br   2           s(  7.80%)p11.81( 92.13%)d 0.01(  0.06%)
                                                  f 0.00(  0.01%)
                                           -0.0000  0.2793  0.0010 -0.0031 -0.0019
                                            0.0003  0.0000 -0.9528  0.0067  0.0038
                                           -0.0014 -0.0000 -0.0019  0.0002  0.0003
                                            0.0001 -0.0000  0.1157  0.0003 -0.0004
                                            0.0004 -0.0000 -0.0000  0.0002 -0.0005
                                            0.0000 -0.0066  0.0017 -0.0005  0.0000
                                           -0.0000  0.0000 -0.0000 -0.0000  0.0195
                                           -0.0040 -0.0013  0.0000 -0.0117  0.0026
                                           -0.0001 -0.0015 -0.0007  0.0046  0.0026
                                           -0.0000 -0.0001  0.0019  0.0009  0.0000
                                            0.0000 -0.0059 -0.0026  0.0000  0.0002
    24. (1.97379) LP ( 1)Cl   3           s( 91.56%)p 0.09(  8.41%)d 0.00(  0.02%)
                                                  f 0.00(  0.00%)
                                            0.0000  0.0003  0.9569  0.0065  0.0011
                                            0.0003 -0.0000 -0.0354  0.0002  0.0006
                                            0.0002  0.0000  0.2877 -0.0064 -0.0030
                                            0.0014 -0.0000  0.0096  0.0003  0.0001
                                            0.0000  0.0055  0.0002  0.0004  0.0002
                                            0.0000 -0.0001  0.0002  0.0002  0.0001
                                            0.0108 -0.0007 -0.0003  0.0078  0.0005
                                            0.0004 -0.0001  0.0001  0.0004  0.0001
                                           -0.0021 -0.0004  0.0000 -0.0001 -0.0002
                                            0.0001  0.0018  0.0002 -0.0030  0.0002
    25. (1.95605) LP ( 2)Cl   3           s(  0.00%)p 1.00( 99.94%)d 0.00(  0.05%)
                                                  f 0.00(  0.01%)
                                            0.0000  0.0000  0.0051 -0.0016 -0.0007
                                            0.0005 -0.0000  0.1328  0.0018  0.0008
                                           -0.0001 -0.0000  0.0327  0.0005 -0.0000
                                            0.0001  0.0002 -0.9902 -0.0152 -0.0050
                                            0.0023  0.0013  0.0022  0.0010  0.0052
                                            0.0071  0.0027 -0.0068 -0.0164 -0.0079
                                           -0.0010 -0.0013 -0.0007 -0.0002 -0.0002
                                           -0.0001  0.0054 -0.0009 -0.0008  0.0004
                                            0.0001 -0.0001  0.0055 -0.0007  0.0037
                                           -0.0010 -0.0006 -0.0000 -0.0008  0.0003
    26. (1.95468) LP ( 3)Cl   3           s(  0.13%)p99.99( 99.82%)d 0.30(  0.04%)
                                                  f 0.06(  0.01%)
                                            0.0000 -0.0000  0.0356  0.0058  0.0038
                                           -0.0018  0.0002 -0.9620 -0.0125 -0.0014
                                            0.0000  0.0001 -0.2324 -0.0033 -0.0006
                                           -0.0008  0.0000 -0.1365 -0.0022 -0.0004
                                            0.0001  0.0042 -0.0113 -0.0057 -0.0002
                                            0.0006  0.0004  0.0006 -0.0017 -0.0010
                                            0.0064  0.0110  0.0062 -0.0008 -0.0027
                                           -0.0004  0.0010 -0.0002  0.0022 -0.0002
                                            0.0007  0.0002  0.0005  0.0001  0.0006
                                           -0.0002  0.0058 -0.0010  0.0065 -0.0010
    27. (0.01975) RY*( 1) O   1           s(  0.03%)p99.99( 98.68%)d36.00(  1.23%)
                                                  f 1.51(  0.05%)
                                           -0.0000  0.0000  0.0184  0.0019  0.0001
                                            0.0043 -0.1928  0.0067  0.0045  0.0023
                                           -0.0541  0.0019 -0.0006 -0.0230  0.9719
                                           -0.0377 -0.0114 -0.0206 -0.0039  0.0007
                                            0.0393 -0.0074 -0.0166  0.0924  0.0261
                                            0.0057 -0.0038  0.0030  0.0031  0.0271
                                            0.0018 -0.0023 -0.0118  0.0104  0.0026
                                           -0.0027  0.0010 -0.0005 -0.0111  0.0093
                                           -0.0029  0.0034  0.0034 -0.0026  0.0016
                                           -0.0017
    28. (0.01623) RY*( 2) O   1           s( 30.05%)p 2.26( 67.80%)d 0.07(  1.95%)
                                                  f 0.01(  0.20%)
                                           -0.0000  0.0032  0.5470 -0.0356 -0.0074
                                            0.0096 -0.6258  0.0039  0.0501  0.0401
                                           -0.5043 -0.0042  0.0349  0.0028 -0.1625
                                            0.0030  0.0107 -0.1182 -0.0253 -0.0093
                                           -0.0126  0.0022  0.0049 -0.0338 -0.0071
                                           -0.0028  0.0300  0.0067 -0.0008  0.0499
                                            0.0043 -0.0031 -0.0029  0.0003 -0.0003
                                           -0.0032 -0.0053  0.0006  0.0113 -0.0056
                                           -0.0026  0.0018  0.0369 -0.0175 -0.0100
                                            0.0034
    29. (0.00808) RY*( 3) O   1           s( 17.94%)p 0.61( 10.98%)d 3.89( 69.88%)
                                                  f 0.07(  1.19%)
                                           -0.0000  0.0164  0.4173 -0.0689  0.0166
                                            0.0151  0.3016 -0.0264  0.0693 -0.0156
                                           -0.0887  0.0018  0.0541  0.0006  0.0457
                                           -0.0040  0.0036  0.6244  0.0074  0.0075
                                           -0.0164  0.0031 -0.0015  0.0754  0.0044
                                            0.0036 -0.4997 -0.0128 -0.0381  0.2265
                                           -0.0083  0.0070 -0.0057  0.0028  0.0055
                                           -0.0075 -0.0202  0.0125 -0.0097  0.0039
                                            0.0123 -0.0061 -0.0925  0.0389 -0.0263
                                            0.0128
    30. (0.00706) RY*( 4) O   1           s(  0.09%)p 3.67(  0.34%)d99.99( 97.84%)
                                                  f18.54(  1.73%)
                                            0.0000  0.0018  0.0303 -0.0035 -0.0006
                                            0.0024  0.0056  0.0024  0.0007 -0.0008
                                           -0.0001  0.0019  0.0028 -0.0180 -0.0539
                                           -0.0105 -0.0046 -0.0152  0.0040  0.0000
                                           -0.5467  0.0273 -0.0110  0.8102 -0.0338
                                            0.0138  0.0970 -0.0073  0.0007 -0.1056
                                            0.0047 -0.0047 -0.0412  0.0178 -0.0187
[...]
                                            0.0007  0.0942  0.1031  0.2223  0.1217
                                            0.0169  0.0503  0.0707  0.0134 -0.1177
                                            0.0696  0.1666 -0.0717
   158. (0.00035) RY*( 8) H   4           s( 17.26%)p 3.43( 59.28%)d 1.36( 23.46%)
                                           -0.0021 -0.0105  0.4058  0.0885 -0.0556
                                           -0.0193  0.3315 -0.0680  0.5580  0.2074
                                           -0.0525  0.3188  0.1270  0.3238 -0.1191
                                            0.1153  0.0138 -0.0668 -0.0159 -0.2037
                                            0.1799  0.0990 -0.1169
   159. (0.00031) RY*( 9) H   4           s(  5.67%)p14.39( 81.68%)d 2.23( 12.64%)
                                           -0.0033 -0.0245  0.2250  0.0743 -0.0462
                                            0.0659 -0.0186 -0.0361  0.1531  0.0948
                                            0.1154 -0.8694  0.0849  0.1350 -0.0193
                                           -0.0795  0.2235  0.0429 -0.0427 -0.1790
                                           -0.0246  0.1014  0.0703
   160. (0.00026) RY*(10) H   4           s(  3.28%)p 8.79( 28.86%)d20.66( 67.86%)
                                            0.0135  0.0490 -0.0040  0.1739  0.0325
                                            0.2214 -0.4511 -0.0804 -0.0054  0.0630
                                           -0.0244  0.1403 -0.0657  0.1264 -0.0307
                                           -0.0026 -0.0442  0.0253 -0.0091 -0.6388
                                           -0.1060 -0.4647  0.1538
   161. (0.00025) RY*(11) H   4           s(  5.56%)p 1.09(  6.09%)d15.88( 88.35%)
                                            0.0047  0.0004  0.1768  0.1560 -0.0091
                                            0.1219 -0.0410  0.0693  0.1134 -0.1154
                                           -0.0078  0.1148  0.0086 -0.4190 -0.0411
                                           -0.1594  0.0168  0.7751 -0.1241 -0.1108
                                            0.0208  0.2160 -0.0707
   162. (0.00022) RY*(12) H   4           s(  4.39%)p 5.98( 26.27%)d15.80( 69.34%)
                                            0.0147  0.0183  0.0783  0.1929  0.0037
                                            0.3105 -0.3572  0.0457  0.0667 -0.1165
                                            0.0297  0.1229  0.0507 -0.1453  0.0179
                                           -0.0716 -0.0287 -0.4421  0.0790 -0.0787
                                           -0.1511  0.6594  0.0223
   163. (0.00018) RY*(13) H   4           s(  9.12%)p 1.31( 11.98%)d 8.65( 78.90%)
                                           -0.0046 -0.0303  0.2846  0.0966 -0.0246
                                           -0.1069  0.2505  0.0537 -0.0694 -0.1795
                                           -0.0009 -0.0657  0.0274 -0.6655 -0.0691
                                            0.0270  0.0834 -0.3859  0.0680 -0.2360
                                            0.1638 -0.2845 -0.1290
   164. (0.00014) RY*(14) H   4           s( 37.67%)p 0.66( 24.69%)d 1.00( 37.64%)
                                           -0.0052 -0.0299  0.0381  0.6118  0.0032
                                           -0.1738 -0.0452  0.0085  0.0973  0.1415
                                           -0.0257 -0.1599 -0.3986 -0.0468  0.1609
                                            0.3245 -0.4541  0.0172  0.0224  0.1754
                                           -0.0299 -0.0233 -0.0613
   165. (0.00012) RY*(15) H   4           s( 28.83%)p 0.84( 24.18%)d 1.63( 46.99%)
                                           -0.0021 -0.0207 -0.0155  0.5363 -0.0202
                                           -0.1584 -0.1276  0.0074  0.1001  0.0553
                                           -0.0039  0.1370  0.4100  0.0028  0.1113
                                           -0.2635  0.4148 -0.0428 -0.0041  0.3582
                                           -0.1091 -0.2347  0.1375
   166. (0.00010) RY*(16) H   4           s(  5.23%)p 5.96( 31.16%)d12.16( 63.61%)
   167. (0.00006) RY*(17) H   4           s(  0.08%)p 4.75(  0.37%)d99.99( 99.55%)
   168. (0.00006) RY*(18) H   4           s( 25.32%)p 1.39( 35.15%)d 1.56( 39.52%)
   169. (0.00005) RY*(19) H   4           s(  2.15%)p15.71( 33.73%)d29.87( 64.12%)
   170. (0.00005) RY*(20) H   4           s( 10.25%)p 1.10( 11.24%)d 7.66( 78.51%)
   171. (0.00005) RY*(21) H   4           s(  2.20%)p 4.05(  8.90%)d40.48( 88.91%)
   172. (0.00004) RY*(22) H   4           s( 10.28%)p 4.29( 44.09%)d 4.44( 45.63%)
   173. (0.05832) BD*( 1) O   1 -Cl   3  
                ( 41.14%)   0.6414* O   1 s( 10.49%)p 8.49( 88.98%)d 0.05(  0.52%)
                                                  f 0.00(  0.02%)
                                           -0.0003 -0.3207  0.0423  0.0147  0.0008
                                            0.1928 -0.0345 -0.0073 -0.0025 -0.9222
                                            0.0243  0.0089  0.0109 -0.0112 -0.0054
                                           -0.0010  0.0002  0.0054  0.0006  0.0032
                                           -0.0026 -0.0002  0.0006 -0.0059 -0.0008
                                            0.0003  0.0574  0.0046  0.0010  0.0418
                                            0.0034 -0.0006  0.0000  0.0000 -0.0028
                                            0.0004  0.0107 -0.0010  0.0011 -0.0007
                                           -0.0018  0.0004 -0.0036 -0.0020  0.0050
                                           -0.0006
                ( 58.86%)  -0.7672*Cl   3 s(  8.57%)p10.52( 90.16%)d 0.13(  1.16%)
                                                  f 0.01(  0.11%)
                                            0.0000 -0.0005 -0.2873  0.0556  0.0101
                                            0.0025 -0.0001 -0.2312  0.0134  0.0057
                                           -0.0019  0.0004  0.9185 -0.0640 -0.0129
                                            0.0041 -0.0000 -0.0023 -0.0000  0.0007
                                           -0.0003  0.0517 -0.0049  0.0004 -0.0026
                                            0.0000  0.0004  0.0033  0.0004  0.0003
                                            0.0743 -0.0095 -0.0007  0.0565 -0.0061
                                           -0.0010  0.0003 -0.0000  0.0054 -0.0009
                                           -0.0204  0.0030 -0.0000  0.0002  0.0006
                                           -0.0004  0.0177 -0.0021 -0.0187  0.0021
   174. (0.12849) BD*( 1) O   1 - H   4  
                ( 20.10%)   0.4483* O   1 s( 28.57%)p 2.48( 70.94%)d 0.02(  0.48%)
                                                  f 0.00(  0.01%)
                                           -0.0003 -0.5344  0.0062  0.0083 -0.0022
                                           -0.8261  0.0083  0.0070  0.0049  0.0129
                                           -0.0153 -0.0014 -0.0023 -0.1624  0.0002
                                            0.0015  0.0015 -0.0262 -0.0048 -0.0010
                                           -0.0225 -0.0015  0.0008 -0.0056 -0.0010
                                           -0.0001 -0.0498 -0.0039 -0.0014  0.0322
                                            0.0013 -0.0029  0.0039  0.0000  0.0078
                                            0.0001  0.0002 -0.0005 -0.0024 -0.0008
                                           -0.0002  0.0004 -0.0008 -0.0029  0.0018
                                            0.0005
                ( 79.90%)  -0.8939* H   4 s( 99.82%)p 0.00(  0.18%)d 0.00(  0.00%)
                                           -0.9981 -0.0446 -0.0036  0.0021 -0.0145
                                            0.0333 -0.0106 -0.0140 -0.0018 -0.0041
                                           -0.0105  0.0069 -0.0004 -0.0012 -0.0019
                                            0.0008  0.0004 -0.0006 -0.0004 -0.0024
                                            0.0002  0.0009  0.0031


 NHO Directionality and "Bond Bending" (deviations from line of nuclear centers)

         [Thresholds for printing:  angular deviation  >  1.0 degree]
                                    hybrid p-character > 25.0%
                                    orbital occupancy  >  0.10e

                                Line of Centers        Hybrid 1              Hybrid 2
                                ---------------  -------------------   ------------------
                NBO               Theta   Phi    Theta   Phi    Dev    Theta   Phi    Dev
 ========================================================================================
     1. BD (   1) O   1 -Cl   3    90.0  103.5    88.9   99.6   4.0      --     --    --
     2. BD (   1) O   1 - H   4    80.0    0.0    78.8    0.4   1.2      --     --    --
    18. LP (   1) O   1             --     --    101.8  217.6   --       --     --    --
    19. LP (   2) O   1             --     --     11.9  196.0   --       --     --    --
    21. LP (   2)Br   2             --     --      9.3  317.6   --       --     --    --
    22. LP (   3)Br   2             --     --     83.8   89.2   --       --     --    --
    23. LP (   4)Br   2             --     --     83.0  180.1   --       --     --    --
    25. LP (   2)Cl   3             --     --    172.1   13.8   --       --     --    --
    26. LP (   3)Cl   3             --     --     97.9  193.7   --       --     --    --
   174. BD*(   1) O   1 - H   4    80.0    0.0    78.8    0.4   1.2      --     --    --


 Natural Bond Orbitals (Summary):

           NBO                  Occupancy  
 -----------------------------------------------
 Molecular unit  1  (HOCl)
     1. BD (   1) O   1 -Cl   3          1.93935
     2. BD (   1) O   1 - H   4          1.96416
     3. CR (   1) O   1                  1.99970
    13. CR (   1)Cl   3                  2.00000
    14. CR (   2)Cl   3                  1.99979
    15. CR (   3)Cl   3                  2.00003
    16. CR (   4)Cl   3                  1.99996
    17. CR (   5)Cl   3                  2.00003
    18. LP (   1) O   1                  1.96647
    19. LP (   2) O   1                  1.95231
    24. LP (   1)Cl   3                  1.97379
    25. LP (   2)Cl   3                  1.95605
    26. LP (   3)Cl   3                  1.95468
    27. RY*(   1) O   1                  0.01975
    28. RY*(   2) O   1                  0.01623
    29. RY*(   3) O   1                  0.00808
    30. RY*(   4) O   1                  0.00706
    31. RY*(   5) O   1                  0.00637
    32. RY*(   6) O   1                  0.00618
    33. RY*(   7) O   1                  0.00574
    34. RY*(   8) O   1                  0.00343
    35. RY*(   9) O   1                  0.00248
    36. RY*(  10) O   1                  0.00081
    37. RY*(  11) O   1                  0.00065
    38. RY*(  12) O   1                  0.00061
    39. RY*(  13) O   1                  0.00059
    40. RY*(  14) O   1                  0.00051
    41. RY*(  15) O   1                  0.00050
    42. RY*(  16) O   1                  0.00048
    43. RY*(  17) O   1                  0.00048
    44. RY*(  18) O   1                  0.00048
    45. RY*(  19) O   1                  0.00045
    46. RY*(  20) O   1                  0.00045
    47. RY*(  21) O   1                  0.00045
    48. RY*(  22) O   1                  0.00042
    49. RY*(  23) O   1                  0.00036
    50. RY*(  24) O   1                  0.00031
    51. RY*(  25) O   1                  0.00025
    52. RY*(  26) O   1                  0.00020
    53. RY*(  27) O   1                  0.00014
    54. RY*(  28) O   1                  0.00013
    55. RY*(  29) O   1                  0.00013
    56. RY*(  30) O   1                  0.00009
    57. RY*(  31) O   1                  0.00009
    58. RY*(  32) O   1                  0.00008
    59. RY*(  33) O   1                  0.00008
    60. RY*(  34) O   1                  0.00008
    61. RY*(  35) O   1                  0.00006
    62. RY*(  36) O   1                  0.00006
    63. RY*(  37) O   1                  0.00007
    64. RY*(  38) O   1                  0.00006
    65. RY*(  39) O   1                  0.00004
    66. RY*(  40) O   1                  0.00002
    67. RY*(  41) O   1                  0.00000
   110. RY*(   1)Cl   3                  0.02268
   111. RY*(   2)Cl   3                  0.01756
   112. RY*(   3)Cl   3                  0.01679
   113. RY*(   4)Cl   3                  0.01665
   114. RY*(   5)Cl   3                  0.01167
   115. RY*(   6)Cl   3                  0.00928
   116. RY*(   7)Cl   3                  0.00907
   117. RY*(   8)Cl   3                  0.00631
   118. RY*(   9)Cl   3                  0.00168
   119. RY*(  10)Cl   3                  0.00127
   120. RY*(  11)Cl   3                  0.00127
   121. RY*(  12)Cl   3                  0.00119
   122. RY*(  13)Cl   3                  0.00120
   123. RY*(  14)Cl   3                  0.00116
   124. RY*(  15)Cl   3                  0.00111
   125. RY*(  16)Cl   3                  0.00095
   126. RY*(  17)Cl   3                  0.00076
   127. RY*(  18)Cl   3                  0.00077
   128. RY*(  19)Cl   3                  0.00064
   129. RY*(  20)Cl   3                  0.00056
   130. RY*(  21)Cl   3                  0.00044
   131. RY*(  22)Cl   3                  0.00036
   132. RY*(  23)Cl   3                  0.00036
   133. RY*(  24)Cl   3                  0.00031
   134. RY*(  25)Cl   3                  0.00018
   135. RY*(  26)Cl   3                  0.00016
   136. RY*(  27)Cl   3                  0.00015
   137. RY*(  28)Cl   3                  0.00012
   138. RY*(  29)Cl   3                  0.00013
   139. RY*(  30)Cl   3                  0.00013
   140. RY*(  31)Cl   3                  0.00011
   141. RY*(  32)Cl   3                  0.00010
   142. RY*(  33)Cl   3                  0.00011
   143. RY*(  34)Cl   3                  0.00009
   144. RY*(  35)Cl   3                  0.00010
   145. RY*(  36)Cl   3                  0.00009
   146. RY*(  37)Cl   3                  0.00007
   147. RY*(  38)Cl   3                  0.00004
   148. RY*(  39)Cl   3                  0.00004
   149. RY*(  40)Cl   3                  0.00003
   150. RY*(  41)Cl   3                  0.00000
   151. RY*(   1) H   4                  0.01059
   152. RY*(   2) H   4                  0.00553
   153. RY*(   3) H   4                  0.00494
   154. RY*(   4) H   4                  0.00376
   155. RY*(   5) H   4                  0.00070
   156. RY*(   6) H   4                  0.00053
   157. RY*(   7) H   4                  0.00046
   158. RY*(   8) H   4                  0.00035
   159. RY*(   9) H   4                  0.00031
   160. RY*(  10) H   4                  0.00026
   161. RY*(  11) H   4                  0.00025
   162. RY*(  12) H   4                  0.00022
   163. RY*(  13) H   4                  0.00018
   164. RY*(  14) H   4                  0.00014
   165. RY*(  15) H   4                  0.00012
   166. RY*(  16) H   4                  0.00010
   167. RY*(  17) H   4                  0.00006
   168. RY*(  18) H   4                  0.00006
   169. RY*(  19) H   4                  0.00005
   170. RY*(  20) H   4                  0.00005
   171. RY*(  21) H   4                  0.00005
   172. RY*(  22) H   4                  0.00004
   173. BD*(   1) O   1 -Cl   3          0.05832
   174. BD*(   1) O   1 - H   4          0.12849
       -------------------------------
              Total Lewis   25.70633  ( 98.3711%)
        Valence non-Lewis    0.18680  (  0.7149%)
        Rydberg non-Lewis    0.23887  (  0.9141%)
       -------------------------------
            Total unit  1   26.13200  (100.0000%)
           Charge unit  1   -0.13200

 Molecular unit  2  (Br)
     4. CR (   1)Br   2                  1.99985
     5. CR (   2)Br   2                  1.99992
     6. CR (   3)Br   2                  2.00000
     7. CR (   4)Br   2                  2.00000
     8. CR (   5)Br   2                  1.99768
     9. CR (   6)Br   2                  1.99768
    10. CR (   7)Br   2                  1.99771
    11. CR (   8)Br   2                  1.99763
    12. CR (   9)Br   2                  1.99768
    20. LP (   1)Br   2                  1.97846
    21. LP (   2)Br   2                  1.95408
    22. LP (   3)Br   2                  1.95377
    23. LP (   4)Br   2                  1.84289
    68. RY*(   1)Br   2                  0.01858
    69. RY*(   2)Br   2                  0.01851
    70. RY*(   3)Br   2                  0.01844
    71. RY*(   4)Br   2                  0.01843
    72. RY*(   5)Br   2                  0.01763
    73. RY*(   6)Br   2                  0.01132
    74. RY*(   7)Br   2                  0.01125
    75. RY*(   8)Br   2                  0.00921
    76. RY*(   9)Br   2                  0.00222
    77. RY*(  10)Br   2                  0.00177
    78. RY*(  11)Br   2                  0.00177
    79. RY*(  12)Br   2                  0.00173
    80. RY*(  13)Br   2                  0.00173
    81. RY*(  14)Br   2                  0.00172
    82. RY*(  15)Br   2                  0.00173
    83. RY*(  16)Br   2                  0.00172
    84. RY*(  17)Br   2                  0.00172
    85. RY*(  18)Br   2                  0.00173
    86. RY*(  19)Br   2                  0.00137
    87. RY*(  20)Br   2                  0.00134
    88. RY*(  21)Br   2                  0.00117
    89. RY*(  22)Br   2                  0.00077
    90. RY*(  23)Br   2                  0.00077
    91. RY*(  24)Br   2                  0.00070
    92. RY*(  25)Br   2                  0.00036
    93. RY*(  26)Br   2                  0.00028
    94. RY*(  27)Br   2                  0.00025
    95. RY*(  28)Br   2                  0.00025
    96. RY*(  29)Br   2                  0.00025
    97. RY*(  30)Br   2                  0.00024
    98. RY*(  31)Br   2                  0.00025
    99. RY*(  32)Br   2                  0.00025
   100. RY*(  33)Br   2                  0.00021
   101. RY*(  34)Br   2                  0.00020
   102. RY*(  35)Br   2                  0.00016
   103. RY*(  36)Br   2                  0.00013
   104. RY*(  37)Br   2                  0.00013
   105. RY*(  38)Br   2                  0.00011
   106. RY*(  39)Br   2                  0.00008
   107. RY*(  40)Br   2                  0.00009
   108. RY*(  41)Br   2                  0.00005
   109. RY*(  42)Br   2                  0.00000
       -------------------------------
              Total Lewis   35.71735  ( 99.5800%)
        Valence non-Lewis    0.00000  (  0.0000%)
        Rydberg non-Lewis    0.15066  (  0.4200%)
       -------------------------------
            Total unit  2   35.86800  (100.0000%)
           Charge unit  2   -0.86800
 Leave Link  607 at Thu Sep 30 14:39:27 2021, MaxMem= 16106127360 cpu:              81.4 elap:               3.0
 (Enter /sw/contrib/gaussian/g16/B01/g16/l9999.exe)
 1\1\GINC-N2174\SP\RMP2-FC\Gen\Br1Cl1H1O1(1-)\CGAVINH\30-Sep-2021\0\\#p
  pop=NBO SP NoSymm mp2/gen Pseudo=read density=current\\title\\-1,1\O,
 0,0.,0.,0.\Br,0,3.06793175,0.,0.\Cl,0,-0.391809624,1.638263908,0.\H,0,
 0.9994026,0.,0.17622164\\Version=ES64L-G16RevB.01\HF=-950.5219219\MP2=
 -951.224984\RMSD=6.657e-09\Dipole=-1.5190138,0.7727434,0.051106\Quadru
 pole=-17.8585583,8.8492142,9.0093442,0.329687,0.0196427,-0.0404096\PG=
 C01 [X(Br1Cl1H1O1)]\\@


 THERE IS NO SCIENCE WITHOUT FANCY, NOR ART WITHOUT FACTS.
     -- VLADIMIR NABAKOV
 Job cpu time:       0 days  0 hours  6 minutes  0.9 seconds.
 Elapsed time:       0 days  0 hours  0 minutes 18.9 seconds.
 File lengths (MBytes):  RWF=     15 Int=      0 D2E=      0 Chk=      8 Scr=      1
 Normal termination of Gaussian 16 at Thu Sep 30 14:39:28 2021.
