title                                                                   
SP        RMP2-FC                                                     Gen                 
Number of atoms                            I                4
Info1-9                                    I   N=           9
         136         123           0           0           0         110
           1           2           1
Full Title                                 C   N=           1
title       
Route                                      C   N=           5
#p pop=NBO SP NoSymm mp2/gen Pseudo=read density=current    
Charge                                     I               -1
Multiplicity                               I                1
Number of electrons                        I               52
Number of alpha electrons                  I               26
Number of beta electrons                   I               26
Number of basis functions                  I              174
Number of independent functions            I              174
Number of point charges in /Mol/           I                0
Number of translation vectors              I                0
Atomic numbers                             I   N=           4
           8          35          17           1
Nuclear charges                            R   N=           4
  8.00000000E+00  2.50000000E+01  1.70000000E+01  1.00000000E+00
Current cartesian coordinates              R   N=          12
  0.00000000E+00  0.00000000E+00  0.00000000E+00  5.79755078E+00  0.00000000E+00
  0.00000000E+00 -7.40412882E-01  3.09587011E+00  0.00000000E+00  1.42700017E+00
  0.00000000E+00  1.19739531E+00
Number of symbols in /Mol/                 I                0
Force Field                                I                0
Atom Types                                 C   N=           4
                                                
Int Atom Types                             I   N=           4
           0           0           0           0
MM charges                                 R   N=           4
  0.00000000E+00  0.00000000E+00  0.00000000E+00  0.00000000E+00
Integer atomic weights                     I   N=           4
          16          79          35           1
Real atomic weights                        R   N=           4
  1.59949146E+01  7.89183361E+01  3.49688527E+01  1.00782504E+00
Atom fragment info                         I   N=           4
           0           0           0           0
Atom residue num                           I   N=           4
           0           0           0           0
Nuclear spins                              I   N=           4
           0           3           3           1
Nuclear ZEff                               R   N=           4
 -5.60000000E+00 -1.43500000E+03 -1.42400000E+01 -1.00000000E+00
Nuclear ZNuc                               R   N=           4
  8.00000000E+00  3.50000000E+01  1.70000000E+01  1.00000000E+00
Nuclear QMom                               R   N=           4
  0.00000000E+00  3.13000000E+01 -8.16500000E+00  0.00000000E+00
Nuclear GFac                               R   N=           4
  0.00000000E+00  2.10639900E+00  8.21874000E-01  2.79284600E+00
MicOpt                                     I   N=           4
          -1          -1          -1          -1
Number of residues                         I                0
Number of secondary structures             I                0
Number of contracted shells                I               56
Number of primitive shells                 I              138
Pure/Cartesian d shells                    I                0
Pure/Cartesian f shells                    I                0
Highest angular momentum                   I                3
Largest degree of contraction              I               11
Shell types                                I   N=          56
           0           0           0           0           0           1
           1           1           1          -2          -2          -2
          -3          -3           0           0           0           0
           0           0           1           1           1           1
           1          -2          -2          -2          -2          -3
          -3           0           0           0           0           0
           0           1           1           1           1           1
          -2          -2          -2          -3          -3           0
           0           0           0           1           1           1
          -2          -2
Number of primitives per shell             I   N=          56
           7           6           1           1           1           3
           1           1           1           1           1           1
           1           1           7           6           1           1
           1           1           8           8           1           1
           1           8           1           1           1           1
           1          11           9           8           1           1
           1           6           6           1           1           1
           1           1           1           1           1           3
           1           1           1           1           1           1
           1           1
Shell to atom map                          I   N=          56
           1           1           1           1           1           1
           1           1           1           1           1           1
           1           1           2           2           2           2
           2           2           2           2           2           2
           2           2           2           2           2           2
           2           3           3           3           3           3
           3           3           3           3           3           3
           3           3           3           3           3           4
           4           4           4           4           4           4
           4           4
Primitive exponents                        R   N=         138
  1.53300000E+04  2.29900000E+03  5.22400000E+02  1.47300000E+02  4.75500000E+01
  1.67600000E+01  6.20700000E+00  5.22400000E+02  1.47300000E+02  4.75500000E+01
  1.67600000E+01  6.20700000E+00  6.88200000E-01  1.75200000E+00  2.38400000E-01
  7.37600000E-02  3.44600000E+01  7.74900000E+00  2.28000000E+00  7.15600000E-01
  2.14000000E-01  5.97400000E-02  2.31400000E+00  6.45000000E-01  2.14000000E-01
  1.42800000E+00  5.00000000E-01  9.65939000E+03  1.45596000E+03  3.25914000E+02
  4.65657000E+01  1.82469000E+01  3.80201000E+00  1.78632000E+00  9.65939000E+03
  3.25914000E+02  4.65657000E+01  1.82469000E+01  3.80201000E+00  1.78632000E+00
  6.02714000E-01  2.84014000E-01  1.20271000E-01  4.45000000E-02  4.92187000E+02
  9.23642000E+01  2.70718000E+01  7.26539000E+00  3.48481000E+00  1.64048000E+00
  6.48570000E-01  9.53040000E-02  4.92187000E+02  2.70718000E+01  7.26539000E+00
  3.48481000E+00  1.64048000E+00  6.48570000E-01  2.56407000E-01  9.53040000E-02
  7.66600000E-01  1.18200000E-01  3.96000000E-02  3.38996000E+02  1.03217000E+02
  4.23638000E+01  1.84356000E+01  8.37254000E+00  3.80222000E+00  1.68677000E+00
  6.77520000E-01  6.77520000E-01  2.55300000E-01  1.00900000E-01  5.60600000E-01
  2.45400000E-01  4.56100000E+05  6.83300000E+04  1.55500000E+04  4.40500000E+03
  1.43900000E+03  5.20400000E+02  2.03100000E+02  8.39600000E+01  3.62000000E+01
  1.58300000E+01  6.33400000E+00  4.40500000E+03  1.43900000E+03  5.20400000E+02
  2.03100000E+02  8.39600000E+01  3.62000000E+01  1.58300000E+01  6.33400000E+00
  2.69400000E+00  1.43900000E+03  2.03100000E+02  8.39600000E+01  3.62000000E+01
  1.58300000E+01  6.33400000E+00  2.69400000E+00  4.31300000E-01  9.76800000E-01
  1.62500000E-01  5.91000000E-02  6.63300000E+02  1.56800000E+02  4.99800000E+01
  1.84200000E+01  7.24000000E+00  2.92200000E+00  1.56800000E+02  4.99800000E+01
  1.84200000E+01  7.24000000E+00  2.92200000E+00  3.81800000E-01  1.02200000E+00
  1.30100000E-01  4.19000000E-02  1.04600000E+00  3.44000000E-01  1.35000000E-01
  7.06000000E-01  3.12000000E-01  3.38700000E+01  5.09500000E+00  1.15900000E+00
  3.25800000E-01  1.02700000E-01  2.52600000E-02  1.40700000E+00  3.88000000E-01
  1.02000000E-01  1.05700000E+00  2.47000000E-01
Contraction coefficients                   R   N=         138
  5.19808943E-04  4.02025621E-03  2.07128267E-02  8.10105536E-02  2.35962985E-01
  4.42653446E-01  3.57064423E-01 -4.42115008E-05 -1.22591041E-03 -1.05517725E-02
 -6.74452633E-02 -1.71198607E-01  1.07329856E+00  1.00000000E+00  1.00000000E+00
  1.00000000E+00  4.11634896E-02  2.57762836E-01  8.02419274E-01  1.00000000E+00
  1.00000000E+00  1.00000000E+00  1.00000000E+00  1.00000000E+00  1.00000000E+00
  1.00000000E+00  1.00000000E+00  3.80701661E-04  2.63868635E-03  8.70555302E-03
  8.03093709E-02 -4.07648708E-01  7.03092632E-01  4.97431509E-01 -2.19689157E-05
 -9.47832571E-04  9.38727693E-03 -1.47428152E-02 -2.77285578E-01 -7.38047787E-01
  1.00000000E+00  1.00000000E+00  1.00000000E+00  1.00000000E+00  4.71881392E-04
  5.49299123E-03 -8.80115226E-02  3.43400525E-01  5.10073044E-01  2.48575707E-01
  2.24628895E-02  8.56099489E-04 -4.13161033E-05  2.99292350E-03 -2.76886294E-02
 -5.33882855E-02 -1.24705505E-02  3.44020817E-01  5.41867327E-01  2.58979876E-01
  1.00000000E+00  1.00000000E+00  1.00000000E+00  1.52399887E-03  1.56729884E-02
  7.23999463E-02  1.86302862E-01  3.23880760E-01  3.74533722E-01  2.57417809E-01
  6.80509495E-02  1.00000000E+00  1.00000000E+00  1.00000000E+00  1.00000000E+00
  1.00000000E+00  4.93229477E-05  3.83207967E-04  2.00947816E-03  8.38950124E-03
  2.94843950E-02  8.78759948E-02  2.11589759E-01  3.65611554E-01  3.41246350E-01
  1.02162570E-01  2.14249949E-03 -2.21747925E-06 -1.71189708E-04 -1.27922846E-03
 -9.32956265E-03 -3.98910062E-02 -1.05536085E-01  9.36202446E-03  5.10511140E-01
  5.73150737E-01  4.03949245E-06  2.12481765E-04  8.59484452E-04  4.63248159E-03
  4.47343490E-04 -7.38438245E-02 -3.62271994E-01  1.16620337E+00  1.00000000E+00
  1.00000000E+00  1.00000000E+00  2.47206402E-03  1.97550234E-02  9.09917355E-02
  2.63187834E-01  4.49078073E-01  3.60183072E-01  3.03427809E-05 -1.22475826E-03
 -6.01429772E-03 -2.76401323E-02  4.35105612E-04  1.00307272E+00  1.00000000E+00
  1.00000000E+00  1.00000000E+00  1.00000000E+00  1.00000000E+00  1.00000000E+00
  1.00000000E+00  1.00000000E+00  2.54948632E-02  1.90362766E-01  8.52162022E-01
  1.00000000E+00  1.00000000E+00  1.00000000E+00  1.00000000E+00  1.00000000E+00
  1.00000000E+00  1.00000000E+00  1.00000000E+00
Coordinates of each shell                  R   N=         168
  0.00000000E+00  0.00000000E+00  0.00000000E+00  0.00000000E+00  0.00000000E+00
  0.00000000E+00  0.00000000E+00  0.00000000E+00  0.00000000E+00  0.00000000E+00
  0.00000000E+00  0.00000000E+00  0.00000000E+00  0.00000000E+00  0.00000000E+00
  0.00000000E+00  0.00000000E+00  0.00000000E+00  0.00000000E+00  0.00000000E+00
  0.00000000E+00  0.00000000E+00  0.00000000E+00  0.00000000E+00  0.00000000E+00
  0.00000000E+00  0.00000000E+00  0.00000000E+00  0.00000000E+00  0.00000000E+00
  0.00000000E+00  0.00000000E+00  0.00000000E+00  0.00000000E+00  0.00000000E+00
  0.00000000E+00  0.00000000E+00  0.00000000E+00  0.00000000E+00  0.00000000E+00
  0.00000000E+00  0.00000000E+00  5.79755078E+00  0.00000000E+00  0.00000000E+00
  5.79755078E+00  0.00000000E+00  0.00000000E+00  5.79755078E+00  0.00000000E+00
  0.00000000E+00  5.79755078E+00  0.00000000E+00  0.00000000E+00  5.79755078E+00
  0.00000000E+00  0.00000000E+00  5.79755078E+00  0.00000000E+00  0.00000000E+00
  5.79755078E+00  0.00000000E+00  0.00000000E+00  5.79755078E+00  0.00000000E+00
  0.00000000E+00  5.79755078E+00  0.00000000E+00  0.00000000E+00  5.79755078E+00
  0.00000000E+00  0.00000000E+00  5.79755078E+00  0.00000000E+00  0.00000000E+00
  5.79755078E+00  0.00000000E+00  0.00000000E+00  5.79755078E+00  0.00000000E+00
  0.00000000E+00  5.79755078E+00  0.00000000E+00  0.00000000E+00  5.79755078E+00
  0.00000000E+00  0.00000000E+00  5.79755078E+00  0.00000000E+00  0.00000000E+00
  5.79755078E+00  0.00000000E+00  0.00000000E+00 -7.40412882E-01  3.09587011E+00
  0.00000000E+00 -7.40412882E-01  3.09587011E+00  0.00000000E+00 -7.40412882E-01
  3.09587011E+00  0.00000000E+00 -7.40412882E-01  3.09587011E+00  0.00000000E+00
 -7.40412882E-01  3.09587011E+00  0.00000000E+00 -7.40412882E-01  3.09587011E+00
  0.00000000E+00 -7.40412882E-01  3.09587011E+00  0.00000000E+00 -7.40412882E-01
  3.09587011E+00  0.00000000E+00 -7.40412882E-01  3.09587011E+00  0.00000000E+00
 -7.40412882E-01  3.09587011E+00  0.00000000E+00 -7.40412882E-01  3.09587011E+00
  0.00000000E+00 -7.40412882E-01  3.09587011E+00  0.00000000E+00 -7.40412882E-01
  3.09587011E+00  0.00000000E+00 -7.40412882E-01  3.09587011E+00  0.00000000E+00
 -7.40412882E-01  3.09587011E+00  0.00000000E+00 -7.40412882E-01  3.09587011E+00
  0.00000000E+00  1.42700017E+00  0.00000000E+00  1.19739531E+00  1.42700017E+00
  0.00000000E+00  1.19739531E+00  1.42700017E+00  0.00000000E+00  1.19739531E+00
  1.42700017E+00  0.00000000E+00  1.19739531E+00  1.42700017E+00  0.00000000E+00
  1.19739531E+00  1.42700017E+00  0.00000000E+00  1.19739531E+00  1.42700017E+00
  0.00000000E+00  1.19739531E+00  1.42700017E+00  0.00000000E+00  1.19739531E+00
  1.42700017E+00  0.00000000E+00  1.19739531E+00
Num ILSW                                   I              100
ILSW                                       I   N=         100
           0           0           0           0           2           0
           0           0           0           0           0          -1
           5           0           0           0           0           0
           0           0           0           0           0           0
           1           1           0           0           0           0
           0           0      100000           0          -1           0
           0           0           0           0           0           0
           0           0           0           1           0           0
           0 -2000000000           1           0           0           0
           0           0           4          52           0           0
           0           0           0           0           0           0
           0           0           0           4           0           1
           0           0           0           0           0           0
           0           0           0           0           0           0
           0           0           0           0           0           0
           0           0           0           0           0           0
           0           0           0           0
Num RLSW                                   I               52
RLSW                                       R   N=          52
  1.00000000E+00  1.00000000E+00  1.00000000E+00  1.00000000E+00  1.00000000E+00
  0.00000000E+00  0.00000000E+00  1.00000000E+00  0.00000000E+00  0.00000000E+00
  0.00000000E+00  0.00000000E+00  1.00000000E+00  0.00000000E+00  0.00000000E+00
  0.00000000E+00  0.00000000E+00  1.00000000E+00  0.00000000E+00  0.00000000E+00
  0.00000000E+00  0.00000000E+00  1.00000000E+00  0.00000000E+00  0.00000000E+00
  0.00000000E+00  0.00000000E+00  1.00000000E+00  0.00000000E+00  0.00000000E+00
  0.00000000E+00  0.00000000E+00  1.00000000E+00  0.00000000E+00  0.00000000E+00
  0.00000000E+00  0.00000000E+00  0.00000000E+00  1.00000000E+00  1.00000000E+00
  0.00000000E+00  1.00000000E+00  0.00000000E+00  0.00000000E+00  0.00000000E+00
  0.00000000E+00  0.00000000E+00  0.00000000E+00  0.00000000E+00  0.00000000E+00
  0.00000000E+00  0.00000000E+00
ECP-MxAtEC                                 I           250000
ECP-MaxLECP                                I               10
ECP-MaxAtL                                 I          2250000
ECP-MxTECP                                 I         11250000
ECP-LenNCZ                                 I               16
ECP-KFirst                                 I   N=          40
           0           1           0           0           0           2
           0           0           0           5           0           0
           0           9           0           0           0          15
           0           0           0           0           0           0
           0           0           0           0           0           0
           0           0           0           0           0           0
           0           0           0           0
ECP-KLast                                  I   N=          40
           0           1           0           0           0           4
           0           0           0           8           0           0
           0          14           0           0           0          16
           0           0           0           0           0           0
           0           0           0           0           0           0
           0           0           0           0           0           0
           0           0           0           0
ECP-LMax                                   I   N=           4
           0           4           0           0
ECP-LPSkip                                 I   N=           4
           1           0           1           1
ECP-RNFroz                                 R   N=           4
  0.00000000E+00  1.00000000E+01  0.00000000E+00  0.00000000E+00
ECP-NLP                                    I   N=          16
           2           2           2           2           2           2
           2           2           2           2           2           2
           2           2           2           2
ECP-CLP1                                   R   N=          16
  0.00000000E+00  4.99628340E+01  3.70014205E+02  1.02414390E+01  9.91122440E+01
  1.98253046E+02  2.82617400E+01  5.66233660E+01 -1.86058530E+01 -2.79232800E+01
 -3.79693000E-01 -7.80583000E-01  3.59680000E-02  9.43970000E-02 -1.09126900E+00
 -2.88769100E+00
ECP-CLP2                                   R   N=          16
  0.00000000E+00  0.00000000E+00  0.00000000E+00  0.00000000E+00  0.00000000E+00
  0.00000000E+00  0.00000000E+00  0.00000000E+00  0.00000000E+00  0.00000000E+00
  0.00000000E+00  0.00000000E+00  0.00000000E+00  0.00000000E+00  0.00000000E+00
  0.00000000E+00
ECP-ZLP                                    R   N=          16
  1.00000000E+00  7.00242570E+01  3.11784120E+01  7.15659300E+00  4.67734710E+01
  4.61841200E+01  2.17138580E+01  2.09417920E+01  5.06988390E+01  5.06447640E+01
  1.54475090E+01  1.55002590E+01  2.80039100E+00  1.07748000E+00  1.44656060E+01
  2.12340650E+01
MxBond                                     I                2
NBond                                      I   N=           4
           2           0           1           1
IBond                                      I   N=           8
           3           4           0           0           1           0
           1           0
RBond                                      R   N=           8
  1.00000000E+00  1.00000000E+00  0.00000000E+00  0.00000000E+00  1.00000000E+00
  0.00000000E+00  1.00000000E+00  0.00000000E+00
Virial Ratio                               R      2.144392166517401E+00
SCF Energy                                 R     -9.505113148252382E+02
MP2 Energy                                 R     -9.512107100112328E+02
Total Energy                               R     -9.512107100112328E+02
Post-SCF wavefunction norm                 R      1.105023198649742E+00
RMS Density                                R      6.560814771438896E-09
Job Status                                 I                1
Nuclear derivative order                   I                0
External E-field                           R   N=          35
  0.00000000E+00  0.00000000E+00  0.00000000E+00  0.00000000E+00  0.00000000E+00
  0.00000000E+00  0.00000000E+00  0.00000000E+00  0.00000000E+00  0.00000000E+00
  0.00000000E+00  0.00000000E+00  0.00000000E+00  0.00000000E+00  0.00000000E+00
  0.00000000E+00  0.00000000E+00  0.00000000E+00  0.00000000E+00  0.00000000E+00
  0.00000000E+00  0.00000000E+00  0.00000000E+00  0.00000000E+00  0.00000000E+00
  0.00000000E+00  0.00000000E+00  0.00000000E+00  0.00000000E+00  0.00000000E+00
  0.00000000E+00  0.00000000E+00  0.00000000E+00  0.00000000E+00  0.00000000E+00
IOpCl                                      I                0
IROHF                                      I                0
Alpha Orbital Energies                     R   N=         174
 -1.04741061E+02 -2.04799948E+01 -1.04607006E+01 -9.54326105E+00 -7.92788887E+00
 -7.92515937E+00 -7.92500664E+00 -7.29112935E+00 -7.29069119E+00 -7.29052997E+00
 -2.84218979E+00 -2.84209145E+00 -2.84188861E+00 -2.84144193E+00 -2.84142447E+00
 -1.25042413E+00 -9.07157008E-01 -7.37736805E-01 -5.57875460E-01 -4.56984007E-01
 -4.47975816E-01 -3.18708777E-01 -2.92196676E-01 -1.64440449E-01 -1.59294435E-01
 -1.57985820E-01  1.50393137E-01  1.76957724E-01  2.20392685E-01  2.29653241E-01
  2.55663649E-01  2.66486114E-01  2.71894734E-01  2.79605640E-01  2.86149677E-01
  3.11144878E-01  3.25095403E-01  3.32696312E-01  3.59917048E-01  3.98811918E-01
  4.39612093E-01  4.54145178E-01  4.86114639E-01  4.92574429E-01  5.10623585E-01
  5.34652609E-01  5.43904395E-01  5.57169721E-01  5.68958872E-01  5.84079920E-01
  5.95050306E-01  6.01818411E-01  6.41269251E-01  6.47071326E-01  7.53036947E-01
  7.75598522E-01  8.10109343E-01  8.37184383E-01  8.46299550E-01  8.58216882E-01
  8.71593406E-01  8.81887492E-01  8.94692671E-01  9.37941556E-01  9.64097107E-01
  9.75169037E-01  9.96247479E-01  1.00034803E+00  1.00736260E+00  1.01421050E+00
  1.04230945E+00  1.05826579E+00  1.06981891E+00  1.08849803E+00  1.10616483E+00
  1.12151294E+00  1.12548082E+00  1.15504255E+00  1.15906008E+00  1.18409311E+00
  1.19357656E+00  1.21090808E+00  1.21812714E+00  1.24932896E+00  1.26175597E+00
  1.32248409E+00  1.33771024E+00  1.36264246E+00  1.39574660E+00  1.44064447E+00
  1.47402715E+00  1.50703953E+00  1.55060197E+00  1.58076514E+00  1.63846177E+00
  1.67574031E+00  1.68936257E+00  1.70216376E+00  1.75100106E+00  1.76985620E+00
  1.85806040E+00  1.96699495E+00  2.09884967E+00  2.32730509E+00  2.39479370E+00
  2.43950386E+00  2.46783716E+00  2.47272398E+00  2.48054350E+00  2.50363229E+00
  2.50684656E+00  2.52446945E+00  2.54645327E+00  2.55415289E+00  2.55604388E+00
  2.56529241E+00  2.59339499E+00  2.60513349E+00  2.62338623E+00  2.63266859E+00
  2.63652777E+00  2.65378669E+00  2.67582807E+00  2.68629460E+00  2.70362980E+00
  2.71245296E+00  2.73120096E+00  2.74650898E+00  2.77832889E+00  2.80727182E+00
  2.81938364E+00  2.83473305E+00  2.91303276E+00  2.94181237E+00  3.00090916E+00
  3.09963707E+00  3.12930145E+00  3.20213637E+00  3.22453442E+00  3.22900195E+00
  3.26723464E+00  3.29217668E+00  3.36155113E+00  3.49663369E+00  3.54939502E+00
  3.55578685E+00  3.91112885E+00  4.01264463E+00  4.35661992E+00  4.46256061E+00
  4.54666556E+00  4.61014837E+00  4.72209246E+00  4.91676643E+00  5.00092354E+00
  5.35924184E+00  5.44085910E+00  5.68362889E+00  6.37349552E+00  6.62089957E+00
  6.85713585E+00  6.89514806E+00  6.90813869E+00  6.97469259E+00  7.32721448E+00
  7.35123953E+00  7.36102242E+00  7.45365597E+00  7.48888662E+00  7.70610605E+00
  7.72493675E+00  8.37968446E+00  1.45424786E+01  7.98926764E+01
Alpha MO coefficients                      R   N=       30276
  6.40972383E-06  3.48977550E-05  1.01262532E-06 -1.32552969E-04 -7.52614226E-05
 -1.71609782E-07  3.23773706E-06  5.68760656E-07  3.45015664E-07 -9.81849412E-06
 -2.16218192E-06  5.19159196E-05 -1.48816150E-04  5.51643234E-06  1.49475518E-05
 -2.98289470E-05  5.18865316E-06 -1.88536000E-06  2.04705480E-07  1.63419931E-07
 -2.86500512E-06 -1.40356296E-06  1.31380468E-05  1.23524827E-07 -1.01747059E-06
  2.07345698E-05  9.56413670E-06  2.62253942E-05  9.91077930E-06 -9.37825589E-06
  5.60532505E-05  1.48817547E-05  1.58763121E-08 -8.86433556E-08  7.13900201E-07
 -8.25977077E-07  8.18699267E-07 -1.17102593E-06  5.58676002E-07 -3.50075964E-07
 -2.16347077E-06  1.01638359E-05  3.90121827E-06 -3.32184712E-06 -6.64161596E-06
  1.07033073E-05  6.63878538E-08 -1.64296077E-07 -3.07347092E-06  1.34164175E-05
 -2.03173630E-05 -9.29911043E-06 -2.69426731E-07 -1.10300894E-07  1.04940472E-07
 -4.43863756E-06 -6.99080641E-07  9.69611377E-07  5.77765030E-07  3.53990425E-07
 -2.89193494E-07  2.02334506E-05  2.99216417E-07 -4.37607797E-06  4.57313975E-06
 -3.17372004E-07 -2.96474320E-08  6.80417941E-08  2.37631613E-08  5.34742709E-09
 -2.02901013E-07 -6.32604022E-08 -6.10042471E-07 -2.59541105E-07 -5.92691605E-08
  1.57889832E-06  3.26800183E-07  2.03983330E-06  1.36600420E-06  3.31167161E-07
 -4.77251623E-06 -4.12457816E-07  3.32136302E-06  2.09327983E-06 -1.10427296E-06
 -5.63729634E-06  2.83334206E-07  5.76964468E-08 -2.81205820E-09  3.12906246E-07
 -7.79058093E-08 -5.43375734E-07 -7.43768421E-07 -7.16446029E-07  4.30340877E-07
 -1.41831622E-06 -5.54013355E-07 -6.16953712E-07  9.77419658E-07  3.64779472E-06
  1.32750801E-06  9.99534873E-01  1.95381843E-03  1.84744635E-04 -4.17504892E-04
  6.81949382E-05  6.71827026E-05  1.62658327E-05 -7.63954848E-05  2.40464218E-06
  3.49378588E-05 -1.34612114E-04  4.00775229E-06 -1.68868480E-05  7.22347465E-05
 -2.25867939E-06  6.87143543E-06 -5.14551223E-05 -2.49075604E-06  1.43505144E-06
 -1.10657194E-05 -1.38062490E-06 -3.72544668E-06  1.55043795E-07 -1.40379929E-07
 -5.51293773E-06 -3.35831274E-06 -2.78508716E-05  6.46392773E-07 -1.46743243E-06
 -4.28642553E-05 -2.32648954E-05 -2.59238967E-06 -3.44609941E-06  4.84093622E-07
 -6.72383940E-06  3.73560573E-07 -5.63613870E-07 -1.31914514E-06  5.65808556E-06
  2.86163062E-07 -1.25904199E-06 -5.20842659E-06  4.65852876E-06  7.71824300E-07
 -1.17646187E-06  3.71757094E-06 -1.15360500E-06  2.33535041E-06 -2.98036360E-06
  5.82511454E-06 -6.64885301E-07 -2.52326813E-05  1.80265482E-05 -4.58758702E-06
  9.11425531E-07 -2.11353537E-06  5.63397544E-07 -6.79100917E-06  1.65853378E-05
  1.06241533E-06  9.85738668E-06  1.40956062E-05 -4.30399290E-06 -8.08875303E-07
 -1.68349049E-07 -1.19947132E-07 -1.74430948E-06 -8.18415350E-07 -5.70991478E-06
  1.34547710E-06 -9.76670151E-07  5.52759337E-06 -3.95279135E-06  9.76838554E-01
 -9.06843064E-03  4.33750453E-02  2.29092887E-03  3.41108898E-04  5.79567662E-04
  1.53899968E-03  9.88701394E-04 -6.64650833E-04 -1.19879912E-03 -9.06071142E-04
 -3.19079223E-04  7.98742324E-04 -2.49886838E-04 -1.21700081E-04  1.32234425E-04
 -1.07920725E-04  5.66503780E-05  3.15044327E-05  2.19494785E-06  9.97593545E-05
  4.36627206E-05  1.31967214E-04 -4.70736009E-04 -2.39875751E-05  1.35223812E-04
  1.79486501E-04 -1.77584478E-04 -7.18957908E-05  4.05406386E-05 -2.56104450E-04
 -1.94235366E-04  1.62590416E-06 -1.52897360E-05  9.57253875E-06  1.23387084E-06
 -1.42172391E-05 -1.08983800E-05  1.18105946E-05  3.18143416E-05 -8.64777121E-05
 -1.45292518E-05 -1.18484899E-04 -3.04777422E-05 -3.60581730E-05 -4.49812176E-05
  9.41782053E-07  2.54912699E-07  3.90367366E-05 -2.39388445E-04  5.12086122E-04
  2.01941937E-04 -3.79915123E-06  4.42578754E-07  3.97236637E-06  2.80792946E-05
 -4.56607499E-08  3.51066102E-05  1.55198713E-05 -1.69571676E-06 -1.13245770E-05
 -4.43445379E-04  2.94274825E-05 -4.90117634E-05 -7.52938770E-05 -1.25606127E-05
  2.48263338E-06 -2.01260863E-06  1.16451471E-06 -1.32452278E-07  7.29294552E-07
 -9.93159619E-07  2.01480394E-05 -8.90777262E-06  1.06377514E-06 -1.60239708E-05
  6.88874289E-06 -7.31867542E-05  2.20299903E-05 -3.83668200E-06  8.47555788E-05
 -2.12268734E-05 -1.01973922E-04  4.26829494E-05  1.37434051E-05  1.08925918E-04
  9.43467061E-06  1.76341778E-06 -1.54696029E-05 -5.87022442E-06  1.62276958E-05
  3.42263837E-06 -1.62163868E-05  3.06795992E-06  6.11872282E-06  9.33426962E-05
  9.93935702E-06 -5.21412215E-05 -5.89237379E-06 -9.11990496E-06 -2.91111275E-06
  3.67683417E-06  5.99206892E-05  5.70310110E-05 -2.58052526E-04 -1.45765347E-04
 -3.98685476E-04 -5.57951949E-06 -1.90339672E-06 -3.77615095E-06  2.04063112E-05
 -4.71922250E-04 -5.99856202E-05 -2.97965622E-05  2.31464096E-04  1.72231586E-05
  2.31699812E-04  4.64451348E-04  1.11123913E-04 -1.89352748E-05  9.31637782E-05
  2.84219933E-05  1.36326359E-05 -7.20756748E-07 -5.85250307E-07  1.12212661E-05
  1.15886334E-05 -2.82121896E-04 -5.91120548E-06  3.75390007E-05 -4.26015833E-04
 -1.91596154E-04  1.34874597E-04  7.20538785E-05 -5.82804787E-05  3.56212182E-04
 -3.42623794E-05  1.06955922E-05 -3.43474016E-05  1.60194442E-04  1.07572780E-06
  9.60217352E-06 -1.27807347E-04  1.86880313E-04 -1.07778900E-05 -2.44323435E-05
  9.02168160E-05  2.19575223E-05 -2.19107576E-05 -7.49076458E-05  3.89402503E-05
  4.28997912E-04  1.71734263E-03 -9.48868039E-04 -3.85870185E-05 -2.11382320E-04
  5.72322005E-05 -1.68977015E-04 -8.31476775E-04 -3.08026732E-05 -6.09459339E-04
 -3.38319070E-04 -2.74005218E-04  4.68511085E-04 -2.77853076E-05 -3.85214318E-05
 -4.98475454E-05  1.17720734E-05 -5.26740382E-05  1.46773852E-05  5.12830282E-04
  2.53561965E-05  2.61604459E-04  5.26897767E-05 -8.08177513E-05 -1.22939172E-04
 -1.01053129E-04  2.43734953E-03  1.72176484E-03 -1.98539028E-05  3.61024297E-05
 -1.07108263E-05 -1.06917385E-04  5.93574545E-04  4.42681950E-05 -7.03041203E-04
  2.44579170E-03  8.10174548E-06 -3.37723574E-04  7.39569461E-04 -1.23896021E-04
 -3.10892185E-05 -5.05294065E-06 -9.03188892E-06 -4.66828483E-05 -3.27325499E-05
 -1.57678888E-04  2.80473282E-05  6.83068522E-05 -2.60159658E-04 -6.07538496E-05
 -2.71321309E-04 -1.34433951E-04  2.19674708E-04 -7.31687131E-04 -1.70012808E-05
 -5.37358105E-06  1.20982919E-05 -3.21612380E-05  1.75502036E-05 -1.15021022E-05
  4.02113252E-05 -3.37121991E-05  1.80656521E-05  1.15576815E-05  3.60403410E-05
 -4.56090180E-05  1.28576122E-04 -4.29936082E-05  7.12959967E-05 -1.75219617E-06
  4.43242151E-06  6.97320844E-05 -2.75365569E-04  3.70406205E-04  2.60062283E-04