 Entering Gaussian System, Link 0=g16
 Input=brhocl_pp_rOH_opt.gjf
 Output=brhocl_pp_rOH_opt.log
 Initial command:
 /sw/contrib/gaussian/g16/B01/g16/l1.exe "/scr/Gau-13772.inp" -scrdir="/scr/"
 Entering Link 1 = /sw/contrib/gaussian/g16/B01/g16/l1.exe PID=     13773.
  
 Copyright (c) 1988-2017, Gaussian, Inc.  All Rights Reserved.
  
 This is part of the Gaussian(R) 16 program.  It is based on
 the Gaussian(R) 09 system (copyright 2009, Gaussian, Inc.),
 the Gaussian(R) 03 system (copyright 2003, Gaussian, Inc.),
 the Gaussian(R) 98 system (copyright 1998, Gaussian, Inc.),
 the Gaussian(R) 94 system (copyright 1995, Gaussian, Inc.),
 the Gaussian 92(TM) system (copyright 1992, Gaussian, Inc.),
 the Gaussian 90(TM) system (copyright 1990, Gaussian, Inc.),
 the Gaussian 88(TM) system (copyright 1988, Gaussian, Inc.),
 the Gaussian 86(TM) system (copyright 1986, Carnegie Mellon
 University), and the Gaussian 82(TM) system (copyright 1983,
 Carnegie Mellon University). Gaussian is a federally registered
 trademark of Gaussian, Inc.
  
 This software contains proprietary and confidential information,
 including trade secrets, belonging to Gaussian, Inc.
  
 This software is provided under written license and may be
 used, copied, transmitted, or stored only in accord with that
 written license.
  
 The following legend is applicable only to US Government
 contracts under FAR:
  
                    RESTRICTED RIGHTS LEGEND
  
 Use, reproduction and disclosure by the US Government is
 subject to restrictions as set forth in subparagraphs (a)
 and (c) of the Commercial Computer Software - Restricted
 Rights clause in FAR 52.227-19.
  
 Gaussian, Inc.
 340 Quinnipiac St., Bldg. 40, Wallingford CT 06492
  
  
 ---------------------------------------------------------------
 Warning -- This program may not be used in any manner that
 competes with the business of Gaussian, Inc. or will provide
 assistance to any competitor of Gaussian, Inc.  The licensee
 of this program is prohibited from giving any competitor of
 Gaussian, Inc. access to this program.  By using this program,
 the user acknowledges that Gaussian, Inc. is engaged in the
 business of creating and licensing software in the field of
 computational chemistry and represents and warrants to the
 licensee that it is not a competitor of Gaussian, Inc. and that
 it will not use this program in any manner prohibited above.
 ---------------------------------------------------------------
  

 Cite this work as:
 Gaussian 16, Revision B.01,
 M. J. Frisch, G. W. Trucks, H. B. Schlegel, G. E. Scuseria, 
 M. A. Robb, J. R. Cheeseman, G. Scalmani, V. Barone, 
 G. A. Petersson, H. Nakatsuji, X. Li, M. Caricato, A. V. Marenich, 
 J. Bloino, B. G. Janesko, R. Gomperts, B. Mennucci, H. P. Hratchian, 
 J. V. Ortiz, A. F. Izmaylov, J. L. Sonnenberg, D. Williams-Young, 
 F. Ding, F. Lipparini, F. Egidi, J. Goings, B. Peng, A. Petrone, 
 T. Henderson, D. Ranasinghe, V. G. Zakrzewski, J. Gao, N. Rega, 
 G. Zheng, W. Liang, M. Hada, M. Ehara, K. Toyota, R. Fukuda, 
 J. Hasegawa, M. Ishida, T. Nakajima, Y. Honda, O. Kitao, H. Nakai, 
 T. Vreven, K. Throssell, J. A. Montgomery, Jr., J. E. Peralta, 
 F. Ogliaro, M. J. Bearpark, J. J. Heyd, E. N. Brothers, K. N. Kudin, 
 V. N. Staroverov, T. A. Keith, R. Kobayashi, J. Normand, 
 K. Raghavachari, A. P. Rendell, J. C. Burant, S. S. Iyengar, 
 J. Tomasi, M. Cossi, J. M. Millam, M. Klene, C. Adamo, R. Cammi, 
 J. W. Ochterski, R. L. Martin, K. Morokuma, O. Farkas, 
 J. B. Foresman, and D. J. Fox, Gaussian, Inc., Wallingford CT, 2016.
 
 ******************************************
 Gaussian 16:  ES64L-G16RevB.01 20-Dec-2017
                30-Sep-2021 
 ******************************************
 %nproc=28
 Will use up to   28 processors via shared memory.
 %mem=120GB
 %chk=/gscratch/ilahie/mccoygrp/coire_hocl/brhocl_pp/brhocl_pp_rOH_opt.chk
 ----------------------------------------------------
 # opt=(z-matrix) mp2/gen Pseudo=read density=current
 ----------------------------------------------------
 1/10=7,18=40,38=1/1,3;
 2/12=2,17=6,18=5,29=3,40=1/2;
 3/5=7,11=9,16=1,17=8,25=1,30=1,71=1/1,2,3;
 4//1;
 5/5=2,38=5/2;
 8/6=4,10=1/1;
 9/15=2,16=-3/6;
 10/5=1/2;
 6/7=2,8=2,9=2,10=2,22=-1/1;
 7/12=2,29=1/1,2,3,16;
 1/10=7,18=40/3(2);
 2/29=3/2;
 99//99;
 2/29=3/2;
 3/5=7,6=1,11=9,16=1,17=8,25=1,30=1,71=1,82=7/1,2,3;
 4/5=5,16=3,69=1/1;
 5/5=2,38=5/2;
 8/6=4,10=1/1;
 9/15=2,16=-3/6;
 10/5=1/2;
 7/12=2/1,2,3,16;
 1/18=40/3(-8);
 2/29=3/2;
 6/7=2,8=2,9=2,10=2,22=-1/1;
 99/9=10/99;
 -----
 title
 -----
 Symbolic Z-matrix:
 Charge = -1 Multiplicity = 1
 O
 X                    1     10. 
 Cl                   1    r1       2     90. 
 Br                   1    r2       2     90.      3    a1       0
 H                    1    r3       2    oop      3    a1       0
       Variables:
  r1                    1.68447 -1        0.     
  r2                    3.06793 -1        0.     
  r3                    1.01806                  
  a1                  103.4503  -1        0.     
  OOP                  90.     Scan 10   -5.     
 

 GradGradGradGradGradGradGradGradGradGradGradGradGradGradGradGradGradGrad
 Berny optimization.
 Initialization pass.
                       ----------------------------
                       !    Initial Parameters    !
                       ! (Angstroms and Degrees)  !
 ----------------------                            ----------------------
 !      Name          Value   Derivative information (Atomic Units)     !
 ------------------------------------------------------------------------
 !       r1          1.6845   Frozen                                    !
 !       r2          3.0679   Frozen                                    !
 !       r3          1.0181   estimate D2E/DX2                          !
 !       a1        103.4503   Frozen                                    !
 !       OOP        90.0      Scan                                      !
 ------------------------------------------------------------------------
 Trust Radius=3.00D-01 FncErr=1.00D-07 GrdErr=1.00D-07 EigMax=2.50D+02 EigMin=1.00D-04
 Number of optimizations in scan=  11
 Number of steps in this run=     20 maximum allowed number of steps=    100.
 GradGradGradGradGradGradGradGradGradGradGradGradGradGradGradGradGradGrad

 ---------------------------------------------------------------------------------------------------
                            Z-MATRIX (ANGSTROMS AND DEGREES)
   CD    Cent   Atom    N1       Length/X        N2       Alpha/Y        N3        Beta/Z          J
 ---------------------------------------------------------------------------------------------------
      1      1  O 
      2         X        1  10.000000(     1)
      3      2  Cl       1   1.684465(     2)      2   90.000(     5)
      4      3  Br       1   3.067932(     3)      2   90.000(     6)      3  103.450(     8)      0
      5      4  H        1   1.018057(     4)      2   90.000(     7)      3  103.450(     9)      0
 ---------------------------------------------------------------------------------------------------
                         Z-Matrix orientation:                         
 ---------------------------------------------------------------------
 Center     Atomic      Atomic             Coordinates (Angstroms)
 Number     Number       Type             X           Y           Z
 ---------------------------------------------------------------------
      1          8           0        0.000000    0.000000    0.000000
      2         -1           0        0.000000    0.000000   10.000000
      3         17           0        1.684465    0.000000    0.000000
      4         35           0       -0.713606   -2.983785    0.000000
      5          1           0       -0.236802   -0.990133    0.000000
 ---------------------------------------------------------------------
                    Distance matrix (angstroms):
                    1          2          3          4          5
     1  O    0.000000
     2  X   10.000000   0.000000
     3  Cl   1.684465  10.140879   0.000000
     4  Br   3.067932  10.460029   3.828018   0.000000
     5  H    1.018057  10.051688   2.161396   2.049875   0.000000
 Stoichiometry    BrClHO(1-)
 Framework group  CS[SG(BrClHO)]
 Deg. of freedom     5
 Full point group                 CS      NOp   2
 Largest Abelian subgroup         CS      NOp   2
 Largest concise Abelian subgroup C1      NOp   1
                         Standard orientation:                         
 ---------------------------------------------------------------------
 Center     Atomic      Atomic             Coordinates (Angstroms)
 Number     Number       Type             X           Y           Z
 ---------------------------------------------------------------------
      1          8           0        0.585326    1.627069    0.000000
      2         17           0        2.151010    1.005733    0.000000
      3         35           0       -1.178565   -0.883089    0.000000
      4          1           0       -0.000000    0.794103    0.000000
 ---------------------------------------------------------------------
 Rotational constants (GHZ):          22.6741731           1.2843023           1.2154569
 General basis read from cards:  (5D, 7F)
 ======================================================================================================
                                       Pseudopotential Parameters
 ======================================================================================================
  Center     Atomic      Valence      Angular      Power
  Number     Number     Electrons     Momentum     of R      Exponent        Coefficient   SO-Coeffient
 ======================================================================================================
    1          8
                                   No pseudopotential on this center.
    2         17
                                   No pseudopotential on this center.
    3         35           25
                                      G and up 
                                                     2        1.0000000        0.00000000    0.00000000
                                      S - G
                                                     2       70.0242570       49.96283400    0.00000000
                                                     2       31.1784120      370.01420500    0.00000000
                                                     2        7.1565930       10.24143900    0.00000000
                                      P - G
                                                     2       46.7734710       99.11224400    0.00000000
                                                     2       46.1841200      198.25304600    0.00000000
                                                     2       21.7138580       28.26174000    0.00000000
                                                     2       20.9417920       56.62336600    0.00000000
                                      D - G
                                                     2       50.6988390      -18.60585300    0.00000000
                                                     2       50.6447640      -27.92328000    0.00000000
                                                     2       15.4475090       -0.37969300    0.00000000
                                                     2       15.5002590       -0.78058300    0.00000000
                                                     2        2.8003910        0.03596800    0.00000000
                                                     2        1.0774800        0.09439700    0.00000000
                                      F - G
                                                     2       14.4656060       -1.09126900    0.00000000
                                                     2       21.2340650       -2.88769100    0.00000000
    4          1
                                   No pseudopotential on this center.
 ======================================================================================================
 There are   139 symmetry adapted cartesian basis functions of A'  symmetry.
 There are    65 symmetry adapted cartesian basis functions of A"  symmetry.
 There are   115 symmetry adapted basis functions of A'  symmetry.
 There are    59 symmetry adapted basis functions of A"  symmetry.
   174 basis functions,   373 primitive gaussians,   204 cartesian basis functions
    26 alpha electrons       26 beta electrons
       nuclear repulsion energy       150.7472773630 Hartrees.
 NAtoms=    4 NActive=    4 NUniq=    4 SFac= 1.00D+00 NAtFMM=   60 NAOKFM=F Big=F
 Integral buffers will be    131072 words long.
 Raffenetti 1 integral format.
 Two-electron integral symmetry is turned on.
 One-electron integrals computed using PRISM.
   2 Symmetry operations used in ECPInt.
 ECPInt:  NShTT=    1596 NPrTT=    9902 LenC2=    1595 LenP2D=    7765.
 LDataN:  DoStor=T MaxTD1= 7 Len=  274
 NBasis=   174 RedAO= T EigKep=  2.37D-04  NBF=   115    59
 NBsUse=   174 1.00D-06 EigRej= -1.00D+00 NBFU=   115    59
 ExpMin= 2.53D-02 ExpMax= 4.56D+05 ExpMxC= 1.44D+03 IAcc=3 IRadAn=         5 AccDes= 0.00D+00
 Harris functional with IExCor=  205 and IRadAn=       5 diagonalized for initial guess.
 HarFok:  IExCor=  205 AccDes= 0.00D+00 IRadAn=         5 IDoV= 1 UseB2=F ITyADJ=14
 ICtDFT=  3500011 ScaDFX=  1.000000  1.000000  1.000000  1.000000
 FoFCou: FMM=F IPFlag=           0 FMFlag=      100000 FMFlg1=           0
         NFxFlg=           0 DoJE=T BraDBF=F KetDBF=T FulRan=T
         wScrn=  0.000000 ICntrl=       500 IOpCl=  0 I1Cent=   200000004 NGrid=           0
         NMat0=    1 NMatS0=      1 NMatT0=    0 NMatD0=    1 NMtDS0=    0 NMtDT0=    0
 Petite list used in FoFCou.
 Initial guess orbital symmetries:
       Occupied  (A') (A') (A') (A') (A') (A') (A") (A') (A") (A')
                 (A') (A") (A') (A") (A') (A') (A') (A') (A') (A')
                 (A") (A') (A') (A") (A') (A")
       Virtual   (A') (A') (A') (A') (A") (A') (A') (A") (A') (A')
                 (A") (A') (A") (A') (A') (A") (A') (A') (A") (A')
                 (A') (A') (A') (A") (A") (A') (A') (A') (A') (A")
                 (A') (A') (A") (A') (A") (A") (A') (A') (A') (A")
                 (A') (A') (A") (A') (A") (A') (A") (A') (A') (A")
                 (A') (A') (A") (A") (A') (A') (A') (A") (A') (A")
                 (A') (A') (A") (A') (A') (A') (A') (A") (A") (A')
                 (A") (A') (A") (A') (A') (A') (A') (A') (A") (A')
                 (A") (A') (A") (A") (A') (A') (A") (A') (A') (A")
                 (A') (A') (A") (A') (A") (A') (A') (A") (A') (A')
                 (A") (A") (A') (A') (A") (A') (A') (A") (A') (A")
                 (A') (A') (A") (A') (A") (A') (A') (A') (A") (A')
                 (A') (A') (A") (A") (A') (A") (A') (A') (A') (A')
                 (A") (A') (A') (A') (A") (A') (A") (A') (A") (A")
                 (A') (A') (A") (A') (A') (A') (A') (A')
 The electronic state of the initial guess is 1-A'.
 Keep R1 ints in memory in symmetry-blocked form, NReq=174584607.
 Requested convergence on RMS density matrix=1.00D-08 within 128 cycles.
 Requested convergence on MAX density matrix=1.00D-06.
 Requested convergence on             energy=1.00D-06.
 No special actions if energy rises.
 SCF Done:  E(RHF) =  -950.522744722     A.U. after   13 cycles
            NFock= 13  Conv=0.59D-08     -V/T= 2.1444
 ExpMin= 2.53D-02 ExpMax= 4.56D+05 ExpMxC= 1.44D+03 IAcc=3 IRadAn=         5 AccDes= 0.00D+00
 HarFok:  IExCor=  205 AccDes= 0.00D+00 IRadAn=         5 IDoV=-2 UseB2=F ITyADJ=14
 ICtDFT= 12500011 ScaDFX=  1.000000  1.000000  1.000000  1.000000
 Range of M.O.s used for correlation:    11   174
 NBasis=   174 NAE=    26 NBE=    26 NFC=    10 NFV=     0
 NROrb=    164 NOA=    16 NOB=    16 NVA=   148 NVB=   148

 **** Warning!!: The largest alpha MO coefficient is  0.15334236D+02

 Fully direct method using O(ONN) memory.
 JobTyp=1 Pass  1:  I=  11 to  26 NPSUse= 28 ParTrn=T ParDer=T DoDerP=T.
 Spin components of T(2) and E(2):
     alpha-alpha T2 =       0.3032640222D-01 E2=     -0.9389634615D-01
     alpha-beta  T2 =       0.1614150688D+00 E2=     -0.5156941492D+00
     beta-beta   T2 =       0.3032640222D-01 E2=     -0.9389634615D-01
 ANorm=    0.1105471788D+01
 E2 =    -0.7034868415D+00 EUMP2 =    -0.95122623156299D+03
          IDoAtm=1111
          Differentiating once with respect to electric field.
                with respect to dipole field.
          Differentiating once with respect to nuclear coordinates.
 Keep R1 ints in memory in symmetry-blocked form, NReq=174585663.
          There are     1 degrees of freedom in the 1st order CPHF.  IDoFFX=0 NUNeed=     1.
 LinEq1:  Iter=  0 NonCon=     1 RMS=2.90D-03 Max=4.54D-02 NDo=     1
 AX will form     1 AO Fock derivatives at one time.
 LinEq1:  Iter=  1 NonCon=     1 RMS=4.67D-04 Max=4.96D-03 NDo=     1
 LinEq1:  Iter=  2 NonCon=     1 RMS=2.17D-04 Max=4.10D-03 NDo=     1
 LinEq1:  Iter=  3 NonCon=     1 RMS=6.94D-05 Max=1.06D-03 NDo=     1
 LinEq1:  Iter=  4 NonCon=     1 RMS=3.05D-05 Max=9.13D-04 NDo=     1
 LinEq1:  Iter=  5 NonCon=     1 RMS=1.04D-05 Max=1.58D-04 NDo=     1
 LinEq1:  Iter=  6 NonCon=     1 RMS=2.10D-06 Max=2.39D-05 NDo=     1
 LinEq1:  Iter=  7 NonCon=     1 RMS=5.02D-07 Max=8.31D-06 NDo=     1
 LinEq1:  Iter=  8 NonCon=     1 RMS=1.38D-07 Max=1.95D-06 NDo=     1
 LinEq1:  Iter=  9 NonCon=     1 RMS=3.46D-08 Max=7.45D-07 NDo=     1
 LinEq1:  Iter= 10 NonCon=     1 RMS=9.93D-09 Max=2.37D-07 NDo=     1
 LinEq1:  Iter= 11 NonCon=     1 RMS=2.44D-09 Max=4.02D-08 NDo=     1
 LinEq1:  Iter= 12 NonCon=     1 RMS=4.53D-10 Max=7.27D-09 NDo=     1
 LinEq1:  Iter= 13 NonCon=     1 RMS=1.27D-10 Max=1.58D-09 NDo=     1
 LinEq1:  Iter= 14 NonCon=     0 RMS=2.79D-11 Max=4.61D-10 NDo=     1
 Linear equations converged to 1.000D-10 1.000D-09 after    14 iterations.
 End of Minotr F.D. properties file   721 does not exist.
 End of Minotr F.D. properties file   722 does not exist.
 End of Minotr F.D. properties file   788 does not exist.

 **********************************************************************

            Population analysis using the MP2 Density.

 **********************************************************************

 Orbital symmetries:
       Occupied  (A') (A') (A') (A') (A') (A') (A") (A') (A") (A')
                 (A') (A") (A') (A") (A') (A') (A') (A') (A') (A")
                 (A') (A') (A") (A') (A") (A')
       Virtual   (A') (A') (A') (A") (A') (A') (A") (A') (A') (A")
                 (A') (A') (A') (A') (A") (A") (A') (A') (A') (A")
                 (A') (A") (A') (A') (A') (A") (A') (A') (A') (A")
                 (A') (A') (A") (A') (A") (A') (A') (A") (A') (A")
                 (A") (A') (A') (A') (A') (A") (A") (A') (A') (A')
                 (A") (A') (A") (A') (A') (A") (A") (A') (A") (A')
                 (A') (A") (A') (A') (A') (A') (A') (A") (A") (A")
                 (A') (A') (A') (A") (A') (A') (A') (A") (A') (A")
                 (A') (A") (A') (A') (A") (A') (A") (A') (A') (A')
                 (A") (A') (A") (A") (A') (A') (A") (A') (A') (A")
                 (A') (A') (A") (A') (A") (A') (A") (A') (A") (A')
                 (A') (A") (A') (A') (A") (A') (A') (A') (A") (A')
                 (A') (A') (A") (A") (A') (A") (A') (A') (A') (A')
                 (A") (A') (A') (A') (A") (A') (A") (A') (A") (A')
                 (A") (A') (A") (A') (A') (A') (A') (A')
 The electronic state is 1-A'.
 Alpha  occ. eigenvalues -- -104.73032 -20.46025 -10.44982  -9.55944  -7.91698
 Alpha  occ. eigenvalues --   -7.91435  -7.91425  -7.30745  -7.30677  -7.30676
 Alpha  occ. eigenvalues --   -2.85848  -2.85821  -2.85819  -2.85757  -2.85757
 Alpha  occ. eigenvalues --   -1.22670  -0.89427  -0.75802  -0.53768  -0.44083
 Alpha  occ. eigenvalues --   -0.43266  -0.30705  -0.27958  -0.18507  -0.17509
 Alpha  occ. eigenvalues --   -0.17503
 Alpha virt. eigenvalues --    0.15627   0.18210   0.22395   0.23213   0.25096
 Alpha virt. eigenvalues --    0.26495   0.26697   0.28683   0.30274   0.31976
 Alpha virt. eigenvalues --    0.32366   0.32698   0.35832   0.43426   0.43532
 Alpha virt. eigenvalues --    0.46328   0.47863   0.48345   0.50049   0.54188
 Alpha virt. eigenvalues --    0.54824   0.57084   0.58923   0.59635   0.59894
 Alpha virt. eigenvalues --    0.60834   0.65642   0.72612   0.75631   0.77649
 Alpha virt. eigenvalues --    0.80700   0.83197   0.83510   0.85219   0.89538
 Alpha virt. eigenvalues --    0.90034   0.91768   0.94451   0.98257   0.98428
 Alpha virt. eigenvalues --    0.99493   0.99661   1.00498   1.02575   1.03544
 Alpha virt. eigenvalues --    1.06018   1.09061   1.09735   1.10337   1.13153
 Alpha virt. eigenvalues --    1.14215   1.14925   1.15949   1.20010   1.21901
 Alpha virt. eigenvalues --    1.22927   1.27894   1.27991   1.32508   1.32701
 Alpha virt. eigenvalues --    1.34075   1.38365   1.46514   1.47849   1.50373
 Alpha virt. eigenvalues --    1.53838   1.58823   1.63109   1.66654   1.70463
 Alpha virt. eigenvalues --    1.70634   1.77310   1.79619   1.80801   1.90579
 Alpha virt. eigenvalues --    1.97439   2.19895   2.38120   2.39614   2.45666
 Alpha virt. eigenvalues --    2.46294   2.48124   2.49582   2.51339   2.53197
 Alpha virt. eigenvalues --    2.53843   2.54053   2.54309   2.56245   2.58329
 Alpha virt. eigenvalues --    2.60499   2.61728   2.63250   2.63868   2.64748
 Alpha virt. eigenvalues --    2.67136   2.69120   2.69840   2.70945   2.72404
 Alpha virt. eigenvalues --    2.74447   2.76018   2.77076   2.79312   2.84818
 Alpha virt. eigenvalues --    2.88122   3.05273   3.07808   3.10208   3.11680
 Alpha virt. eigenvalues --    3.20551   3.21784   3.22680   3.29421   3.31223
 Alpha virt. eigenvalues --    3.33781   3.48662   3.53492   3.54916   3.62577
 Alpha virt. eigenvalues --    3.93830   4.27442   4.30747   4.45553   4.53853
 Alpha virt. eigenvalues --    4.58873   4.78715   4.99272   5.11473   5.32414
 Alpha virt. eigenvalues --    5.36834   5.65631   6.43943   6.59242   6.85028
 Alpha virt. eigenvalues --    6.90301   6.91728   7.00046   7.27074   7.33120
 Alpha virt. eigenvalues --    7.34743   7.45021   7.56025   7.74618   7.82077
 Alpha virt. eigenvalues --    8.35137  14.56324  79.88306
          Condensed to atoms (all electrons):
               1          2          3          4
     1  O    8.653155  -0.116535  -0.094345   0.047197
     2  Cl  -0.116535  17.073539   0.008797  -0.011377
     3  Br  -0.094345   0.008797  25.938264   0.002757
     4  H    0.047197  -0.011377   0.002757   0.662053
 Mulliken charges:
               1
     1  O   -0.489472
     2  Cl   0.045575
     3  Br  -0.855473
     4  H    0.299370
 Sum of Mulliken charges =  -1.00000
 Mulliken charges with hydrogens summed into heavy atoms:
               1
     1  O   -0.190102
     2  Cl   0.045575
     3  Br  -0.855473
 Electronic spatial extent (au):  <R**2>=            730.0874
 Charge=             -1.0000 electrons
 Dipole moment (field-independent basis, Debye):
    X=              2.6358    Y=              1.1095    Z=              0.0000  Tot=              2.8598
 Quadrupole moment (field-independent basis, Debye-Ang):
   XX=            -50.4152   YY=            -50.0030   ZZ=            -42.8213
   XY=             -7.3247   XZ=              0.0000   YZ=              0.0000
 Traceless Quadrupole moment (field-independent basis, Debye-Ang):
   XX=             -2.6687   YY=             -2.2565   ZZ=              4.9252
   XY=             -7.3247   XZ=              0.0000   YZ=              0.0000
 Octapole moment (field-independent basis, Debye-Ang**2):
  XXX=            -11.7554  YYY=            -17.4707  ZZZ=              0.0000  XYY=             -7.7253
  XXY=             -4.4073  XXZ=              0.0000  XZZ=             -6.2376  YZZ=             -4.0531
  YYZ=              0.0000  XYZ=              0.0000
 Hexadecapole moment (field-independent basis, Debye-Ang**3):
 XXXX=           -626.2315 YYYY=           -357.6552 ZZZZ=            -61.4300 XXXY=           -189.2851
 XXXZ=              0.0000 YYYX=           -182.6957 YYYZ=              0.0000 ZZZX=              0.0000
 ZZZY=              0.0000 XXYY=           -172.6087 XXZZ=           -118.0988 YYZZ=            -68.2277
 XXYZ=              0.0000 YYXZ=              0.0000 ZZXY=            -58.7585
 N-N= 1.507472773630D+02 E-N=-2.610762367744D+03  KE= 8.303906600588D+02
 Symmetry A'   KE= 6.706461949220D+02
 Symmetry A"   KE= 1.597444651368D+02
   2 Symmetry operations used in ECPInt.
 ECPInt:  NShTT=    1596 NPrTT=    9902 LenC2=    1595 LenP2D=    7765.
 LDataN:  DoStor=T MaxTD1= 8 Len=  415
 Calling FoFJK, ICntrl=  10002127 FMM=F ISym2X=1 I1Cent= 0 IOpClX= 0 NMat=1 NMatS=1 NMatT=0.
 ***** Axes restored to original set *****
 -------------------------------------------------------------------
 Center     Atomic                   Forces (Hartrees/Bohr)
 Number     Number              X              Y              Z
 -------------------------------------------------------------------
      1        8          -0.001089396    0.000523426   -0.000000000
      2       17          -0.000072847   -0.000049773   -0.000000000
      3       35          -0.000568260    0.000096969   -0.000000000
      4        1           0.001730503   -0.000570622   -0.000000000
 -------------------------------------------------------------------
 Cartesian Forces:  Max     0.001730503 RMS     0.000653268
 -----------------------------------------------------------------------------------------------
                       Internal Coordinate Forces (Hartree/Bohr or radian)
  Cent   Atom   N1       Length/X         N2         Alpha/Y        N3         Beta/Z          J
 -----------------------------------------------------------------------------------------------
      1  O 
         X        1   0.000000(     1)
      2  Cl       1  -0.000073(     2)      2  -0.000000(     5)
      3  Br       1   0.000038(     3)      2   0.000000(     6)      3   0.003335(     8)     0
      4  H        1   0.000152(     4)      2   0.000000(     7)      3  -0.003493(     9)     0
 -----------------------------------------------------------------------------------------------
 Internal  Forces:  Max     0.003493258 RMS     0.001610884

 GradGradGradGradGradGradGradGradGradGradGradGradGradGradGradGradGradGrad
 Berny optimization.
 Search for a local minimum.
 Step number   1 out of a maximum of   20 on scan point     1 out of    11
 All quantities printed in internal units (Hartrees-Bohrs-Radians)
 Second derivative matrix not updated -- first step.
 The second derivative matrix:
                          r1        r2        r3        a1        OOP
           r1           0.37827
           r2           0.00000   0.02143
           r3           0.00000   0.00000   0.44650
           a1           0.00000  -0.00000  -0.00000   0.41000
           OOP          0.00000   0.00000   0.00000  -0.00000   0.23901
 ITU=  0
     Eigenvalues ---    0.446501000.000001000.000001000.000001000.00000
 RFO step:  Lambda=-5.20541454D-08 EMin= 4.46495746D-01
 Linear search not attempted -- first point.
 Variable       Old X    -DE/DX   Delta X   Delta X   Delta X     New X
                                 (Linear)    (Quad)   (Total)
    r1        3.18318  -0.00007   0.00000   0.00000   0.00000   3.18318
    r2        5.79755   0.00004   0.00000   0.00000   0.00000   5.79755
    r3        1.92385   0.00015   0.00000   0.00034   0.00034   1.92419
    a1        1.80555  -0.00016   0.00000   0.00000   0.00000   1.80555
   OOP        1.57080   0.00000   0.00000   0.00000   0.00000   1.57080
         Item               Value     Threshold  Converged?
 Maximum Force            0.000152     0.000450     YES
 RMS     Force            0.000152     0.000300     YES
 Maximum Displacement     0.000341     0.001800     YES
 RMS     Displacement     0.000153     0.001200     YES
 Predicted change in Energy=-2.602707D-08
 Optimization completed.
    -- Stationary point found.
                       ----------------------------
                       !   Optimized Parameters   !
                       ! (Angstroms and Degrees)  !
 ----------------------                            ----------------------
 !      Name          Value   Derivative information (Atomic Units)     !
 ------------------------------------------------------------------------
 !       r1          1.6845   -DE/DX =   -0.0001                        !
 !       r2          3.0679   -DE/DX =    0.0                           !
 !       r3          1.0181   -DE/DX =    0.0002                        !
 !       a1        103.4503   -DE/DX =   -0.0002                        !
 !       OOP        90.0      -DE/DX =    0.0                           !
 ------------------------------------------------------------------------
 GradGradGradGradGradGradGradGradGradGradGradGradGradGradGradGradGradGrad

 ---------------------------------------------------------------------------------------------------
                            Z-MATRIX (ANGSTROMS AND DEGREES)
   CD    Cent   Atom    N1       Length/X        N2       Alpha/Y        N3        Beta/Z          J
 ---------------------------------------------------------------------------------------------------
      1      1  O 
      2         X        1  10.000000(     1)
      3      2  Cl       1   1.684465(     2)      2   90.000(     5)
      4      3  Br       1   3.067932(     3)      2   90.000(     6)      3  103.450(     8)      0
      5      4  H        1   1.018057(     4)      2   85.000(     7)      3  103.450(     9)      0
 ---------------------------------------------------------------------------------------------------
                         Z-Matrix orientation:                         
 ---------------------------------------------------------------------
 Center     Atomic      Atomic             Coordinates (Angstroms)
 Number     Number       Type             X           Y           Z
 ---------------------------------------------------------------------
      1          8           0        0.000000    0.000000    0.000000
      2         -1           0        0.000000    0.000000   10.000000
      3         17           0        1.684465    0.000000    0.000000
      4         35           0       -0.713606   -2.983785    0.000000
      5          1           0       -0.235901   -0.986366    0.088729
 ---------------------------------------------------------------------
                    Distance matrix (angstroms):
                    1          2          3          4          5
     1  O    0.000000
     2  X   10.000000   0.000000
     3  Cl   1.684465  10.140879   0.000000
     4  Br   3.067932  10.460029   3.828018   0.000000
     5  H    1.018057   9.963024   2.160693   2.055665   0.000000
 Stoichiometry    BrClHO(1-)
 Framework group  C1[X(BrClHO)]
 Deg. of freedom     6
 Full point group                 C1      NOp   1
 Omega: Change in point group or standard orientation.

 Old FWG=CS   [SG(Br1Cl1H1O1)]
 New FWG=C01  [X(Br1Cl1H1O1)]
 Largest Abelian subgroup         C1      NOp   1
 Largest concise Abelian subgroup C1      NOp   1
                         Standard orientation:                         
 ---------------------------------------------------------------------
 Center     Atomic      Atomic             Coordinates (Angstroms)
 Number     Number       Type             X           Y           Z
 ---------------------------------------------------------------------
      1          8           0        1.399398    1.015571   -0.007014
      2         17           0        2.344008   -0.379092    0.000001
      3         35           0       -1.471251   -0.066806   -0.000791
      4          1           0        0.450452    0.658223    0.083772
 ---------------------------------------------------------------------
 Rotational constants (GHZ):          22.6642900           1.2842644           1.2154396
 Basis read from rwf:  (5D, 7F)
 Pseudo-potential data read from rwf file.
 There are   204 symmetry adapted cartesian basis functions of A   symmetry.
 There are   174 symmetry adapted basis functions of A   symmetry.
   174 basis functions,   373 primitive gaussians,   204 cartesian basis functions
    26 alpha electrons       26 beta electrons
       nuclear repulsion energy       150.7304531195 Hartrees.
 NAtoms=    4 NActive=    4 NUniq=    4 SFac= 1.00D+00 NAtFMM=   60 NAOKFM=F Big=F
 Integral buffers will be    131072 words long.
 Raffenetti 1 integral format.
 Two-electron integral symmetry is turned on.
 One-electron integrals computed using PRISM.
   1 Symmetry operations used in ECPInt.
 ECPInt:  NShTT=    1596 NPrTT=    9902 LenC2=    1595 LenP2D=    7765.
 LDataN:  DoStor=T MaxTD1= 7 Len=  274
 NBasis=   174 RedAO= T EigKep=  2.39D-04  NBF=   174
 NBsUse=   174 1.00D-06 EigRej= -1.00D+00 NBFU=   174
 Initial guess from the checkpoint file:  "/gscratch/ilahie/mccoygrp/coire_hocl/brhocl_pp/brhocl_pp_rOH_opt.chk"
 B after Tr=     0.000000   -0.000000   -0.000000
         Rot=    0.955676    0.000007    0.000001    0.294420 Ang=  34.25 deg.
 ExpMin= 2.53D-02 ExpMax= 4.56D+05 ExpMxC= 1.44D+03 IAcc=3 IRadAn=         5 AccDes= 0.00D+00
 Harris functional with IExCor=  205 and IRadAn=       5 diagonalized for initial guess.
 HarFok:  IExCor=  205 AccDes= 0.00D+00 IRadAn=         5 IDoV= 1 UseB2=F ITyADJ=14
 ICtDFT=  3500011 ScaDFX=  1.000000  1.000000  1.000000  1.000000
 FoFCou: FMM=F IPFlag=           0 FMFlag=      100000 FMFlg1=           0
         NFxFlg=           0 DoJE=T BraDBF=F KetDBF=T FulRan=T
         wScrn=  0.000000 ICntrl=       500 IOpCl=  0 I1Cent=   200000004 NGrid=           0
         NMat0=    1 NMatS0=      1 NMatT0=    0 NMatD0=    1 NMtDS0=    0 NMtDT0=    0
 Petite list used in FoFCou.
 Keep R1 ints in memory in canonical form, NReq=152797578.
 Requested convergence on RMS density matrix=1.00D-08 within 128 cycles.
 Requested convergence on MAX density matrix=1.00D-06.
 Requested convergence on             energy=1.00D-06.
 No special actions if energy rises.
 SCF Done:  E(RHF) =  -950.522487720     A.U. after   11 cycles
            NFock= 11  Conv=0.73D-08     -V/T= 2.1444
 ExpMin= 2.53D-02 ExpMax= 4.56D+05 ExpMxC= 1.44D+03 IAcc=3 IRadAn=         5 AccDes= 0.00D+00
 HarFok:  IExCor=  205 AccDes= 0.00D+00 IRadAn=         5 IDoV=-2 UseB2=F ITyADJ=14
 ICtDFT= 12500011 ScaDFX=  1.000000  1.000000  1.000000  1.000000
 Range of M.O.s used for correlation:    11   174
 NBasis=   174 NAE=    26 NBE=    26 NFC=    10 NFV=     0
 NROrb=    164 NOA=    16 NOB=    16 NVA=   148 NVB=   148

 **** Warning!!: The largest alpha MO coefficient is  0.15913414D+02

 Fully direct method using O(ONN) memory.
 JobTyp=1 Pass  1:  I=  11 to  26 NPSUse= 28 ParTrn=T ParDer=T DoDerP=T.
 Spin components of T(2) and E(2):
     alpha-alpha T2 =       0.3032511620D-01 E2=     -0.9388130493D-01
     alpha-beta  T2 =       0.1614295247D+00 E2=     -0.5156632847D+00
     beta-beta   T2 =       0.3032511620D-01 E2=     -0.9388130493D-01
 ANorm=    0.1105477163D+01
 E2 =    -0.7034258945D+00 EUMP2 =    -0.95122591361461D+03
          IDoAtm=1111
          Differentiating once with respect to electric field.
                with respect to dipole field.
          Differentiating once with respect to nuclear coordinates.
 Keep R1 ints in memory in canonical form, NReq=152802515.
          There are     1 degrees of freedom in the 1st order CPHF.  IDoFFX=0 NUNeed=     1.
 LinEq1:  Iter=  0 NonCon=     1 RMS=2.90D-03 Max=4.45D-02 NDo=     1
 AX will form     1 AO Fock derivatives at one time.
 LinEq1:  Iter=  1 NonCon=     1 RMS=4.67D-04 Max=4.67D-03 NDo=     1
 LinEq1:  Iter=  2 NonCon=     1 RMS=2.17D-04 Max=4.10D-03 NDo=     1
 LinEq1:  Iter=  3 NonCon=     1 RMS=6.94D-05 Max=1.05D-03 NDo=     1
 LinEq1:  Iter=  4 NonCon=     1 RMS=3.05D-05 Max=9.14D-04 NDo=     1
 LinEq1:  Iter=  5 NonCon=     1 RMS=1.04D-05 Max=1.57D-04 NDo=     1
 LinEq1:  Iter=  6 NonCon=     1 RMS=2.17D-06 Max=2.31D-05 NDo=     1
 LinEq1:  Iter=  7 NonCon=     1 RMS=5.57D-07 Max=9.50D-06 NDo=     1
 LinEq1:  Iter=  8 NonCon=     1 RMS=1.81D-07 Max=4.26D-06 NDo=     1
 LinEq1:  Iter=  9 NonCon=     1 RMS=5.70D-08 Max=1.25D-06 NDo=     1
 LinEq1:  Iter= 10 NonCon=     1 RMS=1.59D-08 Max=2.09D-07 NDo=     1
 LinEq1:  Iter= 11 NonCon=     1 RMS=3.52D-09 Max=4.89D-08 NDo=     1
 LinEq1:  Iter= 12 NonCon=     1 RMS=6.53D-10 Max=1.58D-08 NDo=     1
 LinEq1:  Iter= 13 NonCon=     1 RMS=2.02D-10 Max=3.84D-09 NDo=     1
 LinEq1:  Iter= 14 NonCon=     1 RMS=6.44D-11 Max=1.12D-09 NDo=     1
 LinEq1:  Iter= 15 NonCon=     0 RMS=1.16D-11 Max=2.13D-10 NDo=     1
 Linear equations converged to 1.000D-10 1.000D-09 after    15 iterations.
 End of Minotr F.D. properties file   721 does not exist.
 End of Minotr F.D. properties file   722 does not exist.
 End of Minotr F.D. properties file   788 does not exist.
   1 Symmetry operations used in ECPInt.
 ECPInt:  NShTT=    1596 NPrTT=    9902 LenC2=    1595 LenP2D=    7765.
 LDataN:  DoStor=T MaxTD1= 8 Len=  415
 Calling FoFJK, ICntrl=  10002127 FMM=F ISym2X=0 I1Cent= 0 IOpClX= 0 NMat=1 NMatS=1 NMatT=0.
 ***** Axes restored to original set *****
 -------------------------------------------------------------------
 Center     Atomic                   Forces (Hartrees/Bohr)
 Number     Number              X              Y              Z
 -------------------------------------------------------------------
      1        8          -0.001133278    0.000252260    0.002428932
      2       17           0.000016717    0.000008022    0.000093144
      3       35          -0.000561425    0.000114837    0.001262119
      4        1           0.001677986   -0.000375120   -0.003784195
 -------------------------------------------------------------------
 Cartesian Forces:  Max     0.003784195 RMS     0.001484770
 -----------------------------------------------------------------------------------------------
                       Internal Coordinate Forces (Hartree/Bohr or radian)
  Cent   Atom   N1       Length/X         N2         Alpha/Y        N3         Beta/Z          J
 -----------------------------------------------------------------------------------------------
      1  O 
         X        1   0.000000(     1)
      2  Cl       1   0.000017(     2)      2  -0.000296(     5)
      3  Br       1   0.000019(     3)      2  -0.007317(     6)      3   0.003320(     8)     0
      4  H        1  -0.000355(     4)      2   0.007248(     7)      3  -0.003295(     9)     0
 -----------------------------------------------------------------------------------------------
 Internal  Forces:  Max     0.007317198 RMS     0.003773816

 GradGradGradGradGradGradGradGradGradGradGradGradGradGradGradGradGradGrad
 Berny optimization.
 Search for a local minimum.
 Step number   1 out of a maximum of   20 on scan point     2 out of    11
 All quantities printed in internal units (Hartrees-Bohrs-Radians)
 Second derivative matrix not updated -- first step.
 The second derivative matrix:
                          r1        r2        r3        a1        OOP
           r1           0.37827
           r2           0.00000   0.02143
           r3           0.00000   0.00000   0.44650
           a1           0.00000  -0.00000  -0.00000   0.41000
           OOP          0.00000   0.00000   0.00000  -0.00000   0.23901
 ITU=  0
     Eigenvalues ---    0.446501000.000001000.000001000.000001000.00000
 RFO step:  Lambda=-2.82553775D-07 EMin= 4.46495746D-01
 Linear search not attempted -- first point.
 Variable       Old X    -DE/DX   Delta X   Delta X   Delta X     New X
                                 (Linear)    (Quad)   (Total)
    r1        3.18318   0.00002   0.00000   0.00000   0.00000   3.18318
    r2        5.79755   0.00002   0.00000   0.00000   0.00000   5.79755
    r3        1.92385  -0.00036   0.00000  -0.00080  -0.00080   1.92305
    a1        1.80555   0.00003   0.00000   0.00000   0.00000   1.80555
   OOP        1.48353   0.00725   0.00000   0.00000   0.00000   1.48353
         Item               Value     Threshold  Converged?
 Maximum Force            0.000355     0.000450     YES
 RMS     Force            0.000355     0.000300     NO 
 Maximum Displacement     0.000796     0.001800     YES
 RMS     Displacement     0.000356     0.001200     YES
 Predicted change in Energy=-1.412769D-07
 GradGradGradGradGradGradGradGradGradGradGradGradGradGradGradGradGradGrad

 ---------------------------------------------------------------------------------------------------
                            Z-MATRIX (ANGSTROMS AND DEGREES)
   CD    Cent   Atom    N1       Length/X        N2       Alpha/Y        N3        Beta/Z          J
 ---------------------------------------------------------------------------------------------------
      1      1  O 
      2         X        1  10.000000(     1)
      3      2  Cl       1   1.684465(     2)      2   90.000(     5)
      4      3  Br       1   3.067932(     3)      2   90.000(     6)      3  103.450(     8)      0
      5      4  H        1   1.017636(     4)      2   85.000(     7)      3  103.450(     9)      0
 ---------------------------------------------------------------------------------------------------
                         Z-Matrix orientation:                         
 ---------------------------------------------------------------------
 Center     Atomic      Atomic             Coordinates (Angstroms)
 Number     Number       Type             X           Y           Z
 ---------------------------------------------------------------------
      1          8           0        0.000000    0.000000    0.000000
      2         -1           0        0.000000    0.000000   10.000000
      3         17           0        1.684465    0.000000    0.000000
      4         35           0       -0.713606   -2.983785    0.000000
      5          1           0       -0.235803   -0.985958    0.088693
 ---------------------------------------------------------------------
                    Distance matrix (angstroms):
                    1          2          3          4          5
     1  O    0.000000
     2  X   10.000000   0.000000
     3  Cl   1.684465  10.140879   0.000000
     4  Br   3.067932  10.460029   3.828018   0.000000
     5  H    1.017636   9.963018   2.160419   2.056082   0.000000
 Stoichiometry    BrClHO(1-)
 Framework group  C1[X(BrClHO)]
 Deg. of freedom     6
 Full point group                 C1      NOp   1
 Largest Abelian subgroup         C1      NOp   1
 Largest concise Abelian subgroup C1      NOp   1
                         Standard orientation:                         
 ---------------------------------------------------------------------
 Center     Atomic      Atomic             Coordinates (Angstroms)
 Number     Number       Type             X           Y           Z
 ---------------------------------------------------------------------
      1          8           0        1.399394    1.015566   -0.007012
      2         17           0        2.344001   -0.379099    0.000001
      3         35           0       -1.471257   -0.066806   -0.000790
      4          1           0        0.450839    0.658368    0.083736
 ---------------------------------------------------------------------
 Rotational constants (GHZ):          22.6640926           1.2842631           1.2154377
 Basis read from rwf:  (5D, 7F)
 Pseudo-potential data read from rwf file.
 There are   204 symmetry adapted cartesian basis functions of A   symmetry.
 There are   174 symmetry adapted basis functions of A   symmetry.
   174 basis functions,   373 primitive gaussians,   204 cartesian basis functions
    26 alpha electrons       26 beta electrons
       nuclear repulsion energy       150.7313956009 Hartrees.
 NAtoms=    4 NActive=    4 NUniq=    4 SFac= 1.00D+00 NAtFMM=   60 NAOKFM=F Big=F
 Integral buffers will be    131072 words long.
 Raffenetti 1 integral format.
 Two-electron integral symmetry is turned on.
 One-electron integrals computed using PRISM.
   1 Symmetry operations used in ECPInt.
 ECPInt:  NShTT=    1596 NPrTT=    9902 LenC2=    1595 LenP2D=    7765.
 LDataN:  DoStor=T MaxTD1= 7 Len=  274
 NBasis=   174 RedAO= T EigKep=  2.38D-04  NBF=   174
 NBsUse=   174 1.00D-06 EigRej= -1.00D+00 NBFU=   174
 Initial guess from the checkpoint file:  "/gscratch/ilahie/mccoygrp/coire_hocl/brhocl_pp/brhocl_pp_rOH_opt.chk"
 B after Tr=    -0.000000   -0.000000    0.000000
         Rot=    1.000000    0.000001   -0.000000    0.000001 Ang=   0.00 deg.
 Keep R1 ints in memory in canonical form, NReq=152797578.
 Requested convergence on RMS density matrix=1.00D-08 within 128 cycles.
 Requested convergence on MAX density matrix=1.00D-06.
 Requested convergence on             energy=1.00D-06.
 No special actions if energy rises.
 SCF Done:  E(RHF) =  -950.522513149     A.U. after    7 cycles
            NFock=  7  Conv=0.33D-08     -V/T= 2.1444
 ExpMin= 2.53D-02 ExpMax= 4.56D+05 ExpMxC= 1.44D+03 IAcc=3 IRadAn=         5 AccDes= 0.00D+00
 HarFok:  IExCor=  205 AccDes= 0.00D+00 IRadAn=         5 IDoV=-2 UseB2=F ITyADJ=14
 ICtDFT= 12500011 ScaDFX=  1.000000  1.000000  1.000000  1.000000
 Range of M.O.s used for correlation:    11   174
 NBasis=   174 NAE=    26 NBE=    26 NFC=    10 NFV=     0
 NROrb=    164 NOA=    16 NOB=    16 NVA=   148 NVB=   148

 **** Warning!!: The largest alpha MO coefficient is  0.15916838D+02

 Fully direct method using O(ONN) memory.
 JobTyp=1 Pass  1:  I=  11 to  26 NPSUse= 28 ParTrn=T ParDer=T DoDerP=T.
 Spin components of T(2) and E(2):
     alpha-alpha T2 =       0.3032220025D-01 E2=     -0.9387672682D-01
     alpha-beta  T2 =       0.1614174569D+00 E2=     -0.5156471957D+00
     beta-beta   T2 =       0.3032220025D-01 E2=     -0.9387672682D-01
 ANorm=    0.1105469067D+01
 E2 =    -0.7034006494D+00 EUMP2 =    -0.95122591379843D+03
          IDoAtm=1111
          Differentiating once with respect to electric field.
                with respect to dipole field.
          Differentiating once with respect to nuclear coordinates.
 Keep R1 ints in memory in canonical form, NReq=152802515.
          There are     1 degrees of freedom in the 1st order CPHF.  IDoFFX=0 NUNeed=     1.
 LinEq1:  Iter=  0 NonCon=     1 RMS=2.90D-03 Max=4.45D-02 NDo=     1
 AX will form     1 AO Fock derivatives at one time.
 LinEq1:  Iter=  1 NonCon=     1 RMS=4.67D-04 Max=4.66D-03 NDo=     1
 LinEq1:  Iter=  2 NonCon=     1 RMS=2.17D-04 Max=4.10D-03 NDo=     1
 LinEq1:  Iter=  3 NonCon=     1 RMS=6.94D-05 Max=1.05D-03 NDo=     1
 LinEq1:  Iter=  4 NonCon=     1 RMS=3.05D-05 Max=9.13D-04 NDo=     1
 LinEq1:  Iter=  5 NonCon=     1 RMS=1.04D-05 Max=1.57D-04 NDo=     1
 LinEq1:  Iter=  6 NonCon=     1 RMS=2.17D-06 Max=2.31D-05 NDo=     1
 LinEq1:  Iter=  7 NonCon=     1 RMS=5.57D-07 Max=9.50D-06 NDo=     1
 LinEq1:  Iter=  8 NonCon=     1 RMS=1.81D-07 Max=4.26D-06 NDo=     1
 LinEq1:  Iter=  9 NonCon=     1 RMS=5.70D-08 Max=1.24D-06 NDo=     1
 LinEq1:  Iter= 10 NonCon=     1 RMS=1.59D-08 Max=2.09D-07 NDo=     1
 LinEq1:  Iter= 11 NonCon=     1 RMS=3.51D-09 Max=4.88D-08 NDo=     1
 LinEq1:  Iter= 12 NonCon=     1 RMS=6.52D-10 Max=1.58D-08 NDo=     1
 LinEq1:  Iter= 13 NonCon=     1 RMS=2.02D-10 Max=3.84D-09 NDo=     1
 LinEq1:  Iter= 14 NonCon=     1 RMS=6.43D-11 Max=1.12D-09 NDo=     1
 LinEq1:  Iter= 15 NonCon=     0 RMS=1.16D-11 Max=2.13D-10 NDo=     1
 Linear equations converged to 1.000D-10 1.000D-09 after    15 iterations.
 End of Minotr F.D. properties file   721 does not exist.
 End of Minotr F.D. properties file   722 does not exist.
 End of Minotr F.D. properties file   788 does not exist.
   1 Symmetry operations used in ECPInt.
 ECPInt:  NShTT=    1596 NPrTT=    9902 LenC2=    1595 LenP2D=    7765.
 LDataN:  DoStor=T MaxTD1= 8 Len=  415
 Calling FoFJK, ICntrl=  10002127 FMM=F ISym2X=0 I1Cent= 0 IOpClX= 0 NMat=1 NMatS=1 NMatT=0.
 ***** Axes restored to original set *****
 -------------------------------------------------------------------
 Center     Atomic                   Forces (Hartrees/Bohr)
 Number     Number              X              Y              Z
 -------------------------------------------------------------------
      1        8          -0.001072956    0.000488269    0.002406888
      2       17           0.000013669    0.000008781    0.000093040
      3       35          -0.000563500    0.000105967    0.001260522
      4        1           0.001622787   -0.000603017   -0.003760450
 -------------------------------------------------------------------
 Cartesian Forces:  Max     0.003760450 RMS     0.001478947
 -----------------------------------------------------------------------------------------------
                       Internal Coordinate Forces (Hartree/Bohr or radian)
  Cent   Atom   N1       Length/X         N2         Alpha/Y        N3         Beta/Z          J
 -----------------------------------------------------------------------------------------------
      1  O 
         X        1   0.000000(     1)
      2  Cl       1   0.000014(     2)      2  -0.000296(     5)
      3  Br       1   0.000028(     3)      2  -0.007308(     6)      3   0.003320(     8)     0
      4  H        1  -0.000120(     4)      2   0.007239(     7)      3  -0.003292(     9)     0
 -----------------------------------------------------------------------------------------------
 Internal  Forces:  Max     0.007307942 RMS     0.003767932

 GradGradGradGradGradGradGradGradGradGradGradGradGradGradGradGradGradGrad
 Berny optimization.
 Search for a local minimum.
 Step number   2 out of a maximum of   20 on scan point     2 out of    11
 All quantities printed in internal units (Hartrees-Bohrs-Radians)
 Update second derivatives using D2CorN and points    2
 DE= -1.84D-07 DEPred=-1.41D-07 R= 1.30D+00
 Trust test= 1.30D+00 RLast= 7.96D-04 DXMaxT set to 3.00D-01
 The second derivative matrix:
                          r1        r2        r3        a1        OOP
           r1           0.37827
           r2           0.00000   0.02143
           r3           0.00000   0.00000   0.44650
           a1           0.00000  -0.00000  -0.00000   0.41000
           OOP          0.00000   0.00000   0.00000  -0.00000   0.23901
 ITU=  0  0
     Eigenvalues ---    0.446501000.000001000.000001000.000001000.00000
 RFO step:  Lambda= 0.00000000D+00 EMin= 4.46495746D-01
 Quartic linear search produced a step of  0.67767.
 Variable       Old X    -DE/DX   Delta X   Delta X   Delta X     New X
                                 (Linear)    (Quad)   (Total)
    r1        3.18318   0.00001   0.00000   0.00000   0.00000   3.18318
    r2        5.79755   0.00003   0.00000   0.00000   0.00000   5.79755
    r3        1.92305  -0.00012  -0.00054  -0.00000  -0.00054   1.92251
    a1        1.80555   0.00003   0.00000   0.00000   0.00000   1.80555
   OOP        1.48353   0.00724   0.00000   0.00000   0.00000   1.48353
         Item               Value     Threshold  Converged?
 Maximum Force            0.000120     0.000450     YES
 RMS     Force            0.000120     0.000300     YES
 Maximum Displacement     0.000539     0.001800     YES
 RMS     Displacement     0.000241     0.001200     YES
 Predicted change in Energy=-4.438495D-10
 Optimization completed.
    -- Stationary point found.
                       ----------------------------
                       !   Optimized Parameters   !
                       ! (Angstroms and Degrees)  !
 ----------------------                            ----------------------
 !      Name          Value   Derivative information (Atomic Units)     !
 ------------------------------------------------------------------------
 !       r1          1.6845   -DE/DX =    0.0                           !
 !       r2          3.0679   -DE/DX =    0.0                           !
 !       r3          1.0176   -DE/DX =   -0.0001                        !
 !       a1        103.4503   -DE/DX =    0.0                           !
 !       OOP        85.0      -DE/DX =    0.0072                        !
 ------------------------------------------------------------------------
 GradGradGradGradGradGradGradGradGradGradGradGradGradGradGradGradGradGrad

 ---------------------------------------------------------------------------------------------------
                            Z-MATRIX (ANGSTROMS AND DEGREES)
   CD    Cent   Atom    N1       Length/X        N2       Alpha/Y        N3        Beta/Z          J
 ---------------------------------------------------------------------------------------------------
      1      1  O 
      2         X        1  10.000000(     1)
      3      2  Cl       1   1.684465(     2)      2   90.000(     5)
      4      3  Br       1   3.067932(     3)      2   90.000(     6)      3  103.450(     8)      0
      5      4  H        1   1.017636(     4)      2   80.000(     7)      3  103.450(     9)      0
 ---------------------------------------------------------------------------------------------------
                         Z-Matrix orientation:                         
 ---------------------------------------------------------------------
 Center     Atomic      Atomic             Coordinates (Angstroms)
 Number     Number       Type             X           Y           Z
 ---------------------------------------------------------------------
      1          8           0        0.000000    0.000000    0.000000
      2         -1           0        0.000000    0.000000   10.000000
      3         17           0        1.684465    0.000000    0.000000
      4         35           0       -0.713606   -2.983785    0.000000
      5          1           0       -0.233108   -0.974688    0.176711
 ---------------------------------------------------------------------
                    Distance matrix (angstroms):
                    1          2          3          4          5
     1  O    0.000000
     2  X   10.000000   0.000000
     3  Cl   1.684465  10.140879   0.000000
     4  Br   3.067932  10.460029   3.828018   0.000000
     5  H    1.017636   9.874278   2.158316   2.073301   0.000000
 Stoichiometry    BrClHO(1-)
 Framework group  C1[X(BrClHO)]
 Deg. of freedom     6
 Full point group                 C1      NOp   1
 Largest Abelian subgroup         C1      NOp   1
 Largest concise Abelian subgroup C1      NOp   1
                         Standard orientation:                         
 ---------------------------------------------------------------------
 Center     Atomic      Atomic             Coordinates (Angstroms)
 Number     Number       Type             X           Y           Z
 ---------------------------------------------------------------------
      1          8           0        1.399268    1.015358   -0.014062
      2         17           0        2.343802   -0.379304    0.000010
      3         35           0       -1.471439   -0.066811   -0.001554
      4          1           0        0.461596    0.663690    0.166725
 ---------------------------------------------------------------------
 Rotational constants (GHZ):          22.6347514           1.2841498           1.2153854
 Basis read from rwf:  (5D, 7F)
 Pseudo-potential data read from rwf file.
 There are   204 symmetry adapted cartesian basis functions of A   symmetry.
 There are   174 symmetry adapted basis functions of A   symmetry.
   174 basis functions,   373 primitive gaussians,   204 cartesian basis functions
    26 alpha electrons       26 beta electrons
       nuclear repulsion energy       150.6820167224 Hartrees.
 NAtoms=    4 NActive=    4 NUniq=    4 SFac= 1.00D+00 NAtFMM=   60 NAOKFM=F Big=F
 Integral buffers will be    131072 words long.
 Raffenetti 1 integral format.
 Two-electron integral symmetry is turned on.
 One-electron integrals computed using PRISM.
   1 Symmetry operations used in ECPInt.
 ECPInt:  NShTT=    1596 NPrTT=    9902 LenC2=    1595 LenP2D=    7765.
 LDataN:  DoStor=T MaxTD1= 7 Len=  274
 NBasis=   174 RedAO= T EigKep=  2.44D-04  NBF=   174
 NBsUse=   174 1.00D-06 EigRej= -1.00D+00 NBFU=   174
 Initial guess from the checkpoint file:  "/gscratch/ilahie/mccoygrp/coire_hocl/brhocl_pp/brhocl_pp_rOH_opt.chk"
 B after Tr=    -0.000000    0.000000   -0.000000
         Rot=    1.000000    0.000061   -0.000007    0.000040 Ang=   0.01 deg.
 Keep R1 ints in memory in canonical form, NReq=152797578.
 Requested convergence on RMS density matrix=1.00D-08 within 128 cycles.
 Requested convergence on MAX density matrix=1.00D-06.
 Requested convergence on             energy=1.00D-06.
 No special actions if energy rises.
 SCF Done:  E(RHF) =  -950.521749658     A.U. after   11 cycles
            NFock= 11  Conv=0.90D-08     -V/T= 2.1444
 ExpMin= 2.53D-02 ExpMax= 4.56D+05 ExpMxC= 1.44D+03 IAcc=3 IRadAn=         5 AccDes= 0.00D+00
 HarFok:  IExCor=  205 AccDes= 0.00D+00 IRadAn=         5 IDoV=-2 UseB2=F ITyADJ=14
 ICtDFT= 12500011 ScaDFX=  1.000000  1.000000  1.000000  1.000000
 Range of M.O.s used for correlation:    11   174
 NBasis=   174 NAE=    26 NBE=    26 NFC=    10 NFV=     0
 NROrb=    164 NOA=    16 NOB=    16 NVA=   148 NVB=   148

 **** Warning!!: The largest alpha MO coefficient is  0.16274686D+02

 Fully direct method using O(ONN) memory.
 JobTyp=1 Pass  1:  I=  11 to  26 NPSUse= 28 ParTrn=T ParDer=T DoDerP=T.
 Spin components of T(2) and E(2):
     alpha-alpha T2 =       0.3031831275D-01 E2=     -0.9383426123D-01
     alpha-beta  T2 =       0.1614593019D+00 E2=     -0.5155615590D+00
     beta-beta   T2 =       0.3031831275D-01 E2=     -0.9383426123D-01
 ANorm=    0.1105484476D+01
 E2 =    -0.7032300815D+00 EUMP2 =    -0.95122497973988D+03
          IDoAtm=1111
          Differentiating once with respect to electric field.
                with respect to dipole field.
          Differentiating once with respect to nuclear coordinates.
 Keep R1 ints in memory in canonical form, NReq=152802515.
          There are     1 degrees of freedom in the 1st order CPHF.  IDoFFX=0 NUNeed=     1.
 LinEq1:  Iter=  0 NonCon=     1 RMS=2.90D-03 Max=4.20D-02 NDo=     1
 AX will form     1 AO Fock derivatives at one time.
 LinEq1:  Iter=  1 NonCon=     1 RMS=4.67D-04 Max=4.68D-03 NDo=     1
 LinEq1:  Iter=  2 NonCon=     1 RMS=2.17D-04 Max=4.09D-03 NDo=     1
 LinEq1:  Iter=  3 NonCon=     1 RMS=6.95D-05 Max=1.01D-03 NDo=     1
 LinEq1:  Iter=  4 NonCon=     1 RMS=3.05D-05 Max=9.11D-04 NDo=     1
 LinEq1:  Iter=  5 NonCon=     1 RMS=1.06D-05 Max=1.54D-04 NDo=     1
 LinEq1:  Iter=  6 NonCon=     1 RMS=2.35D-06 Max=4.28D-05 NDo=     1
 LinEq1:  Iter=  7 NonCon=     1 RMS=6.66D-07 Max=1.55D-05 NDo=     1
 LinEq1:  Iter=  8 NonCon=     1 RMS=2.25D-07 Max=4.98D-06 NDo=     1
 LinEq1:  Iter=  9 NonCon=     1 RMS=6.56D-08 Max=9.36D-07 NDo=     1
 LinEq1:  Iter= 10 NonCon=     1 RMS=1.67D-08 Max=1.94D-07 NDo=     1
 LinEq1:  Iter= 11 NonCon=     1 RMS=3.64D-09 Max=6.03D-08 NDo=     1
 LinEq1:  Iter= 12 NonCon=     1 RMS=6.94D-10 Max=1.80D-08 NDo=     1
 LinEq1:  Iter= 13 NonCon=     1 RMS=2.16D-10 Max=3.94D-09 NDo=     1
 LinEq1:  Iter= 14 NonCon=     1 RMS=6.71D-11 Max=1.02D-09 NDo=     1
 LinEq1:  Iter= 15 NonCon=     0 RMS=1.19D-11 Max=2.17D-10 NDo=     1
 Linear equations converged to 1.000D-10 1.000D-09 after    15 iterations.
 End of Minotr F.D. properties file   721 does not exist.
 End of Minotr F.D. properties file   722 does not exist.
 End of Minotr F.D. properties file   788 does not exist.
   1 Symmetry operations used in ECPInt.
 ECPInt:  NShTT=    1596 NPrTT=    9902 LenC2=    1595 LenP2D=    7765.
 LDataN:  DoStor=T MaxTD1= 8 Len=  415
 Calling FoFJK, ICntrl=  10002127 FMM=F ISym2X=0 I1Cent= 0 IOpClX= 0 NMat=1 NMatS=1 NMatT=0.
 ***** Axes restored to original set *****
 -------------------------------------------------------------------
 Center     Atomic                   Forces (Hartrees/Bohr)
 Number     Number              X              Y              Z
 -------------------------------------------------------------------
      1        8          -0.001204765   -0.000297514    0.004884863
      2       17           0.000280584    0.000177618    0.000155165
      3       35          -0.000546132    0.000155716    0.002448259
      4        1           0.001470313   -0.000035820   -0.007488287
 -------------------------------------------------------------------
 Cartesian Forces:  Max     0.007488287 RMS     0.002739985
 -----------------------------------------------------------------------------------------------
                       Internal Coordinate Forces (Hartree/Bohr or radian)
  Cent   Atom   N1       Length/X         N2         Alpha/Y        N3         Beta/Z          J
 -----------------------------------------------------------------------------------------------
      1  O 
         X        1   0.000000(     1)
      2  Cl       1   0.000281(     2)      2  -0.000494(     5)
      3  Br       1  -0.000024(     3)      2  -0.014194(     6)      3   0.003289(     8)     0
      4  H        1  -0.001603(     4)      2   0.014079(     7)      3  -0.002724(     9)     0
 -----------------------------------------------------------------------------------------------
 Internal  Forces:  Max     0.014193905 RMS     0.006837950

 GradGradGradGradGradGradGradGradGradGradGradGradGradGradGradGradGradGrad
 Berny optimization.
 Search for a local minimum.
 Step number   1 out of a maximum of   20 on scan point     3 out of    11
 All quantities printed in internal units (Hartrees-Bohrs-Radians)
 Second derivative matrix not updated -- first step.
 The second derivative matrix:
                          r1        r2        r3        a1        OOP
           r1           0.37827
           r2           0.00000   0.02143
           r3           0.00000   0.00000   0.44650
           a1           0.00000  -0.00000  -0.00000   0.41000
           OOP          0.00000   0.00000   0.00000  -0.00000   0.23901
 ITU=  0
     Eigenvalues ---    0.446501000.000001000.000001000.000001000.00000
 RFO step:  Lambda=-5.75377003D-06 EMin= 4.46495746D-01
 Linear search not attempted -- first point.
 Variable       Old X    -DE/DX   Delta X   Delta X   Delta X     New X
                                 (Linear)    (Quad)   (Total)
    r1        3.18318   0.00028   0.00000   0.00000   0.00000   3.18318
    r2        5.79755  -0.00002   0.00000   0.00000   0.00000   5.79755
    r3        1.92305  -0.00160   0.00000  -0.00359  -0.00359   1.91946
    a1        1.80555   0.00057   0.00000   0.00000   0.00000   1.80555
   OOP        1.39626   0.01408   0.00000   0.00000   0.00000   1.39626
         Item               Value     Threshold  Converged?
 Maximum Force            0.001603     0.000450     NO 
 RMS     Force            0.001603     0.000300     NO 
 Maximum Displacement     0.003590     0.001800     NO 
 RMS     Displacement     0.001605     0.001200     NO 
 Predicted change in Energy=-2.876885D-06
 GradGradGradGradGradGradGradGradGradGradGradGradGradGradGradGradGradGrad

 ---------------------------------------------------------------------------------------------------
                            Z-MATRIX (ANGSTROMS AND DEGREES)
   CD    Cent   Atom    N1       Length/X        N2       Alpha/Y        N3        Beta/Z          J
 ---------------------------------------------------------------------------------------------------
      1      1  O 
      2         X        1  10.000000(     1)
      3      2  Cl       1   1.684465(     2)      2   90.000(     5)
      4      3  Br       1   3.067932(     3)      2   90.000(     6)      3  103.450(     8)      0
      5      4  H        1   1.015736(     4)      2   80.000(     7)      3  103.450(     9)      0
 ---------------------------------------------------------------------------------------------------
                         Z-Matrix orientation:                         
 ---------------------------------------------------------------------
 Center     Atomic      Atomic             Coordinates (Angstroms)
 Number     Number       Type             X           Y           Z
 ---------------------------------------------------------------------
      1          8           0        0.000000    0.000000    0.000000
      2         -1           0        0.000000    0.000000   10.000000
      3         17           0        1.684465    0.000000    0.000000
      4         35           0       -0.713606   -2.983785    0.000000
      5          1           0       -0.232673   -0.972868    0.176381
 ---------------------------------------------------------------------
                    Distance matrix (angstroms):
                    1          2          3          4          5
     1  O    0.000000
     2  X   10.000000   0.000000
     3  Cl   1.684465  10.140879   0.000000
     4  Br   3.067932  10.460029   3.828018   0.000000
     5  H    1.015736   9.874417   2.157082   2.075137   0.000000
 Stoichiometry    BrClHO(1-)
 Framework group  C1[X(BrClHO)]
 Deg. of freedom     6
 Full point group                 C1      NOp   1
 Largest Abelian subgroup         C1      NOp   1
 Largest concise Abelian subgroup C1      NOp   1
                         Standard orientation:                         
 ---------------------------------------------------------------------
 Center     Atomic      Atomic             Coordinates (Angstroms)
 Number     Number       Type             X           Y           Z
 ---------------------------------------------------------------------
      1          8           0        1.399248    1.015335   -0.014047
      2         17           0        2.343770   -0.379334    0.000010
      3         35           0       -1.471468   -0.066809   -0.001548
      4          1           0        0.463323    0.664331    0.166399
 ---------------------------------------------------------------------
 Rotational constants (GHZ):          22.6339561           1.2841439           1.2153771
 Basis read from rwf:  (5D, 7F)
 Pseudo-potential data read from rwf file.
 There are   204 symmetry adapted cartesian basis functions of A   symmetry.
 There are   174 symmetry adapted basis functions of A   symmetry.
   174 basis functions,   373 primitive gaussians,   204 cartesian basis functions
    26 alpha electrons       26 beta electrons
       nuclear repulsion energy       150.6865375103 Hartrees.
 NAtoms=    4 NActive=    4 NUniq=    4 SFac= 1.00D+00 NAtFMM=   60 NAOKFM=F Big=F
 Integral buffers will be    131072 words long.
 Raffenetti 1 integral format.
 Two-electron integral symmetry is turned on.
 One-electron integrals computed using PRISM.
   1 Symmetry operations used in ECPInt.
 ECPInt:  NShTT=    1596 NPrTT=    9902 LenC2=    1595 LenP2D=    7765.
 LDataN:  DoStor=T MaxTD1= 7 Len=  274
 NBasis=   174 RedAO= T EigKep=  2.44D-04  NBF=   174
 NBsUse=   174 1.00D-06 EigRej= -1.00D+00 NBFU=   174
 Initial guess from the checkpoint file:  "/gscratch/ilahie/mccoygrp/coire_hocl/brhocl_pp/brhocl_pp_rOH_opt.chk"
 B after Tr=     0.000000   -0.000000    0.000000
         Rot=    1.000000    0.000010   -0.000002    0.000006 Ang=   0.00 deg.
 Keep R1 ints in memory in canonical form, NReq=152797578.
 Requested convergence on RMS density matrix=1.00D-08 within 128 cycles.
 Requested convergence on MAX density matrix=1.00D-06.
 Requested convergence on             energy=1.00D-06.
 No special actions if energy rises.
 SCF Done:  E(RHF) =  -950.521866816     A.U. after    8 cycles
            NFock=  8  Conv=0.48D-08     -V/T= 2.1444
 ExpMin= 2.53D-02 ExpMax= 4.56D+05 ExpMxC= 1.44D+03 IAcc=3 IRadAn=         5 AccDes= 0.00D+00
 HarFok:  IExCor=  205 AccDes= 0.00D+00 IRadAn=         5 IDoV=-2 UseB2=F ITyADJ=14
 ICtDFT= 12500011 ScaDFX=  1.000000  1.000000  1.000000  1.000000
 Range of M.O.s used for correlation:    11   174
 NBasis=   174 NAE=    26 NBE=    26 NFC=    10 NFV=     0
 NROrb=    164 NOA=    16 NOB=    16 NVA=   148 NVB=   148

 **** Warning!!: The largest alpha MO coefficient is  0.16270910D+02

 Fully direct method using O(ONN) memory.
 JobTyp=1 Pass  1:  I=  11 to  26 NPSUse= 28 ParTrn=T ParDer=T DoDerP=T.
 Spin components of T(2) and E(2):
     alpha-alpha T2 =       0.3030515119D-01 E2=     -0.9381380769D-01
     alpha-beta  T2 =       0.1614043101D+00 E2=     -0.5154891171D+00
     beta-beta   T2 =       0.3030515119D-01 E2=     -0.9381380769D-01
 ANorm=    0.1105447698D+01
 E2 =    -0.7031167325D+00 EUMP2 =    -0.95122498354842D+03
          IDoAtm=1111
          Differentiating once with respect to electric field.
                with respect to dipole field.
          Differentiating once with respect to nuclear coordinates.
 Keep R1 ints in memory in canonical form, NReq=152802559.
          There are     1 degrees of freedom in the 1st order CPHF.  IDoFFX=0 NUNeed=     1.
 LinEq1:  Iter=  0 NonCon=     1 RMS=2.90D-03 Max=4.20D-02 NDo=     1
 AX will form     1 AO Fock derivatives at one time.
 LinEq1:  Iter=  1 NonCon=     1 RMS=4.67D-04 Max=4.68D-03 NDo=     1
 LinEq1:  Iter=  2 NonCon=     1 RMS=2.17D-04 Max=4.08D-03 NDo=     1
 LinEq1:  Iter=  3 NonCon=     1 RMS=6.93D-05 Max=1.01D-03 NDo=     1
 LinEq1:  Iter=  4 NonCon=     1 RMS=3.04D-05 Max=9.09D-04 NDo=     1
 LinEq1:  Iter=  5 NonCon=     1 RMS=1.06D-05 Max=1.54D-04 NDo=     1
 LinEq1:  Iter=  6 NonCon=     1 RMS=2.35D-06 Max=4.28D-05 NDo=     1
 LinEq1:  Iter=  7 NonCon=     1 RMS=6.65D-07 Max=1.55D-05 NDo=     1
 LinEq1:  Iter=  8 NonCon=     1 RMS=2.25D-07 Max=4.98D-06 NDo=     1
 LinEq1:  Iter=  9 NonCon=     1 RMS=6.55D-08 Max=9.33D-07 NDo=     1
 LinEq1:  Iter= 10 NonCon=     1 RMS=1.67D-08 Max=1.94D-07 NDo=     1
 LinEq1:  Iter= 11 NonCon=     1 RMS=3.63D-09 Max=5.98D-08 NDo=     1
 LinEq1:  Iter= 12 NonCon=     1 RMS=6.90D-10 Max=1.79D-08 NDo=     1
 LinEq1:  Iter= 13 NonCon=     1 RMS=2.15D-10 Max=3.95D-09 NDo=     1
 LinEq1:  Iter= 14 NonCon=     1 RMS=6.68D-11 Max=1.02D-09 NDo=     1
 LinEq1:  Iter= 15 NonCon=     0 RMS=1.18D-11 Max=2.15D-10 NDo=     1
 Linear equations converged to 1.000D-10 1.000D-09 after    15 iterations.
 End of Minotr F.D. properties file   721 does not exist.
 End of Minotr F.D. properties file   722 does not exist.
 End of Minotr F.D. properties file   788 does not exist.
   1 Symmetry operations used in ECPInt.
 ECPInt:  NShTT=    1596 NPrTT=    9902 LenC2=    1595 LenP2D=    7765.
 LDataN:  DoStor=T MaxTD1= 8 Len=  415
 Calling FoFJK, ICntrl=  10002127 FMM=F ISym2X=0 I1Cent= 0 IOpClX= 0 NMat=1 NMatS=1 NMatT=0.
 ***** Axes restored to original set *****
 -------------------------------------------------------------------
 Center     Atomic                   Forces (Hartrees/Bohr)
 Number     Number              X              Y              Z
 -------------------------------------------------------------------
      1        8          -0.000930021    0.000771330    0.004683911
      2       17           0.000265931    0.000181102    0.000154456
      3       35          -0.000555608    0.000115286    0.002434420
      4        1           0.001219698   -0.001067719   -0.007272787
 -------------------------------------------------------------------
 Cartesian Forces:  Max     0.007272787 RMS     0.002666080
 -----------------------------------------------------------------------------------------------
                       Internal Coordinate Forces (Hartree/Bohr or radian)
  Cent   Atom   N1       Length/X         N2         Alpha/Y        N3         Beta/Z          J
 -----------------------------------------------------------------------------------------------
      1  O 
         X        1   0.000000(     1)
      2  Cl       1   0.000266(     2)      2  -0.000492(     5)
      3  Br       1   0.000017(     3)      2  -0.014114(     6)      3   0.003288(     8)     0
      4  H        1  -0.000520(     4)      2   0.013999(     7)      3  -0.002712(     9)     0
 -----------------------------------------------------------------------------------------------
 Internal  Forces:  Max     0.014113676 RMS     0.006781727

 GradGradGradGradGradGradGradGradGradGradGradGradGradGradGradGradGradGrad
 Berny optimization.
 Search for a local minimum.
 Step number   2 out of a maximum of   20 on scan point     3 out of    11
 All quantities printed in internal units (Hartrees-Bohrs-Radians)
 Update second derivatives using D2CorN and points    1    2
 DE= -3.81D-06 DEPred=-2.88D-06 R= 1.32D+00
 TightC=F SS=  1.41D+00  RLast= 3.59D-03 DXNew= 5.0454D-01 1.0769D-02
 Trust test= 1.32D+00 RLast= 3.59D-03 DXMaxT set to 3.00D-01
 The second derivative matrix:
                          r1        r2        r3        a1        OOP
           r1           0.37827
           r2           0.00000   0.02143
           r3          -0.00204   0.00578   0.30174
           a1           0.00000  -0.00000   0.00154   0.41000
           OOP          0.00000   0.00000  -0.01110  -0.00000   0.23901
 ITU=  1  0
     Eigenvalues ---    0.301741000.000001000.000001000.000001000.00000
 RFO step:  Lambda= 0.00000000D+00 EMin= 3.01743362D-01
 Quartic linear search produced a step of  0.48084.
 Variable       Old X    -DE/DX   Delta X   Delta X   Delta X     New X
                                 (Linear)    (Quad)   (Total)
    r1        3.18318   0.00027   0.00000   0.00000   0.00000   3.18318
    r2        5.79755   0.00002   0.00000   0.00000   0.00000   5.79755
    r3        1.91946  -0.00052  -0.00173  -0.00000  -0.00173   1.91774
    a1        1.80555   0.00058   0.00000   0.00000   0.00000   1.80555
   OOP        1.39626   0.01400   0.00000   0.00000   0.00000   1.39626
         Item               Value     Threshold  Converged?
 Maximum Force            0.000520     0.000450     NO 
 RMS     Force            0.000520     0.000300     NO 
 Maximum Displacement     0.001726     0.001800     YES
 RMS     Displacement     0.000772     0.001200     YES
 Predicted change in Energy=-4.474453D-07
 GradGradGradGradGradGradGradGradGradGradGradGradGradGradGradGradGradGrad

 ---------------------------------------------------------------------------------------------------
                            Z-MATRIX (ANGSTROMS AND DEGREES)
   CD    Cent   Atom    N1       Length/X        N2       Alpha/Y        N3        Beta/Z          J
 ---------------------------------------------------------------------------------------------------
      1      1  O 
      2         X        1  10.000000(     1)
      3      2  Cl       1   1.684465(     2)      2   90.000(     5)
      4      3  Br       1   3.067932(     3)      2   90.000(     6)      3  103.450(     8)      0
      5      4  H        1   1.014823(     4)      2   80.000(     7)      3  103.450(     9)      0
 ---------------------------------------------------------------------------------------------------
                         Z-Matrix orientation:                         
 ---------------------------------------------------------------------
 Center     Atomic      Atomic             Coordinates (Angstroms)
 Number     Number       Type             X           Y           Z
 ---------------------------------------------------------------------
      1          8           0        0.000000    0.000000    0.000000
      2         -1           0        0.000000    0.000000   10.000000
      3         17           0        1.684465    0.000000    0.000000
      4         35           0       -0.713606   -2.983785    0.000000
      5          1           0       -0.232463   -0.971994    0.176222
 ---------------------------------------------------------------------
                    Distance matrix (angstroms):
                    1          2          3          4          5
     1  O    0.000000
     2  X   10.000000   0.000000
     3  Cl   1.684465  10.140879   0.000000
     4  Br   3.067932  10.460029   3.828018   0.000000
     5  H    1.014823   9.874483   2.156488   2.076019   0.000000
 Stoichiometry    BrClHO(1-)
 Framework group  C1[X(BrClHO)]
 Deg. of freedom     6
 Full point group                 C1      NOp   1
 Largest Abelian subgroup         C1      NOp   1
 Largest concise Abelian subgroup C1      NOp   1
                         Standard orientation:                         
 ---------------------------------------------------------------------
 Center     Atomic      Atomic             Coordinates (Angstroms)
 Number     Number       Type             X           Y           Z
 ---------------------------------------------------------------------
      1          8           0        1.399238    1.015325   -0.014040
      2         17           0        2.343755   -0.379349    0.000010
      3         35           0       -1.471483   -0.066809   -0.001546
      4          1           0        0.464154    0.664638    0.166243
 ---------------------------------------------------------------------
 Rotational constants (GHZ):          22.6335733           1.2841410           1.2153731
 Basis read from rwf:  (5D, 7F)
 Pseudo-potential data read from rwf file.
 There are   204 symmetry adapted cartesian basis functions of A   symmetry.
 There are   174 symmetry adapted basis functions of A   symmetry.
   174 basis functions,   373 primitive gaussians,   204 cartesian basis functions
    26 alpha electrons       26 beta electrons
       nuclear repulsion energy       150.6887253785 Hartrees.
 NAtoms=    4 NActive=    4 NUniq=    4 SFac= 1.00D+00 NAtFMM=   60 NAOKFM=F Big=F
 Integral buffers will be    131072 words long.
 Raffenetti 1 integral format.
 Two-electron integral symmetry is turned on.
 One-electron integrals computed using PRISM.
   1 Symmetry operations used in ECPInt.
 ECPInt:  NShTT=    1596 NPrTT=    9902 LenC2=    1595 LenP2D=    7765.
 LDataN:  DoStor=T MaxTD1= 7 Len=  274
 NBasis=   174 RedAO= T EigKep=  2.43D-04  NBF=   174
 NBsUse=   174 1.00D-06 EigRej= -1.00D+00 NBFU=   174
 Initial guess from the checkpoint file:  "/gscratch/ilahie/mccoygrp/coire_hocl/brhocl_pp/brhocl_pp_rOH_opt.chk"
 B after Tr=    -0.000000   -0.000000    0.000000
         Rot=    1.000000    0.000005   -0.000001    0.000003 Ang=   0.00 deg.
 Keep R1 ints in memory in canonical form, NReq=152797578.
 Requested convergence on RMS density matrix=1.00D-08 within 128 cycles.
 Requested convergence on MAX density matrix=1.00D-06.
 Requested convergence on             energy=1.00D-06.
 No special actions if energy rises.
 SCF Done:  E(RHF) =  -950.521921764     A.U. after    7 cycles
            NFock=  7  Conv=0.73D-08     -V/T= 2.1444
 ExpMin= 2.53D-02 ExpMax= 4.56D+05 ExpMxC= 1.44D+03 IAcc=3 IRadAn=         5 AccDes= 0.00D+00
 HarFok:  IExCor=  205 AccDes= 0.00D+00 IRadAn=         5 IDoV=-2 UseB2=F ITyADJ=14
 ICtDFT= 12500011 ScaDFX=  1.000000  1.000000  1.000000  1.000000
 Range of M.O.s used for correlation:    11   174
 NBasis=   174 NAE=    26 NBE=    26 NFC=    10 NFV=     0
 NROrb=    164 NOA=    16 NOB=    16 NVA=   148 NVB=   148

 **** Warning!!: The largest alpha MO coefficient is  0.16269132D+02

 Fully direct method using O(ONN) memory.
 JobTyp=1 Pass  1:  I=  11 to  26 NPSUse= 28 ParTrn=T ParDer=T DoDerP=T.
 Spin components of T(2) and E(2):
     alpha-alpha T2 =       0.3029882556D-01 E2=     -0.9380397484D-01
     alpha-beta  T2 =       0.1613778789D+00 E2=     -0.5154542750D+00
     beta-beta   T2 =       0.3029882556D-01 E2=     -0.9380397484D-01
 ANorm=    0.1105430020D+01
 E2 =    -0.7030622247D+00 EUMP2 =    -0.95122498398876D+03
          IDoAtm=1111
          Differentiating once with respect to electric field.
                with respect to dipole field.
          Differentiating once with respect to nuclear coordinates.
 Keep R1 ints in memory in canonical form, NReq=152802515.
          There are     1 degrees of freedom in the 1st order CPHF.  IDoFFX=0 NUNeed=     1.
 LinEq1:  Iter=  0 NonCon=     1 RMS=2.90D-03 Max=4.20D-02 NDo=     1
 AX will form     1 AO Fock derivatives at one time.
 LinEq1:  Iter=  1 NonCon=     1 RMS=4.66D-04 Max=4.67D-03 NDo=     1
[...]
 Integral buffers will be    131072 words long.
 Raffenetti 1 integral format.
 Two-electron integral symmetry is turned on.
 One-electron integrals computed using PRISM.
   1 Symmetry operations used in ECPInt.
 ECPInt:  NShTT=    1596 NPrTT=    9902 LenC2=    1595 LenP2D=    7756.
 LDataN:  DoStor=T MaxTD1= 7 Len=  274
 NBasis=   174 RedAO= T EigKep=  3.00D-04  NBF=   174
 NBsUse=   174 1.00D-06 EigRej= -1.00D+00 NBFU=   174
 Initial guess from the checkpoint file:  "/gscratch/ilahie/mccoygrp/coire_hocl/brhocl_pp/brhocl_pp_rOH_opt.chk"
 B after Tr=    -0.000000    0.000000   -0.000000
         Rot=    1.000000    0.000028   -0.000007    0.000009 Ang=   0.00 deg.
 Keep R1 ints in memory in canonical form, NReq=152797314.
 Requested convergence on RMS density matrix=1.00D-08 within 128 cycles.
 Requested convergence on MAX density matrix=1.00D-06.
 Requested convergence on             energy=1.00D-06.
 No special actions if energy rises.
 SCF Done:  E(RHF) =  -950.506251822     A.U. after    9 cycles
            NFock=  9  Conv=0.37D-08     -V/T= 2.1444
 ExpMin= 2.53D-02 ExpMax= 4.56D+05 ExpMxC= 1.44D+03 IAcc=3 IRadAn=         5 AccDes= 0.00D+00
 HarFok:  IExCor=  205 AccDes= 0.00D+00 IRadAn=         5 IDoV=-2 UseB2=F ITyADJ=14
 ICtDFT= 12500011 ScaDFX=  1.000000  1.000000  1.000000  1.000000
 Range of M.O.s used for correlation:    11   174
 NBasis=   174 NAE=    26 NBE=    26 NFC=    10 NFV=     0
 NROrb=    164 NOA=    16 NOB=    16 NVA=   148 NVB=   148

 **** Warning!!: The largest alpha MO coefficient is  0.11963317D+02

 Fully direct method using O(ONN) memory.
 JobTyp=1 Pass  1:  I=  11 to  26 NPSUse= 28 ParTrn=T ParDer=T DoDerP=T.
 Spin components of T(2) and E(2):
     alpha-alpha T2 =       0.2997487988D-01 E2=     -0.9278438687D-01
     alpha-beta  T2 =       0.1609569474D+00 E2=     -0.5128876378D+00
     beta-beta   T2 =       0.2997487988D-01 E2=     -0.9278438687D-01
 ANorm=    0.1104946473D+01
 E2 =    -0.6984564115D+00 EUMP2 =    -0.95120470823332D+03
          IDoAtm=1111
          Differentiating once with respect to electric field.
                with respect to dipole field.
          Differentiating once with respect to nuclear coordinates.
 Keep R1 ints in memory in canonical form, NReq=152802383.
          There are     1 degrees of freedom in the 1st order CPHF.  IDoFFX=0 NUNeed=     1.
 LinEq1:  Iter=  0 NonCon=     1 RMS=2.85D-03 Max=3.55D-02 NDo=     1
 AX will form     1 AO Fock derivatives at one time.
 LinEq1:  Iter=  1 NonCon=     1 RMS=4.65D-04 Max=4.47D-03 NDo=     1
 LinEq1:  Iter=  2 NonCon=     1 RMS=2.22D-04 Max=2.93D-03 NDo=     1
 LinEq1:  Iter=  3 NonCon=     1 RMS=7.01D-05 Max=7.86D-04 NDo=     1
 LinEq1:  Iter=  4 NonCon=     1 RMS=2.77D-05 Max=5.59D-04 NDo=     1
 LinEq1:  Iter=  5 NonCon=     1 RMS=1.29D-05 Max=2.46D-04 NDo=     1
 LinEq1:  Iter=  6 NonCon=     1 RMS=3.85D-06 Max=6.20D-05 NDo=     1
 LinEq1:  Iter=  7 NonCon=     1 RMS=1.00D-06 Max=1.09D-05 NDo=     1
 LinEq1:  Iter=  8 NonCon=     1 RMS=2.93D-07 Max=3.70D-06 NDo=     1
 LinEq1:  Iter=  9 NonCon=     1 RMS=7.89D-08 Max=1.39D-06 NDo=     1
 LinEq1:  Iter= 10 NonCon=     1 RMS=2.04D-08 Max=3.05D-07 NDo=     1
 LinEq1:  Iter= 11 NonCon=     1 RMS=5.10D-09 Max=7.88D-08 NDo=     1
 LinEq1:  Iter= 12 NonCon=     1 RMS=1.10D-09 Max=1.24D-08 NDo=     1
 LinEq1:  Iter= 13 NonCon=     1 RMS=2.96D-10 Max=3.18D-09 NDo=     1
 LinEq1:  Iter= 14 NonCon=     0 RMS=7.34D-11 Max=6.79D-10 NDo=     1
 Linear equations converged to 1.000D-10 1.000D-09 after    14 iterations.
 End of Minotr F.D. properties file   721 does not exist.
 End of Minotr F.D. properties file   722 does not exist.
 End of Minotr F.D. properties file   788 does not exist.
   1 Symmetry operations used in ECPInt.
 ECPInt:  NShTT=    1596 NPrTT=    9902 LenC2=    1595 LenP2D=    7756.
 LDataN:  DoStor=T MaxTD1= 8 Len=  415
 Calling FoFJK, ICntrl=  10002127 FMM=F ISym2X=0 I1Cent= 0 IOpClX= 0 NMat=1 NMatS=1 NMatT=0.
 ***** Axes restored to original set *****
 -------------------------------------------------------------------
 Center     Atomic                   Forces (Hartrees/Bohr)
 Number     Number              X              Y              Z
 -------------------------------------------------------------------
      1        8           0.004066705    0.010645844    0.009577529
      2       17           0.007215539    0.003569534   -0.003284685
      3       35          -0.001010120   -0.002125201    0.005444036
      4        1          -0.010272123   -0.012090176   -0.011736879
 -------------------------------------------------------------------
 Cartesian Forces:  Max     0.012090176 RMS     0.007755715
 -----------------------------------------------------------------------------------------------
                       Internal Coordinate Forces (Hartree/Bohr or radian)
  Cent   Atom   N1       Length/X         N2         Alpha/Y        N3         Beta/Z          J
 -----------------------------------------------------------------------------------------------
      1  O 
         X        1   0.000000(     1)
      2  Cl       1   0.007216(     2)      2   0.010456(     5)
      3  Br       1   0.002302(     3)      2  -0.031562(     6)      3   0.002830(     8)     0
      4  H        1   0.000103(     4)      2   0.033994(     7)      3   0.008533(     9)     0
 -----------------------------------------------------------------------------------------------
 Internal  Forces:  Max     0.033994095 RMS     0.016327459

 GradGradGradGradGradGradGradGradGradGradGradGradGradGradGradGradGradGrad
 Berny optimization.
 Search for a local minimum.
 Step number   2 out of a maximum of   20 on scan point    11 out of    11
 All quantities printed in internal units (Hartrees-Bohrs-Radians)
 Update second derivatives using D2CorN and points    1    2
 DE= -8.13D-06 DEPred=-8.42D-06 R= 9.66D-01
 TightC=F SS=  1.41D+00  RLast= 6.17D-03 DXNew= 5.0454D-01 1.8500D-02
 Trust test= 9.66D-01 RLast= 6.17D-03 DXMaxT set to 3.00D-01
 The second derivative matrix:
                          r1        r2        r3        a1        OOP
           r1           0.37827
           r2           0.00000   0.02143
           r3          -0.00749   0.00453   0.45950
           a1           0.00000  -0.00000   0.00385   0.41000
           OOP          0.00000   0.00000  -0.03420  -0.00000   0.23901
 ITU=  1  0
     Eigenvalues ---    0.459501000.000001000.000001000.000001000.00000
 RFO step:  Lambda= 0.00000000D+00 EMin= 4.59500432D-01
 Quartic linear search produced a step of -0.03599.
 Variable       Old X    -DE/DX   Delta X   Delta X   Delta X     New X
                                 (Linear)    (Quad)   (Total)
    r1        3.18318   0.00722   0.00000   0.00000   0.00000   3.18318
    r2        5.79755   0.00230   0.00000   0.00000   0.00000   5.79755
    r3        1.84929   0.00010   0.00022   0.00000   0.00022   1.84951
    a1        1.80555   0.01136   0.00000   0.00000   0.00000   1.80555
   OOP        0.69813   0.03399   0.00000   0.00000   0.00000   0.69813
         Item               Value     Threshold  Converged?
 Maximum Force            0.000103     0.000450     YES
 RMS     Force            0.000103     0.000300     YES
 Maximum Displacement     0.000222     0.001800     YES
 RMS     Displacement     0.000099     0.001200     YES
 Predicted change in Energy=-1.156774D-08
 Optimization completed.
    -- Stationary point found.
                       ----------------------------
                       !   Optimized Parameters   !
                       ! (Angstroms and Degrees)  !
 ----------------------                            ----------------------
 !      Name          Value   Derivative information (Atomic Units)     !
 ------------------------------------------------------------------------
 !       r1          1.6845   -DE/DX =    0.0072                        !
 !       r2          3.0679   -DE/DX =    0.0023                        !
 !       r3          0.9786   -DE/DX =    0.0001                        !
 !       a1        103.4503   -DE/DX =    0.0114                        !
 !       OOP        40.0      -DE/DX =    0.034                         !
 ------------------------------------------------------------------------
 Summary of Optimized Potential Surface Scan (add -951.0 to energies):
                           1         2         3         4         5
     Eigenvalues --    -0.22623  -0.22591  -0.22498  -0.22350  -0.22154
           r1           1.68447   1.68447   1.68447   1.68447   1.68447
           r2           3.06793   3.06793   3.06793   3.06793   3.06793
           r3           1.01806   1.01764   1.01482   1.01078   1.00583
           a1         103.45030 103.45030 103.45030 103.45030 103.45030
           OOP         90.00000  85.00000  80.00000  75.00000  70.00000
                           6         7         8         9        10
     Eigenvalues --    -0.21918  -0.21653  -0.21368  -0.21071  -0.20770
           r1           1.68447   1.68447   1.68447   1.68447   1.68447
           r2           3.06793   3.06793   3.06793   3.06793   3.06793
           r3           1.00053   0.99523   0.99025   0.98576   0.98187
           a1         103.45030 103.45030 103.45030 103.45030 103.45030
           OOP         65.00000  60.00000  55.00000  50.00000  45.00000
                          11
     Eigenvalues --    -0.20471
           r1           1.68447
           r2           3.06793
           r3           0.97860
           a1         103.45030
           OOP         40.00000
 GradGradGradGradGradGradGradGradGradGradGradGradGradGradGradGradGradGrad

 ---------------------------------------------------------------------------------------------------
                            Z-MATRIX (ANGSTROMS AND DEGREES)
   CD    Cent   Atom    N1       Length/X        N2       Alpha/Y        N3        Beta/Z          J
 ---------------------------------------------------------------------------------------------------
      1      1  O 
      2         X        1  10.000000(     1)
      3      2  Cl       1   1.684465(     2)      2   90.000(     5)
      4      3  Br       1   3.067932(     3)      2   90.000(     6)      3  103.450(     8)      0
      5      4  H        1   0.978603(     4)      2   40.000(     7)      3  103.450(     9)      0
 ---------------------------------------------------------------------------------------------------
                         Z-Matrix orientation:                         
 ---------------------------------------------------------------------
 Center     Atomic      Atomic             Coordinates (Angstroms)
 Number     Number       Type             X           Y           Z
 ---------------------------------------------------------------------
      1          8           0        0.000000    0.000000    0.000000
      2         -1           0        0.000000    0.000000   10.000000
      3         17           0        1.684465    0.000000    0.000000
      4         35           0       -0.713606   -2.983785    0.000000
      5          1           0       -0.146314   -0.611781    0.749653
 ---------------------------------------------------------------------
                    Distance matrix (angstroms):
                    1          2          3          4          5
     1  O    0.000000
     2  X   10.000000   0.000000
     3  Cl   1.684465  10.140879   0.000000
     4  Br   3.067932  10.460029   3.828018   0.000000
     5  H    0.978603   9.271710   2.070751   2.551510   0.000000
 Stoichiometry    BrClHO(1-)
 Framework group  C1[X(BrClHO)]
 Deg. of freedom     6
 Full point group                 C1      NOp   1
 Largest Abelian subgroup         C1      NOp   1
 Largest concise Abelian subgroup C1      NOp   1
                         Standard orientation:                         
 ---------------------------------------------------------------------
 Center     Atomic      Atomic             Coordinates (Angstroms)
 Number     Number       Type             X           Y           Z
 ---------------------------------------------------------------------
      1          8           0        1.395469    1.008195   -0.071338
      2         17           0        2.337279   -0.386508    0.000920
      3         35           0       -1.477326   -0.066378   -0.003885
      4          1           0        0.808896    0.828306    0.691050
 ---------------------------------------------------------------------
 Rotational constants (GHZ):          21.9215721           1.2808248           1.2132812

 **********************************************************************

            Population analysis using the MP2 Density.

 **********************************************************************

 Orbital symmetries:
       Occupied  (A) (A) (A) (A) (A) (A) (A) (A) (A) (A) (A) (A)
                 (A) (A) (A) (A) (A) (A) (A) (A) (A) (A) (A) (A)
                 (A) (A)
       Virtual   (A) (A) (A) (A) (A) (A) (A) (A) (A) (A) (A) (A)
                 (A) (A) (A) (A) (A) (A) (A) (A) (A) (A) (A) (A)
                 (A) (A) (A) (A) (A) (A) (A) (A) (A) (A) (A) (A)
                 (A) (A) (A) (A) (A) (A) (A) (A) (A) (A) (A) (A)
                 (A) (A) (A) (A) (A) (A) (A) (A) (A) (A) (A) (A)
                 (A) (A) (A) (A) (A) (A) (A) (A) (A) (A) (A) (A)
                 (A) (A) (A) (A) (A) (A) (A) (A) (A) (A) (A) (A)
                 (A) (A) (A) (A) (A) (A) (A) (A) (A) (A) (A) (A)
                 (A) (A) (A) (A) (A) (A) (A) (A) (A) (A) (A) (A)
                 (A) (A) (A) (A) (A) (A) (A) (A) (A) (A) (A) (A)
                 (A) (A) (A) (A) (A) (A) (A) (A) (A) (A) (A) (A)
                 (A) (A) (A) (A) (A) (A) (A) (A) (A) (A) (A) (A)
                 (A) (A) (A) (A)
 The electronic state is 1-A.
 Alpha  occ. eigenvalues -- -104.74402 -20.48599 -10.46374  -9.53783  -7.93093
 Alpha  occ. eigenvalues --   -7.92818  -7.92801  -7.28565  -7.28529  -7.28509
 Alpha  occ. eigenvalues --   -2.83673  -2.83666  -2.83640  -2.83604  -2.83601
 Alpha  occ. eigenvalues --   -1.25768  -0.91049  -0.73140  -0.56380  -0.46168
 Alpha  occ. eigenvalues --   -0.45243  -0.32234  -0.29564  -0.15768  -0.15400
 Alpha  occ. eigenvalues --   -0.15231
 Alpha virt. eigenvalues --    0.14747   0.17516   0.21881   0.22967   0.25758
 Alpha virt. eigenvalues --    0.26641   0.27091   0.27897   0.28371   0.31102
 Alpha virt. eigenvalues --    0.31816   0.33409   0.35790   0.39431   0.43802
 Alpha virt. eigenvalues --    0.45259   0.48722   0.49490   0.50693   0.53223
 Alpha virt. eigenvalues --    0.54038   0.55539   0.56495   0.58283   0.59085
 Alpha virt. eigenvalues --    0.59978   0.61930   0.64460   0.75206   0.77167
 Alpha virt. eigenvalues --    0.80888   0.83807   0.84509   0.85897   0.86541
 Alpha virt. eigenvalues --    0.87814   0.89365   0.92913   0.95759   0.98320
 Alpha virt. eigenvalues --    0.99931   1.00695   1.01369   1.02315   1.03851
 Alpha virt. eigenvalues --    1.05267   1.06735   1.08629   1.10121   1.11671
 Alpha virt. eigenvalues --    1.12422   1.15496   1.16281   1.18401   1.18735
 Alpha virt. eigenvalues --    1.20242   1.20869   1.22022   1.25822   1.30216
 Alpha virt. eigenvalues --    1.31895   1.35913   1.38372   1.41795   1.46640
 Alpha virt. eigenvalues --    1.49503   1.53984   1.58312   1.63069   1.65129
 Alpha virt. eigenvalues --    1.67918   1.69654   1.71748   1.74711   1.85724
 Alpha virt. eigenvalues --    1.96670   2.09748   2.31773   2.39633   2.43314
 Alpha virt. eigenvalues --    2.46116   2.47607   2.47762   2.49286   2.50355
 Alpha virt. eigenvalues --    2.52420   2.53754   2.55160   2.55936   2.56406
 Alpha virt. eigenvalues --    2.58765   2.60586   2.62499   2.62939   2.63996
 Alpha virt. eigenvalues --    2.65103   2.66911   2.68179   2.70229   2.70480
 Alpha virt. eigenvalues --    2.73046   2.74208   2.77440   2.80886   2.82476
 Alpha virt. eigenvalues --    2.83501   2.89932   2.91921   3.00627   3.09096
 Alpha virt. eigenvalues --    3.12362   3.20150   3.21172   3.22121   3.25307
 Alpha virt. eigenvalues --    3.29030   3.35275   3.48047   3.54133   3.55548
 Alpha virt. eigenvalues --    3.90711   3.96879   4.35527   4.44469   4.52082
 Alpha virt. eigenvalues --    4.59045   4.72639   4.89964   5.00324   5.36766
 Alpha virt. eigenvalues --    5.45263   5.68209   6.36410   6.62352   6.83918
 Alpha virt. eigenvalues --    6.89625   6.90910   6.96420   7.33055   7.36080
 Alpha virt. eigenvalues --    7.37190   7.45073   7.46809   7.68226   7.70350
 Alpha virt. eigenvalues --    8.39505  14.67239  79.89721
          Condensed to atoms (all electrons):
               1          2          3          4
     1  O    8.491085  -0.123617  -0.077114   0.084898
     2  Cl  -0.123617  17.048170   0.002456  -0.000580
     3  Br  -0.077114   0.002456  25.955912   0.053556
     4  H    0.084898  -0.000580   0.053556   0.625637
 Mulliken charges:
               1
     1  O   -0.375251
     2  Cl   0.073571
     3  Br  -0.934810
     4  H    0.236489
 Sum of Mulliken charges =  -1.00000
 Mulliken charges with hydrogens summed into heavy atoms:
               1
     1  O   -0.138762
     2  Cl   0.073571
     3  Br  -0.934810
 Electronic spatial extent (au):  <R**2>=            733.7654
 Charge=             -1.0000 electrons
 Dipole moment (field-independent basis, Debye):
    X=              4.6261    Y=             -0.0489    Z=              0.7613  Tot=              4.6886
 Quadrupole moment (field-independent basis, Debye-Ang):
   XX=            -58.1310   YY=            -43.0770   ZZ=            -42.0473
   XY=             -2.1824   XZ=              0.8551   YZ=              0.9688
 Traceless Quadrupole moment (field-independent basis, Debye-Ang):
   XX=            -10.3792   YY=              4.6747   ZZ=              5.7045
   XY=             -2.1824   XZ=              0.8551   YZ=              0.9688
 Octapole moment (field-independent basis, Debye-Ang**2):
  XXX=            -12.4519  YYY=             -1.4779  ZZZ=             -0.4519  XYY=             -4.9062
  XXY=             -4.4471  XXZ=             -1.6337  XZZ=             -4.5169  YZZ=              1.3971
  YYZ=              0.4102  XYZ=              0.4483
 Hexadecapole moment (field-independent basis, Debye-Ang**3):
 XXXX=           -924.0805 YYYY=           -112.7838 ZZZZ=            -65.2413 XXXY=            -11.5441
 XXXZ=             -0.9844 YYYX=             -4.3015 YYYZ=              0.4079 ZZZX=              1.0507
 ZZZY=              0.6493 XXYY=           -161.3912 XXZZ=           -158.1587 YYZZ=            -29.4037
 XXYZ=             -0.1329 YYXZ=              0.6230 ZZXY=              2.5584
 N-N= 1.498282862785D+02 E-N=-2.609017124474D+03  KE= 8.304264476127D+02
 1\1\GINC-N2110\Scan\RMP2-FC\Gen\Br1Cl1H1O1(1-)\CGAVINH\30-Sep-2021\1\\
 # opt=(z-matrix) mp2/gen Pseudo=read density=current\\title\\-1,1\O\X,
 1,10.\Cl,1,r1,2,90.\Br,1,r2,2,90.,3,a1,0\H,1,r3,2,OOP,3,a1,0\\r1=1.684
 46532,s,-1000,0.\r2=3.06793175,s,-1000,0.\r3=0.97860291\a1=103.4502976
 8,s,-1000,0.\OOP=40.,s,10,-5.\\Version=ES64L-G16RevB.01\State=1-A\HF=-
 950.5227447,-950.5225131,-950.5219218,-950.5209317,-950.5195729,-950.5
 178782,-950.5158987,-950.5136916,-950.5113148,-950.5088206,-950.506251
 8\MP2=-951.2262316,-951.2259138,-951.224984,-951.2235,-951.2215374,-95
 1.2191836,-951.2165329,-951.2136793,-951.21071,-951.2076999,-951.20470
 82\RMSD=5.937e-09,3.306e-09,7.295e-09,4.671e-09,5.980e-09,6.527e-09,6.
 464e-09,6.000e-09,5.280e-09,4.469e-09,3.695e-09\PG=C01 [X(Br1Cl1H1O1)]
 \\@


 MARY HAD A LITTLE LAMB
      HIS FEET WERE BLACK AS SOOT,
           AND EVERYWHERE THAT MARY WENT
                HIS SOOTY FOOT HE PUT.

                    -- NONAME
 Job cpu time:       0 days  3 hours 43 minutes 15.4 seconds.
 Elapsed time:       0 days  0 hours 10 minutes  0.3 seconds.
 File lengths (MBytes):  RWF=     20 Int=      0 D2E=      0 Chk=      8 Scr=      1
 Normal termination of Gaussian 16 at Thu Sep 30 14:00:36 2021.
