title                                                                   
SP        RMP2-FC                                                     Gen                 
Number of atoms                            I                4
Info1-9                                    I   N=           9
         136         123           0           0           0         110
           1           2           1
Full Title                                 C   N=           1
title       
Route                                      C   N=           5
#p pop=NBO SP NoSymm mp2/gen Pseudo=read density=current    
Charge                                     I               -1
Multiplicity                               I                1
Number of electrons                        I               52
Number of alpha electrons                  I               26
Number of beta electrons                   I               26
Number of basis functions                  I              174
Number of independent functions            I              174
Number of point charges in /Mol/           I                0
Number of translation vectors              I                0
Atomic numbers                             I   N=           4
           8          35          17           1
Nuclear charges                            R   N=           4
  8.00000000E+00  2.50000000E+01  1.70000000E+01  1.00000000E+00
Current cartesian coordinates              R   N=          12
  0.00000000E+00  0.00000000E+00  0.00000000E+00  5.79755078E+00  0.00000000E+00
  0.00000000E+00 -7.40412882E-01  3.09587011E+00  0.00000000E+00  1.92385458E+00
  0.00000000E+00  0.00000000E+00
Number of symbols in /Mol/                 I                0
Force Field                                I                0
Atom Types                                 C   N=           4
                                                
Int Atom Types                             I   N=           4
           0           0           0           0
MM charges                                 R   N=           4
  0.00000000E+00  0.00000000E+00  0.00000000E+00  0.00000000E+00
Integer atomic weights                     I   N=           4
          16          79          35           1
Real atomic weights                        R   N=           4
  1.59949146E+01  7.89183361E+01  3.49688527E+01  1.00782504E+00
Atom fragment info                         I   N=           4
           0           0           0           0
Atom residue num                           I   N=           4
           0           0           0           0
Nuclear spins                              I   N=           4
           0           3           3           1
Nuclear ZEff                               R   N=           4
 -5.60000000E+00 -1.43500000E+03 -1.42400000E+01 -1.00000000E+00
Nuclear ZNuc                               R   N=           4
  8.00000000E+00  3.50000000E+01  1.70000000E+01  1.00000000E+00
Nuclear QMom                               R   N=           4
  0.00000000E+00  3.13000000E+01 -8.16500000E+00  0.00000000E+00
Nuclear GFac                               R   N=           4
  0.00000000E+00  2.10639900E+00  8.21874000E-01  2.79284600E+00
MicOpt                                     I   N=           4
          -1          -1          -1          -1
Number of residues                         I                0
Number of secondary structures             I                0
Number of contracted shells                I               56
Number of primitive shells                 I              138
Pure/Cartesian d shells                    I                0
Pure/Cartesian f shells                    I                0
Highest angular momentum                   I                3
Largest degree of contraction              I               11
Shell types                                I   N=          56
           0           0           0           0           0           1
           1           1           1          -2          -2          -2
          -3          -3           0           0           0           0
           0           0           1           1           1           1
           1          -2          -2          -2          -2          -3
          -3           0           0           0           0           0
           0           1           1           1           1           1
          -2          -2          -2          -3          -3           0
           0           0           0           1           1           1
          -2          -2
Number of primitives per shell             I   N=          56
           7           6           1           1           1           3
           1           1           1           1           1           1
           1           1           7           6           1           1
           1           1           8           8           1           1
           1           8           1           1           1           1
           1          11           9           8           1           1
           1           6           6           1           1           1
           1           1           1           1           1           3
           1           1           1           1           1           1
           1           1
Shell to atom map                          I   N=          56
           1           1           1           1           1           1
           1           1           1           1           1           1
           1           1           2           2           2           2
           2           2           2           2           2           2
           2           2           2           2           2           2
           2           3           3           3           3           3
           3           3           3           3           3           3
           3           3           3           3           3           4
           4           4           4           4           4           4
           4           4
Primitive exponents                        R   N=         138
  1.53300000E+04  2.29900000E+03  5.22400000E+02  1.47300000E+02  4.75500000E+01
  1.67600000E+01  6.20700000E+00  5.22400000E+02  1.47300000E+02  4.75500000E+01
  1.67600000E+01  6.20700000E+00  6.88200000E-01  1.75200000E+00  2.38400000E-01
  7.37600000E-02  3.44600000E+01  7.74900000E+00  2.28000000E+00  7.15600000E-01
  2.14000000E-01  5.97400000E-02  2.31400000E+00  6.45000000E-01  2.14000000E-01
  1.42800000E+00  5.00000000E-01  9.65939000E+03  1.45596000E+03  3.25914000E+02
  4.65657000E+01  1.82469000E+01  3.80201000E+00  1.78632000E+00  9.65939000E+03
  3.25914000E+02  4.65657000E+01  1.82469000E+01  3.80201000E+00  1.78632000E+00
  6.02714000E-01  2.84014000E-01  1.20271000E-01  4.45000000E-02  4.92187000E+02
  9.23642000E+01  2.70718000E+01  7.26539000E+00  3.48481000E+00  1.64048000E+00
  6.48570000E-01  9.53040000E-02  4.92187000E+02  2.70718000E+01  7.26539000E+00
  3.48481000E+00  1.64048000E+00  6.48570000E-01  2.56407000E-01  9.53040000E-02
  7.66600000E-01  1.18200000E-01  3.96000000E-02  3.38996000E+02  1.03217000E+02
  4.23638000E+01  1.84356000E+01  8.37254000E+00  3.80222000E+00  1.68677000E+00
  6.77520000E-01  6.77520000E-01  2.55300000E-01  1.00900000E-01  5.60600000E-01
  2.45400000E-01  4.56100000E+05  6.83300000E+04  1.55500000E+04  4.40500000E+03
  1.43900000E+03  5.20400000E+02  2.03100000E+02  8.39600000E+01  3.62000000E+01
  1.58300000E+01  6.33400000E+00  4.40500000E+03  1.43900000E+03  5.20400000E+02
  2.03100000E+02  8.39600000E+01  3.62000000E+01  1.58300000E+01  6.33400000E+00
  2.69400000E+00  1.43900000E+03  2.03100000E+02  8.39600000E+01  3.62000000E+01
  1.58300000E+01  6.33400000E+00  2.69400000E+00  4.31300000E-01  9.76800000E-01
  1.62500000E-01  5.91000000E-02  6.63300000E+02  1.56800000E+02  4.99800000E+01
  1.84200000E+01  7.24000000E+00  2.92200000E+00  1.56800000E+02  4.99800000E+01
  1.84200000E+01  7.24000000E+00  2.92200000E+00  3.81800000E-01  1.02200000E+00
  1.30100000E-01  4.19000000E-02  1.04600000E+00  3.44000000E-01  1.35000000E-01
  7.06000000E-01  3.12000000E-01  3.38700000E+01  5.09500000E+00  1.15900000E+00
  3.25800000E-01  1.02700000E-01  2.52600000E-02  1.40700000E+00  3.88000000E-01
  1.02000000E-01  1.05700000E+00  2.47000000E-01
Contraction coefficients                   R   N=         138
  5.19808943E-04  4.02025621E-03  2.07128267E-02  8.10105536E-02  2.35962985E-01
  4.42653446E-01  3.57064423E-01 -4.42115008E-05 -1.22591041E-03 -1.05517725E-02
 -6.74452633E-02 -1.71198607E-01  1.07329856E+00  1.00000000E+00  1.00000000E+00
  1.00000000E+00  4.11634896E-02  2.57762836E-01  8.02419274E-01  1.00000000E+00
  1.00000000E+00  1.00000000E+00  1.00000000E+00  1.00000000E+00  1.00000000E+00
  1.00000000E+00  1.00000000E+00  3.80701661E-04  2.63868635E-03  8.70555302E-03
  8.03093709E-02 -4.07648708E-01  7.03092632E-01  4.97431509E-01 -2.19689157E-05
 -9.47832571E-04  9.38727693E-03 -1.47428152E-02 -2.77285578E-01 -7.38047787E-01
  1.00000000E+00  1.00000000E+00  1.00000000E+00  1.00000000E+00  4.71881392E-04
  5.49299123E-03 -8.80115226E-02  3.43400525E-01  5.10073044E-01  2.48575707E-01
  2.24628895E-02  8.56099489E-04 -4.13161033E-05  2.99292350E-03 -2.76886294E-02
 -5.33882855E-02 -1.24705505E-02  3.44020817E-01  5.41867327E-01  2.58979876E-01
  1.00000000E+00  1.00000000E+00  1.00000000E+00  1.52399887E-03  1.56729884E-02
  7.23999463E-02  1.86302862E-01  3.23880760E-01  3.74533722E-01  2.57417809E-01
  6.80509495E-02  1.00000000E+00  1.00000000E+00  1.00000000E+00  1.00000000E+00
  1.00000000E+00  4.93229477E-05  3.83207967E-04  2.00947816E-03  8.38950124E-03
  2.94843950E-02  8.78759948E-02  2.11589759E-01  3.65611554E-01  3.41246350E-01
  1.02162570E-01  2.14249949E-03 -2.21747925E-06 -1.71189708E-04 -1.27922846E-03
 -9.32956265E-03 -3.98910062E-02 -1.05536085E-01  9.36202446E-03  5.10511140E-01
  5.73150737E-01  4.03949245E-06  2.12481765E-04  8.59484452E-04  4.63248159E-03
  4.47343490E-04 -7.38438245E-02 -3.62271994E-01  1.16620337E+00  1.00000000E+00
  1.00000000E+00  1.00000000E+00  2.47206402E-03  1.97550234E-02  9.09917355E-02
  2.63187834E-01  4.49078073E-01  3.60183072E-01  3.03427809E-05 -1.22475826E-03
 -6.01429772E-03 -2.76401323E-02  4.35105612E-04  1.00307272E+00  1.00000000E+00
  1.00000000E+00  1.00000000E+00  1.00000000E+00  1.00000000E+00  1.00000000E+00
  1.00000000E+00  1.00000000E+00  2.54948632E-02  1.90362766E-01  8.52162022E-01
  1.00000000E+00  1.00000000E+00  1.00000000E+00  1.00000000E+00  1.00000000E+00
  1.00000000E+00  1.00000000E+00  1.00000000E+00
Coordinates of each shell                  R   N=         168
  0.00000000E+00  0.00000000E+00  0.00000000E+00  0.00000000E+00  0.00000000E+00
  0.00000000E+00  0.00000000E+00  0.00000000E+00  0.00000000E+00  0.00000000E+00
  0.00000000E+00  0.00000000E+00  0.00000000E+00  0.00000000E+00  0.00000000E+00
  0.00000000E+00  0.00000000E+00  0.00000000E+00  0.00000000E+00  0.00000000E+00
  0.00000000E+00  0.00000000E+00  0.00000000E+00  0.00000000E+00  0.00000000E+00
  0.00000000E+00  0.00000000E+00  0.00000000E+00  0.00000000E+00  0.00000000E+00
  0.00000000E+00  0.00000000E+00  0.00000000E+00  0.00000000E+00  0.00000000E+00
  0.00000000E+00  0.00000000E+00  0.00000000E+00  0.00000000E+00  0.00000000E+00
  0.00000000E+00  0.00000000E+00  5.79755078E+00  0.00000000E+00  0.00000000E+00
  5.79755078E+00  0.00000000E+00  0.00000000E+00  5.79755078E+00  0.00000000E+00
  0.00000000E+00  5.79755078E+00  0.00000000E+00  0.00000000E+00  5.79755078E+00
  0.00000000E+00  0.00000000E+00  5.79755078E+00  0.00000000E+00  0.00000000E+00
  5.79755078E+00  0.00000000E+00  0.00000000E+00  5.79755078E+00  0.00000000E+00
  0.00000000E+00  5.79755078E+00  0.00000000E+00  0.00000000E+00  5.79755078E+00
  0.00000000E+00  0.00000000E+00  5.79755078E+00  0.00000000E+00  0.00000000E+00
  5.79755078E+00  0.00000000E+00  0.00000000E+00  5.79755078E+00  0.00000000E+00
  0.00000000E+00  5.79755078E+00  0.00000000E+00  0.00000000E+00  5.79755078E+00
  0.00000000E+00  0.00000000E+00  5.79755078E+00  0.00000000E+00  0.00000000E+00
  5.79755078E+00  0.00000000E+00  0.00000000E+00 -7.40412882E-01  3.09587011E+00
  0.00000000E+00 -7.40412882E-01  3.09587011E+00  0.00000000E+00 -7.40412882E-01
  3.09587011E+00  0.00000000E+00 -7.40412882E-01  3.09587011E+00  0.00000000E+00
 -7.40412882E-01  3.09587011E+00  0.00000000E+00 -7.40412882E-01  3.09587011E+00
  0.00000000E+00 -7.40412882E-01  3.09587011E+00  0.00000000E+00 -7.40412882E-01
  3.09587011E+00  0.00000000E+00 -7.40412882E-01  3.09587011E+00  0.00000000E+00
 -7.40412882E-01  3.09587011E+00  0.00000000E+00 -7.40412882E-01  3.09587011E+00
  0.00000000E+00 -7.40412882E-01  3.09587011E+00  0.00000000E+00 -7.40412882E-01
  3.09587011E+00  0.00000000E+00 -7.40412882E-01  3.09587011E+00  0.00000000E+00
 -7.40412882E-01  3.09587011E+00  0.00000000E+00 -7.40412882E-01  3.09587011E+00
  0.00000000E+00  1.92385458E+00  0.00000000E+00  0.00000000E+00  1.92385458E+00
  0.00000000E+00  0.00000000E+00  1.92385458E+00  0.00000000E+00  0.00000000E+00
  1.92385458E+00  0.00000000E+00  0.00000000E+00  1.92385458E+00  0.00000000E+00
  0.00000000E+00  1.92385458E+00  0.00000000E+00  0.00000000E+00  1.92385458E+00
  0.00000000E+00  0.00000000E+00  1.92385458E+00  0.00000000E+00  0.00000000E+00
  1.92385458E+00  0.00000000E+00  0.00000000E+00
Num ILSW                                   I              100
ILSW                                       I   N=         100
           0           0           0           0           2           0
           0           0           0           0           0          -1
           5           0           0           0           0           0
           0           0           0           0           0           0
           1           1           0           0           0           0
           0           0      100000           0          -1           0
           0           0           0           0           0           0
           0           0           0           1           0           0
           0 -2000000000           1           0           0           0
           0           0           4          52           0           0
           0           0           0           0           0           0
           0           0           0           4           0           1
           0           0           0           0           0           0
           0           0           0           0           0           0
           0           0           0           0           0           0
           0           0           0           0           0           0
           0           0           0           0
Num RLSW                                   I               52
RLSW                                       R   N=          52
  1.00000000E+00  1.00000000E+00  1.00000000E+00  1.00000000E+00  1.00000000E+00
  0.00000000E+00  0.00000000E+00  1.00000000E+00  0.00000000E+00  0.00000000E+00
  0.00000000E+00  0.00000000E+00  1.00000000E+00  0.00000000E+00  0.00000000E+00
  0.00000000E+00  0.00000000E+00  1.00000000E+00  0.00000000E+00  0.00000000E+00
  0.00000000E+00  0.00000000E+00  1.00000000E+00  0.00000000E+00  0.00000000E+00
  0.00000000E+00  0.00000000E+00  1.00000000E+00  0.00000000E+00  0.00000000E+00
  0.00000000E+00  0.00000000E+00  1.00000000E+00  0.00000000E+00  0.00000000E+00
  0.00000000E+00  0.00000000E+00  0.00000000E+00  1.00000000E+00  1.00000000E+00
  0.00000000E+00  1.00000000E+00  0.00000000E+00  0.00000000E+00  0.00000000E+00
  0.00000000E+00  0.00000000E+00  0.00000000E+00  0.00000000E+00  0.00000000E+00
  0.00000000E+00  0.00000000E+00
ECP-MxAtEC                                 I           250000
ECP-MaxLECP                                I               10
ECP-MaxAtL                                 I          2250000
ECP-MxTECP                                 I         11250000
ECP-LenNCZ                                 I               16
ECP-KFirst                                 I   N=          40
           0           1           0           0           0           2
           0           0           0           5           0           0
           0           9           0           0           0          15
           0           0           0           0           0           0
           0           0           0           0           0           0
           0           0           0           0           0           0
           0           0           0           0
ECP-KLast                                  I   N=          40
           0           1           0           0           0           4
           0           0           0           8           0           0
           0          14           0           0           0          16
           0           0           0           0           0           0
           0           0           0           0           0           0
           0           0           0           0           0           0
           0           0           0           0
ECP-LMax                                   I   N=           4
           0           4           0           0
ECP-LPSkip                                 I   N=           4
           1           0           1           1
ECP-RNFroz                                 R   N=           4
  0.00000000E+00  1.00000000E+01  0.00000000E+00  0.00000000E+00
ECP-NLP                                    I   N=          16
           2           2           2           2           2           2
           2           2           2           2           2           2
           2           2           2           2
ECP-CLP1                                   R   N=          16
  0.00000000E+00  4.99628340E+01  3.70014205E+02  1.02414390E+01  9.91122440E+01
  1.98253046E+02  2.82617400E+01  5.66233660E+01 -1.86058530E+01 -2.79232800E+01
 -3.79693000E-01 -7.80583000E-01  3.59680000E-02  9.43970000E-02 -1.09126900E+00
 -2.88769100E+00
ECP-CLP2                                   R   N=          16
  0.00000000E+00  0.00000000E+00  0.00000000E+00  0.00000000E+00  0.00000000E+00
  0.00000000E+00  0.00000000E+00  0.00000000E+00  0.00000000E+00  0.00000000E+00
  0.00000000E+00  0.00000000E+00  0.00000000E+00  0.00000000E+00  0.00000000E+00
  0.00000000E+00
ECP-ZLP                                    R   N=          16
  1.00000000E+00  7.00242570E+01  3.11784120E+01  7.15659300E+00  4.67734710E+01
  4.61841200E+01  2.17138580E+01  2.09417920E+01  5.06988390E+01  5.06447640E+01
  1.54475090E+01  1.55002590E+01  2.80039100E+00  1.07748000E+00  1.44656060E+01
  2.12340650E+01
MxBond                                     I                2
NBond                                      I   N=           4
           2           0           1           1
IBond                                      I   N=           8
           3           4           0           0           1           0
           1           0
RBond                                      R   N=           8
  1.00000000E+00  1.00000000E+00  0.00000000E+00  0.00000000E+00  1.00000000E+00
  0.00000000E+00  1.00000000E+00  0.00000000E+00
Virial Ratio                               R      2.144436858417559E+00
SCF Energy                                 R     -9.505227445182541E+02
MP2 Energy                                 R     -9.512262315639645E+02
Total Energy                               R     -9.512262315639645E+02
Post-SCF wavefunction norm                 R      1.105471852836490E+00
RMS Density                                R      5.937010393898575E-09
Job Status                                 I                1
Nuclear derivative order                   I                0
External E-field                           R   N=          35
  0.00000000E+00  0.00000000E+00  0.00000000E+00  0.00000000E+00  0.00000000E+00
  0.00000000E+00  0.00000000E+00  0.00000000E+00  0.00000000E+00  0.00000000E+00
  0.00000000E+00  0.00000000E+00  0.00000000E+00  0.00000000E+00  0.00000000E+00
  0.00000000E+00  0.00000000E+00  0.00000000E+00  0.00000000E+00  0.00000000E+00
  0.00000000E+00  0.00000000E+00  0.00000000E+00  0.00000000E+00  0.00000000E+00
  0.00000000E+00  0.00000000E+00  0.00000000E+00  0.00000000E+00  0.00000000E+00
  0.00000000E+00  0.00000000E+00  0.00000000E+00  0.00000000E+00  0.00000000E+00
IOpCl                                      I                0
IROHF                                      I                0
Alpha Orbital Energies                     R   N=         174
 -1.04730324E+02 -2.04602507E+01 -1.04498169E+01 -9.55944066E+00 -7.91698412E+00
 -7.91435122E+00 -7.91425263E+00 -7.30745376E+00 -7.30677465E+00 -7.30675904E+00
 -2.85847532E+00 -2.85820864E+00 -2.85818927E+00 -2.85756721E+00 -2.85756620E+00
 -1.22669696E+00 -8.94271880E-01 -7.58024504E-01 -5.37677052E-01 -4.40827989E-01
 -4.32656331E-01 -3.07049920E-01 -2.79577843E-01 -1.85070019E-01 -1.75087045E-01
 -1.75035033E-01  1.56273649E-01  1.82099590E-01  2.23951066E-01  2.32125367E-01
  2.50955683E-01  2.64948429E-01  2.66971288E-01  2.86827838E-01  3.02742161E-01
  3.19755553E-01  3.23658025E-01  3.26982377E-01  3.58317089E-01  4.34255739E-01
  4.35324709E-01  4.63277441E-01  4.78628664E-01  4.83453053E-01  5.00485376E-01
  5.41875432E-01  5.48239956E-01  5.70836870E-01  5.89234482E-01  5.96347786E-01
  5.98941084E-01  6.08342408E-01  6.56418861E-01  7.26119895E-01  7.56309488E-01
  7.76493540E-01  8.07003197E-01  8.31965264E-01  8.35099829E-01  8.52190229E-01
  8.95379699E-01  9.00342384E-01  9.17675125E-01  9.44512915E-01  9.82572181E-01
  9.84277445E-01  9.94932834E-01  9.96607434E-01  1.00498061E+00  1.02574535E+00
  1.03544112E+00  1.06018201E+00  1.09060734E+00  1.09734798E+00  1.10337122E+00
  1.13153477E+00  1.14214731E+00  1.14925332E+00  1.15948533E+00  1.20009614E+00
  1.21900913E+00  1.22927043E+00  1.27893811E+00  1.27991426E+00  1.32508293E+00
  1.32701023E+00  1.34075213E+00  1.38364573E+00  1.46514237E+00  1.47848739E+00
  1.50372599E+00  1.53838358E+00  1.58822717E+00  1.63109072E+00  1.66653594E+00
  1.70462967E+00  1.70634195E+00  1.77309689E+00  1.79618905E+00  1.80800594E+00
  1.90579023E+00  1.97438725E+00  2.19895551E+00  2.38120482E+00  2.39613515E+00
  2.45665755E+00  2.46294314E+00  2.48124158E+00  2.49581807E+00  2.51339140E+00
  2.53197301E+00  2.53842499E+00  2.54052515E+00  2.54308996E+00  2.56244719E+00
  2.58329184E+00  2.60498611E+00  2.61728417E+00  2.63249869E+00  2.63867708E+00
  2.64747836E+00  2.67135793E+00  2.69120220E+00  2.69840417E+00  2.70945305E+00
  2.72403713E+00  2.74447453E+00  2.76018191E+00  2.77076331E+00  2.79311502E+00
  2.84817831E+00  2.88122306E+00  3.05273511E+00  3.07808219E+00  3.10208026E+00
  3.11679755E+00  3.20551370E+00  3.21783640E+00  3.22679597E+00  3.29421078E+00
  3.31223289E+00  3.33781551E+00  3.48661668E+00  3.53491716E+00  3.54916511E+00
  3.62576931E+00  3.93830417E+00  4.27442183E+00  4.30746733E+00  4.45552977E+00
  4.53852378E+00  4.58872985E+00  4.78714917E+00  4.99271983E+00  5.11472497E+00
  5.32413277E+00  5.36833263E+00  5.65630565E+00  6.43942815E+00  6.59242247E+00
  6.85028405E+00  6.90301168E+00  6.91728142E+00  7.00045976E+00  7.27073506E+00
  7.33119638E+00  7.34743446E+00  7.45020473E+00  7.56024982E+00  7.74618221E+00
  7.82076362E+00  8.35136806E+00  1.45631761E+01  7.98830619E+01
Alpha MO coefficients                      R   N=       30276
  5.00714584E-06  2.81713181E-05  2.55845811E-06 -1.58764682E-04 -1.06237754E-04
  5.71545911E-07  2.91512926E-06  3.45080313E-16 -5.27030993E-06 -8.49723863E-06
 -1.06309005E-15  4.50060292E-05 -1.53308372E-04 -5.70312355E-15  9.82506999E-06
 -3.86769135E-05  3.29564623E-15 -2.26866885E-06  1.97505632E-15 -6.00060678E-16
 -3.09145595E-06 -1.51479583E-06  1.49307520E-05 -3.11603173E-15  1.43481050E-16
  2.03227081E-05  9.93806582E-06  2.61285484E-05 -1.16167083E-15 -1.99684484E-15
  5.84784012E-05  1.24855837E-05 -2.07626386E-16 -3.62651682E-07 -7.73674870E-08
  3.97304868E-17  3.87152260E-16 -1.71044284E-06  1.00512767E-06  9.90158505E-16
 -2.30429426E-06  1.33488043E-05 -6.99831191E-16 -9.04212623E-16 -5.04632157E-06
  8.93269137E-06  3.65424016E-08 -9.72388090E-08 -1.16866120E-06  1.10423221E-05
 -3.89638682E-05 -7.19911236E-06  1.07187323E-06  1.75051859E-07 -1.67387225E-15
  7.99777645E-06  2.27156314E-06 -8.73403319E-15 -3.89210192E-06 -5.59094492E-07
  4.96487341E-15  2.47185081E-05 -7.79385782E-06  9.66404307E-15  4.03174841E-06
 -2.22514680E-07 -1.31161035E-15  7.95613134E-08 -4.21016947E-17  4.95787292E-17
 -6.38912892E-08  1.50059850E-07 -6.75478035E-07 -5.77033795E-17 -1.60634453E-16
  6.35805853E-07 -1.10703181E-06  4.38660199E-06 -6.49783077E-16  3.10134037E-16
 -6.14202810E-06  2.88768686E-06  4.14788566E-06 -2.63052161E-15 -1.43371228E-16
 -6.46851576E-06  3.77430215E-06  5.47217000E-16  1.37832323E-08 -9.68578601E-08
 -8.19364398E-16 -2.00416460E-16  1.14613466E-07  5.33909659E-07 -1.51901164E-15
 -2.33354981E-06  6.59215765E-07  2.04359285E-15  3.67182055E-16  1.56974040E-06
 -2.82818844E-06  9.99534869E-01  1.95415986E-03  1.85076761E-04 -4.18278981E-04
  7.25621905E-05  7.61945568E-05  1.78265245E-05 -7.51457820E-05 -5.56776173E-17
  3.83542085E-05 -1.34856865E-04 -1.22536495E-15 -1.85798241E-05  7.17109080E-05
  7.07778856E-16  1.45436323E-06 -5.75482879E-05  3.20461089E-15  2.65552095E-06
 -1.12503202E-05 -1.93635453E-15 -3.61667878E-06 -9.38367240E-17  6.37473210E-16
 -4.91265758E-06 -3.28492109E-06 -2.88796052E-05 -3.78139156E-18 -1.17400047E-15
 -4.38161217E-05 -2.43579747E-05 -4.53780893E-07  9.76030595E-16 -4.01981702E-16
 -1.10387268E-05  1.53773192E-06 -4.41173763E-16 -2.13121771E-06  6.25296776E-06
  2.31129496E-16  1.84270201E-17 -4.55787943E-06  3.91064259E-06 -1.60305610E-16
  6.35018523E-07  2.99325386E-06 -4.52394714E-16 -5.54070928E-16 -4.63826407E-06
  7.74556543E-06 -1.84371815E-06 -1.29327911E-05  7.31749064E-05 -7.87632949E-06
  6.09633651E-07 -2.57748801E-06 -5.14564442E-16 -1.22409189E-05  1.51873335E-05
  5.18801291E-15  1.24383944E-05  2.69204506E-05 -5.29564574E-15 -5.08717137E-07
 -9.13833246E-16  2.02848876E-16 -5.40692340E-07 -1.00436933E-06 -1.65902946E-05
 -4.49302020E-15  7.11321863E-16  1.21367312E-05 -8.25661525E-07  9.76803245E-01
 -9.26133712E-03  4.33930569E-02  1.37399614E-03  8.61625493E-04  8.82359572E-04
  1.57992480E-03 -9.02271432E-17 -1.09864906E-03 -1.19519644E-03  3.65176009E-16
 -2.61400128E-04  2.49139855E-04 -2.71126724E-15 -1.70867811E-04  2.24698556E-04
 -1.06360354E-15  3.75371397E-05 -1.84300889E-16 -9.69344117E-16  9.98172690E-05
  4.07030490E-05  4.85395875E-04 -2.64427616E-16  9.77383918E-16 -8.19440974E-07
  1.49476639E-04 -1.07889447E-04 -1.10757583E-15 -5.75179842E-16 -1.63473040E-04
 -8.59300126E-05 -2.69286932E-16  9.19047310E-06  1.84077353E-05  2.12768751E-16
 -9.69490504E-17  3.94740680E-07  8.42062367E-06  1.03628379E-16  4.72597887E-05
  2.36220132E-05 -4.33516670E-16  1.42047006E-17 -1.50394311E-04 -5.22887022E-05
  1.14240110E-06  1.37220995E-06  8.76180442E-05  1.18859921E-04 -2.02728043E-03
 -7.13933257E-04  7.13554731E-05  9.89400996E-07  1.56484284E-16  7.06533939E-04
 -1.44265306E-06  1.00256219E-15 -2.52980893E-04 -3.99112318E-06 -4.91304488E-16
  1.18370851E-03  5.79588116E-05 -9.10530192E-16  2.17999551E-04 -1.37290108E-05
 -2.17756844E-17 -2.18130972E-06 -6.39149524E-17 -1.36777386E-17  2.56532439E-06
 -1.92424592E-06  1.41813084E-05  9.66779707E-17  1.05355450E-16 -1.62073503E-05
  1.39376755E-05  1.42221551E-04 -4.52861821E-16 -8.86910333E-17 -2.68979001E-04
 -4.20816814E-05  1.62081793E-04  4.37724490E-16 -9.05190087E-18 -2.75465557E-04
 -1.52132579E-05 -2.55165009E-19 -1.80752354E-05  4.29400155E-08  1.54641276E-17
  4.10850369E-18  1.98921843E-05 -4.16926002E-06 -1.27215127E-16 -1.59164834E-06
 -5.52991338E-06  7.92322305E-17 -5.87302528E-17  2.02285133E-05  2.94710027E-05
  3.73709760E-06  6.47449316E-05  5.72682871E-05 -2.94327373E-04  3.96293950E-04
 -6.95053136E-04  5.76245020E-07 -1.52229377E-05 -1.87613848E-16  9.36298837E-05
 -6.89499907E-04 -7.43434157E-16 -5.34548467E-05  2.83443042E-04  5.48199746E-16
  9.49952075E-05  1.65623492E-04  7.87949856E-16  7.71480680E-06  1.68026952E-04
  2.03682457E-16  1.75381938E-05  1.55872969E-16 -4.17645899E-16  3.54162728E-06
  6.87740952E-06 -3.48384943E-04 -2.60425435E-16  8.04551350E-16 -4.94284900E-04
 -1.84096542E-04  9.99840312E-05  1.48477201E-16 -7.91135682E-16  1.86094361E-04
 -4.26780707E-05  4.97508473E-17 -2.47365210E-05  1.63674057E-04  2.98380919E-16
 -1.02848117E-16 -1.22375409E-04  1.93789741E-04  2.46411038E-18 -5.18177877E-05
  1.13973071E-04 -1.40209536E-16  1.18215262E-16 -6.67879017E-05  6.86682633E-05
  2.84993415E-04  1.33535813E-03  2.18013437E-03  2.67340032E-04 -2.54513296E-04
  4.05926933E-05 -3.49347197E-17 -1.31588590E-03  5.24287156E-05  1.26698619E-15
  1.97048304E-03 -1.48492121E-04  2.06932616E-15 -4.98149659E-06 -2.52340721E-16
 -2.17127096E-16  3.21147394E-06 -6.79403872E-05 -6.20465830E-04 -1.22577552E-15
 -4.24764402E-17  1.24606576E-03 -6.29586386E-05 -6.69618608E-05 -4.58630873E-05
 -1.09550539E-04  3.01124607E-03  2.69838507E-03 -2.81117758E-05  4.10450222E-05
  8.56741493E-16 -1.66200765E-05  5.62567895E-04 -2.00695407E-15 -4.18952529E-04
  2.45929455E-03 -3.14822997E-15 -1.57436286E-04  9.97238586E-04 -2.73086433E-15
 -2.08199753E-05  3.27889897E-16 -2.86856131E-16 -4.39056992E-05 -3.25429822E-05
 -2.22930936E-04 -1.69488808E-15  1.00231547E-15 -2.42779027E-04 -5.14529453E-05
 -2.85104105E-04 -1.02499822E-15 -1.23224687E-15 -7.39038066E-04  1.32751930E-04
  8.57394785E-16  5.22323534E-06 -2.25048273E-05  4.67930669E-16 -3.05080418E-16
  5.39201351E-05 -4.12653344E-05  4.66804223E-16 -1.39203040E-05 -6.32222514E-05
 -1.23338456E-15  1.53642911E-16 -8.11043558E-05  1.48617907E-04 -1.69152252E-07
  3.58016497E-07  9.87610873E-06 -1.48887520E-04  4.31668486E-04 -4.64108029E-05