title                                                                   
SP        RMP2-FC                                                     Gen                 
Number of atoms                            I                4
Info1-9                                    I   N=           9
         136         123           0           0           0         110
           1           2           1
Full Title                                 C   N=           1
title       
Route                                      C   N=           5
#p pop=NBO SP NoSymm mp2/gen Pseudo=read density=current    
Charge                                     I               -1
Multiplicity                               I                1
Number of electrons                        I               52
Number of alpha electrons                  I               26
Number of beta electrons                   I               26
Number of basis functions                  I              174
Number of independent functions            I              174
Number of point charges in /Mol/           I                0
Number of translation vectors              I                0
Atomic numbers                             I   N=           4
           8          35          17           1
Nuclear charges                            R   N=           4
  8.00000000E+00  2.50000000E+01  1.70000000E+01  1.00000000E+00
Current cartesian coordinates              R   N=          12
  0.00000000E+00  0.00000000E+00  0.00000000E+00  5.79755078E+00  0.00000000E+00
  0.00000000E+00 -7.40412882E-01  3.09587011E+00  0.00000000E+00  1.62874448E+00
  0.00000000E+00  9.40356065E-01
Number of symbols in /Mol/                 I                0
Force Field                                I                0
Atom Types                                 C   N=           4
                                                
Int Atom Types                             I   N=           4
           0           0           0           0
MM charges                                 R   N=           4
  0.00000000E+00  0.00000000E+00  0.00000000E+00  0.00000000E+00
Integer atomic weights                     I   N=           4
          16          79          35           1
Real atomic weights                        R   N=           4
  1.59949146E+01  7.89183361E+01  3.49688527E+01  1.00782504E+00
Atom fragment info                         I   N=           4
           0           0           0           0
Atom residue num                           I   N=           4
           0           0           0           0
Nuclear spins                              I   N=           4
           0           3           3           1
Nuclear ZEff                               R   N=           4
 -5.60000000E+00 -1.43500000E+03 -1.42400000E+01 -1.00000000E+00
Nuclear ZNuc                               R   N=           4
  8.00000000E+00  3.50000000E+01  1.70000000E+01  1.00000000E+00
Nuclear QMom                               R   N=           4
  0.00000000E+00  3.13000000E+01 -8.16500000E+00  0.00000000E+00
Nuclear GFac                               R   N=           4
  0.00000000E+00  2.10639900E+00  8.21874000E-01  2.79284600E+00
MicOpt                                     I   N=           4
          -1          -1          -1          -1
Number of residues                         I                0
Number of secondary structures             I                0
Number of contracted shells                I               56
Number of primitive shells                 I              138
Pure/Cartesian d shells                    I                0
Pure/Cartesian f shells                    I                0
Highest angular momentum                   I                3
Largest degree of contraction              I               11
Shell types                                I   N=          56
           0           0           0           0           0           1
           1           1           1          -2          -2          -2
          -3          -3           0           0           0           0
           0           0           1           1           1           1
           1          -2          -2          -2          -2          -3
          -3           0           0           0           0           0
           0           1           1           1           1           1
          -2          -2          -2          -3          -3           0
           0           0           0           1           1           1
          -2          -2
Number of primitives per shell             I   N=          56
           7           6           1           1           1           3
           1           1           1           1           1           1
           1           1           7           6           1           1
           1           1           8           8           1           1
           1           8           1           1           1           1
           1          11           9           8           1           1
           1           6           6           1           1           1
           1           1           1           1           1           3
           1           1           1           1           1           1
           1           1
Shell to atom map                          I   N=          56
           1           1           1           1           1           1
           1           1           1           1           1           1
           1           1           2           2           2           2
           2           2           2           2           2           2
           2           2           2           2           2           2
           2           3           3           3           3           3
           3           3           3           3           3           3
           3           3           3           3           3           4
           4           4           4           4           4           4
           4           4
Primitive exponents                        R   N=         138
  1.53300000E+04  2.29900000E+03  5.22400000E+02  1.47300000E+02  4.75500000E+01
  1.67600000E+01  6.20700000E+00  5.22400000E+02  1.47300000E+02  4.75500000E+01
  1.67600000E+01  6.20700000E+00  6.88200000E-01  1.75200000E+00  2.38400000E-01
  7.37600000E-02  3.44600000E+01  7.74900000E+00  2.28000000E+00  7.15600000E-01
  2.14000000E-01  5.97400000E-02  2.31400000E+00  6.45000000E-01  2.14000000E-01
  1.42800000E+00  5.00000000E-01  9.65939000E+03  1.45596000E+03  3.25914000E+02
  4.65657000E+01  1.82469000E+01  3.80201000E+00  1.78632000E+00  9.65939000E+03
  3.25914000E+02  4.65657000E+01  1.82469000E+01  3.80201000E+00  1.78632000E+00
  6.02714000E-01  2.84014000E-01  1.20271000E-01  4.45000000E-02  4.92187000E+02
  9.23642000E+01  2.70718000E+01  7.26539000E+00  3.48481000E+00  1.64048000E+00
  6.48570000E-01  9.53040000E-02  4.92187000E+02  2.70718000E+01  7.26539000E+00
  3.48481000E+00  1.64048000E+00  6.48570000E-01  2.56407000E-01  9.53040000E-02
  7.66600000E-01  1.18200000E-01  3.96000000E-02  3.38996000E+02  1.03217000E+02
  4.23638000E+01  1.84356000E+01  8.37254000E+00  3.80222000E+00  1.68677000E+00
  6.77520000E-01  6.77520000E-01  2.55300000E-01  1.00900000E-01  5.60600000E-01
  2.45400000E-01  4.56100000E+05  6.83300000E+04  1.55500000E+04  4.40500000E+03
  1.43900000E+03  5.20400000E+02  2.03100000E+02  8.39600000E+01  3.62000000E+01
  1.58300000E+01  6.33400000E+00  4.40500000E+03  1.43900000E+03  5.20400000E+02
  2.03100000E+02  8.39600000E+01  3.62000000E+01  1.58300000E+01  6.33400000E+00
  2.69400000E+00  1.43900000E+03  2.03100000E+02  8.39600000E+01  3.62000000E+01
  1.58300000E+01  6.33400000E+00  2.69400000E+00  4.31300000E-01  9.76800000E-01
  1.62500000E-01  5.91000000E-02  6.63300000E+02  1.56800000E+02  4.99800000E+01
  1.84200000E+01  7.24000000E+00  2.92200000E+00  1.56800000E+02  4.99800000E+01
  1.84200000E+01  7.24000000E+00  2.92200000E+00  3.81800000E-01  1.02200000E+00
  1.30100000E-01  4.19000000E-02  1.04600000E+00  3.44000000E-01  1.35000000E-01
  7.06000000E-01  3.12000000E-01  3.38700000E+01  5.09500000E+00  1.15900000E+00
  3.25800000E-01  1.02700000E-01  2.52600000E-02  1.40700000E+00  3.88000000E-01
  1.02000000E-01  1.05700000E+00  2.47000000E-01
Contraction coefficients                   R   N=         138
  5.19808943E-04  4.02025621E-03  2.07128267E-02  8.10105536E-02  2.35962985E-01
  4.42653446E-01  3.57064423E-01 -4.42115008E-05 -1.22591041E-03 -1.05517725E-02
 -6.74452633E-02 -1.71198607E-01  1.07329856E+00  1.00000000E+00  1.00000000E+00
  1.00000000E+00  4.11634896E-02  2.57762836E-01  8.02419274E-01  1.00000000E+00
  1.00000000E+00  1.00000000E+00  1.00000000E+00  1.00000000E+00  1.00000000E+00
  1.00000000E+00  1.00000000E+00  3.80701661E-04  2.63868635E-03  8.70555302E-03
  8.03093709E-02 -4.07648708E-01  7.03092632E-01  4.97431509E-01 -2.19689157E-05
 -9.47832571E-04  9.38727693E-03 -1.47428152E-02 -2.77285578E-01 -7.38047787E-01
  1.00000000E+00  1.00000000E+00  1.00000000E+00  1.00000000E+00  4.71881392E-04
  5.49299123E-03 -8.80115226E-02  3.43400525E-01  5.10073044E-01  2.48575707E-01
  2.24628895E-02  8.56099489E-04 -4.13161033E-05  2.99292350E-03 -2.76886294E-02
 -5.33882855E-02 -1.24705505E-02  3.44020817E-01  5.41867327E-01  2.58979876E-01
  1.00000000E+00  1.00000000E+00  1.00000000E+00  1.52399887E-03  1.56729884E-02
  7.23999463E-02  1.86302862E-01  3.23880760E-01  3.74533722E-01  2.57417809E-01
  6.80509495E-02  1.00000000E+00  1.00000000E+00  1.00000000E+00  1.00000000E+00
  1.00000000E+00  4.93229477E-05  3.83207967E-04  2.00947816E-03  8.38950124E-03
  2.94843950E-02  8.78759948E-02  2.11589759E-01  3.65611554E-01  3.41246350E-01
  1.02162570E-01  2.14249949E-03 -2.21747925E-06 -1.71189708E-04 -1.27922846E-03
 -9.32956265E-03 -3.98910062E-02 -1.05536085E-01  9.36202446E-03  5.10511140E-01
  5.73150737E-01  4.03949245E-06  2.12481765E-04  8.59484452E-04  4.63248159E-03
  4.47343490E-04 -7.38438245E-02 -3.62271994E-01  1.16620337E+00  1.00000000E+00
  1.00000000E+00  1.00000000E+00  2.47206402E-03  1.97550234E-02  9.09917355E-02
  2.63187834E-01  4.49078073E-01  3.60183072E-01  3.03427809E-05 -1.22475826E-03
 -6.01429772E-03 -2.76401323E-02  4.35105612E-04  1.00307272E+00  1.00000000E+00
  1.00000000E+00  1.00000000E+00  1.00000000E+00  1.00000000E+00  1.00000000E+00
  1.00000000E+00  1.00000000E+00  2.54948632E-02  1.90362766E-01  8.52162022E-01
  1.00000000E+00  1.00000000E+00  1.00000000E+00  1.00000000E+00  1.00000000E+00
  1.00000000E+00  1.00000000E+00  1.00000000E+00
Coordinates of each shell                  R   N=         168
  0.00000000E+00  0.00000000E+00  0.00000000E+00  0.00000000E+00  0.00000000E+00
  0.00000000E+00  0.00000000E+00  0.00000000E+00  0.00000000E+00  0.00000000E+00
  0.00000000E+00  0.00000000E+00  0.00000000E+00  0.00000000E+00  0.00000000E+00
  0.00000000E+00  0.00000000E+00  0.00000000E+00  0.00000000E+00  0.00000000E+00
  0.00000000E+00  0.00000000E+00  0.00000000E+00  0.00000000E+00  0.00000000E+00
  0.00000000E+00  0.00000000E+00  0.00000000E+00  0.00000000E+00  0.00000000E+00
  0.00000000E+00  0.00000000E+00  0.00000000E+00  0.00000000E+00  0.00000000E+00
  0.00000000E+00  0.00000000E+00  0.00000000E+00  0.00000000E+00  0.00000000E+00
  0.00000000E+00  0.00000000E+00  5.79755078E+00  0.00000000E+00  0.00000000E+00
  5.79755078E+00  0.00000000E+00  0.00000000E+00  5.79755078E+00  0.00000000E+00
  0.00000000E+00  5.79755078E+00  0.00000000E+00  0.00000000E+00  5.79755078E+00
  0.00000000E+00  0.00000000E+00  5.79755078E+00  0.00000000E+00  0.00000000E+00
  5.79755078E+00  0.00000000E+00  0.00000000E+00  5.79755078E+00  0.00000000E+00
  0.00000000E+00  5.79755078E+00  0.00000000E+00  0.00000000E+00  5.79755078E+00
  0.00000000E+00  0.00000000E+00  5.79755078E+00  0.00000000E+00  0.00000000E+00
  5.79755078E+00  0.00000000E+00  0.00000000E+00  5.79755078E+00  0.00000000E+00
  0.00000000E+00  5.79755078E+00  0.00000000E+00  0.00000000E+00  5.79755078E+00
  0.00000000E+00  0.00000000E+00  5.79755078E+00  0.00000000E+00  0.00000000E+00
  5.79755078E+00  0.00000000E+00  0.00000000E+00 -7.40412882E-01  3.09587011E+00
  0.00000000E+00 -7.40412882E-01  3.09587011E+00  0.00000000E+00 -7.40412882E-01
  3.09587011E+00  0.00000000E+00 -7.40412882E-01  3.09587011E+00  0.00000000E+00
 -7.40412882E-01  3.09587011E+00  0.00000000E+00 -7.40412882E-01  3.09587011E+00
  0.00000000E+00 -7.40412882E-01  3.09587011E+00  0.00000000E+00 -7.40412882E-01
  3.09587011E+00  0.00000000E+00 -7.40412882E-01  3.09587011E+00  0.00000000E+00
 -7.40412882E-01  3.09587011E+00  0.00000000E+00 -7.40412882E-01  3.09587011E+00
  0.00000000E+00 -7.40412882E-01  3.09587011E+00  0.00000000E+00 -7.40412882E-01
  3.09587011E+00  0.00000000E+00 -7.40412882E-01  3.09587011E+00  0.00000000E+00
 -7.40412882E-01  3.09587011E+00  0.00000000E+00 -7.40412882E-01  3.09587011E+00
  0.00000000E+00  1.62874448E+00  0.00000000E+00  9.40356065E-01  1.62874448E+00
  0.00000000E+00  9.40356065E-01  1.62874448E+00  0.00000000E+00  9.40356065E-01
  1.62874448E+00  0.00000000E+00  9.40356065E-01  1.62874448E+00  0.00000000E+00
  9.40356065E-01  1.62874448E+00  0.00000000E+00  9.40356065E-01  1.62874448E+00
  0.00000000E+00  9.40356065E-01  1.62874448E+00  0.00000000E+00  9.40356065E-01
  1.62874448E+00  0.00000000E+00  9.40356065E-01
Num ILSW                                   I              100
ILSW                                       I   N=         100
           0           0           0           0           2           0
           0           0           0           0           0          -1
           5           0           0           0           0           0
           0           0           0           0           0           0
           1           1           0           0           0           0
           0           0      100000           0          -1           0
           0           0           0           0           0           0
           0           0           0           1           0           0
           0 -2000000000           1           0           0           0
           0           0           4          52           0           0
           0           0           0           0           0           0
           0           0           0           4           0           1
           0           0           0           0           0           0
           0           0           0           0           0           0
           0           0           0           0           0           0
           0           0           0           0           0           0
           0           0           0           0
Num RLSW                                   I               52
RLSW                                       R   N=          52
  1.00000000E+00  1.00000000E+00  1.00000000E+00  1.00000000E+00  1.00000000E+00
  0.00000000E+00  0.00000000E+00  1.00000000E+00  0.00000000E+00  0.00000000E+00
  0.00000000E+00  0.00000000E+00  1.00000000E+00  0.00000000E+00  0.00000000E+00
  0.00000000E+00  0.00000000E+00  1.00000000E+00  0.00000000E+00  0.00000000E+00
  0.00000000E+00  0.00000000E+00  1.00000000E+00  0.00000000E+00  0.00000000E+00
  0.00000000E+00  0.00000000E+00  1.00000000E+00  0.00000000E+00  0.00000000E+00
  0.00000000E+00  0.00000000E+00  1.00000000E+00  0.00000000E+00  0.00000000E+00
  0.00000000E+00  0.00000000E+00  0.00000000E+00  1.00000000E+00  1.00000000E+00
  0.00000000E+00  1.00000000E+00  0.00000000E+00  0.00000000E+00  0.00000000E+00
  0.00000000E+00  0.00000000E+00  0.00000000E+00  0.00000000E+00  0.00000000E+00
  0.00000000E+00  0.00000000E+00
ECP-MxAtEC                                 I           250000
ECP-MaxLECP                                I               10
ECP-MaxAtL                                 I          2250000
ECP-MxTECP                                 I         11250000
ECP-LenNCZ                                 I               16
ECP-KFirst                                 I   N=          40
           0           1           0           0           0           2
           0           0           0           5           0           0
           0           9           0           0           0          15
           0           0           0           0           0           0
           0           0           0           0           0           0
           0           0           0           0           0           0
           0           0           0           0
ECP-KLast                                  I   N=          40
           0           1           0           0           0           4
           0           0           0           8           0           0
           0          14           0           0           0          16
           0           0           0           0           0           0
           0           0           0           0           0           0
           0           0           0           0           0           0
           0           0           0           0
ECP-LMax                                   I   N=           4
           0           4           0           0
ECP-LPSkip                                 I   N=           4
           1           0           1           1
ECP-RNFroz                                 R   N=           4
  0.00000000E+00  1.00000000E+01  0.00000000E+00  0.00000000E+00
ECP-NLP                                    I   N=          16
           2           2           2           2           2           2
           2           2           2           2           2           2
           2           2           2           2
ECP-CLP1                                   R   N=          16
  0.00000000E+00  4.99628340E+01  3.70014205E+02  1.02414390E+01  9.91122440E+01
  1.98253046E+02  2.82617400E+01  5.66233660E+01 -1.86058530E+01 -2.79232800E+01
 -3.79693000E-01 -7.80583000E-01  3.59680000E-02  9.43970000E-02 -1.09126900E+00
 -2.88769100E+00
ECP-CLP2                                   R   N=          16
  0.00000000E+00  0.00000000E+00  0.00000000E+00  0.00000000E+00  0.00000000E+00
  0.00000000E+00  0.00000000E+00  0.00000000E+00  0.00000000E+00  0.00000000E+00
  0.00000000E+00  0.00000000E+00  0.00000000E+00  0.00000000E+00  0.00000000E+00
  0.00000000E+00
ECP-ZLP                                    R   N=          16
  1.00000000E+00  7.00242570E+01  3.11784120E+01  7.15659300E+00  4.67734710E+01
  4.61841200E+01  2.17138580E+01  2.09417920E+01  5.06988390E+01  5.06447640E+01
  1.54475090E+01  1.55002590E+01  2.80039100E+00  1.07748000E+00  1.44656060E+01
  2.12340650E+01
MxBond                                     I                2
NBond                                      I   N=           4
           2           0           1           1
IBond                                      I   N=           8
           3           4           0           0           1           0
           1           0
RBond                                      R   N=           8
  1.00000000E+00  1.00000000E+00  0.00000000E+00  0.00000000E+00  1.00000000E+00
  0.00000000E+00  1.00000000E+00  0.00000000E+00
Virial Ratio                               R      2.144410531787289E+00
SCF Energy                                 R     -9.505158989469570E+02
MP2 Energy                                 R     -9.512165329274545E+02
Total Energy                               R     -9.512165329274545E+02
Post-SCF wavefunction norm                 R      1.105152923157386E+00
RMS Density                                R      5.463773672197998E-09
Job Status                                 I                1
Nuclear derivative order                   I                0
External E-field                           R   N=          35
  0.00000000E+00  0.00000000E+00  0.00000000E+00  0.00000000E+00  0.00000000E+00
  0.00000000E+00  0.00000000E+00  0.00000000E+00  0.00000000E+00  0.00000000E+00
  0.00000000E+00  0.00000000E+00  0.00000000E+00  0.00000000E+00  0.00000000E+00
  0.00000000E+00  0.00000000E+00  0.00000000E+00  0.00000000E+00  0.00000000E+00
  0.00000000E+00  0.00000000E+00  0.00000000E+00  0.00000000E+00  0.00000000E+00
  0.00000000E+00  0.00000000E+00  0.00000000E+00  0.00000000E+00  0.00000000E+00
  0.00000000E+00  0.00000000E+00  0.00000000E+00  0.00000000E+00  0.00000000E+00
IOpCl                                      I                0
IROHF                                      I                0
Alpha Orbital Energies                     R   N=         174
 -1.04737633E+02 -2.04734214E+01 -1.04572108E+01 -9.54890034E+00 -7.92439255E+00
 -7.92169315E+00 -7.92155962E+00 -7.29681910E+00 -7.29629061E+00 -7.29618514E+00
 -2.84785833E+00 -2.84771337E+00 -2.84758336E+00 -2.84705095E+00 -2.84704444E+00
 -1.24250742E+00 -9.03122373E-01 -7.44552895E-01 -5.51215849E-01 -4.51717671E-01
 -4.42958172E-01 -3.14735602E-01 -2.88197393E-01 -1.71597834E-01 -1.64786743E-01
 -1.63882088E-01  1.52900831E-01  1.78819515E-01  2.21991704E-01  2.29869632E-01
  2.53799469E-01  2.66318536E-01  2.70936292E-01  2.81992193E-01  2.91005092E-01
  3.10299064E-01  3.30255959E-01  3.31278080E-01  3.60997302E-01  4.06028884E-01
  4.40010686E-01  4.55835971E-01  4.83995366E-01  4.89541312E-01  5.11752900E-01
  5.37362137E-01  5.47857173E-01  5.58213610E-01  5.74172983E-01  5.87498484E-01
  5.98257504E-01  6.05615426E-01  6.49164429E-01  6.69013541E-01  7.54339210E-01
  7.79118266E-01  8.10633174E-01  8.37281289E-01  8.46139796E-01  8.64498636E-01
  8.73326256E-01  8.83119977E-01  8.91537385E-01  9.42181503E-01  9.63770206E-01
  9.75324024E-01  9.94089331E-01  9.97060360E-01  1.00142596E+00  1.01020970E+00
  1.04856281E+00  1.06416075E+00  1.07665976E+00  1.09040292E+00  1.10979409E+00
  1.11802987E+00  1.13760460E+00  1.15231866E+00  1.15584484E+00  1.18043766E+00
  1.18445726E+00  1.21528621E+00  1.23750199E+00  1.26943624E+00  1.28124964E+00
  1.34225199E+00  1.35830467E+00  1.36865840E+00  1.40377018E+00  1.46097395E+00
  1.48333240E+00  1.52327336E+00  1.56122239E+00  1.57415384E+00  1.65164634E+00
  1.68474832E+00  1.70518947E+00  1.71796025E+00  1.77465897E+00  1.79881764E+00
  1.86349511E+00  1.96831359E+00  2.10961307E+00  2.35209494E+00  2.39308795E+00
  2.44138917E+00  2.46821222E+00  2.46891449E+00  2.48927442E+00  2.51153813E+00
  2.51665174E+00  2.52354212E+00  2.54652744E+00  2.54798787E+00  2.55537266E+00
  2.57301761E+00  2.58969383E+00  2.60980328E+00  2.62116023E+00  2.64044242E+00
  2.64505337E+00  2.65288517E+00  2.67836636E+00  2.69111172E+00  2.70598350E+00
  2.72618682E+00  2.73503877E+00  2.74077342E+00  2.78264242E+00  2.80469018E+00
  2.82441993E+00  2.85544215E+00  2.89673471E+00  2.97059782E+00  3.02739547E+00
  3.10283355E+00  3.15241844E+00  3.19976413E+00  3.22682854E+00  3.24054328E+00
  3.28640611E+00  3.29906013E+00  3.37593996E+00  3.50806827E+00  3.54768469E+00
  3.57445004E+00  3.91427020E+00  4.10067140E+00  4.34550296E+00  4.48805232E+00
  4.55740668E+00  4.61853654E+00  4.73026662E+00  4.95427667E+00  5.00906305E+00
  5.35681481E+00  5.42299048E+00  5.68100955E+00  6.39057490E+00  6.60433336E+00
  6.87128828E+00  6.89654659E+00  6.91243398E+00  6.98494574E+00  7.31674738E+00
  7.34717143E+00  7.35045597E+00  7.44094204E+00  7.51853758E+00  7.72442526E+00
  7.74834549E+00  8.36350376E+00  1.44422603E+01  7.98882856E+01
Alpha MO coefficients                      R   N=       30276
  5.97774543E-06  3.27813944E-05  1.45310569E-06 -1.39430350E-04 -8.52770402E-05
 -2.17314900E-08  3.18177089E-06  6.88178640E-07 -1.01928650E-06 -9.61822748E-06
 -3.10079587E-06  5.20900026E-05 -1.51810749E-04  2.96388117E-06  1.36657273E-05
 -3.26477832E-05  4.18162612E-06 -1.95865558E-06  2.46101209E-07  1.08287857E-07
 -2.95144106E-06 -1.36364132E-06  1.32333035E-05 -6.50246332E-07 -7.68803194E-07
  2.08143936E-05  9.29664250E-06  2.54417741E-05  7.99155836E-06 -7.13099450E-06
  5.76466200E-05  1.35600605E-05 -8.79214704E-08 -7.28379350E-08  3.66901116E-07
 -7.22737538E-07  7.28974131E-07 -1.34390508E-06  7.53216081E-07 -1.26188170E-07
 -2.66337777E-06  1.14842239E-05  3.23588461E-06 -3.03309186E-06 -6.06046866E-06
  9.84275941E-06  8.09114203E-08 -2.07975131E-07 -3.18488175E-06  1.44721334E-05
 -2.60208648E-05 -8.76326727E-06 -1.10036717E-07 -3.15224588E-09 -2.29212462E-08
 -2.78365635E-06  2.77979572E-07  4.80169636E-08  1.74011045E-08 -9.54838710E-09
  1.63700604E-07  2.27039070E-05 -1.54157223E-06 -4.72208274E-06  4.50375651E-06
 -3.97986210E-07  1.25031425E-07  5.82554015E-08  4.60945308E-08  5.80070903E-10
 -1.71312679E-07 -1.55171320E-08 -5.37513901E-07 -4.29682769E-07 -3.22375355E-08
  1.36957092E-06  2.96353821E-08  2.21357047E-06  2.26169115E-06  3.22029419E-07
 -5.02196916E-06  8.66635346E-08  3.72010909E-06  2.08485928E-06 -1.32765914E-06
 -6.24467819E-06  1.12154174E-06  1.26595802E-08 -2.48063200E-08  2.15163768E-07
 -1.15527312E-07 -6.73536058E-07 -6.05064122E-07 -3.79244884E-07  7.64043541E-07
 -1.28423895E-06 -3.11890969E-07 -8.43848676E-07  1.26213366E-06  3.27908204E-06
  4.50755150E-07  9.99534867E-01  1.95368279E-03  1.84410322E-04 -4.17479797E-04
  7.01481307E-05  7.13470771E-05  1.68529684E-05 -7.59960778E-05  2.00480630E-06
  3.56879733E-05 -1.34452996E-04  3.26949968E-06 -1.73596579E-05  7.19809630E-05
 -1.84933812E-06  5.88707256E-06 -5.43721408E-05 -2.79975143E-06  1.93506624E-06
 -1.14093213E-05 -1.27789432E-06 -3.70332902E-06  1.51153147E-07 -1.69464239E-07
 -5.30628397E-06 -3.37220519E-06 -2.81269809E-05  5.02182577E-07 -1.01482839E-06
 -4.32190305E-05 -2.33955440E-05 -2.19308615E-06 -3.45204961E-06  6.36371300E-07
 -8.20347732E-06  3.01338572E-07 -5.72288948E-07 -1.52064175E-06  5.87444662E-06
  4.07266324E-07 -1.10460610E-06 -4.96291036E-06  4.41623734E-06  1.01090658E-06
 -7.07619859E-07  3.45151110E-06 -1.24217039E-06  2.17395246E-06 -3.48133840E-06
  6.48576360E-06 -1.00379065E-06 -2.31107556E-05  3.31943503E-05 -5.76284096E-06
  7.56672062E-07 -2.37757612E-06  3.43119387E-07 -7.27011822E-06  1.67316269E-05
 -5.19786148E-07  1.07055529E-05  1.76067405E-05 -4.79712902E-06 -5.42121650E-07
 -1.93132413E-09 -1.04329376E-07 -1.36181157E-06 -9.04152091E-07 -8.88581214E-06
  2.10472693E-06 -1.30448547E-06  7.24810148E-06 -4.22506882E-06  9.76831515E-01
 -9.10298943E-03  4.33760487E-02  2.13814978E-03  5.35056285E-04  7.14846404E-04
  1.55760153E-03  7.70945267E-04 -8.10544363E-04 -1.20482614E-03 -7.32201894E-04
 -1.81059746E-04  6.98784643E-04 -2.78564304E-04 -1.18997023E-04  1.71758415E-04
 -8.78247182E-05  5.07844807E-05  2.53193751E-05 -2.18413183E-07  1.01254400E-04
  4.20115168E-05  2.53431178E-04 -4.11965045E-04 -2.05960093E-05  8.27696484E-05
  1.69698682E-04 -2.07228577E-04 -5.14759912E-05  9.12483435E-06 -1.89603501E-04
 -1.75191624E-04  8.72065726E-06 -8.03118262E-06  1.47688841E-05 -2.60929725E-06
 -1.16810129E-05 -1.00061893E-05  9.86402546E-06  4.24062431E-05 -4.55764136E-05
 -7.01291184E-06 -1.08413353E-04 -2.89354063E-05 -6.00198617E-05 -4.94103151E-05
  8.90732935E-07  6.45792523E-07  3.71965174E-05 -9.79749349E-05  6.83071072E-05
  2.24160555E-05  5.84719820E-06 -1.25880783E-08  7.65102746E-07  1.01158631E-04
 -4.13111980E-06  2.04742040E-05 -2.45019779E-05 -6.13837266E-08  2.98849899E-06
 -1.02318207E-04  3.55709110E-05 -2.21339007E-04 -1.48438851E-05 -1.26231288E-05
 -1.94795336E-05 -2.23455768E-06  3.11870144E-06 -5.98067820E-08  2.45317883E-07
 -1.12194727E-06  1.99583902E-05 -2.68744417E-05  6.58040019E-07 -8.20814583E-06
  7.54939584E-06 -4.52735783E-05  1.15058284E-04 -3.42072015E-06  1.70809540E-06
 -2.13335664E-05 -6.04268158E-05  1.42095359E-04  1.38372092E-05  1.54753844E-05
  5.43972414E-06 -4.55034727E-06 -1.89080174E-05 -4.91865409E-06  2.05687216E-05
  4.75699660E-06 -1.26156654E-05  1.58120547E-06  5.38421807E-05  9.58949196E-05
  8.24798385E-06 -1.08671454E-04 -8.63011746E-06  1.56022095E-05  1.06983525E-07
  4.17733767E-06  6.81653214E-05  7.55512845E-05 -2.70274155E-04 -8.59993662E-05
 -5.02988106E-04 -4.76599393E-06 -5.03228268E-06 -2.68371648E-06  3.04463117E-05
 -5.22119405E-04 -4.38776285E-05 -3.28861290E-05  2.43462991E-04  1.22425358E-05
  2.02781634E-04  4.41123995E-04  9.44790506E-05 -1.93831836E-05  1.12899746E-04
  1.78728069E-05  1.37198272E-05 -3.37199515E-06 -5.69528927E-07  9.62476562E-06
  1.06536280E-05 -2.92881254E-04  4.93890737E-06  2.94215888E-05 -4.39550992E-04
 -1.89909280E-04  1.23119887E-04  4.43918031E-05 -5.92788569E-05  3.34898229E-04
 -3.52147639E-05  1.13861679E-05 -3.12938381E-05  1.60771055E-04  2.15939752E-06
  8.19671203E-06 -1.27171217E-04  1.87971806E-04 -1.68501227E-05 -3.30284992E-05
  9.48346316E-05  1.76499999E-05 -1.95941757E-05 -7.16883364E-05  4.23719085E-05
  3.89615016E-04  1.48941505E-03 -3.79970169E-04  1.99552236E-05 -2.24726605E-04
  5.21848328E-05 -1.31572183E-04 -1.01369786E-03 -5.66712390E-08 -4.10756108E-04
  5.41776836E-05 -2.36800512E-04  4.38409868E-04 -1.67852003E-05 -2.86157965E-05
 -3.83020059E-05  4.47475581E-06 -6.08599991E-05 -2.08639249E-04  4.54947204E-04
  1.12287227E-05  5.48579136E-04  3.39642383E-05 -7.65682263E-05 -9.84344553E-05
 -1.03144424E-04  2.60382752E-03  2.01956925E-03 -2.14949549E-05  3.66435667E-05
 -1.12394968E-05 -8.31385209E-05  5.88516012E-04  5.73854583E-05 -6.56864288E-04
  2.50476472E-03  5.35148788E-05 -2.90804524E-04  8.21411179E-04 -9.58400843E-05
 -2.84913772E-05 -6.06337866E-06 -7.14152644E-06 -4.54102141E-05 -3.44129446E-05
 -1.72250169E-04  3.98916250E-05  5.57411141E-05 -2.58643944E-04 -4.58064513E-05
 -2.65656647E-04 -9.81927125E-05  1.67769297E-04 -7.50951483E-04  4.11195292E-05
 -4.73391454E-06  7.58624170E-06 -2.69931197E-05  1.61631582E-05 -9.46529614E-06
  4.44374288E-05 -3.66711138E-05  3.79822182E-06  1.40993905E-05 -5.35100956E-06
 -3.67277963E-05  1.17063402E-04 -5.46113873E-05  1.04455644E-04 -1.72138875E-06
  4.25789447E-06  6.51060823E-05 -2.82712854E-04  4.61459499E-04  1.85823179E-04