title                                                                   
SP        RMP2-FC                                                     Gen                 
Number of atoms                            I                4
Info1-9                                    I   N=           9
         136         123           0           0           0         110
           1           2           1
Full Title                                 C   N=           1
title       
Route                                      C   N=           5
#p pop=NBO SP NoSymm mp2/gen Pseudo=read density=current    
Charge                                     I               -1
Multiplicity                               I                1
Number of electrons                        I               52
Number of alpha electrons                  I               26
Number of beta electrons                   I               26
Number of basis functions                  I              174
Number of independent functions            I              174
Number of point charges in /Mol/           I                0
Number of translation vectors              I                0
Atomic numbers                             I   N=           4
           8          35          17           1
Nuclear charges                            R   N=           4
  8.00000000E+00  2.50000000E+01  1.70000000E+01  1.00000000E+00
Current cartesian coordinates              R   N=          12
  0.00000000E+00  0.00000000E+00  0.00000000E+00  5.79755078E+00  0.00000000E+00
  0.00000000E+00 -7.40412882E-01  3.09587011E+00  0.00000000E+00  1.18869811E+00
  0.00000000E+00  1.41663525E+00
Number of symbols in /Mol/                 I                0
Force Field                                I                0
Atom Types                                 C   N=           4
                                                
Int Atom Types                             I   N=           4
           0           0           0           0
MM charges                                 R   N=           4
  0.00000000E+00  0.00000000E+00  0.00000000E+00  0.00000000E+00
Integer atomic weights                     I   N=           4
          16          79          35           1
Real atomic weights                        R   N=           4
  1.59949146E+01  7.89183361E+01  3.49688527E+01  1.00782504E+00
Atom fragment info                         I   N=           4
           0           0           0           0
Atom residue num                           I   N=           4
           0           0           0           0
Nuclear spins                              I   N=           4
           0           3           3           1
Nuclear ZEff                               R   N=           4
 -5.60000000E+00 -1.43500000E+03 -1.42400000E+01 -1.00000000E+00
Nuclear ZNuc                               R   N=           4
  8.00000000E+00  3.50000000E+01  1.70000000E+01  1.00000000E+00
Nuclear QMom                               R   N=           4
  0.00000000E+00  3.13000000E+01 -8.16500000E+00  0.00000000E+00
Nuclear GFac                               R   N=           4
  0.00000000E+00  2.10639900E+00  8.21874000E-01  2.79284600E+00
MicOpt                                     I   N=           4
          -1          -1          -1          -1
Number of residues                         I                0
Number of secondary structures             I                0
Number of contracted shells                I               56
Number of primitive shells                 I              138
Pure/Cartesian d shells                    I                0
Pure/Cartesian f shells                    I                0
Highest angular momentum                   I                3
Largest degree of contraction              I               11
Shell types                                I   N=          56
           0           0           0           0           0           1
           1           1           1          -2          -2          -2
          -3          -3           0           0           0           0
           0           0           1           1           1           1
           1          -2          -2          -2          -2          -3
          -3           0           0           0           0           0
           0           1           1           1           1           1
          -2          -2          -2          -3          -3           0
           0           0           0           1           1           1
          -2          -2
Number of primitives per shell             I   N=          56
           7           6           1           1           1           3
           1           1           1           1           1           1
           1           1           7           6           1           1
           1           1           8           8           1           1
           1           8           1           1           1           1
           1          11           9           8           1           1
           1           6           6           1           1           1
           1           1           1           1           1           3
           1           1           1           1           1           1
           1           1
Shell to atom map                          I   N=          56
           1           1           1           1           1           1
           1           1           1           1           1           1
           1           1           2           2           2           2
           2           2           2           2           2           2
           2           2           2           2           2           2
           2           3           3           3           3           3
           3           3           3           3           3           3
           3           3           3           3           3           4
           4           4           4           4           4           4
           4           4
Primitive exponents                        R   N=         138
  1.53300000E+04  2.29900000E+03  5.22400000E+02  1.47300000E+02  4.75500000E+01
  1.67600000E+01  6.20700000E+00  5.22400000E+02  1.47300000E+02  4.75500000E+01
  1.67600000E+01  6.20700000E+00  6.88200000E-01  1.75200000E+00  2.38400000E-01
  7.37600000E-02  3.44600000E+01  7.74900000E+00  2.28000000E+00  7.15600000E-01
  2.14000000E-01  5.97400000E-02  2.31400000E+00  6.45000000E-01  2.14000000E-01
  1.42800000E+00  5.00000000E-01  9.65939000E+03  1.45596000E+03  3.25914000E+02
  4.65657000E+01  1.82469000E+01  3.80201000E+00  1.78632000E+00  9.65939000E+03
  3.25914000E+02  4.65657000E+01  1.82469000E+01  3.80201000E+00  1.78632000E+00
  6.02714000E-01  2.84014000E-01  1.20271000E-01  4.45000000E-02  4.92187000E+02
  9.23642000E+01  2.70718000E+01  7.26539000E+00  3.48481000E+00  1.64048000E+00
  6.48570000E-01  9.53040000E-02  4.92187000E+02  2.70718000E+01  7.26539000E+00
  3.48481000E+00  1.64048000E+00  6.48570000E-01  2.56407000E-01  9.53040000E-02
  7.66600000E-01  1.18200000E-01  3.96000000E-02  3.38996000E+02  1.03217000E+02
  4.23638000E+01  1.84356000E+01  8.37254000E+00  3.80222000E+00  1.68677000E+00
  6.77520000E-01  6.77520000E-01  2.55300000E-01  1.00900000E-01  5.60600000E-01
  2.45400000E-01  4.56100000E+05  6.83300000E+04  1.55500000E+04  4.40500000E+03
  1.43900000E+03  5.20400000E+02  2.03100000E+02  8.39600000E+01  3.62000000E+01
  1.58300000E+01  6.33400000E+00  4.40500000E+03  1.43900000E+03  5.20400000E+02
  2.03100000E+02  8.39600000E+01  3.62000000E+01  1.58300000E+01  6.33400000E+00
  2.69400000E+00  1.43900000E+03  2.03100000E+02  8.39600000E+01  3.62000000E+01
  1.58300000E+01  6.33400000E+00  2.69400000E+00  4.31300000E-01  9.76800000E-01
  1.62500000E-01  5.91000000E-02  6.63300000E+02  1.56800000E+02  4.99800000E+01
  1.84200000E+01  7.24000000E+00  2.92200000E+00  1.56800000E+02  4.99800000E+01
  1.84200000E+01  7.24000000E+00  2.92200000E+00  3.81800000E-01  1.02200000E+00
  1.30100000E-01  4.19000000E-02  1.04600000E+00  3.44000000E-01  1.35000000E-01
  7.06000000E-01  3.12000000E-01  3.38700000E+01  5.09500000E+00  1.15900000E+00
  3.25800000E-01  1.02700000E-01  2.52600000E-02  1.40700000E+00  3.88000000E-01
  1.02000000E-01  1.05700000E+00  2.47000000E-01
Contraction coefficients                   R   N=         138
  5.19808943E-04  4.02025621E-03  2.07128267E-02  8.10105536E-02  2.35962985E-01
  4.42653446E-01  3.57064423E-01 -4.42115008E-05 -1.22591041E-03 -1.05517725E-02
 -6.74452633E-02 -1.71198607E-01  1.07329856E+00  1.00000000E+00  1.00000000E+00
  1.00000000E+00  4.11634896E-02  2.57762836E-01  8.02419274E-01  1.00000000E+00
  1.00000000E+00  1.00000000E+00  1.00000000E+00  1.00000000E+00  1.00000000E+00
  1.00000000E+00  1.00000000E+00  3.80701661E-04  2.63868635E-03  8.70555302E-03
  8.03093709E-02 -4.07648708E-01  7.03092632E-01  4.97431509E-01 -2.19689157E-05
 -9.47832571E-04  9.38727693E-03 -1.47428152E-02 -2.77285578E-01 -7.38047787E-01
  1.00000000E+00  1.00000000E+00  1.00000000E+00  1.00000000E+00  4.71881392E-04
  5.49299123E-03 -8.80115226E-02  3.43400525E-01  5.10073044E-01  2.48575707E-01
  2.24628895E-02  8.56099489E-04 -4.13161033E-05  2.99292350E-03 -2.76886294E-02
 -5.33882855E-02 -1.24705505E-02  3.44020817E-01  5.41867327E-01  2.58979876E-01
  1.00000000E+00  1.00000000E+00  1.00000000E+00  1.52399887E-03  1.56729884E-02
  7.23999463E-02  1.86302862E-01  3.23880760E-01  3.74533722E-01  2.57417809E-01
  6.80509495E-02  1.00000000E+00  1.00000000E+00  1.00000000E+00  1.00000000E+00
  1.00000000E+00  4.93229477E-05  3.83207967E-04  2.00947816E-03  8.38950124E-03
  2.94843950E-02  8.78759948E-02  2.11589759E-01  3.65611554E-01  3.41246350E-01
  1.02162570E-01  2.14249949E-03 -2.21747925E-06 -1.71189708E-04 -1.27922846E-03
 -9.32956265E-03 -3.98910062E-02 -1.05536085E-01  9.36202446E-03  5.10511140E-01
  5.73150737E-01  4.03949245E-06  2.12481765E-04  8.59484452E-04  4.63248159E-03
  4.47343490E-04 -7.38438245E-02 -3.62271994E-01  1.16620337E+00  1.00000000E+00
  1.00000000E+00  1.00000000E+00  2.47206402E-03  1.97550234E-02  9.09917355E-02
  2.63187834E-01  4.49078073E-01  3.60183072E-01  3.03427809E-05 -1.22475826E-03
 -6.01429772E-03 -2.76401323E-02  4.35105612E-04  1.00307272E+00  1.00000000E+00
  1.00000000E+00  1.00000000E+00  1.00000000E+00  1.00000000E+00  1.00000000E+00
  1.00000000E+00  1.00000000E+00  2.54948632E-02  1.90362766E-01  8.52162022E-01
  1.00000000E+00  1.00000000E+00  1.00000000E+00  1.00000000E+00  1.00000000E+00
  1.00000000E+00  1.00000000E+00  1.00000000E+00
Coordinates of each shell                  R   N=         168
  0.00000000E+00  0.00000000E+00  0.00000000E+00  0.00000000E+00  0.00000000E+00
  0.00000000E+00  0.00000000E+00  0.00000000E+00  0.00000000E+00  0.00000000E+00
  0.00000000E+00  0.00000000E+00  0.00000000E+00  0.00000000E+00  0.00000000E+00
  0.00000000E+00  0.00000000E+00  0.00000000E+00  0.00000000E+00  0.00000000E+00
  0.00000000E+00  0.00000000E+00  0.00000000E+00  0.00000000E+00  0.00000000E+00
  0.00000000E+00  0.00000000E+00  0.00000000E+00  0.00000000E+00  0.00000000E+00
  0.00000000E+00  0.00000000E+00  0.00000000E+00  0.00000000E+00  0.00000000E+00
  0.00000000E+00  0.00000000E+00  0.00000000E+00  0.00000000E+00  0.00000000E+00
  0.00000000E+00  0.00000000E+00  5.79755078E+00  0.00000000E+00  0.00000000E+00
  5.79755078E+00  0.00000000E+00  0.00000000E+00  5.79755078E+00  0.00000000E+00
  0.00000000E+00  5.79755078E+00  0.00000000E+00  0.00000000E+00  5.79755078E+00
  0.00000000E+00  0.00000000E+00  5.79755078E+00  0.00000000E+00  0.00000000E+00
  5.79755078E+00  0.00000000E+00  0.00000000E+00  5.79755078E+00  0.00000000E+00
  0.00000000E+00  5.79755078E+00  0.00000000E+00  0.00000000E+00  5.79755078E+00
  0.00000000E+00  0.00000000E+00  5.79755078E+00  0.00000000E+00  0.00000000E+00
  5.79755078E+00  0.00000000E+00  0.00000000E+00  5.79755078E+00  0.00000000E+00
  0.00000000E+00  5.79755078E+00  0.00000000E+00  0.00000000E+00  5.79755078E+00
  0.00000000E+00  0.00000000E+00  5.79755078E+00  0.00000000E+00  0.00000000E+00
  5.79755078E+00  0.00000000E+00  0.00000000E+00 -7.40412882E-01  3.09587011E+00
  0.00000000E+00 -7.40412882E-01  3.09587011E+00  0.00000000E+00 -7.40412882E-01
  3.09587011E+00  0.00000000E+00 -7.40412882E-01  3.09587011E+00  0.00000000E+00
 -7.40412882E-01  3.09587011E+00  0.00000000E+00 -7.40412882E-01  3.09587011E+00
  0.00000000E+00 -7.40412882E-01  3.09587011E+00  0.00000000E+00 -7.40412882E-01
  3.09587011E+00  0.00000000E+00 -7.40412882E-01  3.09587011E+00  0.00000000E+00
 -7.40412882E-01  3.09587011E+00  0.00000000E+00 -7.40412882E-01  3.09587011E+00
  0.00000000E+00 -7.40412882E-01  3.09587011E+00  0.00000000E+00 -7.40412882E-01
  3.09587011E+00  0.00000000E+00 -7.40412882E-01  3.09587011E+00  0.00000000E+00
 -7.40412882E-01  3.09587011E+00  0.00000000E+00 -7.40412882E-01  3.09587011E+00
  0.00000000E+00  1.18869811E+00  0.00000000E+00  1.41663525E+00  1.18869811E+00
  0.00000000E+00  1.41663525E+00  1.18869811E+00  0.00000000E+00  1.41663525E+00
  1.18869811E+00  0.00000000E+00  1.41663525E+00  1.18869811E+00  0.00000000E+00
  1.41663525E+00  1.18869811E+00  0.00000000E+00  1.41663525E+00  1.18869811E+00
  0.00000000E+00  1.41663525E+00  1.18869811E+00  0.00000000E+00  1.41663525E+00
  1.18869811E+00  0.00000000E+00  1.41663525E+00
Num ILSW                                   I              100
ILSW                                       I   N=         100
           0           0           0           0           2           0
           0           0           0           0           0          -1
           5           0           0           0           0           0
           0           0           0           0           0           0
           1           1           0           0           0           0
           0           0      100000           0          -1           0
           0           0           0           0           0           0
           0           0           0           1           0           0
           0 -2000000000           1           0           0           0
           0           0           4          52           0           0
           0           0           0           0           0           0
           0           0           0           4           0           1
           0           0           0           0           0           0
           0           0           0           0           0           0
           0           0           0           0           0           0
           0           0           0           0           0           0
           0           0           0           0
Num RLSW                                   I               52
RLSW                                       R   N=          52
  1.00000000E+00  1.00000000E+00  1.00000000E+00  1.00000000E+00  1.00000000E+00
  0.00000000E+00  0.00000000E+00  1.00000000E+00  0.00000000E+00  0.00000000E+00
  0.00000000E+00  0.00000000E+00  1.00000000E+00  0.00000000E+00  0.00000000E+00
  0.00000000E+00  0.00000000E+00  1.00000000E+00  0.00000000E+00  0.00000000E+00
  0.00000000E+00  0.00000000E+00  1.00000000E+00  0.00000000E+00  0.00000000E+00
  0.00000000E+00  0.00000000E+00  1.00000000E+00  0.00000000E+00  0.00000000E+00
  0.00000000E+00  0.00000000E+00  1.00000000E+00  0.00000000E+00  0.00000000E+00
  0.00000000E+00  0.00000000E+00  0.00000000E+00  1.00000000E+00  1.00000000E+00
  0.00000000E+00  1.00000000E+00  0.00000000E+00  0.00000000E+00  0.00000000E+00
  0.00000000E+00  0.00000000E+00  0.00000000E+00  0.00000000E+00  0.00000000E+00
  0.00000000E+00  0.00000000E+00
ECP-MxAtEC                                 I           250000
ECP-MaxLECP                                I               10
ECP-MaxAtL                                 I          2250000
ECP-MxTECP                                 I         11250000
ECP-LenNCZ                                 I               16
ECP-KFirst                                 I   N=          40
           0           1           0           0           0           2
           0           0           0           5           0           0
           0           9           0           0           0          15
           0           0           0           0           0           0
           0           0           0           0           0           0
           0           0           0           0           0           0
           0           0           0           0
ECP-KLast                                  I   N=          40
           0           1           0           0           0           4
           0           0           0           8           0           0
           0          14           0           0           0          16
           0           0           0           0           0           0
           0           0           0           0           0           0
           0           0           0           0           0           0
           0           0           0           0
ECP-LMax                                   I   N=           4
           0           4           0           0
ECP-LPSkip                                 I   N=           4
           1           0           1           1
ECP-RNFroz                                 R   N=           4
  0.00000000E+00  1.00000000E+01  0.00000000E+00  0.00000000E+00
ECP-NLP                                    I   N=          16
           2           2           2           2           2           2
           2           2           2           2           2           2
           2           2           2           2
ECP-CLP1                                   R   N=          16
  0.00000000E+00  4.99628340E+01  3.70014205E+02  1.02414390E+01  9.91122440E+01
  1.98253046E+02  2.82617400E+01  5.66233660E+01 -1.86058530E+01 -2.79232800E+01
 -3.79693000E-01 -7.80583000E-01  3.59680000E-02  9.43970000E-02 -1.09126900E+00
 -2.88769100E+00
ECP-CLP2                                   R   N=          16
  0.00000000E+00  0.00000000E+00  0.00000000E+00  0.00000000E+00  0.00000000E+00
  0.00000000E+00  0.00000000E+00  0.00000000E+00  0.00000000E+00  0.00000000E+00
  0.00000000E+00  0.00000000E+00  0.00000000E+00  0.00000000E+00  0.00000000E+00
  0.00000000E+00
ECP-ZLP                                    R   N=          16
  1.00000000E+00  7.00242570E+01  3.11784120E+01  7.15659300E+00  4.67734710E+01
  4.61841200E+01  2.17138580E+01  2.09417920E+01  5.06988390E+01  5.06447640E+01
  1.54475090E+01  1.55002590E+01  2.80039100E+00  1.07748000E+00  1.44656060E+01
  2.12340650E+01
MxBond                                     I                2
NBond                                      I   N=           4
           2           0           1           1
IBond                                      I   N=           8
           3           4           0           0           1           0
           1           0
RBond                                      R   N=           8
  1.00000000E+00  1.00000000E+00  0.00000000E+00  0.00000000E+00  1.00000000E+00
  0.00000000E+00  1.00000000E+00  0.00000000E+00
Virial Ratio                               R      2.144371694586013E+00
SCF Energy                                 R     -9.505062519769617E+02
MP2 Energy                                 R     -9.512047082299808E+02
Total Energy                               R     -9.512047082299808E+02
Post-SCF wavefunction norm                 R      1.104946414308642E+00
RMS Density                                R      7.087126901280583E-09
Job Status                                 I                1
Nuclear derivative order                   I                0
External E-field                           R   N=          35
  0.00000000E+00  0.00000000E+00  0.00000000E+00  0.00000000E+00  0.00000000E+00
  0.00000000E+00  0.00000000E+00  0.00000000E+00  0.00000000E+00  0.00000000E+00
  0.00000000E+00  0.00000000E+00  0.00000000E+00  0.00000000E+00  0.00000000E+00
  0.00000000E+00  0.00000000E+00  0.00000000E+00  0.00000000E+00  0.00000000E+00
  0.00000000E+00  0.00000000E+00  0.00000000E+00  0.00000000E+00  0.00000000E+00
  0.00000000E+00  0.00000000E+00  0.00000000E+00  0.00000000E+00  0.00000000E+00
  0.00000000E+00  0.00000000E+00  0.00000000E+00  0.00000000E+00  0.00000000E+00
IOpCl                                      I                0
IROHF                                      I                0
Alpha Orbital Energies                     R   N=         174
 -1.04744025E+02 -2.04859858E+01 -1.04637399E+01 -9.53782625E+00 -7.93093355E+00
 -7.92817847E+00 -7.92800714E+00 -7.28564526E+00 -7.28529415E+00 -7.28508627E+00
 -2.83672861E+00 -2.83666379E+00 -2.83640270E+00 -2.83604296E+00 -2.83601118E+00
 -1.25768213E+00 -9.10487476E-01 -7.31404355E-01 -5.63805730E-01 -4.61679494E-01
 -4.52432257E-01 -3.22336614E-01 -2.95640607E-01 -1.57682940E-01 -1.54001886E-01
 -1.52309539E-01  1.47474335E-01  1.75155548E-01  2.18811083E-01  2.29673278E-01
  2.57579729E-01  2.66406046E-01  2.70912163E-01  2.78967592E-01  2.83708004E-01
  3.11020653E-01  3.18155686E-01  3.34086026E-01  3.57901215E-01  3.94314584E-01
  4.38020794E-01  4.52586488E-01  4.87220297E-01  4.94904394E-01  5.06932216E-01
  5.32228683E-01  5.40378479E-01  5.55385148E-01  5.64945623E-01  5.82825141E-01
  5.90854952E-01  5.99776910E-01  6.19301585E-01  6.44599853E-01  7.52063710E-01
  7.71665783E-01  8.08884630E-01  8.38067451E-01  8.45094649E-01  8.58972691E-01
  8.65408158E-01  8.78137456E-01  8.93647868E-01  9.29130719E-01  9.57594018E-01
  9.83200873E-01  9.99314291E-01  1.00694930E+00  1.01368854E+00  1.02315411E+00
  1.03851312E+00  1.05266895E+00  1.06734597E+00  1.08628571E+00  1.10121358E+00
  1.11671013E+00  1.12421718E+00  1.15495981E+00  1.16280586E+00  1.18401106E+00
  1.18735452E+00  1.20242271E+00  1.20868776E+00  1.22022280E+00  1.25822355E+00
  1.30216168E+00  1.31894634E+00  1.35912934E+00  1.38372390E+00  1.41795306E+00
  1.46639686E+00  1.49503157E+00  1.53984194E+00  1.58311993E+00  1.63069113E+00
  1.65129229E+00  1.67918172E+00  1.69654297E+00  1.71747979E+00  1.74711422E+00
  1.85724450E+00  1.96669922E+00  2.09748106E+00  2.31772862E+00  2.39632874E+00
  2.43314037E+00  2.46115602E+00  2.47607070E+00  2.47762399E+00  2.49286176E+00
  2.50354659E+00  2.52420441E+00  2.53753792E+00  2.55160093E+00  2.55935919E+00
  2.56405828E+00  2.58765483E+00  2.60585631E+00  2.62498508E+00  2.62938851E+00
  2.63995783E+00  2.65103258E+00  2.66910814E+00  2.68178599E+00  2.70228900E+00
  2.70480182E+00  2.73046056E+00  2.74207920E+00  2.77439960E+00  2.80886443E+00
  2.82476312E+00  2.83501272E+00  2.89932561E+00  2.91921232E+00  3.00626829E+00
  3.09096377E+00  3.12361564E+00  3.20150162E+00  3.21171553E+00  3.22121138E+00
  3.25306605E+00  3.29029953E+00  3.35275267E+00  3.48047026E+00  3.54132752E+00
  3.55548034E+00  3.90711520E+00  3.96878986E+00  4.35527055E+00  4.44469053E+00
  4.52081825E+00  4.59044938E+00  4.72639409E+00  4.89964656E+00  5.00324561E+00
  5.36766326E+00  5.45263937E+00  5.68209460E+00  6.36409818E+00  6.62352030E+00
  6.83917594E+00  6.89624805E+00  6.90909967E+00  6.96420519E+00  7.33055583E+00
  7.36080390E+00  7.37190471E+00  7.45073068E+00  7.46808526E+00  7.68225880E+00
  7.70350521E+00  8.39505142E+00  1.46724416E+01  7.98972069E+01
Alpha MO coefficients                      R   N=       30276
  6.72770006E-06  3.65054973E-05  7.00638333E-07 -1.28523435E-04 -6.83970051E-05
 -2.28486737E-07  3.24453809E-06  4.21715192E-07  1.10015950E-06 -9.77892342E-06
 -9.19498019E-07  5.05774321E-05 -1.45788457E-04  7.80505039E-06  1.56785767E-05
 -2.79343324E-05  5.95902132E-06 -1.83568917E-06  1.72453579E-07  1.92266305E-07
 -2.80896985E-06 -1.48943774E-06  1.34238496E-05  8.85543235E-07 -1.06640674E-06
  2.06296028E-05  1.00693175E-05  2.75607799E-05  1.05952464E-05 -1.05407850E-05
  5.44403978E-05  1.65337955E-05  5.26375797E-08 -1.22614562E-07  1.02936133E-06
 -7.99898307E-07  7.52369326E-07 -1.01378598E-06  3.84938657E-07 -2.90303716E-07
 -1.56608624E-06  9.04089913E-06  4.16005800E-06 -2.92544408E-06 -7.23584138E-06
  1.15302651E-05  4.08331330E-08 -9.01352962E-08 -2.54255893E-06  1.12860390E-05
 -1.49432953E-05 -9.04593946E-06 -2.70776463E-07 -1.85558857E-07  1.53194514E-07
 -4.65173545E-06 -1.33996318E-06  1.29708541E-06  6.30039825E-07  6.15300375E-07
 -4.75752998E-07  1.68525516E-05  1.37404092E-06 -3.46182672E-06  4.39351065E-06
 -2.00911883E-07 -1.12164295E-07  8.04392318E-08  1.12716706E-08  8.35168291E-09
 -2.22092715E-07 -8.85370982E-08 -6.84226425E-07 -1.48846355E-07 -6.90459479E-08
  1.68122940E-06  4.70614857E-07  1.97132278E-06  7.15466595E-07  2.78415761E-07
 -4.47364791E-06 -5.93210557E-07  2.85799344E-06  1.80768568E-06 -8.14935616E-07
 -4.74844864E-06 -2.34639890E-07  5.74874433E-08  5.89158021E-08  3.56313968E-07
 -2.07506313E-08 -3.63195569E-07 -8.18451158E-07 -9.24748737E-07  2.68825883E-07
 -1.61260934E-06 -6.54422538E-07 -5.00284079E-07  6.47969359E-07  3.74952219E-06
  1.77087215E-06  9.99534869E-01  1.95405494E-03  1.85145539E-04 -4.17687302E-04
  6.70719782E-05  6.40913272E-05  1.56201522E-05 -7.67279341E-05  2.62327329E-06
  3.42427101E-05 -1.35036608E-04  4.62746664E-06 -1.63894377E-05  7.25148416E-05
 -2.55412902E-06  7.67093778E-06 -4.92408256E-05 -2.39093069E-06  1.02213884E-06
 -1.07318114E-05 -1.43639846E-06 -3.74255985E-06  1.31149118E-07 -8.32518193E-08
 -5.67989203E-06 -3.33409510E-06 -2.76571151E-05  7.70521802E-07 -1.90658140E-06
 -4.27632116E-05 -2.31745784E-05 -2.93283715E-06 -3.19638210E-06  6.26309721E-07
 -5.48456449E-06  5.05324895E-07 -5.53633233E-07 -1.18388935E-06  5.45952900E-06
  4.33824838E-08 -1.30928765E-06 -5.41012594E-06  4.91479474E-06  5.08483824E-07
 -1.45758759E-06  4.01525141E-06 -8.41249196E-07  2.31038435E-06 -2.60020141E-06
  5.26628173E-06 -3.79385050E-07 -2.51952611E-05  5.98129792E-06 -3.94356431E-06
  1.12886938E-06 -1.74243159E-06  8.93306721E-07 -7.41916391E-06  1.57219260E-05
  2.54333347E-06  7.70787081E-06  1.13400808E-05 -2.88703151E-06 -1.28912315E-06
 -3.31871214E-07 -6.27671230E-08 -1.93890368E-06 -7.06262404E-07 -3.22183951E-06
  1.18369822E-06 -4.82816668E-07  3.96981520E-06 -2.92636072E-06  9.76841292E-01
 -9.06602526E-03  4.33737557E-02  2.27191590E-03  8.66914163E-05  4.02737538E-04
  1.51583542E-03  1.17635362E-03 -4.97859155E-04 -1.18524431E-03 -1.07692917E-03
 -3.77239458E-04  8.34456907E-04 -2.31941233E-04 -1.45870854E-04  1.03065585E-04
 -1.23032932E-04  6.64872297E-05  3.38914868E-05  5.43397901E-06  9.49068682E-05
  4.57570771E-05 -7.39135042E-06 -4.79038266E-04 -2.12138952E-05  2.03412955E-04
  1.87823879E-04 -1.55883103E-04 -7.26159237E-05  6.50223856E-05 -2.76125210E-04
 -1.92937305E-04 -5.87497174E-06 -1.62209313E-05  2.99219955E-06  5.32172728E-06
 -1.42814097E-05 -1.10205287E-05  1.43401582E-05 -3.63812403E-06 -1.21363450E-04
 -1.65609961E-05 -1.06013545E-04 -2.89515621E-05 -1.74137823E-05 -3.83604873E-05
  4.07073520E-07  1.35565495E-06  5.61940401E-05 -3.20511561E-04  5.98074942E-04
  2.81252320E-04  1.17405423E-07  7.48594754E-07  8.30172377E-07  6.56954898E-05
  2.41584105E-06 -8.68492115E-07  5.33718517E-06 -2.83371105E-06 -3.10695249E-06
 -5.59199834E-04  2.43042570E-05  8.53623593E-05 -1.08986491E-04 -1.24795864E-05
  1.73685647E-05 -1.53196968E-06 -9.53370817E-07 -7.53004466E-08  1.28524539E-06
 -8.76344243E-07  1.69589857E-05  8.12855832E-06  5.89243523E-07 -2.10416095E-05
  6.33694356E-06 -6.63034165E-05 -3.46178700E-05 -2.09866790E-06  1.04529859E-04
 -2.06656753E-05 -1.01178486E-04 -3.73993325E-05  1.17997872E-05  1.50025186E-04
  9.83832025E-06  8.96918935E-06 -7.91106021E-06 -6.03482765E-06  6.04507249E-06
  2.38381613E-06 -1.32191312E-05  3.41819569E-06 -3.02613567E-05  6.52268474E-05
  1.01610666E-05  1.53872474E-06 -4.95586446E-06 -2.70944230E-05 -2.39519884E-06
  3.22564375E-06  5.30163498E-05  4.03719939E-05 -2.50415177E-04 -1.36390674E-04
 -3.08774432E-04 -5.44655964E-06 -3.71704822E-07 -5.07595646E-06  2.23237682E-05
 -4.48174344E-04 -7.96388012E-05 -3.04762765E-05  2.25430383E-04  2.31426540E-05
  2.29989713E-04  4.37397193E-04  1.41837804E-04 -1.11470834E-05  7.63424378E-05
  3.47445419E-05  1.41239806E-05  7.21806066E-07 -8.32309619E-07  1.21606495E-05
  1.19496458E-05 -2.79877338E-04 -1.41138095E-05  4.77750072E-05 -4.20175822E-04
 -1.93406681E-04  1.49322892E-04  9.38039842E-05 -6.93707710E-05  3.44892472E-04
 -3.18307349E-05  1.12684793E-05 -3.70528176E-05  1.61057931E-04  1.23151651E-06
  1.19307180E-05 -1.27340288E-04  1.85013063E-04 -6.84950154E-06 -1.79480631E-05
  8.53882368E-05  2.41306892E-05 -2.50915273E-05 -7.92489999E-05  4.11501084E-05
  4.56134257E-04  1.79903843E-03 -9.29178526E-04 -5.95382423E-05 -1.90970632E-04
  6.06928187E-05 -2.02984078E-04 -6.41857661E-04 -6.48715967E-05 -7.88274050E-04
 -5.01415291E-04 -3.00778039E-04  3.76895058E-04 -3.97064911E-05 -4.10423643E-05
 -5.84143766E-05  1.92952887E-05 -4.10777724E-05  1.93166235E-04  5.16148869E-04
  4.07696996E-05  1.09120627E-04  5.64575808E-05 -8.37554994E-05 -1.41391168E-04
 -1.00376556E-04  2.33495475E-03  1.51423155E-03 -1.94112849E-05  3.66518463E-05
 -1.00470530E-05 -1.20426671E-04  5.92844144E-04  2.56612527E-05 -6.99716829E-04
  2.36195531E-03 -3.57654409E-05 -3.64559619E-04  6.78279746E-04 -1.46133054E-04
 -3.28593059E-05 -4.01859103E-06 -9.77085976E-06 -4.77711040E-05 -2.98938401E-05
 -1.50842724E-04  1.44490393E-05  7.07789876E-05 -2.59511901E-04 -8.38237006E-05
 -2.88090444E-04 -1.46834004E-04  2.39673864E-04 -7.01037104E-04 -7.78223763E-05
 -3.07449114E-06  1.61482651E-05 -3.73149491E-05  1.54412373E-05 -1.13980297E-05
  3.65555759E-05 -3.14211852E-05  2.86996383E-05  2.41932799E-06  7.08330483E-05
 -4.55601235E-05  1.16412040E-04 -3.18113975E-05  3.94941565E-05 -1.44621696E-06
  3.77284029E-06  6.26693228E-05 -2.33522484E-04  2.53742906E-04  2.99450116E-04