title                                                                   
SP        RMP2-FC                                                     Gen                 
Number of atoms                            I                4
Info1-9                                    I   N=           9
         136         123           0           0           0         110
           1           2           1
Full Title                                 C   N=           1
title       
Route                                      C   N=           5
#p pop=NBO SP NoSymm mp2/gen Pseudo=read density=current    
Charge                                     I               -1
Multiplicity                               I                1
Number of electrons                        I               52
Number of alpha electrons                  I               26
Number of beta electrons                   I               26
Number of basis functions                  I              174
Number of independent functions            I              174
Number of point charges in /Mol/           I                0
Number of translation vectors              I                0
Atomic numbers                             I   N=           4
           8          35          17           1
Nuclear charges                            R   N=           4
  8.00000000E+00  2.50000000E+01  1.70000000E+01  1.00000000E+00
Current cartesian coordinates              R   N=          12
  0.00000000E+00  0.00000000E+00  0.00000000E+00  5.79755078E+00  0.00000000E+00
  0.00000000E+00 -7.40412882E-01  3.09587011E+00  0.00000000E+00  1.78611439E+00
  0.00000000E+00  6.50092470E-01
Number of symbols in /Mol/                 I                0
Force Field                                I                0
Atom Types                                 C   N=           4
                                                
Int Atom Types                             I   N=           4
           0           0           0           0
MM charges                                 R   N=           4
  0.00000000E+00  0.00000000E+00  0.00000000E+00  0.00000000E+00
Integer atomic weights                     I   N=           4
          16          79          35           1
Real atomic weights                        R   N=           4
  1.59949146E+01  7.89183361E+01  3.49688527E+01  1.00782504E+00
Atom fragment info                         I   N=           4
           0           0           0           0
Atom residue num                           I   N=           4
           0           0           0           0
Nuclear spins                              I   N=           4
           0           3           3           1
Nuclear ZEff                               R   N=           4
 -5.60000000E+00 -1.43500000E+03 -1.42400000E+01 -1.00000000E+00
Nuclear ZNuc                               R   N=           4
  8.00000000E+00  3.50000000E+01  1.70000000E+01  1.00000000E+00
Nuclear QMom                               R   N=           4
  0.00000000E+00  3.13000000E+01 -8.16500000E+00  0.00000000E+00
Nuclear GFac                               R   N=           4
  0.00000000E+00  2.10639900E+00  8.21874000E-01  2.79284600E+00
MicOpt                                     I   N=           4
          -1          -1          -1          -1
Number of residues                         I                0
Number of secondary structures             I                0
Number of contracted shells                I               56
Number of primitive shells                 I              138
Pure/Cartesian d shells                    I                0
Pure/Cartesian f shells                    I                0
Highest angular momentum                   I                3
Largest degree of contraction              I               11
Shell types                                I   N=          56
           0           0           0           0           0           1
           1           1           1          -2          -2          -2
          -3          -3           0           0           0           0
           0           0           1           1           1           1
           1          -2          -2          -2          -2          -3
          -3           0           0           0           0           0
           0           1           1           1           1           1
          -2          -2          -2          -3          -3           0
           0           0           0           1           1           1
          -2          -2
Number of primitives per shell             I   N=          56
           7           6           1           1           1           3
           1           1           1           1           1           1
           1           1           7           6           1           1
           1           1           8           8           1           1
           1           8           1           1           1           1
           1          11           9           8           1           1
           1           6           6           1           1           1
           1           1           1           1           1           3
           1           1           1           1           1           1
           1           1
Shell to atom map                          I   N=          56
           1           1           1           1           1           1
           1           1           1           1           1           1
           1           1           2           2           2           2
           2           2           2           2           2           2
           2           2           2           2           2           2
           2           3           3           3           3           3
           3           3           3           3           3           3
           3           3           3           3           3           4
           4           4           4           4           4           4
           4           4
Primitive exponents                        R   N=         138
  1.53300000E+04  2.29900000E+03  5.22400000E+02  1.47300000E+02  4.75500000E+01
  1.67600000E+01  6.20700000E+00  5.22400000E+02  1.47300000E+02  4.75500000E+01
  1.67600000E+01  6.20700000E+00  6.88200000E-01  1.75200000E+00  2.38400000E-01
  7.37600000E-02  3.44600000E+01  7.74900000E+00  2.28000000E+00  7.15600000E-01
  2.14000000E-01  5.97400000E-02  2.31400000E+00  6.45000000E-01  2.14000000E-01
  1.42800000E+00  5.00000000E-01  9.65939000E+03  1.45596000E+03  3.25914000E+02
  4.65657000E+01  1.82469000E+01  3.80201000E+00  1.78632000E+00  9.65939000E+03
  3.25914000E+02  4.65657000E+01  1.82469000E+01  3.80201000E+00  1.78632000E+00
  6.02714000E-01  2.84014000E-01  1.20271000E-01  4.45000000E-02  4.92187000E+02
  9.23642000E+01  2.70718000E+01  7.26539000E+00  3.48481000E+00  1.64048000E+00
  6.48570000E-01  9.53040000E-02  4.92187000E+02  2.70718000E+01  7.26539000E+00
  3.48481000E+00  1.64048000E+00  6.48570000E-01  2.56407000E-01  9.53040000E-02
  7.66600000E-01  1.18200000E-01  3.96000000E-02  3.38996000E+02  1.03217000E+02
  4.23638000E+01  1.84356000E+01  8.37254000E+00  3.80222000E+00  1.68677000E+00
  6.77520000E-01  6.77520000E-01  2.55300000E-01  1.00900000E-01  5.60600000E-01
  2.45400000E-01  4.56100000E+05  6.83300000E+04  1.55500000E+04  4.40500000E+03
  1.43900000E+03  5.20400000E+02  2.03100000E+02  8.39600000E+01  3.62000000E+01
  1.58300000E+01  6.33400000E+00  4.40500000E+03  1.43900000E+03  5.20400000E+02
  2.03100000E+02  8.39600000E+01  3.62000000E+01  1.58300000E+01  6.33400000E+00
  2.69400000E+00  1.43900000E+03  2.03100000E+02  8.39600000E+01  3.62000000E+01
  1.58300000E+01  6.33400000E+00  2.69400000E+00  4.31300000E-01  9.76800000E-01
  1.62500000E-01  5.91000000E-02  6.63300000E+02  1.56800000E+02  4.99800000E+01
  1.84200000E+01  7.24000000E+00  2.92200000E+00  1.56800000E+02  4.99800000E+01
  1.84200000E+01  7.24000000E+00  2.92200000E+00  3.81800000E-01  1.02200000E+00
  1.30100000E-01  4.19000000E-02  1.04600000E+00  3.44000000E-01  1.35000000E-01
  7.06000000E-01  3.12000000E-01  3.38700000E+01  5.09500000E+00  1.15900000E+00
  3.25800000E-01  1.02700000E-01  2.52600000E-02  1.40700000E+00  3.88000000E-01
  1.02000000E-01  1.05700000E+00  2.47000000E-01
Contraction coefficients                   R   N=         138
  5.19808943E-04  4.02025621E-03  2.07128267E-02  8.10105536E-02  2.35962985E-01
  4.42653446E-01  3.57064423E-01 -4.42115008E-05 -1.22591041E-03 -1.05517725E-02
 -6.74452633E-02 -1.71198607E-01  1.07329856E+00  1.00000000E+00  1.00000000E+00
  1.00000000E+00  4.11634896E-02  2.57762836E-01  8.02419274E-01  1.00000000E+00
  1.00000000E+00  1.00000000E+00  1.00000000E+00  1.00000000E+00  1.00000000E+00
  1.00000000E+00  1.00000000E+00  3.80701661E-04  2.63868635E-03  8.70555302E-03
  8.03093709E-02 -4.07648708E-01  7.03092632E-01  4.97431509E-01 -2.19689157E-05
 -9.47832571E-04  9.38727693E-03 -1.47428152E-02 -2.77285578E-01 -7.38047787E-01
  1.00000000E+00  1.00000000E+00  1.00000000E+00  1.00000000E+00  4.71881392E-04
  5.49299123E-03 -8.80115226E-02  3.43400525E-01  5.10073044E-01  2.48575707E-01
  2.24628895E-02  8.56099489E-04 -4.13161033E-05  2.99292350E-03 -2.76886294E-02
 -5.33882855E-02 -1.24705505E-02  3.44020817E-01  5.41867327E-01  2.58979876E-01
  1.00000000E+00  1.00000000E+00  1.00000000E+00  1.52399887E-03  1.56729884E-02
  7.23999463E-02  1.86302862E-01  3.23880760E-01  3.74533722E-01  2.57417809E-01
  6.80509495E-02  1.00000000E+00  1.00000000E+00  1.00000000E+00  1.00000000E+00
  1.00000000E+00  4.93229477E-05  3.83207967E-04  2.00947816E-03  8.38950124E-03
  2.94843950E-02  8.78759948E-02  2.11589759E-01  3.65611554E-01  3.41246350E-01
  1.02162570E-01  2.14249949E-03 -2.21747925E-06 -1.71189708E-04 -1.27922846E-03
 -9.32956265E-03 -3.98910062E-02 -1.05536085E-01  9.36202446E-03  5.10511140E-01
  5.73150737E-01  4.03949245E-06  2.12481765E-04  8.59484452E-04  4.63248159E-03
  4.47343490E-04 -7.38438245E-02 -3.62271994E-01  1.16620337E+00  1.00000000E+00
  1.00000000E+00  1.00000000E+00  2.47206402E-03  1.97550234E-02  9.09917355E-02
  2.63187834E-01  4.49078073E-01  3.60183072E-01  3.03427809E-05 -1.22475826E-03
 -6.01429772E-03 -2.76401323E-02  4.35105612E-04  1.00307272E+00  1.00000000E+00
  1.00000000E+00  1.00000000E+00  1.00000000E+00  1.00000000E+00  1.00000000E+00
  1.00000000E+00  1.00000000E+00  2.54948632E-02  1.90362766E-01  8.52162022E-01
  1.00000000E+00  1.00000000E+00  1.00000000E+00  1.00000000E+00  1.00000000E+00
  1.00000000E+00  1.00000000E+00  1.00000000E+00
Coordinates of each shell                  R   N=         168
  0.00000000E+00  0.00000000E+00  0.00000000E+00  0.00000000E+00  0.00000000E+00
  0.00000000E+00  0.00000000E+00  0.00000000E+00  0.00000000E+00  0.00000000E+00
  0.00000000E+00  0.00000000E+00  0.00000000E+00  0.00000000E+00  0.00000000E+00
  0.00000000E+00  0.00000000E+00  0.00000000E+00  0.00000000E+00  0.00000000E+00
  0.00000000E+00  0.00000000E+00  0.00000000E+00  0.00000000E+00  0.00000000E+00
  0.00000000E+00  0.00000000E+00  0.00000000E+00  0.00000000E+00  0.00000000E+00
  0.00000000E+00  0.00000000E+00  0.00000000E+00  0.00000000E+00  0.00000000E+00
  0.00000000E+00  0.00000000E+00  0.00000000E+00  0.00000000E+00  0.00000000E+00
  0.00000000E+00  0.00000000E+00  5.79755078E+00  0.00000000E+00  0.00000000E+00
  5.79755078E+00  0.00000000E+00  0.00000000E+00  5.79755078E+00  0.00000000E+00
  0.00000000E+00  5.79755078E+00  0.00000000E+00  0.00000000E+00  5.79755078E+00
  0.00000000E+00  0.00000000E+00  5.79755078E+00  0.00000000E+00  0.00000000E+00
  5.79755078E+00  0.00000000E+00  0.00000000E+00  5.79755078E+00  0.00000000E+00
  0.00000000E+00  5.79755078E+00  0.00000000E+00  0.00000000E+00  5.79755078E+00
  0.00000000E+00  0.00000000E+00  5.79755078E+00  0.00000000E+00  0.00000000E+00
  5.79755078E+00  0.00000000E+00  0.00000000E+00  5.79755078E+00  0.00000000E+00
  0.00000000E+00  5.79755078E+00  0.00000000E+00  0.00000000E+00  5.79755078E+00
  0.00000000E+00  0.00000000E+00  5.79755078E+00  0.00000000E+00  0.00000000E+00
  5.79755078E+00  0.00000000E+00  0.00000000E+00 -7.40412882E-01  3.09587011E+00
  0.00000000E+00 -7.40412882E-01  3.09587011E+00  0.00000000E+00 -7.40412882E-01
  3.09587011E+00  0.00000000E+00 -7.40412882E-01  3.09587011E+00  0.00000000E+00
 -7.40412882E-01  3.09587011E+00  0.00000000E+00 -7.40412882E-01  3.09587011E+00
  0.00000000E+00 -7.40412882E-01  3.09587011E+00  0.00000000E+00 -7.40412882E-01
  3.09587011E+00  0.00000000E+00 -7.40412882E-01  3.09587011E+00  0.00000000E+00
 -7.40412882E-01  3.09587011E+00  0.00000000E+00 -7.40412882E-01  3.09587011E+00
  0.00000000E+00 -7.40412882E-01  3.09587011E+00  0.00000000E+00 -7.40412882E-01
  3.09587011E+00  0.00000000E+00 -7.40412882E-01  3.09587011E+00  0.00000000E+00
 -7.40412882E-01  3.09587011E+00  0.00000000E+00 -7.40412882E-01  3.09587011E+00
  0.00000000E+00  1.78611439E+00  0.00000000E+00  6.50092470E-01  1.78611439E+00
  0.00000000E+00  6.50092470E-01  1.78611439E+00  0.00000000E+00  6.50092470E-01
  1.78611439E+00  0.00000000E+00  6.50092470E-01  1.78611439E+00  0.00000000E+00
  6.50092470E-01  1.78611439E+00  0.00000000E+00  6.50092470E-01  1.78611439E+00
  0.00000000E+00  6.50092470E-01  1.78611439E+00  0.00000000E+00  6.50092470E-01
  1.78611439E+00  0.00000000E+00  6.50092470E-01
Num ILSW                                   I              100
ILSW                                       I   N=         100
           0           0           0           0           2           0
           0           0           0           0           0          -1
           5           0           0           0           0           0
           0           0           0           0           0           0
           1           1           0           0           0           0
           0           0      100000           0          -1           0
           0           0           0           0           0           0
           0           0           0           1           0           0
           0 -2000000000           1           0           0           0
           0           0           4          52           0           0
           0           0           0           0           0           0
           0           0           0           4           0           1
           0           0           0           0           0           0
           0           0           0           0           0           0
           0           0           0           0           0           0
           0           0           0           0           0           0
           0           0           0           0
Num RLSW                                   I               52
RLSW                                       R   N=          52
  1.00000000E+00  1.00000000E+00  1.00000000E+00  1.00000000E+00  1.00000000E+00
  0.00000000E+00  0.00000000E+00  1.00000000E+00  0.00000000E+00  0.00000000E+00
  0.00000000E+00  0.00000000E+00  1.00000000E+00  0.00000000E+00  0.00000000E+00
  0.00000000E+00  0.00000000E+00  1.00000000E+00  0.00000000E+00  0.00000000E+00
  0.00000000E+00  0.00000000E+00  1.00000000E+00  0.00000000E+00  0.00000000E+00
  0.00000000E+00  0.00000000E+00  1.00000000E+00  0.00000000E+00  0.00000000E+00
  0.00000000E+00  0.00000000E+00  1.00000000E+00  0.00000000E+00  0.00000000E+00
  0.00000000E+00  0.00000000E+00  0.00000000E+00  1.00000000E+00  1.00000000E+00
  0.00000000E+00  1.00000000E+00  0.00000000E+00  0.00000000E+00  0.00000000E+00
  0.00000000E+00  0.00000000E+00  0.00000000E+00  0.00000000E+00  0.00000000E+00
  0.00000000E+00  0.00000000E+00
ECP-MxAtEC                                 I           250000
ECP-MaxLECP                                I               10
ECP-MaxAtL                                 I          2250000
ECP-MxTECP                                 I         11250000
ECP-LenNCZ                                 I               16
ECP-KFirst                                 I   N=          40
           0           1           0           0           0           2
           0           0           0           5           0           0
           0           9           0           0           0          15
           0           0           0           0           0           0
           0           0           0           0           0           0
           0           0           0           0           0           0
           0           0           0           0
ECP-KLast                                  I   N=          40
           0           1           0           0           0           4
           0           0           0           8           0           0
           0          14           0           0           0          16
           0           0           0           0           0           0
           0           0           0           0           0           0
           0           0           0           0           0           0
           0           0           0           0
ECP-LMax                                   I   N=           4
           0           4           0           0
ECP-LPSkip                                 I   N=           4
           1           0           1           1
ECP-RNFroz                                 R   N=           4
  0.00000000E+00  1.00000000E+01  0.00000000E+00  0.00000000E+00
ECP-NLP                                    I   N=          16
           2           2           2           2           2           2
           2           2           2           2           2           2
           2           2           2           2
ECP-CLP1                                   R   N=          16
  0.00000000E+00  4.99628340E+01  3.70014205E+02  1.02414390E+01  9.91122440E+01
  1.98253046E+02  2.82617400E+01  5.66233660E+01 -1.86058530E+01 -2.79232800E+01
 -3.79693000E-01 -7.80583000E-01  3.59680000E-02  9.43970000E-02 -1.09126900E+00
 -2.88769100E+00
ECP-CLP2                                   R   N=          16
  0.00000000E+00  0.00000000E+00  0.00000000E+00  0.00000000E+00  0.00000000E+00
  0.00000000E+00  0.00000000E+00  0.00000000E+00  0.00000000E+00  0.00000000E+00
  0.00000000E+00  0.00000000E+00  0.00000000E+00  0.00000000E+00  0.00000000E+00
  0.00000000E+00
ECP-ZLP                                    R   N=          16
  1.00000000E+00  7.00242570E+01  3.11784120E+01  7.15659300E+00  4.67734710E+01
  4.61841200E+01  2.17138580E+01  2.09417920E+01  5.06988390E+01  5.06447640E+01
  1.54475090E+01  1.55002590E+01  2.80039100E+00  1.07748000E+00  1.44656060E+01
  2.12340650E+01
MxBond                                     I                2
NBond                                      I   N=           4
           2           0           1           1
IBond                                      I   N=           8
           3           4           0           0           1           0
           1           0
RBond                                      R   N=           8
  1.00000000E+00  1.00000000E+00  0.00000000E+00  0.00000000E+00  1.00000000E+00
  0.00000000E+00  1.00000000E+00  0.00000000E+00
Virial Ratio                               R      2.144425126592328E+00
SCF Energy                                 R     -9.505195730836431E+02
MP2 Energy                                 R     -9.512215373610389E+02
Total Energy                               R     -9.512215373610389E+02
Post-SCF wavefunction norm                 R      1.105304306515989E+00
RMS Density                                R      8.651529967439047E-09
Job Status                                 I                1
Nuclear derivative order                   I                0
External E-field                           R   N=          35
  0.00000000E+00  0.00000000E+00  0.00000000E+00  0.00000000E+00  0.00000000E+00
  0.00000000E+00  0.00000000E+00  0.00000000E+00  0.00000000E+00  0.00000000E+00
  0.00000000E+00  0.00000000E+00  0.00000000E+00  0.00000000E+00  0.00000000E+00
  0.00000000E+00  0.00000000E+00  0.00000000E+00  0.00000000E+00  0.00000000E+00
  0.00000000E+00  0.00000000E+00  0.00000000E+00  0.00000000E+00  0.00000000E+00
  0.00000000E+00  0.00000000E+00  0.00000000E+00  0.00000000E+00  0.00000000E+00
  0.00000000E+00  0.00000000E+00  0.00000000E+00  0.00000000E+00  0.00000000E+00
IOpCl                                      I                0
IROHF                                      I                0
Alpha Orbital Energies                     R   N=         174
 -1.04734140E+02 -2.04670210E+01 -1.04536719E+01 -9.55413188E+00 -7.92084675E+00
 -7.91817888E+00 -7.91806278E+00 -7.30209707E+00 -7.30148607E+00 -7.30143755E+00
 -2.85312316E+00 -2.85291897E+00 -2.85286174E+00 -2.85226380E+00 -2.85226307E+00
 -1.23479858E+00 -8.98911222E-01 -7.51115527E-01 -5.44627837E-01 -4.46472768E-01
 -4.37976117E-01 -3.10929811E-01 -2.84095957E-01 -1.78299140E-01 -1.69884744E-01
 -1.69393186E-01  1.54805907E-01  1.80504544E-01  2.23220916E-01  2.30550760E-01
  2.52298813E-01  2.65805834E-01  2.69232847E-01  2.84635343E-01  2.98739839E-01
  3.07991664E-01  3.29039785E-01  3.32770098E-01  3.60504888E-01  4.16326023E-01
  4.39376419E-01  4.58137490E-01  4.81600221E-01  4.86323182E-01  5.09425294E-01
  5.39463142E-01  5.50285791E-01  5.61501846E-01  5.80106680E-01  5.91877063E-01
  5.98690615E-01  6.10996268E-01  6.52474579E-01  6.95920331E-01  7.55391337E-01
  7.80258498E-01  8.10119639E-01  8.37116271E-01  8.41132113E-01  8.66353096E-01
  8.79644896E-01  8.85249791E-01  8.92932191E-01  9.40370863E-01  9.72932926E-01
  9.80741411E-01  9.91544209E-01  9.93161121E-01  1.00134998E+00  1.01490261E+00
  1.04474024E+00  1.06651843E+00  1.08625857E+00  1.09197875E+00  1.11394573E+00
  1.12647561E+00  1.14377237E+00  1.15139007E+00  1.15478685E+00  1.16971603E+00
  1.19065771E+00  1.21704615E+00  1.25334974E+00  1.28152032E+00  1.29479141E+00
  1.35029766E+00  1.36305797E+00  1.38230564E+00  1.43487390E+00  1.46748427E+00
  1.48990057E+00  1.53168830E+00  1.56779017E+00  1.59720819E+00  1.65785137E+00
  1.69298443E+00  1.71059089E+00  1.74344782E+00  1.78955904E+00  1.80296636E+00
  1.87801696E+00  1.97023993E+00  2.14207284E+00  2.38862739E+00  2.39287940E+00
  2.44404895E+00  2.46415952E+00  2.46988323E+00  2.49557168E+00  2.51313090E+00
  2.52683411E+00  2.52780241E+00  2.54098145E+00  2.54435199E+00  2.55390547E+00
  2.56573171E+00  2.59239959E+00  2.61258092E+00  2.62604612E+00  2.64583798E+00
  2.65953458E+00  2.66669805E+00  2.68691148E+00  2.69317277E+00  2.71060560E+00
  2.72123392E+00  2.74039009E+00  2.74906009E+00  2.78419441E+00  2.79291171E+00
  2.83254473E+00  2.88051299E+00  2.92345925E+00  3.01898352E+00  3.06437127E+00
  3.10284826E+00  3.18161875E+00  3.20149670E+00  3.22625338E+00  3.25527155E+00
  3.29821323E+00  3.32001027E+00  3.39360260E+00  3.51921428E+00  3.54781201E+00
  3.58579258E+00  3.92008421E+00  4.18489185E+00  4.32865254E+00  4.49389926E+00
  4.55950425E+00  4.60914215E+00  4.74990461E+00  4.97829396E+00  5.04916166E+00
  5.34346397E+00  5.41896669E+00  5.67199953E+00  6.41265305E+00  6.58477518E+00
  6.87273451E+00  6.90011670E+00  6.91810550E+00  6.99188609E+00  7.30724951E+00
  7.34086253E+00  7.34812856E+00  7.43785092E+00  7.53776254E+00  7.74161953E+00
  7.77463642E+00  8.35142270E+00  1.44364967E+01  7.98848166E+01
Alpha MO coefficients                      R   N=       30276
  5.48876862E-06  3.04270094E-05  1.96838635E-06 -1.48297935E-04 -9.63269884E-05
  2.29802974E-07  3.07640974E-06  6.58138237E-07 -2.93832351E-06 -9.17472972E-06
 -3.16902539E-06  5.05954183E-05 -1.53932045E-04  1.24972275E-06  1.20063158E-05
 -3.57750095E-05  3.01079538E-06 -2.08311541E-06  2.37248493E-07  4.76815771E-08
 -3.03876575E-06 -1.38964614E-06  1.38140179E-05 -1.04756328E-06 -4.35263190E-07
  2.07542990E-05  9.37146550E-06  2.54676095E-05  5.36754151E-06 -4.24561122E-06
  5.88666187E-05  1.27658896E-05 -1.77458593E-07 -1.64733400E-07  7.98840857E-08
 -5.07273686E-07  4.86216232E-07 -1.52014975E-06  9.12232194E-07  1.95639194E-07
 -2.75178593E-06  1.26277808E-05  2.22978010E-06 -2.09819598E-06 -5.49594426E-06
  9.20442712E-06  7.35887343E-08 -1.91692345E-07 -2.63476247E-06  1.38527886E-05
 -3.16028776E-05 -7.78368536E-06  2.83312305E-07  1.04206711E-07 -1.80629321E-07
  8.85643352E-07  1.35380529E-06 -1.13212876E-06 -1.29674555E-06 -3.58878772E-07
  7.03281133E-07  2.39312847E-05 -4.13799542E-06 -4.24715190E-06  4.25062671E-06
 -3.83248531E-07  2.31171706E-07  5.92175753E-08  6.43686460E-08 -4.02005621E-09
 -1.28435106E-07  5.33785077E-08 -5.31776624E-07 -5.61100283E-07  3.32387191E-09
  1.07103036E-06 -4.28268834E-07  2.77993995E-06  2.99318028E-06  2.19411055E-07
 -5.36646291E-06  1.06819958E-06  3.96874601E-06  1.79868610E-06 -1.31626143E-06
 -6.47176932E-06  2.24298306E-06 -4.57679487E-08 -7.99724611E-09  7.82797331E-08
 -1.22106448E-07 -6.58142795E-07 -3.53829504E-07  3.77154924E-08  1.13292250E-06
 -1.43908076E-06  7.14041502E-08 -1.09449418E-06  1.31811951E-06  2.61865906E-06
 -8.68059962E-07  9.99534864E-01  1.95377154E-03  1.84456300E-04 -4.17719243E-04
  7.21144174E-05  7.50042163E-05  1.73436474E-05 -7.55932943E-05  1.44632308E-06
  3.66965011E-05 -1.34650223E-04  2.41120222E-06 -1.78600385E-05  7.18277189E-05
 -1.34563388E-06  4.34590266E-06 -5.69099207E-05 -2.85188193E-06  2.37804573E-06
 -1.15765541E-05 -1.07528491E-06 -3.67331382E-06  1.07212906E-07 -1.52107524E-07
 -5.09380311E-06 -3.36189786E-06 -2.84674823E-05  3.91936715E-07 -6.35852673E-07
 -4.36583002E-05 -2.36977323E-05 -1.60114523E-06 -2.98628949E-06  8.58699611E-07
 -9.69258059E-06  5.45896053E-07 -5.19252609E-07 -1.78810062E-06  6.07321186E-06
  3.67114609E-07 -8.28131335E-07 -4.74163920E-06  4.17683554E-06  1.02243628E-06
 -8.84184668E-08  3.22216571E-06 -1.02567067E-06  1.71661965E-06 -4.03588701E-06
  7.15275597E-06 -1.38915840E-06 -1.96756836E-05  5.08150864E-05 -7.02023544E-06
  7.13090722E-07 -2.53033078E-06  2.17442981E-07 -9.00533357E-06  1.63189930E-05
 -1.62380887E-06  1.06864135E-05  2.17614884E-05 -4.30960825E-06 -4.52383940E-07
  9.82448142E-08 -4.68020063E-08 -9.49812044E-07 -9.70352668E-07 -1.24845424E-05
  3.02749177E-06 -1.43029665E-06  9.34999777E-06 -3.39042462E-06  9.76818328E-01
 -9.17683010E-03  4.33806107E-02  1.81150413E-03  6.10102598E-04  8.09014186E-04
  1.57028096E-03  5.30270517E-04 -9.48545579E-04 -1.20196817E-03 -5.38245556E-04
 -8.14453313E-05  5.18898832E-04 -2.43028192E-04 -1.47418820E-04  1.99848377E-04
 -5.23806697E-05  4.58170518E-05  1.82734647E-05 -1.57865334E-06  1.00130673E-04
  4.10414391E-05  3.61653382E-04 -3.11235311E-04 -1.31452666E-05  4.56927011E-05
  1.60256633E-04 -1.99824472E-04 -3.03297498E-05 -1.87851376E-05 -1.14892076E-04
 -1.31266060E-04  9.19967566E-06  1.86314862E-06  1.76878872E-05 -3.31577462E-06
 -7.53612411E-06 -7.01648744E-06  8.60405607E-06  4.06696156E-05 -6.58388610E-06
  5.21416309E-06 -8.20098847E-05 -2.38452566E-05 -9.11842994E-05 -5.00586543E-05
  2.66292467E-07  2.61693954E-06  6.69550666E-05  2.97302928E-06 -6.96519670E-04
 -2.49370656E-04  3.29150173E-05 -1.69264304E-08 -6.39333939E-06  3.39152172E-04
 -6.07573029E-06 -3.46793623E-05 -1.22454738E-04 -1.52516617E-07  2.88025478E-05
  3.87909591E-04  4.47387336E-05 -3.26388934E-04  6.98291442E-05 -1.27736483E-05
 -3.61754750E-05 -2.40348044E-06  3.73276386E-06  9.61351303E-08  8.62716481E-07
 -1.41358240E-06  1.85172024E-05 -3.40347731E-05 -4.32728564E-07 -7.51789440E-06
  9.67796196E-06  2.17973275E-05  1.84201595E-04 -5.11054103E-07 -1.19942129E-04
 -2.66372158E-05  2.06171899E-05  1.99621288E-04  1.14712254E-05 -1.04930634E-04
 -2.83811232E-06 -7.14860035E-06 -1.95409543E-05 -2.99012626E-06  1.73777529E-05
  5.22353808E-06 -6.85192394E-07 -9.53718167E-07  8.49975177E-05  6.76886797E-05
  3.66480401E-06 -1.33089954E-04 -1.14929249E-05  2.87820404E-05  1.01115380E-05
  4.36669519E-06  7.22268028E-05  8.20893103E-05 -2.83480827E-04  8.72009755E-05
 -5.86506310E-04 -3.04168467E-06 -9.64522283E-06 -1.93277876E-06  5.14198953E-05
 -5.97944792E-04 -3.15282099E-05 -3.94487329E-05  2.61167278E-04  8.72380756E-06
  1.54407553E-04  3.40813937E-04  8.31405659E-05 -8.87934821E-06  1.33052650E-04
  4.54530439E-06  1.50893171E-05 -4.75703613E-06 -8.65666368E-07  7.32845826E-06
  8.75943872E-06 -3.14771185E-04  1.06984987E-05  2.22875138E-05 -4.63686601E-04
 -1.86047250E-04  1.12080066E-04  2.18988541E-05 -5.94102807E-05  2.77772808E-04
 -3.78264208E-05  1.07579942E-05 -2.73432283E-05  1.62081383E-04  3.06027479E-06
  7.07486048E-06 -1.25766518E-04  1.89671250E-04 -1.88619968E-05 -4.41272783E-05
  1.01727483E-04  1.13971444E-05 -1.61814152E-05 -6.82844363E-05  5.27825581E-05
  3.41029329E-04  1.24868186E-03  7.17881945E-04  1.14979368E-04 -2.35104578E-04
  4.66739481E-05 -8.91091947E-05 -1.15255491E-03  2.32273515E-05 -2.58829038E-04
  6.82315481E-04 -1.96985306E-04  2.95617243E-04 -7.53577682E-06 -1.47566907E-05
 -2.55039046E-05 -1.01025472E-07 -6.48551256E-05 -4.28086378E-04  3.61475896E-04
  3.79843313E-06  8.98064617E-04 -2.91733415E-06 -7.18204261E-05 -7.21576657E-05
 -1.06091455E-04  2.79911623E-03  2.34455023E-03 -2.43689062E-05  3.82663895E-05
 -9.83304942E-06 -5.21508374E-05  5.78118015E-04  5.50601403E-05 -5.65648517E-04
  2.52042703E-03  7.02395339E-05 -2.32850301E-04  9.08944602E-04 -6.49722787E-05
 -2.50357026E-05 -5.80469270E-06 -4.63492448E-06 -4.44054555E-05 -3.44559997E-05
 -1.94052332E-04  4.12975649E-05  3.72868177E-05 -2.53565581E-04 -4.23334264E-05
 -2.73542708E-04 -5.48619454E-05  9.77123481E-05 -7.54948897E-04  9.01364713E-05
 -2.50900321E-06  5.37467143E-06 -2.33032757E-05  1.17517263E-05 -5.45873480E-06
  4.87918611E-05 -3.94345206E-05 -7.47872156E-06  5.67453498E-06 -4.04473390E-05
 -2.27338687E-05  8.33212769E-05 -6.66735149E-05  1.31029086E-04 -1.30256257E-06
  3.15066984E-06  4.79734284E-05 -2.48346224E-04  4.94776568E-04  8.63811475E-05