 Entering Gaussian System, Link 0=g16
 Input=brhocl_pp_5_sp.gjf
 Output=brhocl_pp_5_sp.log
 Initial command:
 /sw/contrib/gaussian/g16/B01/g16/l1.exe "/scr/Gau-2593.inp" -scrdir="/scr/"
 Entering Link 1 = /sw/contrib/gaussian/g16/B01/g16/l1.exe PID=      2594.
  
 Copyright (c) 1988-2017, Gaussian, Inc.  All Rights Reserved.
  
 This is part of the Gaussian(R) 16 program.  It is based on
 the Gaussian(R) 09 system (copyright 2009, Gaussian, Inc.),
 the Gaussian(R) 03 system (copyright 2003, Gaussian, Inc.),
 the Gaussian(R) 98 system (copyright 1998, Gaussian, Inc.),
 the Gaussian(R) 94 system (copyright 1995, Gaussian, Inc.),
 the Gaussian 92(TM) system (copyright 1992, Gaussian, Inc.),
 the Gaussian 90(TM) system (copyright 1990, Gaussian, Inc.),
 the Gaussian 88(TM) system (copyright 1988, Gaussian, Inc.),
 the Gaussian 86(TM) system (copyright 1986, Carnegie Mellon
 University), and the Gaussian 82(TM) system (copyright 1983,
 Carnegie Mellon University). Gaussian is a federally registered
 trademark of Gaussian, Inc.
  
 This software contains proprietary and confidential information,
 including trade secrets, belonging to Gaussian, Inc.
  
 This software is provided under written license and may be
 used, copied, transmitted, or stored only in accord with that
 written license.
  
 The following legend is applicable only to US Government
 contracts under FAR:
  
                    RESTRICTED RIGHTS LEGEND
  
 Use, reproduction and disclosure by the US Government is
 subject to restrictions as set forth in subparagraphs (a)
 and (c) of the Commercial Computer Software - Restricted
 Rights clause in FAR 52.227-19.
  
 Gaussian, Inc.
 340 Quinnipiac St., Bldg. 40, Wallingford CT 06492
  
  
 ---------------------------------------------------------------
 Warning -- This program may not be used in any manner that
 competes with the business of Gaussian, Inc. or will provide
 assistance to any competitor of Gaussian, Inc.  The licensee
 of this program is prohibited from giving any competitor of
 Gaussian, Inc. access to this program.  By using this program,
 the user acknowledges that Gaussian, Inc. is engaged in the
 business of creating and licensing software in the field of
 computational chemistry and represents and warrants to the
 licensee that it is not a competitor of Gaussian, Inc. and that
 it will not use this program in any manner prohibited above.
 ---------------------------------------------------------------
  

 Cite this work as:
 Gaussian 16, Revision B.01,
 M. J. Frisch, G. W. Trucks, H. B. Schlegel, G. E. Scuseria, 
 M. A. Robb, J. R. Cheeseman, G. Scalmani, V. Barone, 
 G. A. Petersson, H. Nakatsuji, X. Li, M. Caricato, A. V. Marenich, 
 J. Bloino, B. G. Janesko, R. Gomperts, B. Mennucci, H. P. Hratchian, 
 J. V. Ortiz, A. F. Izmaylov, J. L. Sonnenberg, D. Williams-Young, 
 F. Ding, F. Lipparini, F. Egidi, J. Goings, B. Peng, A. Petrone, 
 T. Henderson, D. Ranasinghe, V. G. Zakrzewski, J. Gao, N. Rega, 
 G. Zheng, W. Liang, M. Hada, M. Ehara, K. Toyota, R. Fukuda, 
 J. Hasegawa, M. Ishida, T. Nakajima, Y. Honda, O. Kitao, H. Nakai, 
 T. Vreven, K. Throssell, J. A. Montgomery, Jr., J. E. Peralta, 
 F. Ogliaro, M. J. Bearpark, J. J. Heyd, E. N. Brothers, K. N. Kudin, 
 V. N. Staroverov, T. A. Keith, R. Kobayashi, J. Normand, 
 K. Raghavachari, A. P. Rendell, J. C. Burant, S. S. Iyengar, 
 J. Tomasi, M. Cossi, J. M. Millam, M. Klene, C. Adamo, R. Cammi, 
 J. W. Ochterski, R. L. Martin, K. Morokuma, O. Farkas, 
 J. B. Foresman, and D. J. Fox, Gaussian, Inc., Wallingford CT, 2016.
 
 ******************************************
 Gaussian 16:  ES64L-G16RevB.01 20-Dec-2017
                30-Sep-2021 
 ******************************************
 %nproc=28
 Will use up to   28 processors via shared memory.
 %mem=120GB
 %chk=/gscratch/ilahie/mccoygrp/coire_hocl/brhocl_pp/brhocl_pp_5_sp.chk
 --------------------------------------------------------
 #p pop=NBO SP NoSymm mp2/gen Pseudo=read density=current
 --------------------------------------------------------
 1/30=1,38=1,172=1/1;
 2/12=2,15=1,17=6,18=5,40=1/2;
 3/5=7,11=9,16=1,17=8,25=1,30=1,71=1/1,2,3;
 4//1;
 5/5=2,38=5/2;
 8/6=4,10=1/1;
 9/15=1,16=-3/6;
 10/5=1,13=10,31=1/2;
 6/7=2,8=2,9=2,10=2,22=-1,40=1/1,7;
 99/5=1,9=1/99;
 Leave Link    1 at Thu Sep 30 14:38:49 2021, MaxMem= 16106127360 cpu:               1.9 elap:               0.1
 (Enter /sw/contrib/gaussian/g16/B01/g16/l101.exe)
 -----
 title
 -----
 Symbolic Z-matrix:
 Charge = -1 Multiplicity = 1
 O                     0.        0.        0. 
 Br                    3.06793   0.        0. 
 Cl                   -0.39181   1.63826   0. 
 H                     1.01377   0.        0.08869 
 
 ITRead=  0  0  0  0
 MicOpt= -1 -1 -1 -1
 NAtoms=      4 NQM=        4 NQMF=       0 NMMI=      0 NMMIF=      0
                NMic=       0 NMicF=      0.
                    Isotopes and Nuclear Properties:
 (Nuclear quadrupole moments (NQMom) in fm**2, nuclear magnetic moments (NMagM)
  in nuclear magnetons)

  Atom         1           2           3           4
 IAtWgt=          16          79          35           1
 AtmWgt=  15.9949146  78.9183361  34.9688527   1.0078250
 NucSpn=           0           3           3           1
 AtZEff=  -0.0000000  -0.0000000  -0.0000000  -0.0000000
 NQMom=    0.0000000  31.3000000  -8.1650000   0.0000000
 NMagM=    0.0000000   2.1063990   0.8218740   2.7928460
 AtZNuc=   8.0000000  35.0000000  17.0000000   1.0000000
 Leave Link  101 at Thu Sep 30 14:38:49 2021, MaxMem= 16106127360 cpu:               3.4 elap:               0.2
 (Enter /sw/contrib/gaussian/g16/B01/g16/l202.exe)
                          Input orientation:                          
 ---------------------------------------------------------------------
 Center     Atomic      Atomic             Coordinates (Angstroms)
 Number     Number       Type             X           Y           Z
 ---------------------------------------------------------------------
      1          8           0        0.000000    0.000000    0.000000
      2         35           0        3.067932    0.000000    0.000000
      3         17           0       -0.391810    1.638264    0.000000
      4          1           0        1.013768    0.000000    0.088693
 ---------------------------------------------------------------------
                    Distance matrix (angstroms):
                    1          2          3          4
     1  O    0.000000
     2  Br   3.067932   0.000000
     3  Cl   1.684465   3.828018   0.000000
     4  H    1.017640   2.056078   2.160422   0.000000
 Symmetry turned off by external request.
 Stoichiometry    BrClHO(1-)
 Framework group  C1[X(BrClHO)]
 Deg. of freedom     6
 Full point group                 C1      NOp   1
 Rotational constants (GHZ):          22.6640947           1.2842631           1.2154378
 Leave Link  202 at Thu Sep 30 14:38:49 2021, MaxMem= 16106127360 cpu:               0.9 elap:               0.1
 (Enter /sw/contrib/gaussian/g16/B01/g16/l301.exe)
 General basis read from cards:  (5D, 7F)
 Centers:       4      1      3
 aug-cc-pVTZ
 ****
 Centers:       2
 S 10 1.00
     Exponent=  9.6593900000D+03 Coefficients=  3.7100000000D-04
     Exponent=  1.4559600000D+03 Coefficients=  2.5710000000D-03
     Exponent=  3.2591400000D+02 Coefficients=  8.4850000000D-03
     Exponent=  4.6565700000D+01 Coefficients=  7.8222000000D-02
     Exponent=  1.8246900000D+01 Coefficients= -3.9714900000D-01
     Exponent=  3.8020100000D+00 Coefficients=  6.8586400000D-01
     Exponent=  1.7863200000D+00 Coefficients=  4.8681900000D-01
     Exponent=  6.0271400000D-01 Coefficients=  3.4913000000D-02
     Exponent=  2.8401400000D-01 Coefficients= -6.5730000000D-03
     Exponent=  1.2027100000D-01 Coefficients=  1.6420000000D-03
 S 10 1.00
     Exponent=  9.6593900000D+03 Coefficients= -1.5200000000D-04
     Exponent=  1.4559600000D+03 Coefficients= -1.0080000000D-03
     Exponent=  3.2591400000D+02 Coefficients= -3.6090000000D-03
     Exponent=  4.6565700000D+01 Coefficients= -2.7872000000D-02
     Exponent=  1.8246900000D+01 Coefficients=  1.5131700000D-01
     Exponent=  3.8020100000D+00 Coefficients= -3.5149700000D-01
     Exponent=  1.7863200000D+00 Coefficients= -4.1070300000D-01
     Exponent=  6.0271400000D-01 Coefficients=  3.4731600000D-01
     Exponent=  2.8401400000D-01 Coefficients=  6.7549100000D-01
     Exponent=  1.2027100000D-01 Coefficients=  2.4400800000D-01
 S 1 1.00
     Exponent=  6.0271400000D-01 Coefficients=  1.0000000000D+00
 S 1 1.00
     Exponent=  2.8401400000D-01 Coefficients=  1.0000000000D+00
 S 1 1.00
     Exponent=  1.2027100000D-01 Coefficients=  1.0000000000D+00
 S 1 1.00
     Exponent=  4.4500000000D-02 Coefficients=  1.0000000000D+00
 P 9 1.00
     Exponent=  4.9218700000D+02 Coefficients=  4.7200000000D-04
     Exponent=  9.2364200000D+01 Coefficients=  5.4940000000D-03
     Exponent=  2.7071800000D+01 Coefficients= -8.8030000000D-02
     Exponent=  7.2653900000D+00 Coefficients=  3.4348500000D-01
     Exponent=  3.4848100000D+00 Coefficients=  5.1020800000D-01
     Exponent=  1.6404800000D+00 Coefficients=  2.4863100000D-01
     Exponent=  6.4857000000D-01 Coefficients=  2.2201000000D-02
     Exponent=  2.5640700000D-01 Coefficients= -4.1900000000D-04
     Exponent=  9.5304000000D-02 Coefficients=  6.5600000000D-04
 P 9 1.00
     Exponent=  4.9218700000D+02 Coefficients= -1.5800000000D-04
     Exponent=  9.2364200000D+01 Coefficients= -1.3440000000D-03
     Exponent=  2.7071800000D+01 Coefficients=  2.4616000000D-02
     Exponent=  7.2653900000D+00 Coefficients= -1.1253200000D-01
     Exponent=  3.4848100000D+00 Coefficients= -1.7977500000D-01
     Exponent=  1.6404800000D+00 Coefficients= -7.3661000000D-02
     Exponent=  6.4857000000D-01 Coefficients=  3.4873400000D-01
     Exponent=  2.5640700000D-01 Coefficients=  5.5794800000D-01
     Exponent=  9.5304000000D-02 Coefficients=  2.6645600000D-01
 P 1 1.00
     Exponent=  7.6660000000D-01 Coefficients=  1.0000000000D+00
 P 1 1.00
     Exponent=  1.1820000000D-01 Coefficients=  1.0000000000D+00
 P 1 1.00
     Exponent=  3.9600000000D-02 Coefficients=  1.0000000000D+00
 D 8 1.00
     Exponent=  3.3899600000D+02 Coefficients=  1.5240000000D-03
     Exponent=  1.0321700000D+02 Coefficients=  1.5673000000D-02
     Exponent=  4.2363800000D+01 Coefficients=  7.2400000000D-02
     Exponent=  1.8435600000D+01 Coefficients=  1.8630300000D-01
     Exponent=  8.3725400000D+00 Coefficients=  3.2388100000D-01
     Exponent=  3.8022200000D+00 Coefficients=  3.7453400000D-01
     Exponent=  1.6867700000D+00 Coefficients=  2.5741800000D-01
     Exponent=  6.7752000000D-01 Coefficients=  6.8051000000D-02
 D 1 1.00
     Exponent=  6.7752000000D-01 Coefficients=  1.0000000000D+00
 D 1 1.00
     Exponent=  2.5530000000D-01 Coefficients=  1.0000000000D+00
 D 1 1.00
     Exponent=  1.0090000000D-01 Coefficients=  1.0000000000D+00
 F 1 1.00
     Exponent=  5.6060000000D-01 Coefficients=  1.0000000000D+00
 F 1 1.00
     Exponent=  2.4540000000D-01 Coefficients=  1.0000000000D+00
 ****
 ======================================================================================================
                                       Pseudopotential Parameters
 ======================================================================================================
  Center     Atomic      Valence      Angular      Power
  Number     Number     Electrons     Momentum     of R      Exponent        Coefficient   SO-Coeffient
 ======================================================================================================
    1          8
                                   No pseudopotential on this center.
    2         35           25
                                      G and up 
                                                     2        1.0000000        0.00000000    0.00000000
                                      S - G
                                                     2       70.0242570       49.96283400    0.00000000
                                                     2       31.1784120      370.01420500    0.00000000
                                                     2        7.1565930       10.24143900    0.00000000
                                      P - G
                                                     2       46.7734710       99.11224400    0.00000000
                                                     2       46.1841200      198.25304600    0.00000000
                                                     2       21.7138580       28.26174000    0.00000000
                                                     2       20.9417920       56.62336600    0.00000000
                                      D - G
                                                     2       50.6988390      -18.60585300    0.00000000
                                                     2       50.6447640      -27.92328000    0.00000000
                                                     2       15.4475090       -0.37969300    0.00000000
                                                     2       15.5002590       -0.78058300    0.00000000
                                                     2        2.8003910        0.03596800    0.00000000
                                                     2        1.0774800        0.09439700    0.00000000
                                      F - G
                                                     2       14.4656060       -1.09126900    0.00000000
                                                     2       21.2340650       -2.88769100    0.00000000
    3         17
                                   No pseudopotential on this center.
    4          1
                                   No pseudopotential on this center.
 ======================================================================================================
 Ernie: Thresh=  0.10000D-02 Tol=  0.10000D-05 Strict=F.
 Ernie:  25 primitive shells out of 163 were deleted.
   174 basis functions,   373 primitive gaussians,   204 cartesian basis functions
    26 alpha electrons       26 beta electrons
       nuclear repulsion energy       150.7313858332 Hartrees.
 IExCor=    0 DFT=F Ex=HF Corr=None ExCW=0 ScaHFX=  1.000000
 ScaDFX=  1.000000  1.000000  1.000000  1.000000 ScalE2=  1.000000  1.000000
 IRadAn=      5 IRanWt=     -1 IRanGd=            0 ICorTp=0 IEmpDi=  4
 NAtoms=    4 NActive=    4 NUniq=    4 SFac= 1.00D+00 NAtFMM=   60 NAOKFM=F Big=F
 Integral buffers will be    131072 words long.
 Raffenetti 1 integral format.
 Two-electron integral symmetry is turned off.
 Leave Link  301 at Thu Sep 30 14:38:49 2021, MaxMem= 16106127360 cpu:               2.6 elap:               0.1
 (Enter /sw/contrib/gaussian/g16/B01/g16/l302.exe)
 NPDir=0 NMtPBC=     1 NCelOv=     1 NCel=       1 NClECP=     1 NCelD=      1
         NCelK=      1 NCelE2=     1 NClLst=     1 CellRange=     0.0.
 One-electron integrals computed using PRISM.
   1 Symmetry operations used in ECPInt.
 ECPInt:  NShTT=    1596 NPrTT=    9902 LenC2=    1595 LenP2D=    7765.
 LDataN:  DoStor=T MaxTD1= 7 Len=  274
 NBasis=   174 RedAO= T EigKep=  2.38D-04  NBF=   174
 NBsUse=   174 1.00D-06 EigRej= -1.00D+00 NBFU=   174
 Leave Link  302 at Thu Sep 30 14:38:50 2021, MaxMem= 16106127360 cpu:               7.0 elap:               0.3
 (Enter /sw/contrib/gaussian/g16/B01/g16/l303.exe)
 DipDrv:  MaxL=1.
 Leave Link  303 at Thu Sep 30 14:38:50 2021, MaxMem= 16106127360 cpu:               0.8 elap:               0.1
 (Enter /sw/contrib/gaussian/g16/B01/g16/l401.exe)
 ExpMin= 2.53D-02 ExpMax= 4.56D+05 ExpMxC= 1.44D+03 IAcc=3 IRadAn=         5 AccDes= 0.00D+00
 Harris functional with IExCor=  205 and IRadAn=       5 diagonalized for initial guess.
 HarFok:  IExCor=  205 AccDes= 0.00D+00 IRadAn=         5 IDoV= 1 UseB2=F ITyADJ=14
 ICtDFT=  3500011 ScaDFX=  1.000000  1.000000  1.000000  1.000000
 FoFCou: FMM=F IPFlag=           0 FMFlag=      100000 FMFlg1=           0
         NFxFlg=           0 DoJE=T BraDBF=F KetDBF=T FulRan=T
         wScrn=  0.000000 ICntrl=       500 IOpCl=  0 I1Cent=   200000004 NGrid=           0
         NMat0=    1 NMatS0=      1 NMatT0=    0 NMatD0=    1 NMtDS0=    0 NMtDT0=    0
 Symmetry not used in FoFCou.
 Harris En= -951.935708947879    
 JPrj=0 DoOrth=F DoCkMO=F.
 Leave Link  401 at Thu Sep 30 14:38:50 2021, MaxMem= 16106127360 cpu:               8.7 elap:               0.4
 (Enter /sw/contrib/gaussian/g16/B01/g16/l502.exe)
 Keep R1 ints in memory in canonical form, NReq=152797144.
 FoFCou: FMM=F IPFlag=           0 FMFlag=           0 FMFlg1=           0
         NFxFlg=           0 DoJE=F BraDBF=F KetDBF=F FulRan=T
         wScrn=  0.000000 ICntrl=       600 IOpCl=  0 I1Cent=           0 NGrid=           0
         NMat0=    1 NMatS0=  15225 NMatT0=    0 NMatD0=    1 NMtDS0=    0 NMtDT0=    0
 Symmetry not used in FoFCou.
 Two-electron integral symmetry not used.
 Closed shell SCF:
 Using DIIS extrapolation, IDIIS=  1040.
 NGot= 16106127360 LenX= 15990129197 LenY= 15990087140
 Requested convergence on RMS density matrix=1.00D-08 within 128 cycles.
 Requested convergence on MAX density matrix=1.00D-06.
 Requested convergence on             energy=1.00D-06.
 No special actions if energy rises.

 Cycle   1  Pass 1  IDiag  1:
 E= -950.371367919419    
 DIIS: error= 2.32D-02 at cycle   1 NSaved=   1.
 NSaved= 1 IEnMin= 1 EnMin= -950.371367919419     IErMin= 1 ErrMin= 2.32D-02
 ErrMax= 2.32D-02  0.00D+00 EMaxC= 1.00D-01 BMatC= 3.45D-01 BMatP= 3.45D-01
 IDIUse=3 WtCom= 7.68D-01 WtEn= 2.32D-01
 Coeff-Com:  0.100D+01
 Coeff-En:   0.100D+01
 Coeff:      0.100D+01
 Gap=     0.558 Goal=   None    Shift=    0.000
 GapD=    0.558 DampG=2.000 DampE=0.500 DampFc=1.0000 IDamp=-1.
 RMSDP=3.84D-03 MaxDP=2.56D-01              OVMax= 1.27D-01

 Cycle   2  Pass 1  IDiag  1:
 E= -950.493359229301     Delta-E=       -0.121991309881 Rises=F Damp=F
 DIIS: error= 1.83D-02 at cycle   2 NSaved=   2.
 NSaved= 2 IEnMin= 2 EnMin= -950.493359229301     IErMin= 2 ErrMin= 1.83D-02
 ErrMax= 1.83D-02  0.00D+00 EMaxC= 1.00D-01 BMatC= 4.24D-02 BMatP= 3.45D-01
 IDIUse=3 WtCom= 8.17D-01 WtEn= 1.83D-01
 Coeff-Com:  0.177D+00 0.823D+00
 Coeff-En:   0.000D+00 0.100D+01
 Coeff:      0.145D+00 0.855D+00
 Gap=     0.338 Goal=   None    Shift=    0.000
 RMSDP=1.08D-03 MaxDP=4.83D-02 DE=-1.22D-01 OVMax= 6.74D-02

 Cycle   3  Pass 1  IDiag  1:
 E= -950.515044597032     Delta-E=       -0.021685367732 Rises=F Damp=F
 DIIS: error= 8.47D-03 at cycle   3 NSaved=   3.
 NSaved= 3 IEnMin= 3 EnMin= -950.515044597032     IErMin= 3 ErrMin= 8.47D-03
 ErrMax= 8.47D-03  0.00D+00 EMaxC= 1.00D-01 BMatC= 1.07D-02 BMatP= 4.24D-02
 IDIUse=3 WtCom= 9.15D-01 WtEn= 8.47D-02
 Coeff-Com: -0.112D-01 0.323D+00 0.688D+00
 Coeff-En:   0.000D+00 0.768D-01 0.923D+00
 Coeff:     -0.102D-01 0.302D+00 0.708D+00
 Gap=     0.334 Goal=   None    Shift=    0.000
 RMSDP=3.51D-04 MaxDP=1.26D-02 DE=-2.17D-02 OVMax= 3.26D-02

 Cycle   4  Pass 1  IDiag  1:
 E= -950.522242076581     Delta-E=       -0.007197479549 Rises=F Damp=F
 DIIS: error= 1.71D-03 at cycle   4 NSaved=   4.
 NSaved= 4 IEnMin= 4 EnMin= -950.522242076581     IErMin= 4 ErrMin= 1.71D-03
 ErrMax= 1.71D-03  0.00D+00 EMaxC= 1.00D-01 BMatC= 2.40D-04 BMatP= 1.07D-02
 IDIUse=3 WtCom= 9.83D-01 WtEn= 1.71D-02
 Coeff-Com: -0.464D-02 0.383D-01 0.160D+00 0.806D+00
 Coeff-En:   0.000D+00 0.000D+00 0.000D+00 0.100D+01
 Coeff:     -0.457D-02 0.377D-01 0.158D+00 0.809D+00
 Gap=     0.329 Goal=   None    Shift=    0.000
 RMSDP=6.82D-05 MaxDP=1.96D-03 DE=-7.20D-03 OVMax= 3.28D-03

 Cycle   5  Pass 1  IDiag  1:
 E= -950.522457020183     Delta-E=       -0.000214943602 Rises=F Damp=F
 DIIS: error= 2.91D-04 at cycle   5 NSaved=   5.
 NSaved= 5 IEnMin= 5 EnMin= -950.522457020183     IErMin= 5 ErrMin= 2.91D-04
 ErrMax= 2.91D-04  0.00D+00 EMaxC= 1.00D-01 BMatC= 2.11D-05 BMatP= 2.40D-04
 IDIUse=3 WtCom= 9.97D-01 WtEn= 2.91D-03
 Coeff-Com: -0.363D-03-0.344D-01-0.583D-01 0.753D-01 0.102D+01
 Coeff-En:   0.000D+00 0.000D+00 0.000D+00 0.000D+00 0.100D+01
 Coeff:     -0.362D-03-0.343D-01-0.581D-01 0.751D-01 0.102D+01
 Gap=     0.330 Goal=   None    Shift=    0.000
 RMSDP=3.61D-05 MaxDP=1.24D-03 DE=-2.15D-04 OVMax= 3.34D-03

 Cycle   6  Pass 1  IDiag  1:
 E= -950.522501775631     Delta-E=       -0.000044755448 Rises=F Damp=F
 DIIS: error= 1.52D-04 at cycle   6 NSaved=   6.
 NSaved= 6 IEnMin= 6 EnMin= -950.522501775631     IErMin= 6 ErrMin= 1.52D-04
 ErrMax= 1.52D-04  0.00D+00 EMaxC= 1.00D-01 BMatC= 2.91D-06 BMatP= 2.11D-05
 IDIUse=3 WtCom= 9.98D-01 WtEn= 1.52D-03
 Coeff-Com:  0.927D-03 0.102D-02-0.106D-02-0.957D-01-0.313D+00 0.141D+01
 Coeff-En:   0.000D+00 0.000D+00 0.000D+00 0.000D+00 0.000D+00 0.100D+01
 Coeff:      0.926D-03 0.102D-02-0.106D-02-0.956D-01-0.313D+00 0.141D+01
 Gap=     0.331 Goal=   None    Shift=    0.000
 RMSDP=1.98D-05 MaxDP=6.95D-04 DE=-4.48D-05 OVMax= 1.93D-03

 Cycle   7  Pass 1  IDiag  1:
 E= -950.522511974649     Delta-E=       -0.000010199018 Rises=F Damp=F
 DIIS: error= 5.03D-05 at cycle   7 NSaved=   7.
 NSaved= 7 IEnMin= 7 EnMin= -950.522511974649     IErMin= 7 ErrMin= 5.03D-05
 ErrMax= 5.03D-05  0.00D+00 EMaxC= 1.00D-01 BMatC= 2.02D-07 BMatP= 2.91D-06
 IDIUse=1 WtCom= 1.00D+00 WtEn= 0.00D+00
 Coeff-Com: -0.321D-03 0.249D-02 0.623D-02 0.195D-01 0.331D-01-0.487D+00
 Coeff-Com:  0.143D+01
 Coeff:     -0.321D-03 0.249D-02 0.623D-02 0.195D-01 0.331D-01-0.487D+00
 Coeff:      0.143D+01
 Gap=     0.331 Goal=   None    Shift=    0.000
 RMSDP=6.24D-06 MaxDP=2.27D-04 DE=-1.02D-05 OVMax= 6.27D-04

 Cycle   8  Pass 1  IDiag  1:
 E= -950.522512830617     Delta-E=       -0.000000855968 Rises=F Damp=F
 DIIS: error= 9.17D-06 at cycle   8 NSaved=   8.
 NSaved= 8 IEnMin= 8 EnMin= -950.522512830617     IErMin= 8 ErrMin= 9.17D-06
 ErrMax= 9.17D-06  0.00D+00 EMaxC= 1.00D-01 BMatC= 1.60D-08 BMatP= 2.02D-07
 IDIUse=1 WtCom= 1.00D+00 WtEn= 0.00D+00
 Coeff-Com: -0.623D-04-0.266D-03-0.378D-04 0.838D-02 0.322D-01-0.149D+00
 Coeff-Com:  0.931D-01 0.102D+01
 Coeff:     -0.623D-04-0.266D-03-0.378D-04 0.838D-02 0.322D-01-0.149D+00
 Coeff:      0.931D-01 0.102D+01
 Gap=     0.331 Goal=   None    Shift=    0.000
 RMSDP=1.31D-06 MaxDP=4.24D-05 DE=-8.56D-07 OVMax= 1.27D-04

 Cycle   9  Pass 1  IDiag  1:
 E= -950.522512876119     Delta-E=       -0.000000045502 Rises=F Damp=F
 DIIS: error= 4.01D-06 at cycle   9 NSaved=   9.
 NSaved= 9 IEnMin= 9 EnMin= -950.522512876119     IErMin= 9 ErrMin= 4.01D-06
 ErrMax= 4.01D-06  0.00D+00 EMaxC= 1.00D-01 BMatC= 1.99D-09 BMatP= 1.60D-08
 IDIUse=1 WtCom= 1.00D+00 WtEn= 0.00D+00
 Coeff-Com:  0.328D-04-0.253D-03-0.514D-03-0.260D-02-0.930D-02 0.718D-01
 Coeff-Com: -0.157D+00-0.187D+00 0.128D+01
 Coeff:      0.328D-04-0.253D-03-0.514D-03-0.260D-02-0.930D-02 0.718D-01
 Coeff:     -0.157D+00-0.187D+00 0.128D+01
 Gap=     0.331 Goal=   None    Shift=    0.000
 RMSDP=6.50D-07 MaxDP=2.12D-05 DE=-4.55D-08 OVMax= 7.07D-05

 Cycle  10  Pass 1  IDiag  1:
 E= -950.522512884748     Delta-E=       -0.000000008629 Rises=F Damp=F
 DIIS: error= 2.13D-06 at cycle  10 NSaved=  10.
 NSaved=10 IEnMin=10 EnMin= -950.522512884748     IErMin=10 ErrMin= 2.13D-06
 ErrMax= 2.13D-06  0.00D+00 EMaxC= 1.00D-01 BMatC= 3.09D-10 BMatP= 1.99D-09
 IDIUse=1 WtCom= 1.00D+00 WtEn= 0.00D+00
 Coeff-Com: -0.538D-05 0.143D-03 0.198D-03-0.816D-04 0.524D-03-0.122D-01
 Coeff-Com:  0.554D-01-0.595D-01-0.541D+00 0.156D+01
 Coeff:     -0.538D-05 0.143D-03 0.198D-03-0.816D-04 0.524D-03-0.122D-01
 Coeff:      0.554D-01-0.595D-01-0.541D+00 0.156D+01
 Gap=     0.331 Goal=   None    Shift=    0.000
 RMSDP=3.37D-07 MaxDP=7.86D-06 DE=-8.63D-09 OVMax= 3.91D-05

 Cycle  11  Pass 1  IDiag  1:
 E= -950.522512886518     Delta-E=       -0.000000001770 Rises=F Damp=F
 DIIS: error= 7.16D-07 at cycle  11 NSaved=  11.
 NSaved=11 IEnMin=11 EnMin= -950.522512886518     IErMin=11 ErrMin= 7.16D-07
 ErrMax= 7.16D-07  0.00D+00 EMaxC= 1.00D-01 BMatC= 2.67D-11 BMatP= 3.09D-10
 IDIUse=1 WtCom= 1.00D+00 WtEn= 0.00D+00
 Coeff-Com: -0.270D-05-0.295D-06 0.158D-04 0.369D-03 0.765D-03-0.549D-02
 Coeff-Com:  0.710D-02 0.284D-01-0.186D-01-0.377D+00 0.136D+01
 Coeff:     -0.270D-05-0.295D-06 0.158D-04 0.369D-03 0.765D-03-0.549D-02
 Coeff:      0.710D-02 0.284D-01-0.186D-01-0.377D+00 0.136D+01
 Gap=     0.331 Goal=   None    Shift=    0.000
 RMSDP=1.05D-07 MaxDP=2.57D-06 DE=-1.77D-09 OVMax= 1.16D-05

 Cycle  12  Pass 1  IDiag  1:
 E= -950.522512886665     Delta-E=       -0.000000000147 Rises=F Damp=F
 DIIS: error= 1.22D-07 at cycle  12 NSaved=  12.
 NSaved=12 IEnMin=12 EnMin= -950.522512886665     IErMin=12 ErrMin= 1.22D-07
 ErrMax= 1.22D-07  0.00D+00 EMaxC= 1.00D-01 BMatC= 1.21D-12 BMatP= 2.67D-11
 IDIUse=1 WtCom= 1.00D+00 WtEn= 0.00D+00
 Coeff-Com:  0.495D-07-0.106D-04-0.132D-04 0.516D-04 0.326D-04 0.400D-03
 Coeff-Com: -0.350D-02 0.615D-02 0.398D-01-0.131D+00 0.497D-01 0.104D+01
 Coeff:      0.495D-07-0.106D-04-0.132D-04 0.516D-04 0.326D-04 0.400D-03
 Coeff:     -0.350D-02 0.615D-02 0.398D-01-0.131D+00 0.497D-01 0.104D+01
 Gap=     0.331 Goal=   None    Shift=    0.000
 RMSDP=1.95D-08 MaxDP=9.94D-07 DE=-1.47D-10 OVMax= 1.61D-06

 Cycle  13  Pass 1  IDiag  1:
 E= -950.522512886668     Delta-E=       -0.000000000003 Rises=F Damp=F
 DIIS: error= 2.29D-08 at cycle  13 NSaved=  13.
 NSaved=13 IEnMin=13 EnMin= -950.522512886668     IErMin=13 ErrMin= 2.29D-08
 ErrMax= 2.29D-08  0.00D+00 EMaxC= 1.00D-01 BMatC= 8.15D-14 BMatP= 1.21D-12
 IDIUse=1 WtCom= 1.00D+00 WtEn= 0.00D+00
 Coeff-Com:  0.159D-06 0.209D-05 0.105D-05-0.342D-04-0.468D-04 0.245D-03
 Coeff-Com:  0.220D-03-0.256D-02-0.727D-02 0.485D-01-0.938D-01-0.199D+00
 Coeff-Com:  0.125D+01
 Coeff:      0.159D-06 0.209D-05 0.105D-05-0.342D-04-0.468D-04 0.245D-03
 Coeff:      0.220D-03-0.256D-02-0.727D-02 0.485D-01-0.938D-01-0.199D+00
 Coeff:      0.125D+01
 Gap=     0.331 Goal=   None    Shift=    0.000
 RMSDP=6.12D-09 MaxDP=4.01D-07 DE=-3.41D-12 OVMax= 3.57D-07

 SCF Done:  E(RHF) =  -950.522512887     A.U. after   13 cycles
            NFock= 13  Conv=0.61D-08     -V/T= 2.1444
 KE= 8.305590820335D+02 PE=-2.611931568275D+03 EE= 6.801185875220D+02
 Leave Link  502 at Thu Sep 30 14:38:54 2021, MaxMem= 16106127360 cpu:              36.4 elap:               3.8
 (Enter /sw/contrib/gaussian/g16/B01/g16/l801.exe)
 ExpMin= 2.53D-02 ExpMax= 4.56D+05 ExpMxC= 1.44D+03 IAcc=3 IRadAn=         5 AccDes= 0.00D+00
 HarFok:  IExCor=  205 AccDes= 0.00D+00 IRadAn=         5 IDoV=-2 UseB2=F ITyADJ=14
 ICtDFT= 12500011 ScaDFX=  1.000000  1.000000  1.000000  1.000000
 DSYEVD-2 returned Info=          83 IAlg= 4 N=    55 NDim=    55 NE2=   292836798 trying  DSYEV.
 Largest valence mixing into a core orbital is  4.47D-04
 Largest core mixing into a valence orbital is  1.58D-04
 Range of M.O.s used for correlation:    11   174
 NBasis=   174 NAE=    26 NBE=    26 NFC=    10 NFV=     0
 NROrb=    164 NOA=    16 NOB=    16 NVA=   148 NVB=   148

 **** Warning!!: The largest alpha MO coefficient is  0.15916803D+02

 Leave Link  801 at Thu Sep 30 14:38:54 2021, MaxMem= 16106127360 cpu:               2.5 elap:               0.1
 (Enter /sw/contrib/gaussian/g16/B01/g16/l906.exe)
 Frozen-core derivative calculation, NFC=  10 NFV=   0.
 FulOut=F Deriv=T AODrv=F NAtomX=     4
   MMem=         130  MDisk=          16 MDiskD=          16
  W3Min=      922896 MinDsk=     1491158 NBas6D=         204
 NBas2D=       21411    NTT=       20910    LW2=    16556320
    MDV= 16105732550 MDiskM=      394699 NBas2p=       21383
 Fully in-core method, ICMem=   510791049.
 IMap=   1   2   3   4   5   6   7   8   9  10  11  12  13  14  15  16  17  18  19  20
 IMap=  21  22  23  24  25  26
 JobTyp=1 Pass  1 fully in-core, NPsUse= 28.
 Compute canonical integrals.
 FoFCou: FMM=F IPFlag=           0 FMFlag=           0 FMFlg1=           0
         NFxFlg=           0 DoJE=F BraDBF=F KetDBF=F FulRan=T
         wScrn=  0.000000 ICntrl=       600 IOpCl=  1 I1Cent=           0 NGrid=           0
         NMat0=    1 NMatS0=  21411 NMatT0=    0 NMatD0=    1 NMtDS0=    0 NMtDT0=    0
 Symmetry not used in FoFCou.
 Spin components of T(2) and E(2):
     alpha-alpha T2 =       0.3032223062D-01 E2=     -0.9387677498D-01
     alpha-beta  T2 =       0.1614175825D+00 E2=     -0.5156473659D+00
     beta-beta   T2 =       0.3032223062D-01 E2=     -0.9387677498D-01
 The integrals were generated   1 times.
 ANorm=    0.1105469151D+01
 E2 =    -0.7034009159D+00 EUMP2 =    -0.95122591380254D+03
 Leave Link  906 at Thu Sep 30 14:39:00 2021, MaxMem= 16106127360 cpu:             163.0 elap:               5.9
 (Enter /sw/contrib/gaussian/g16/B01/g16/l1002.exe)
 Minotr:  Closed shell wavefunction.
          Computing MP2/KS-MP2 derivatives.
          Using Z-Vector for PSCF gradient.
          Skipping F1 and S1 gradient terms here.
          Frozen-core window.
          Direct CPHF calculation.
          Differentiating once with respect to electric field.
                with respect to dipole field.
          Electric field/nuclear overlap derivatives assumed to be zero.
          Requested convergence is 1.0D-10 RMS, and 1.0D-09 maximum.
          NewPWx=F KeepS1=T KeepF1=T KeepIn=T MapXYZ=F SortEE=F KeepMc=T.
 Keep R1 ints in memory in canonical form, NReq=152801989.
 FoFCou: FMM=F IPFlag=           0 FMFlag=           0 FMFlg1=           0
         NFxFlg=           0 DoJE=F BraDBF=F KetDBF=F FulRan=T
         wScrn=  0.000000 ICntrl=       600 IOpCl=  0 I1Cent=           0 NGrid=           0
         NMat0=    1 NMatS0=  15225 NMatT0=    0 NMatD0=    1 NMtDS0=    0 NMtDT0=    0
 Symmetry not used in FoFCou.
 Two-electron integral symmetry not used.
          MDV=   16106127360 using IRadAn=       5.
          Solving linear equations separately, MaxMat=       0.
          There are     1 degrees of freedom in the 1st order CPHF.  IDoFFX=0 NUNeed=     1.
 LinEq1:  Iter=  0 NonCon=     1 RMS=2.90D-03 Max=4.45D-02 NDo=     1
 AX will form     1 AO Fock derivatives at one time.
 LinEq1:  Iter=  1 NonCon=     1 RMS=4.67D-04 Max=4.66D-03 NDo=     1
 LinEq1:  Iter=  2 NonCon=     1 RMS=2.17D-04 Max=4.10D-03 NDo=     1
 LinEq1:  Iter=  3 NonCon=     1 RMS=6.94D-05 Max=1.05D-03 NDo=     1
 LinEq1:  Iter=  4 NonCon=     1 RMS=3.05D-05 Max=9.13D-04 NDo=     1
 LinEq1:  Iter=  5 NonCon=     1 RMS=1.04D-05 Max=1.57D-04 NDo=     1
 LinEq1:  Iter=  6 NonCon=     1 RMS=2.17D-06 Max=2.31D-05 NDo=     1
 LinEq1:  Iter=  7 NonCon=     1 RMS=5.57D-07 Max=9.50D-06 NDo=     1
 LinEq1:  Iter=  8 NonCon=     1 RMS=1.81D-07 Max=4.26D-06 NDo=     1
 LinEq1:  Iter=  9 NonCon=     1 RMS=5.70D-08 Max=1.24D-06 NDo=     1
 LinEq1:  Iter= 10 NonCon=     1 RMS=1.59D-08 Max=2.09D-07 NDo=     1
 LinEq1:  Iter= 11 NonCon=     1 RMS=3.51D-09 Max=4.88D-08 NDo=     1
 LinEq1:  Iter= 12 NonCon=     1 RMS=6.52D-10 Max=1.58D-08 NDo=     1
 LinEq1:  Iter= 13 NonCon=     1 RMS=2.02D-10 Max=3.84D-09 NDo=     1
 LinEq1:  Iter= 14 NonCon=     1 RMS=6.43D-11 Max=1.12D-09 NDo=     1
 LinEq1:  Iter= 15 NonCon=     0 RMS=1.16D-11 Max=2.13D-10 NDo=     1
 Linear equations converged to 1.000D-10 1.000D-09 after    15 iterations.
 End of Minotr F.D. properties file   721 does not exist.
 End of Minotr F.D. properties file   722 does not exist.
 End of Minotr F.D. properties file   788 does not exist.
 Leave Link 1002 at Thu Sep 30 14:39:05 2021, MaxMem= 16106127360 cpu:              37.4 elap:               4.8
 (Enter /sw/contrib/gaussian/g16/B01/g16/l601.exe)
 Copying SCF densities to generalized density rwf, IOpCl= 0 IROHF=0.

 **********************************************************************

            Population analysis using the MP2 Density.

 **********************************************************************

 Alpha  occ. eigenvalues -- -104.73055 -20.46070 -10.45005  -9.55911  -7.91722
 Alpha  occ. eigenvalues --   -7.91458  -7.91448  -7.30712  -7.30644  -7.30643
 Alpha  occ. eigenvalues --   -2.85814  -2.85788  -2.85786  -2.85724  -2.85724
 Alpha  occ. eigenvalues --   -1.22714  -0.89453  -0.75758  -0.53802  -0.44117
 Alpha  occ. eigenvalues --   -0.43297  -0.30727  -0.27985  -0.18464  -0.17475
 Alpha  occ. eigenvalues --   -0.17469
 Alpha virt. eigenvalues --    0.15620   0.18201   0.22392   0.23199   0.25105
 Alpha virt. eigenvalues --    0.26501   0.26714   0.28675   0.30315   0.31567
 Alpha virt. eigenvalues --    0.32642   0.32760   0.35854   0.43173   0.43675
 Alpha virt. eigenvalues --    0.46263   0.47887   0.48362   0.50150   0.54162
 Alpha virt. eigenvalues --    0.54859   0.56997   0.58840   0.59647   0.59814
 Alpha virt. eigenvalues --    0.60950   0.65616   0.72383   0.75610   0.77711
 Alpha virt. eigenvalues --    0.80739   0.83178   0.83610   0.85319   0.89389
 Alpha virt. eigenvalues --    0.89932   0.91478   0.94365   0.98315   0.98450
 Alpha virt. eigenvalues --    0.99287   0.99711   1.00417   1.02751   1.03278
 Alpha virt. eigenvalues --    1.06112   1.08959   1.09800   1.10396   1.13197
 Alpha virt. eigenvalues --    1.14328   1.14952   1.15972   1.19937   1.21808
 Alpha virt. eigenvalues --    1.22053   1.26968   1.28429   1.31696   1.33525
 Alpha virt. eigenvalues --    1.34723   1.38361   1.46676   1.47790   1.50272
 Alpha virt. eigenvalues --    1.53368   1.58583   1.62950   1.66458   1.70238
 Alpha virt. eigenvalues --    1.70930   1.77037   1.79555   1.80726   1.90347
 Alpha virt. eigenvalues --    1.97401   2.19434   2.38179   2.39817   2.45663
 Alpha virt. eigenvalues --    2.46228   2.47984   2.49604   2.51328   2.53186
 Alpha virt. eigenvalues --    2.53776   2.54102   2.54301   2.56201   2.57410
 Alpha virt. eigenvalues --    2.60781   2.61769   2.63189   2.63840   2.64804
 Alpha virt. eigenvalues --    2.67570   2.68774   2.70335   2.70973   2.72369
 Alpha virt. eigenvalues --    2.74339   2.75811   2.77176   2.79207   2.84688
 Alpha virt. eigenvalues --    2.88123   3.03636   3.07993   3.10421   3.10970
 Alpha virt. eigenvalues --    3.20322   3.21708   3.22642   3.29166   3.31046
 Alpha virt. eigenvalues --    3.33753   3.47336   3.53309   3.54935   3.61509
 Alpha virt. eigenvalues --    3.93607   4.26466   4.30982   4.46467   4.53948
 Alpha virt. eigenvalues --    4.59063   4.78331   4.99115   5.10859   5.32418
 Alpha virt. eigenvalues --    5.37643   5.65648   6.43788   6.58947   6.85296
 Alpha virt. eigenvalues --    6.90295   6.91772   6.99976   7.27505   7.33115
 Alpha virt. eigenvalues --    7.34765   7.44868   7.55810   7.74665   7.81645
 Alpha virt. eigenvalues --    8.34977  14.54007  79.88299
          Condensed to atoms (all electrons):
               1          2          3          4
     1  O    8.650587  -0.092089  -0.116966   0.046393
     2  Br  -0.092089  25.934142   0.008555   0.005873
     3  Cl  -0.116966   0.008555  17.073006  -0.010674
     4  H    0.046393   0.005873  -0.010674   0.660082
 Mulliken charges:
               1
     1  O   -0.487924
     2  Br  -0.856482
     3  Cl   0.046080
     4  H    0.298326
 Sum of Mulliken charges =  -1.00000
 Mulliken charges with hydrogens summed into heavy atoms:
               1
     1  O   -0.189598
     2  Br  -0.856482
     3  Cl   0.046080
 Electronic spatial extent (au):  <R**2>=           1138.4634
 Charge=             -1.0000 electrons
 Dipole moment (field-independent basis, Debye):
    X=            -10.4608    Y=             -0.6710    Z=              0.0557  Tot=             10.4824
 Quadrupole moment (field-independent basis, Debye-Ang):
   XX=            -78.5779   YY=            -43.0021   ZZ=            -42.8112
   XY=              0.4450   XZ=              0.0117   YZ=             -0.0272
 Traceless Quadrupole moment (field-independent basis, Debye-Ang):
   XX=            -23.7808   YY=             11.7950   ZZ=             11.9859
   XY=              0.4450   XZ=              0.0117   YZ=             -0.0272
 Octapole moment (field-independent basis, Debye-Ang**2):
  XXX=           -303.9631  YYY=            -63.2030  ZZZ=             -0.3563  XYY=            -65.0129
  XXY=            -21.7397  XXZ=             -0.5994  XZZ=            -64.5322  YZZ=            -22.3202
  YYZ=             -0.1673  XYZ=              0.0174
 Hexadecapole moment (field-independent basis, Debye-Ang**3):
 XXXX=          -1679.4635 YYYY=           -258.5439 ZZZZ=            -61.4975 XXXY=             28.3376
 XXXZ=             -2.5150 YYYX=             22.0933 YYYZ=             -0.1381 ZZZX=             -0.5593
 ZZZY=             -0.0446 XXYY=           -271.5428 XXZZ=           -236.1835 YYZZ=            -57.7986
 XXYZ=             -0.0319 YYXZ=             -0.1311 ZZXY=              9.2908
 N-N= 1.507313858332D+02 E-N=-2.610731206982D+03  KE= 8.303905227180D+02
 No NMR shielding tensors so no spin-rotation constants.
 Leave Link  601 at Thu Sep 30 14:39:05 2021, MaxMem= 16106127360 cpu:               4.1 elap:               0.2
 (Enter /sw/contrib/gaussian/g16/B01/g16/l607.exe)
 ******************************Gaussian NBO Version 3.1******************************
             N A T U R A L   A T O M I C   O R B I T A L   A N D
          N A T U R A L   B O N D   O R B I T A L   A N A L Y S I S
 ******************************Gaussian NBO Version 3.1******************************
       /RESON  / : Allow strongly delocalized NBO set

 Analyzing the MP2 density

 Job title: title                                                           

 Storage needed:     91686 in NPA,    121697 in NBO (********** available)
 GSVD:  LWork=        2436 too small for GESVD, short by       52200 words or       52200 for optimal perf.


 NATURAL POPULATIONS:  Natural atomic orbital occupancies 
                                                          
   NAO  Atom  No  lang   Type(AO)    Occupancy
 --------------------------------------------
     1    O    1  S      Cor( 1S)     1.99970
     2    O    1  S      Val( 2S)     1.79115
     3    O    1  S      Ryd( 3S)     0.00979
     4    O    1  S      Ryd( 4S)     0.00114
     5    O    1  S      Ryd( 5S)     0.00019
     6    O    1  px     Val( 2p)     1.65573
     7    O    1  px     Ryd( 3p)     0.01128
     8    O    1  px     Ryd( 4p)     0.00077
     9    O    1  px     Ryd( 5p)     0.00047
    10    O    1  py     Val( 2p)     1.26428
    11    O    1  py     Ryd( 3p)     0.00783
    12    O    1  py     Ryd( 4p)     0.00063
    13    O    1  py     Ryd( 5p)     0.00039
    14    O    1  pz     Val( 2p)     1.94528
    15    O    1  pz     Ryd( 3p)     0.02019
    16    O    1  pz     Ryd( 4p)     0.00067
    17    O    1  pz     Ryd( 5p)     0.00016
    18    O    1  dxy    Ryd( 3d)     0.00943
    19    O    1  dxy    Ryd( 4d)     0.00046
    20    O    1  dxy    Ryd( 5d)     0.00018
    21    O    1  dxz    Ryd( 3d)     0.00719
    22    O    1  dxz    Ryd( 4d)     0.00061
    23    O    1  dxz    Ryd( 5d)     0.00033
    24    O    1  dyz    Ryd( 3d)     0.00927
    25    O    1  dyz    Ryd( 4d)     0.00057
    26    O    1  dyz    Ryd( 5d)     0.00012
    27    O    1  dx2y2  Ryd( 3d)     0.01275
    28    O    1  dx2y2  Ryd( 4d)     0.00037
    29    O    1  dx2y2  Ryd( 5d)     0.00015
    30    O    1  dz2    Ryd( 3d)     0.00967
    31    O    1  dz2    Ryd( 4d)     0.00057
    32    O    1  dz2    Ryd( 5d)     0.00016
    33    O    1  f(0)   Ryd( 4f)     0.00071
    34    O    1  f(0)   Ryd( 5f)     0.00011
    35    O    1  f(C1)  Ryd( 4f)     0.00059
    36    O    1  f(C1)  Ryd( 5f)     0.00011
    37    O    1  f(S1)  Ryd( 4f)     0.00067
    38    O    1  f(S1)  Ryd( 5f)     0.00012
    39    O    1  f(C2)  Ryd( 4f)     0.00058
    40    O    1  f(C2)  Ryd( 5f)     0.00013
    41    O    1  f(S2)  Ryd( 4f)     0.00055
    42    O    1  f(S2)  Ryd( 5f)     0.00011
    43    O    1  f(C3)  Ryd( 4f)     0.00056
    44    O    1  f(C3)  Ryd( 5f)     0.00015
    45    O    1  f(S3)  Ryd( 4f)     0.00057
    46    O    1  f(S3)  Ryd( 5f)     0.00012

    47   Br    2  S      Cor( 3S)     1.99983
    48   Br    2  S      Val( 4S)     1.96650
    49   Br    2  S      Ryd( 5S)     0.00181
    50   Br    2  S      Ryd( 6S)     0.00042
    51   Br    2  S      Ryd( 7S)     0.00015
    52   Br    2  S      Ryd( 8S)     0.00000
    53   Br    2  px     Cor( 3p)     1.99991
    54   Br    2  px     Val( 4p)     1.84742
    55   Br    2  px     Ryd( 5p)     0.00952
    56   Br    2  px     Ryd( 6p)     0.00072
    57   Br    2  px     Ryd( 7p)     0.00014
    58   Br    2  py     Cor( 3p)     2.00000
    59   Br    2  py     Val( 4p)     1.95352
    60   Br    2  py     Ryd( 5p)     0.01122
    61   Br    2  py     Ryd( 6p)     0.00079
    62   Br    2  py     Ryd( 7p)     0.00010
    63   Br    2  pz     Cor( 3p)     2.00000
    64   Br    2  pz     Val( 4p)     1.95349
    65   Br    2  pz     Ryd( 5p)     0.01128
    66   Br    2  pz     Ryd( 6p)     0.00079
    67   Br    2  pz     Ryd( 7p)     0.00010
    68   Br    2  dxy    Cor( 3d)     1.99768
    69   Br    2  dxy    Ryd( 4d)     0.01865
    70   Br    2  dxy    Ryd( 5d)     0.00134
    71   Br    2  dxy    Ryd( 6d)     0.00021
    72   Br    2  dxz    Cor( 3d)     1.99768
    73   Br    2  dxz    Ryd( 4d)     0.01872
    74   Br    2  dxz    Ryd( 5d)     0.00140
    75   Br    2  dxz    Ryd( 6d)     0.00019
    76   Br    2  dyz    Cor( 3d)     1.99771
    77   Br    2  dyz    Ryd( 4d)     0.01843
    78   Br    2  dyz    Ryd( 5d)     0.00173
    79   Br    2  dyz    Ryd( 6d)     0.00023
    80   Br    2  dx2y2  Cor( 3d)     1.99763
    81   Br    2  dx2y2  Ryd( 4d)     0.01824
    82   Br    2  dx2y2  Ryd( 5d)     0.00160
    83   Br    2  dx2y2  Ryd( 6d)     0.00020
    84   Br    2  dz2    Cor( 3d)     1.99768
    85   Br    2  dz2    Ryd( 4d)     0.01837
    86   Br    2  dz2    Ryd( 5d)     0.00168
    87   Br    2  dz2    Ryd( 6d)     0.00020
    88   Br    2  f(0)   Ryd( 4f)     0.00171
    89   Br    2  f(0)   Ryd( 5f)     0.00026
    90   Br    2  f(C1)  Ryd( 4f)     0.00175
    91   Br    2  f(C1)  Ryd( 5f)     0.00028
    92   Br    2  f(S1)  Ryd( 4f)     0.00173
    93   Br    2  f(S1)  Ryd( 5f)     0.00024
    94   Br    2  f(C2)  Ryd( 4f)     0.00169
    95   Br    2  f(C2)  Ryd( 5f)     0.00026
    96   Br    2  f(S2)  Ryd( 4f)     0.00175
    97   Br    2  f(S2)  Ryd( 5f)     0.00025
    98   Br    2  f(C3)  Ryd( 4f)     0.00175
    99   Br    2  f(C3)  Ryd( 5f)     0.00029
   100   Br    2  f(S3)  Ryd( 4f)     0.00166
   101   Br    2  f(S3)  Ryd( 5f)     0.00026

   102   Cl    3  S      Cor( 1S)     2.00000
   103   Cl    3  S      Cor( 2S)     1.99978
   104   Cl    3  S      Val( 3S)     1.88154
   105   Cl    3  S      Ryd( 4S)     0.00788
   106   Cl    3  S      Ryd( 5S)     0.00053
   107   Cl    3  S      Ryd( 6S)     0.00017
   108   Cl    3  px     Cor( 2p)     2.00003
   109   Cl    3  px     Val( 3p)     1.89022
   110   Cl    3  px     Ryd( 4p)     0.00949
   111   Cl    3  px     Ryd( 5p)     0.00052
   112   Cl    3  px     Ryd( 6p)     0.00008
   113   Cl    3  py     Cor( 2p)     1.99996
   114   Cl    3  py     Val( 3p)     0.97253
   115   Cl    3  py     Ryd( 4p)     0.00695
   116   Cl    3  py     Ryd( 5p)     0.00052
   117   Cl    3  py     Ryd( 6p)     0.00023
   118   Cl    3  pz     Cor( 2p)     2.00003
   119   Cl    3  pz     Val( 3p)     1.95445
   120   Cl    3  pz     Ryd( 4p)     0.01065
   121   Cl    3  pz     Ryd( 5p)     0.00068
   122   Cl    3  pz     Ryd( 6p)     0.00003
   123   Cl    3  dxy    Ryd( 3d)     0.01732
   124   Cl    3  dxy    Ryd( 4d)     0.00070
   125   Cl    3  dxy    Ryd( 5d)     0.00025
   126   Cl    3  dxz    Ryd( 3d)     0.01719
   127   Cl    3  dxz    Ryd( 4d)     0.00076
   128   Cl    3  dxz    Ryd( 5d)     0.00019
   129   Cl    3  dyz    Ryd( 3d)     0.02108
   130   Cl    3  dyz    Ryd( 4d)     0.00107
   131   Cl    3  dyz    Ryd( 5d)     0.00037
   132   Cl    3  dx2y2  Ryd( 3d)     0.01808
   133   Cl    3  dx2y2  Ryd( 4d)     0.00064
   134   Cl    3  dx2y2  Ryd( 5d)     0.00025
   135   Cl    3  dz2    Ryd( 3d)     0.01753
   136   Cl    3  dz2    Ryd( 4d)     0.00060
   137   Cl    3  dz2    Ryd( 5d)     0.00017
   138   Cl    3  f(0)   Ryd( 4f)     0.00131
   139   Cl    3  f(0)   Ryd( 5f)     0.00014
   140   Cl    3  f(C1)  Ryd( 4f)     0.00128
   141   Cl    3  f(C1)  Ryd( 5f)     0.00013
   142   Cl    3  f(S1)  Ryd( 4f)     0.00144
   143   Cl    3  f(S1)  Ryd( 5f)     0.00014
   144   Cl    3  f(C2)  Ryd( 4f)     0.00130
   145   Cl    3  f(C2)  Ryd( 5f)     0.00013
   146   Cl    3  f(S2)  Ryd( 4f)     0.00123
   147   Cl    3  f(S2)  Ryd( 5f)     0.00014
   148   Cl    3  f(C3)  Ryd( 4f)     0.00140
   149   Cl    3  f(C3)  Ryd( 5f)     0.00013
   150   Cl    3  f(S3)  Ryd( 4f)     0.00143
   151   Cl    3  f(S3)  Ryd( 5f)     0.00014

   152    H    4  S      Val( 1S)     0.50087
   153    H    4  S      Ryd( 2S)     0.00860
   154    H    4  S      Ryd( 3S)     0.00030
   155    H    4  S      Ryd( 4S)     0.00020
   156    H    4  px     Ryd( 2p)     0.00550
   157    H    4  px     Ryd( 3p)     0.00111
   158    H    4  px     Ryd( 4p)     0.00032
   159    H    4  py     Ryd( 2p)     0.00400
   160    H    4  py     Ryd( 3p)     0.00044
   161    H    4  py     Ryd( 4p)     0.00014
   162    H    4  pz     Ryd( 2p)     0.00543
   163    H    4  pz     Ryd( 3p)     0.00038
   164    H    4  pz     Ryd( 4p)     0.00026
   165    H    4  dxy    Ryd( 3d)     0.00027
   166    H    4  dxy    Ryd( 4d)     0.00009
   167    H    4  dxz    Ryd( 3d)     0.00043
   168    H    4  dxz    Ryd( 4d)     0.00012
   169    H    4  dyz    Ryd( 3d)     0.00024
   170    H    4  dyz    Ryd( 4d)     0.00006
   171    H    4  dx2y2  Ryd( 3d)     0.00022
   172    H    4  dx2y2  Ryd( 4d)     0.00014
   173    H    4  dz2    Ryd( 3d)     0.00025
   174    H    4  dz2    Ryd( 4d)     0.00009

 [ 10 electrons found in the effective core potential]

 WARNING:  5 low occupancy (<1.9990e) core orbitals found on Br    2


 Summary of Natural Population Analysis:                  
                                                          
                                       Natural Population 
                Natural  -----------------------------------------------
    Atom  No    Charge         Core      Valence    Rydberg      Total
 -----------------------------------------------------------------------
      O    1   -0.76654      1.99970     6.65644    0.11040     8.76654
     Br    2   -0.86120     27.98812     7.72094    0.15215    35.86120
     Cl    3    0.15721      9.99980     6.69873    0.14426    16.84279
      H    4    0.47053      0.00000     0.50087    0.02860     0.52947
 =======================================================================
   * Total *   -1.00000     39.98762    21.57698    0.43540    62.00000

                                 Natural Population      
 --------------------------------------------------------
   Effective Core            10.00000
   Core                      29.98762 ( 99.9587% of  30)
   Valence                   21.57698 ( 98.0772% of  22)
   Natural Minimal Basis     61.56460 ( 99.2977% of  62)
   Natural Rydberg Basis      0.43540 (  0.7023% of  62)
 --------------------------------------------------------

    Atom  No          Natural Electron Configuration
 ----------------------------------------------------------------------------
      O    1      [core]2S( 1.79)2p( 4.87)3S( 0.01)3p( 0.04)3d( 0.05)
     Br    2      [core]4S( 1.97)4p( 5.75)4d( 0.09)5p( 0.03)4f( 0.01)5d( 0.01)
     Cl    3      [core]3S( 1.88)3p( 4.82)4S( 0.01)3d( 0.09)4p( 0.03)4f( 0.01)
      H    4            1S( 0.50)2S( 0.01)2p( 0.01)


 NATURAL BOND ORBITAL ANALYSIS:
 Warning:  a bond orbital has occupanc of -0.00000
 Warning:  a bond orbital has occupanc of -0.00000

                       Occupancies       Lewis Structure    Low   High
           Occ.    -------------------  -----------------   occ   occ
  Cycle   Thresh.   Lewis   Non-Lewis     CR  BD  3C  LP    (L)   (NL)   Dev
 =============================================================================
   1(1)    1.90    61.41695   0.58305     15   2   0   9     1      1    0.17
 Warning:  a bond orbital has occupanc of -0.00000
 Warning:  a bond orbital has occupanc of -0.00000
   2(2)    1.90    61.16115   0.83885     15   2   0   9     1      1    0.55
 Warning:  a bond orbital has occupanc of -0.00000
 Warning:  a bond orbital has occupanc of -0.00000
   3(3)    1.90    61.41695   0.58305     15   2   0   9     1      1    0.17
 Warning:  a bond orbital has occupanc of -0.00000
 Warning:  a bond orbital has occupanc of -0.00000
   4(1)    1.80    61.41695   0.58305     15   2   0   9     0      1    0.17
 Warning:  a bond orbital has occupanc of -0.00000
 Warning:  a bond orbital has occupanc of -0.00000
   5(2)    1.80    61.41695   0.58305     15   2   0   9     0      1    0.17
 Warning:  a bond orbital has occupanc of -0.00000
 Warning:  a bond orbital has occupanc of -0.00000
   6(1)    1.70    61.41695   0.58305     15   2   0   9     0      1    0.17
 Warning:  a bond orbital has occupanc of -0.00000
 Warning:  a bond orbital has occupanc of -0.00000
   7(2)    1.70    61.41695   0.58305     15   2   0   9     0      1    0.17
 Warning:  a bond orbital has occupanc of -0.00000
 Warning:  a bond orbital has occupanc of -0.00000
   8(1)    1.60    61.05243   0.94757     15   1   0  10     0      1    0.55
 Warning:  a bond orbital has occupanc of -0.00000
 Warning:  a bond orbital has occupanc of -0.00000
   9(2)    1.60    61.05243   0.94757     15   1   0  10     0      1    0.55
 Warning:  a bond orbital has occupanc of -0.00000
 Warning:  a bond orbital has occupanc of -0.00000
  10(1)    1.50    61.05243   0.94757     15   1   0  10     0      1    0.55
 Warning:  a bond orbital has occupanc of -0.00000
 Warning:  a bond orbital has occupanc of -0.00000
  11(2)    1.50    61.05243   0.94757     15   1   0  10     0      1    0.55
 Warning:  a bond orbital has occupanc of -0.00000
 Warning:  a bond orbital has occupanc of -0.00000
  12(1)    1.90    61.41695   0.58305     15   2   0   9     1      1    0.17
 -----------------------------------------------------------------------------

 Structure accepted: RESONANCE keyword permits strongly delocalized structure

 WARNING:  5 low occupancy (<1.9990e) core orbitals found on Br    2

 --------------------------------------------------------
   Effective Core           10.00000
   Core                     29.98762 ( 99.959% of  30)
   Valence Lewis            21.42933 ( 97.406% of  22)
  ==================       ============================
   Total Lewis              61.41695 ( 99.060% of  62)
  -----------------------------------------------------
   Valence non-Lewis         0.19334 (  0.312% of  62)
   Rydberg non-Lewis         0.38971 (  0.629% of  62)
  ==================       ============================
   Total non-Lewis           0.58305 (  0.940% of  62)
 --------------------------------------------------------


       (Occupancy)   Bond orbital/ Coefficients/ Hybrids
 ---------------------------------------------------------------------------------
     1. (1.93931) BD ( 1) O   1 -Cl   3  
                ( 58.83%)   0.7670* O   1 s( 10.51%)p 8.47( 88.96%)d 0.05(  0.51%)
                                                  f 0.00(  0.02%)
                                            0.0003  0.3210 -0.0426 -0.0149 -0.0007
                                           -0.1910  0.0349  0.0073  0.0026  0.9225
                                           -0.0247 -0.0089 -0.0111  0.0058  0.0027
                                            0.0005 -0.0001 -0.0051 -0.0006 -0.0033
                                            0.0013  0.0001 -0.0003  0.0029  0.0004
                                           -0.0001 -0.0573 -0.0047 -0.0011 -0.0421
                                           -0.0034  0.0006 -0.0000 -0.0000  0.0028
                                           -0.0004 -0.0109  0.0011 -0.0005  0.0003
                                            0.0009 -0.0002  0.0035  0.0021 -0.0049
                                            0.0006
                ( 41.17%)   0.6416*Cl   3 s(  8.58%)p10.50( 90.15%)d 0.13(  1.15%)
                                                  f 0.01(  0.11%)
                                           -0.0000  0.0005  0.2875 -0.0554 -0.0101
                                           -0.0025  0.0001  0.2315 -0.0134 -0.0058
                                            0.0019 -0.0004 -0.9184  0.0638  0.0129
                                           -0.0041  0.0000  0.0012  0.0000 -0.0004
                                            0.0001 -0.0519  0.0048 -0.0005  0.0013
                                           -0.0000 -0.0002 -0.0017 -0.0002 -0.0001
                                           -0.0740  0.0095  0.0007 -0.0567  0.0061
                                            0.0010 -0.0002  0.0000 -0.0054  0.0009
                                            0.0204 -0.0030 -0.0000 -0.0001 -0.0003
                                            0.0002 -0.0178  0.0020  0.0186 -0.0021
     2. (1.96413) BD ( 1) O   1 - H   4  
                ( 80.03%)   0.8946* O   1 s( 28.81%)p 2.45( 70.71%)d 0.02(  0.47%)
                                                  f 0.00(  0.01%)
                                            0.0003  0.5366 -0.0060 -0.0083  0.0022
                                            0.8366 -0.0078 -0.0070 -0.0050 -0.0119
                                            0.0151  0.0014  0.0023  0.0818 -0.0001
                                           -0.0007 -0.0008  0.0266  0.0049  0.0009
                                            0.0114  0.0007 -0.0005  0.0028  0.0005
                                            0.0000  0.0512  0.0040  0.0013 -0.0348
                                           -0.0015  0.0031 -0.0020 -0.0000 -0.0087
                                           -0.0002 -0.0003  0.0005  0.0012  0.0004
                                            0.0001 -0.0002  0.0010  0.0029 -0.0018
                                           -0.0005
                ( 19.97%)   0.4469* H   4 s( 99.82%)p 0.00(  0.18%)d 0.00(  0.00%)
                                            0.9980  0.0457  0.0041 -0.0021  0.0157
                                           -0.0340  0.0110  0.0140  0.0018  0.0042
                                            0.0055 -0.0035  0.0002  0.0012  0.0020
                                           -0.0005 -0.0002  0.0003  0.0002  0.0024
                                            0.0001 -0.0004 -0.0034
     3. (1.99970) CR ( 1) O   1           s(100.00%)p 0.00(  0.00%)
                                            1.0000 -0.0004  0.0000  0.0000 -0.0000
                                           -0.0001 -0.0000  0.0000  0.0000 -0.0002
                                            0.0000  0.0000  0.0000 -0.0000 -0.0000
                                            0.0000  0.0000 -0.0000 -0.0000 -0.0000
                                           -0.0000 -0.0000  0.0000 -0.0000 -0.0000
                                           -0.0000  0.0000  0.0000 -0.0000  0.0000
                                            0.0000 -0.0000  0.0000  0.0000  0.0000
                                            0.0000  0.0000 -0.0000 -0.0000 -0.0000
                                           -0.0000  0.0000 -0.0000 -0.0000  0.0000
                                           -0.0000
     4. (1.99983) CR ( 1)Br   2           s(100.00%)
                                            1.0000 -0.0002  0.0000 -0.0000 -0.0000
                                            0.0000 -0.0000 -0.0001  0.0000 -0.0000
                                            0.0000  0.0000  0.0000  0.0000  0.0000
                                            0.0000  0.0000  0.0000 -0.0000  0.0000
                                           -0.0000  0.0000 -0.0000  0.0000 -0.0000
                                           -0.0000 -0.0000  0.0000 -0.0000 -0.0000
                                            0.0000 -0.0000  0.0000  0.0000  0.0000
                                            0.0000  0.0000 -0.0000 -0.0000 -0.0000
                                           -0.0000 -0.0000 -0.0000 -0.0000 -0.0000
                                           -0.0000 -0.0000  0.0000  0.0000 -0.0000
                                           -0.0000  0.0000  0.0000  0.0000  0.0000
     5. (1.99991) CR ( 2)Br   2           s(  0.00%)p 1.00(100.00%)
                                            0.0000  0.0001 -0.0000  0.0000  0.0000
                                           -0.0000 -1.0000  0.0000 -0.0000  0.0000
                                           -0.0000  0.0000  0.0000 -0.0000 -0.0000
                                           -0.0000  0.0000  0.0000  0.0000  0.0000
                                           -0.0000  0.0000 -0.0000 -0.0000  0.0000
                                            0.0000 -0.0000  0.0000  0.0000  0.0000
                                           -0.0000  0.0000 -0.0000 -0.0000 -0.0000
                                           -0.0000 -0.0000  0.0000  0.0000 -0.0000
                                            0.0000 -0.0000 -0.0000  0.0000 -0.0000
                                           -0.0000  0.0000  0.0000  0.0000 -0.0000
                                           -0.0000 -0.0000 -0.0000  0.0000 -0.0000
     6. (2.00000) CR ( 3)Br   2           s(  0.00%)p 1.00(100.00%)
                                            0.0000 -0.0000 -0.0000  0.0000  0.0000
                                            0.0000 -0.0000  0.0000  0.0000 -0.0000
                                            0.0000  1.0000 -0.0002 -0.0000 -0.0000
                                            0.0000  0.0000 -0.0000 -0.0000 -0.0000
                                           -0.0000 -0.0000  0.0000 -0.0000 -0.0000
                                           -0.0000  0.0000 -0.0000  0.0000  0.0000
                                           -0.0000  0.0000 -0.0000  0.0000 -0.0000
                                            0.0000 -0.0000 -0.0000 -0.0000  0.0000
                                           -0.0000  0.0000  0.0000 -0.0000 -0.0000
                                            0.0000  0.0000 -0.0000 -0.0000  0.0000
                                            0.0000  0.0000  0.0000 -0.0000 -0.0000
     7. (2.00000) CR ( 4)Br   2           s(  0.00%)p 1.00(100.00%)
                                            0.0000  0.0000  0.0000 -0.0000 -0.0000
                                           -0.0000 -0.0000 -0.0000 -0.0000  0.0000
                                           -0.0000  0.0000  0.0000  0.0000  0.0000
                                            0.0000  1.0000 -0.0002 -0.0000 -0.0000
                                            0.0000  0.0000 -0.0000 -0.0000 -0.0000
                                           -0.0000  0.0000 -0.0000 -0.0000 -0.0000
                                            0.0000 -0.0000  0.0000 -0.0000  0.0000
                                           -0.0000 -0.0000  0.0000 -0.0000  0.0000
                                           -0.0000  0.0000  0.0000  0.0000  0.0000
                                            0.0000 -0.0000 -0.0000 -0.0000  0.0000
                                            0.0000 -0.0000 -0.0000  0.0000  0.0000
     8. (1.99768) CR ( 5)Br   2           s(  0.00%)p 0.00(  0.00%)d 1.00(100.00%)
                                            0.0000  0.0000 -0.0000  0.0000  0.0000
                                            0.0000 -0.0000  0.0000  0.0000 -0.0000
                                            0.0000 -0.0000 -0.0000 -0.0000 -0.0000
                                            0.0000  0.0000  0.0000 -0.0000  0.0000
                                           -0.0000  1.0000  0.0000 -0.0000 -0.0000
                                           -0.0000 -0.0000 -0.0000  0.0000  0.0000
                                           -0.0000  0.0000 -0.0000  0.0000 -0.0000
                                            0.0000 -0.0000 -0.0000 -0.0000  0.0000
                                           -0.0000  0.0000  0.0000 -0.0000 -0.0000
                                            0.0000  0.0000 -0.0000 -0.0000  0.0000
                                            0.0000  0.0000  0.0000 -0.0000 -0.0000
     9. (1.99768) CR ( 6)Br   2           s(  0.00%)p 0.00(  0.00%)d 1.00(100.00%)
                                           -0.0000 -0.0000  0.0000 -0.0000 -0.0000
                                           -0.0000 -0.0000 -0.0000  0.0000 -0.0000
                                           -0.0000 -0.0000 -0.0000 -0.0000 -0.0000
                                            0.0000 -0.0000 -0.0000 -0.0000 -0.0000
                                            0.0000 -0.0000  0.0000 -0.0000 -0.0000
                                            1.0000  0.0000 -0.0000 -0.0000 -0.0000
                                            0.0000 -0.0000  0.0000  0.0000  0.0000
                                           -0.0000 -0.0000 -0.0000 -0.0000  0.0000
                                           -0.0000  0.0000  0.0000  0.0000  0.0000
                                            0.0000 -0.0000 -0.0000 -0.0000  0.0000
                                            0.0000 -0.0000 -0.0000 -0.0000 -0.0000
    10. (1.99771) CR ( 7)Br   2           s(  0.00%)p 0.00(  0.00%)d 1.00(100.00%)
                                           -0.0000 -0.0000  0.0000 -0.0000 -0.0000
                                           -0.0000 -0.0000 -0.0000 -0.0000  0.0000
                                           -0.0000  0.0000  0.0000  0.0000  0.0000
                                           -0.0000 -0.0000 -0.0000 -0.0000 -0.0000
                                            0.0000  0.0000 -0.0000  0.0000  0.0000
                                           -0.0000  0.0000 -0.0000 -0.0000  1.0000
                                            0.0000 -0.0000  0.0000 -0.0000  0.0000
                                           -0.0000  0.0000  0.0000 -0.0000  0.0000
                                            0.0000  0.0000  0.0000  0.0000  0.0000
                                           -0.0000 -0.0000 -0.0000 -0.0000 -0.0000
                                           -0.0000 -0.0000 -0.0000  0.0000  0.0000
    11. (1.99763) CR ( 8)Br   2           s(  0.00%)p 0.00(  0.00%)d 1.00(100.00%)
                                            0.0000  0.0000 -0.0000  0.0000  0.0000
                                           -0.0000  0.0000  0.0000 -0.0000  0.0000
                                           -0.0000  0.0000  0.0000  0.0000  0.0000
                                           -0.0000 -0.0000 -0.0000  0.0000 -0.0000
                                            0.0000  0.0000 -0.0000 -0.0000  0.0000
                                            0.0000  0.0000 -0.0000  0.0000 -0.0000
                                            0.0000 -0.0000  0.0000  1.0000 -0.0000
                                           -0.0000 -0.0000  0.0000  0.0000  0.0000
                                            0.0000  0.0000  0.0000  0.0000  0.0000
                                           -0.0000  0.0000 -0.0000  0.0000 -0.0000
                                            0.0000 -0.0000 -0.0000  0.0000  0.0000
    12. (1.99768) CR ( 9)Br   2           s(  0.00%)p 0.00(  0.00%)d 1.00(100.00%)
                                           -0.0000 -0.0000  0.0000 -0.0000 -0.0000
                                            0.0000 -0.0000 -0.0000  0.0000 -0.0000
                                            0.0000 -0.0000 -0.0000  0.0000 -0.0000
                                            0.0000  0.0000  0.0000  0.0000  0.0000
                                           -0.0000 -0.0000  0.0000  0.0000 -0.0000
                                           -0.0000 -0.0000  0.0000  0.0000  0.0000
                                           -0.0000  0.0000 -0.0000  0.0000  0.0000
                                            0.0000  0.0000  1.0000 -0.0000 -0.0000
                                           -0.0000 -0.0000 -0.0000 -0.0000 -0.0000
                                            0.0000 -0.0000  0.0000  0.0000  0.0000
                                           -0.0000  0.0000  0.0000 -0.0000 -0.0000
    13. (2.00000) CR ( 1)Cl   3           s(100.00%)
                                            1.0000  0.0000 -0.0000 -0.0000 -0.0000
                                           -0.0000  0.0000  0.0000 -0.0000 -0.0000
                                            0.0000 -0.0000 -0.0000  0.0000  0.0000
                                           -0.0000 -0.0000  0.0000  0.0000 -0.0000
                                            0.0000 -0.0000  0.0000 -0.0000  0.0000
                                           -0.0000 -0.0000 -0.0000 -0.0000 -0.0000
                                           -0.0000  0.0000  0.0000 -0.0000  0.0000
                                            0.0000 -0.0000 -0.0000 -0.0000  0.0000
                                            0.0000 -0.0000 -0.0000 -0.0000 -0.0000
                                            0.0000 -0.0000  0.0000  0.0000 -0.0000
    14. (1.99979) CR ( 2)Cl   3           s(100.00%)p 0.00(  0.00%)
                                            0.0000  1.0000 -0.0004  0.0000  0.0000
                                            0.0000 -0.0000 -0.0001  0.0000  0.0000
                                           -0.0000  0.0000  0.0004 -0.0000 -0.0000
                                            0.0000 -0.0000 -0.0000 -0.0000  0.0000
                                           -0.0000  0.0000 -0.0000 -0.0000 -0.0000
                                            0.0000  0.0000  0.0000  0.0000  0.0000
                                            0.0000 -0.0000 -0.0000  0.0000 -0.0000
                                           -0.0000  0.0000 -0.0000  0.0000 -0.0000
                                           -0.0000  0.0000 -0.0000  0.0000  0.0000
                                           -0.0000  0.0000 -0.0000 -0.0000  0.0000
    15. (2.00003) CR ( 3)Cl   3           s(  0.00%)p 1.00(100.00%)
                                            0.0000 -0.0000 -0.0000  0.0000  0.0000
                                            0.0000  1.0000  0.0001  0.0000  0.0000
                                           -0.0000  0.0000  0.0001 -0.0000 -0.0000
                                            0.0000 -0.0000 -0.0000  0.0000  0.0000
                                            0.0000  0.0000  0.0000  0.0000 -0.0000
                                            0.0000  0.0000  0.0000 -0.0000  0.0000
                                            0.0000 -0.0000 -0.0000  0.0000 -0.0000
                                           -0.0000 -0.0000  0.0000  0.0000 -0.0000
                                           -0.0000  0.0000  0.0000 -0.0000  0.0000
                                           -0.0000  0.0000 -0.0000 -0.0000  0.0000
    16. (1.99996) CR ( 4)Cl   3           s(  0.00%)p 1.00(100.00%)
                                           -0.0000  0.0000  0.0001 -0.0000 -0.0000
                                           -0.0000  0.0000  0.0002 -0.0000 -0.0000
                                            0.0000  1.0000 -0.0003  0.0000  0.0000
                                           -0.0000 -0.0000  0.0000  0.0000 -0.0000
                                            0.0000 -0.0000  0.0000  0.0000  0.0000
                                           -0.0000 -0.0000 -0.0000 -0.0000 -0.0000
                                           -0.0000  0.0000 -0.0000 -0.0000  0.0000
                                            0.0000 -0.0000  0.0000 -0.0000  0.0000
                                            0.0000 -0.0000 -0.0000 -0.0000 -0.0000
                                            0.0000 -0.0000  0.0000  0.0000 -0.0000
    17. (2.00003) CR ( 5)Cl   3           s(  0.00%)p 1.00(100.00%)
                                           -0.0000 -0.0000 -0.0000  0.0000  0.0000
                                           -0.0000 -0.0000  0.0000  0.0000 -0.0000
                                            0.0000 -0.0000  0.0000 -0.0000  0.0000
                                            0.0000  1.0000  0.0002  0.0000  0.0000
                                           -0.0000 -0.0000 -0.0000 -0.0000 -0.0000
                                           -0.0000 -0.0000  0.0000  0.0000  0.0000
                                            0.0000 -0.0000 -0.0000  0.0000  0.0000
                                            0.0000 -0.0000  0.0000  0.0000 -0.0000
                                           -0.0000  0.0000 -0.0000  0.0000 -0.0000
                                            0.0000 -0.0000  0.0000 -0.0000 -0.0000
    18. (1.96627) LP ( 1) O   1           s( 60.82%)p 0.64( 39.08%)d 0.00(  0.09%)
                                                  f 0.00(  0.00%)
                                            0.0002  0.7798  0.0116  0.0085 -0.0015
                                           -0.4973 -0.0075 -0.0046 -0.0011 -0.3729
                                           -0.0047 -0.0055 -0.0025 -0.0653 -0.0010
                                           -0.0006 -0.0002 -0.0270 -0.0020  0.0048
                                           -0.0033 -0.0001  0.0003 -0.0035 -0.0004
                                            0.0003 -0.0037  0.0008  0.0020  0.0115
                                            0.0007  0.0008  0.0008 -0.0001  0.0026
                                           -0.0003  0.0006  0.0004  0.0002 -0.0002
                                           -0.0003  0.0001  0.0051 -0.0027 -0.0002
                                            0.0007
    19. (1.95225) LP ( 2) O   1           s(  0.00%)p 1.00( 99.80%)d 0.00(  0.18%)
                                                  f 0.00(  0.01%)
                                           -0.0000  0.0051  0.0013  0.0007 -0.0001
                                           -0.1008 -0.0021 -0.0005 -0.0006 -0.0288
                                           -0.0005 -0.0001 -0.0004  0.9933  0.0189
                                            0.0060  0.0073 -0.0041 -0.0001  0.0008
                                            0.0175 -0.0050 -0.0110  0.0355  0.0039
                                           -0.0034 -0.0012  0.0007  0.0011  0.0055
                                           -0.0002 -0.0014 -0.0100  0.0007  0.0018
                                            0.0001  0.0002 -0.0001 -0.0040  0.0024
                                           -0.0030 -0.0001  0.0005 -0.0004  0.0005
                                           -0.0001
    20. (1.97830) LP ( 1)Br   2           s( 91.73%)p 0.09(  8.27%)d 0.00(  0.00%)
                                                  f 0.00(  0.00%)
                                            0.0002  0.9578 -0.0003  0.0009  0.0005
                                           -0.0001  0.0001  0.2869 -0.0016  0.0005
                                           -0.0000 -0.0000 -0.0074 -0.0002 -0.0001
                                           -0.0001 -0.0000 -0.0180  0.0001 -0.0000
                                            0.0000 -0.0000  0.0001 -0.0001  0.0001
                                            0.0000  0.0003  0.0000  0.0000  0.0000
                                           -0.0000  0.0000 -0.0000 -0.0000 -0.0007
                                           -0.0002 -0.0001  0.0000  0.0006  0.0000
                                            0.0002  0.0000 -0.0000  0.0001  0.0000
                                            0.0000  0.0000 -0.0000  0.0000  0.0000
                                            0.0000 -0.0001 -0.0001 -0.0000 -0.0001
    21. (1.95414) LP ( 2)Br   2           s(  0.00%)p 1.00( 99.99%)d 0.00(  0.01%)
                                                  f 0.00(  0.00%)
                                           -0.0000  0.0001 -0.0004  0.0002  0.0006
                                            0.0001  0.0000  0.0611  0.0001 -0.0001
                                            0.0000 -0.0000 -0.0470 -0.0002 -0.0001
                                            0.0000  0.0002  0.9970  0.0034  0.0018
                                           -0.0007 -0.0000  0.0005 -0.0001 -0.0001
                                            0.0000 -0.0092  0.0018  0.0017  0.0000
                                           -0.0002  0.0002 -0.0001  0.0000 -0.0007
                                            0.0001  0.0003 -0.0000  0.0014 -0.0004
                                            0.0002 -0.0023 -0.0013 -0.0008 -0.0005
                                            0.0000  0.0000  0.0029  0.0015 -0.0000
                                           -0.0001  0.0002  0.0000 -0.0002 -0.0001
    22. (1.95379) LP ( 3)Br   2           s(  0.01%)p 1.00( 99.98%)d 0.00(  0.01%)
                                                  f 0.00(  0.00%)
                                           -0.0000  0.0076  0.0004 -0.0000 -0.0007
                                           -0.0001  0.0000  0.0035 -0.0001  0.0001
                                           -0.0001  0.0002  0.9988  0.0035  0.0017
                                           -0.0007  0.0000  0.0469  0.0002  0.0001
                                           -0.0000  0.0000 -0.0099  0.0014  0.0021
                                            0.0000 -0.0005  0.0002  0.0000 -0.0000
                                            0.0008 -0.0003  0.0002 -0.0000  0.0009
                                           -0.0006  0.0007  0.0000  0.0002 -0.0001
                                            0.0001 -0.0001 -0.0001  0.0000  0.0000
                                           -0.0010 -0.0005  0.0002  0.0001 -0.0004
                                           -0.0003 -0.0002 -0.0000  0.0035  0.0017
    23. (1.83666) LP ( 4)Br   2           s(  8.26%)p11.10( 91.67%)d 0.01(  0.06%)
                                                  f 0.00(  0.01%)
                                            0.0000  0.2874  0.0012 -0.0032 -0.0019
                                            0.0003 -0.0000 -0.9556  0.0072  0.0040
                                           -0.0015  0.0000 -0.0016  0.0002  0.0003
                                            0.0000 -0.0000  0.0585  0.0001 -0.0002
                                            0.0002  0.0000 -0.0000  0.0001 -0.0005
                                            0.0000 -0.0034  0.0009 -0.0002  0.0000
                                           -0.0000  0.0000 -0.0000 -0.0000  0.0204
                                           -0.0041 -0.0014  0.0000 -0.0126  0.0028
                                           -0.0002 -0.0008 -0.0004  0.0051  0.0027
                                           -0.0000 -0.0001  0.0010  0.0005  0.0000
                                            0.0000 -0.0062 -0.0027 -0.0000  0.0002
    24. (1.97377) LP ( 1)Cl   3           s( 91.55%)p 0.09(  8.42%)d 0.00(  0.02%)
                                                  f 0.00(  0.00%)
                                            0.0000  0.0003  0.9568  0.0065  0.0011
                                            0.0003 -0.0000 -0.0349  0.0003  0.0006
                                            0.0002  0.0000  0.2880 -0.0064 -0.0030
                                            0.0014 -0.0000  0.0049  0.0001  0.0000
                                            0.0000  0.0056  0.0002  0.0004  0.0001
                                            0.0000 -0.0000  0.0001  0.0001  0.0001
                                            0.0108 -0.0007 -0.0003  0.0077  0.0005
                                            0.0004 -0.0001  0.0000  0.0004  0.0001
                                           -0.0021 -0.0004  0.0000 -0.0000 -0.0001
                                            0.0001  0.0018  0.0001 -0.0030  0.0002
    25. (1.95604) LP ( 2)Cl   3           s(  0.00%)p 1.00( 99.94%)d 0.00(  0.05%)
                                                  f 0.00(  0.01%)
                                            0.0000  0.0000  0.0026 -0.0008 -0.0004
                                            0.0003 -0.0000  0.0658  0.0009  0.0004
                                           -0.0000 -0.0000  0.0162  0.0002 -0.0000
                                            0.0001  0.0002 -0.9973 -0.0153 -0.0051
                                            0.0023  0.0006  0.0011  0.0005  0.0052
                                            0.0069  0.0027 -0.0070 -0.0166 -0.0080
                                           -0.0005 -0.0006 -0.0003 -0.0001 -0.0001
                                           -0.0001  0.0055 -0.0010 -0.0004  0.0002
                                            0.0001 -0.0001  0.0054 -0.0006  0.0037
                                           -0.0011 -0.0003 -0.0000 -0.0004  0.0001
    26. (1.95466) LP ( 3)Cl   3           s(  0.13%)p99.99( 99.82%)d 0.30(  0.04%)
                                                  f 0.06(  0.01%)
                                            0.0000 -0.0000  0.0354  0.0058  0.0038
                                           -0.0018  0.0002 -0.9688 -0.0126 -0.0014
                                           -0.0000  0.0001 -0.2342 -0.0033 -0.0006
                                           -0.0007  0.0000 -0.0676 -0.0011 -0.0002
                                            0.0001  0.0041 -0.0115 -0.0057 -0.0001
                                            0.0003  0.0002  0.0003 -0.0009 -0.0005
                                            0.0063  0.0110  0.0062 -0.0007 -0.0027
                                           -0.0004  0.0005 -0.0001  0.0023 -0.0002
                                            0.0007  0.0002  0.0002  0.0001  0.0003
                                           -0.0001  0.0058 -0.0009  0.0065 -0.0011
    27. (0.01978) RY*( 1) O   1           s(  0.01%)p 1.00( 98.73%)d 0.01(  1.21%)
                                                  f 0.00(  0.05%)
                                            0.0000  0.0000  0.0094  0.0010  0.0000
                                            0.0021 -0.0973  0.0033  0.0023  0.0012
                                           -0.0272  0.0010 -0.0003 -0.0232  0.9874
                                           -0.0377 -0.0126 -0.0103 -0.0019  0.0004
                                            0.0426 -0.0076 -0.0173  0.0941  0.0264
                                            0.0054 -0.0019  0.0016  0.0016  0.0137
                                            0.0008 -0.0012 -0.0121  0.0107  0.0013
                                           -0.0013  0.0005 -0.0003 -0.0113  0.0095
                                           -0.0028  0.0034  0.0017 -0.0014  0.0008
                                           -0.0009
    28. (0.01629) RY*( 2) O   1           s( 30.18%)p 2.24( 67.72%)d 0.06(  1.90%)
                                                  f 0.01(  0.19%)
                                           -0.0000  0.0034  0.5483 -0.0341 -0.0074
                                            0.0097 -0.6398  0.0037  0.0517  0.0401
                                           -0.5055 -0.0045  0.0351  0.0014 -0.0822
                                            0.0015  0.0055 -0.1195 -0.0257 -0.0092
                                           -0.0062  0.0012  0.0026 -0.0169 -0.0036
                                           -0.0014  0.0298  0.0072 -0.0006  0.0516
                                            0.0040 -0.0037 -0.0017  0.0002 -0.0024
                                           -0.0024 -0.0048  0.0003  0.0059 -0.0029
                                           -0.0013  0.0009  0.0377 -0.0179 -0.0099
                                            0.0033
    29. (0.00809) RY*( 3) O   1           s( 18.29%)p 0.62( 11.38%)d 3.78( 69.17%)
                                                  f 0.06(  1.16%)
                                           -0.0000  0.0166  0.4212 -0.0703  0.0170
                                            0.0155  0.3099 -0.0286  0.0693 -0.0156
[...]
                                           -0.0024  0.1525 -0.0498 -0.7780  0.2168
                                           -0.0017  0.0491  0.0386  0.2295  0.1259
                                           -0.0103  0.0237  0.0364  0.0067 -0.1149
                                            0.0737  0.1639 -0.0765
   158. (0.00035) RY*( 8) H   4           s( 20.84%)p 2.61( 54.41%)d 1.19( 24.75%)
                                           -0.0040 -0.0121  0.4338  0.1417 -0.0624
                                           -0.0032  0.3458 -0.0745  0.5685  0.2320
                                           -0.0303  0.1840  0.0575  0.3521 -0.1122
                                            0.0481  0.0017 -0.0364 -0.0069 -0.2169
                                            0.1825  0.1198 -0.1120
   159. (0.00032) RY*( 9) H   4           s(  1.66%)p54.61( 90.47%)d 4.75(  7.87%)
                                           -0.0022 -0.0131  0.1187  0.0479 -0.0246
                                            0.0325  0.0058 -0.0197  0.0854  0.0553
                                            0.1245 -0.9331  0.0783  0.0795 -0.0099
                                           -0.0572  0.2293  0.0496 -0.0374 -0.0881
                                           -0.0085  0.0602  0.0334
   160. (0.00026) RY*(10) H   4           s(  3.42%)p 7.61( 26.07%)d20.59( 70.51%)
                                            0.0128  0.0457  0.0033  0.1788  0.0240
                                            0.2049 -0.4483 -0.0840  0.0024  0.0707
                                           -0.0119  0.0634 -0.0292  0.1365 -0.0324
                                           -0.0042 -0.0178  0.0494 -0.0118 -0.6485
                                           -0.0993 -0.4726  0.1696
   161. (0.00024) RY*(11) H   4           s(  2.80%)p 0.98(  2.75%)d33.77( 94.46%)
                                            0.0029 -0.0017  0.1165  0.1200 -0.0068
                                            0.0775 -0.0257  0.0484  0.0726 -0.0825
                                           -0.0109  0.0786 -0.0064 -0.2791 -0.0263
                                           -0.1456  0.0077  0.8852 -0.1500 -0.0626
                                            0.0068  0.1802 -0.0477
   162. (0.00022) RY*(12) H   4           s(  9.19%)p 2.68( 24.61%)d 7.20( 66.19%)
                                            0.0141  0.0151  0.1402  0.2681  0.0006
                                            0.3058 -0.3439  0.0613  0.0895 -0.1354
                                            0.0157  0.0561  0.0305 -0.2740  0.0039
                                           -0.0258 -0.0081 -0.3405  0.0615 -0.1425
                                           -0.1479  0.6512  0.0078
   163. (0.00019) RY*(13) H   4           s(  9.45%)p 1.58( 14.89%)d 8.01( 75.66%)
                                           -0.0059 -0.0319  0.2840  0.1130 -0.0252
                                           -0.1284  0.3004  0.0587 -0.0562 -0.1815
                                           -0.0010 -0.0421  0.0134 -0.6890 -0.0871
                                            0.0225  0.0463 -0.2138  0.0382 -0.2379
                                            0.1952 -0.3297 -0.1453
   164. (0.00013) RY*(14) H   4           s(  0.22%)p99.99( 38.29%)d99.99( 61.49%)
                                           -0.0011 -0.0035  0.0210  0.0412  0.0079
                                           -0.0055  0.0268  0.0006  0.0004  0.0290
                                           -0.0185 -0.2198 -0.5767 -0.0194  0.0139
                                            0.4310 -0.6410  0.0605  0.0109 -0.0600
                                            0.0223  0.0719 -0.0681
   165. (0.00013) RY*(15) H   4           s( 65.32%)p 0.19( 12.54%)d 0.34( 22.14%)
                                           -0.0060 -0.0431 -0.0799  0.8031 -0.0130
                                           -0.2696 -0.1066  0.0089  0.1343  0.1506
                                           -0.0099 -0.0085  0.0131 -0.0330  0.2137
                                            0.0159 -0.0009 -0.0082  0.0073  0.3617
                                           -0.0803 -0.1886  0.0383
   166. (0.00010) RY*(16) H   4           s(  5.85%)p 4.99( 29.15%)d11.12( 65.00%)
   167. (0.00005) RY*(17) H   4           s(  0.80%)p42.89( 34.51%)d80.38( 64.68%)
   168. (0.00006) RY*(18) H   4           s( 19.92%)p 1.83( 36.44%)d 2.19( 43.64%)
   169. (0.00006) RY*(19) H   4           s(  0.01%)p11.83(  0.15%)d99.99( 99.84%)
   170. (0.00004) RY*(20) H   4           s( 20.13%)p 0.49(  9.93%)d 3.47( 69.94%)
   171. (0.00005) RY*(21) H   4           s(  1.56%)p 4.36(  6.80%)d58.70( 91.63%)
   172. (0.00004) RY*(22) H   4           s(  6.10%)p 7.60( 46.31%)d 7.81( 47.59%)
   173. (0.05831) BD*( 1) O   1 -Cl   3  
                ( 41.17%)   0.6416* O   1 s( 10.51%)p 8.47( 88.96%)d 0.05(  0.51%)
                                                  f 0.00(  0.02%)
                                           -0.0003 -0.3210  0.0426  0.0149  0.0007
                                            0.1910 -0.0349 -0.0073 -0.0026 -0.9225
                                            0.0247  0.0089  0.0111 -0.0058 -0.0027
                                           -0.0005  0.0001  0.0051  0.0006  0.0033
                                           -0.0013 -0.0001  0.0003 -0.0029 -0.0004
                                            0.0001  0.0573  0.0047  0.0011  0.0421
                                            0.0034 -0.0006  0.0000  0.0000 -0.0028
                                            0.0004  0.0109 -0.0011  0.0005 -0.0003
                                           -0.0009  0.0002 -0.0035 -0.0021  0.0049
                                           -0.0006
                ( 58.83%)  -0.7670*Cl   3 s(  8.58%)p10.50( 90.15%)d 0.13(  1.15%)
                                                  f 0.01(  0.11%)
                                            0.0000 -0.0005 -0.2875  0.0554  0.0101
                                            0.0025 -0.0001 -0.2315  0.0134  0.0058
                                           -0.0019  0.0004  0.9184 -0.0638 -0.0129
                                            0.0041 -0.0000 -0.0012 -0.0000  0.0004
                                           -0.0001  0.0519 -0.0048  0.0005 -0.0013
                                            0.0000  0.0002  0.0017  0.0002  0.0001
                                            0.0740 -0.0095 -0.0007  0.0567 -0.0061
                                           -0.0010  0.0002 -0.0000  0.0054 -0.0009
                                           -0.0204  0.0030  0.0000  0.0001  0.0003
                                           -0.0002  0.0178 -0.0020 -0.0186  0.0021
   174. (0.13503) BD*( 1) O   1 - H   4  
                ( 19.97%)   0.4469* O   1 s( 28.81%)p 2.45( 70.71%)d 0.02(  0.47%)
                                                  f 0.00(  0.01%)
                                           -0.0003 -0.5366  0.0060  0.0083 -0.0022
                                           -0.8366  0.0078  0.0070  0.0050  0.0119
                                           -0.0151 -0.0014 -0.0023 -0.0818  0.0001
                                            0.0007  0.0008 -0.0266 -0.0049 -0.0009
                                           -0.0114 -0.0007  0.0005 -0.0028 -0.0005
                                           -0.0000 -0.0512 -0.0040 -0.0013  0.0348
                                            0.0015 -0.0031  0.0020  0.0000  0.0087
                                            0.0002  0.0003 -0.0005 -0.0012 -0.0004
                                           -0.0001  0.0002 -0.0010 -0.0029  0.0018
                                            0.0005
                ( 80.03%)  -0.8946* H   4 s( 99.82%)p 0.00(  0.18%)d 0.00(  0.00%)
                                           -0.9980 -0.0457 -0.0041  0.0021 -0.0157
                                            0.0340 -0.0110 -0.0140 -0.0018 -0.0042
                                           -0.0055  0.0035 -0.0002 -0.0012 -0.0020
                                            0.0005  0.0002 -0.0003 -0.0002 -0.0024
                                           -0.0001  0.0004  0.0034


 NHO Directionality and "Bond Bending" (deviations from line of nuclear centers)

         [Thresholds for printing:  angular deviation  >  1.0 degree]
                                    hybrid p-character > 25.0%
                                    orbital occupancy  >  0.10e

                                Line of Centers        Hybrid 1              Hybrid 2
                                ---------------  -------------------   ------------------
                NBO               Theta   Phi    Theta   Phi    Dev    Theta   Phi    Dev
 ========================================================================================
     1. BD (   1) O   1 -Cl   3    90.0  103.5    89.4   99.5   4.0      --     --    --
    18. LP (   1) O   1             --     --     96.0  217.1   --       --     --    --
    19. LP (   2) O   1             --     --      6.0  196.0   --       --     --    --
    21. LP (   2)Br   2             --     --      4.4  322.3   --       --     --    --
    22. LP (   3)Br   2             --     --     87.3   89.8   --       --     --    --
    23. LP (   4)Br   2             --     --     86.5  180.1   --       --     --    --
    25. LP (   2)Cl   3             --     --    176.1   13.8   --       --     --    --
    26. LP (   3)Cl   3             --     --     93.9  193.7   --       --     --    --


 Natural Bond Orbitals (Summary):

           NBO                  Occupancy  
 -----------------------------------------------
 Molecular unit  1  (HOCl)
     1. BD (   1) O   1 -Cl   3          1.93931
     2. BD (   1) O   1 - H   4          1.96413
     3. CR (   1) O   1                  1.99970
    13. CR (   1)Cl   3                  2.00000
    14. CR (   2)Cl   3                  1.99979
    15. CR (   3)Cl   3                  2.00003
    16. CR (   4)Cl   3                  1.99996
    17. CR (   5)Cl   3                  2.00003
    18. LP (   1) O   1                  1.96627
    19. LP (   2) O   1                  1.95225
    24. LP (   1)Cl   3                  1.97377
    25. LP (   2)Cl   3                  1.95604
    26. LP (   3)Cl   3                  1.95466
    27. RY*(   1) O   1                  0.01978
    28. RY*(   2) O   1                  0.01629
    29. RY*(   3) O   1                  0.00809
    30. RY*(   4) O   1                  0.00706
    31. RY*(   5) O   1                  0.00637
    32. RY*(   6) O   1                  0.00620
    33. RY*(   7) O   1                  0.00574
    34. RY*(   8) O   1                  0.00347
    35. RY*(   9) O   1                  0.00248
    36. RY*(  10) O   1                  0.00081
    37. RY*(  11) O   1                  0.00065
    38. RY*(  12) O   1                  0.00062
    39. RY*(  13) O   1                  0.00059
    40. RY*(  14) O   1                  0.00051
    41. RY*(  15) O   1                  0.00050
    42. RY*(  16) O   1                  0.00047
    43. RY*(  17) O   1                  0.00048
    44. RY*(  18) O   1                  0.00048
    45. RY*(  19) O   1                  0.00045
    46. RY*(  20) O   1                  0.00045
    47. RY*(  21) O   1                  0.00045
    48. RY*(  22) O   1                  0.00042
    49. RY*(  23) O   1                  0.00036
    50. RY*(  24) O   1                  0.00031
    51. RY*(  25) O   1                  0.00025
    52. RY*(  26) O   1                  0.00020
    53. RY*(  27) O   1                  0.00012
    54. RY*(  28) O   1                  0.00013
    55. RY*(  29) O   1                  0.00013
    56. RY*(  30) O   1                  0.00009
    57. RY*(  31) O   1                  0.00009
    58. RY*(  32) O   1                  0.00008
    59. RY*(  33) O   1                  0.00007
    60. RY*(  34) O   1                  0.00008
    61. RY*(  35) O   1                  0.00008
    62. RY*(  36) O   1                  0.00005
    63. RY*(  37) O   1                  0.00006
    64. RY*(  38) O   1                  0.00006
    65. RY*(  39) O   1                  0.00004
    66. RY*(  40) O   1                  0.00002
    67. RY*(  41) O   1                 -0.00000
   110. RY*(   1)Cl   3                  0.02271
   111. RY*(   2)Cl   3                  0.01759
   112. RY*(   3)Cl   3                  0.01678
   113. RY*(   4)Cl   3                  0.01668
   114. RY*(   5)Cl   3                  0.01168
   115. RY*(   6)Cl   3                  0.00929
   116. RY*(   7)Cl   3                  0.00908
   117. RY*(   8)Cl   3                  0.00632
   118. RY*(   9)Cl   3                  0.00169
   119. RY*(  10)Cl   3                  0.00127
   120. RY*(  11)Cl   3                  0.00127
   121. RY*(  12)Cl   3                  0.00119
   122. RY*(  13)Cl   3                  0.00120
   123. RY*(  14)Cl   3                  0.00116
   124. RY*(  15)Cl   3                  0.00111
   125. RY*(  16)Cl   3                  0.00095
   126. RY*(  17)Cl   3                  0.00076
   127. RY*(  18)Cl   3                  0.00077
   128. RY*(  19)Cl   3                  0.00064
   129. RY*(  20)Cl   3                  0.00056
   130. RY*(  21)Cl   3                  0.00044
   131. RY*(  22)Cl   3                  0.00036
   132. RY*(  23)Cl   3                  0.00036
   133. RY*(  24)Cl   3                  0.00031
   134. RY*(  25)Cl   3                  0.00018
   135. RY*(  26)Cl   3                  0.00016
   136. RY*(  27)Cl   3                  0.00015
   137. RY*(  28)Cl   3                  0.00012
   138. RY*(  29)Cl   3                  0.00013
   139. RY*(  30)Cl   3                  0.00013
   140. RY*(  31)Cl   3                  0.00011
   141. RY*(  32)Cl   3                  0.00009
   142. RY*(  33)Cl   3                  0.00009
   143. RY*(  34)Cl   3                  0.00010
   144. RY*(  35)Cl   3                  0.00010
   145. RY*(  36)Cl   3                  0.00010
   146. RY*(  37)Cl   3                  0.00007
   147. RY*(  38)Cl   3                  0.00004
   148. RY*(  39)Cl   3                  0.00003
   149. RY*(  40)Cl   3                  0.00004
   150. RY*(  41)Cl   3                 -0.00000
   151. RY*(   1) H   4                  0.01067
   152. RY*(   2) H   4                  0.00559
   153. RY*(   3) H   4                  0.00503
   154. RY*(   4) H   4                  0.00385
   155. RY*(   5) H   4                  0.00074
   156. RY*(   6) H   4                  0.00056
   157. RY*(   7) H   4                  0.00046
   158. RY*(   8) H   4                  0.00035
   159. RY*(   9) H   4                  0.00032
   160. RY*(  10) H   4                  0.00026
   161. RY*(  11) H   4                  0.00024
   162. RY*(  12) H   4                  0.00022
   163. RY*(  13) H   4                  0.00019
   164. RY*(  14) H   4                  0.00013
   165. RY*(  15) H   4                  0.00013
   166. RY*(  16) H   4                  0.00010
   167. RY*(  17) H   4                  0.00005
   168. RY*(  18) H   4                  0.00006
   169. RY*(  19) H   4                  0.00006
   170. RY*(  20) H   4                  0.00004
   171. RY*(  21) H   4                  0.00005
   172. RY*(  22) H   4                  0.00004
   173. BD*(   1) O   1 -Cl   3          0.05831
   174. BD*(   1) O   1 - H   4          0.13503
       -------------------------------
              Total Lewis   25.70593  ( 98.3440%)
        Valence non-Lewis    0.19334  (  0.7397%)
        Rydberg non-Lewis    0.23952  (  0.9163%)
       -------------------------------
            Total unit  1   26.13880  (100.0000%)
           Charge unit  1   -0.13880

 Molecular unit  2  (Br)
     4. CR (   1)Br   2                  1.99983
     5. CR (   2)Br   2                  1.99991
     6. CR (   3)Br   2                  2.00000
     7. CR (   4)Br   2                  2.00000
     8. CR (   5)Br   2                  1.99768
     9. CR (   6)Br   2                  1.99768
    10. CR (   7)Br   2                  1.99771
    11. CR (   8)Br   2                  1.99763
    12. CR (   9)Br   2                  1.99768
    20. LP (   1)Br   2                  1.97830
    21. LP (   2)Br   2                  1.95414
    22. LP (   3)Br   2                  1.95379
    23. LP (   4)Br   2                  1.83666
    68. RY*(   1)Br   2                  0.01856
    69. RY*(   2)Br   2                  0.01848
    70. RY*(   3)Br   2                  0.01843
    71. RY*(   4)Br   2                  0.01842
    72. RY*(   5)Br   2                  0.01760
    73. RY*(   6)Br   2                  0.01127
    74. RY*(   7)Br   2                  0.01119
    75. RY*(   8)Br   2                  0.00912
    76. RY*(   9)Br   2                  0.00213
    77. RY*(  10)Br   2                  0.00177
    78. RY*(  11)Br   2                  0.00176
    79. RY*(  12)Br   2                  0.00173
    80. RY*(  13)Br   2                  0.00173
    81. RY*(  14)Br   2                  0.00172
    82. RY*(  15)Br   2                  0.00173
    83. RY*(  16)Br   2                  0.00172
    84. RY*(  17)Br   2                  0.00172
    85. RY*(  18)Br   2                  0.00172
    86. RY*(  19)Br   2                  0.00137
    87. RY*(  20)Br   2                  0.00133
    88. RY*(  21)Br   2                  0.00116
    89. RY*(  22)Br   2                  0.00077
    90. RY*(  23)Br   2                  0.00076
    91. RY*(  24)Br   2                  0.00069
    92. RY*(  25)Br   2                  0.00035
    93. RY*(  26)Br   2                  0.00028
    94. RY*(  27)Br   2                  0.00028
    95. RY*(  28)Br   2                  0.00025
    96. RY*(  29)Br   2                  0.00024
    97. RY*(  30)Br   2                  0.00025
    98. RY*(  31)Br   2                  0.00024
    99. RY*(  32)Br   2                  0.00025
   100. RY*(  33)Br   2                  0.00021
   101. RY*(  34)Br   2                  0.00020
   102. RY*(  35)Br   2                  0.00016
   103. RY*(  36)Br   2                  0.00013
   104. RY*(  37)Br   2                  0.00014
   105. RY*(  38)Br   2                  0.00010
   106. RY*(  39)Br   2                  0.00008
   107. RY*(  40)Br   2                  0.00009
   108. RY*(  41)Br   2                  0.00005
   109. RY*(  42)Br   2                  0.00000
       -------------------------------
              Total Lewis   35.71102  ( 99.5812%)
        Valence non-Lewis    0.00000  (  0.0000%)
        Rydberg non-Lewis    0.15019  (  0.4188%)
       -------------------------------
            Total unit  2   35.86120  (100.0000%)
           Charge unit  2   -0.86120
 Leave Link  607 at Thu Sep 30 14:39:08 2021, MaxMem= 16106127360 cpu:              79.5 elap:               2.9
 (Enter /sw/contrib/gaussian/g16/B01/g16/l9999.exe)
 1\1\GINC-N2174\SP\RMP2-FC\Gen\Br1Cl1H1O1(1-)\CGAVINH\30-Sep-2021\0\\#p
  pop=NBO SP NoSymm mp2/gen Pseudo=read density=current\\title\\-1,1\O,
 0,0.,0.,0.\Br,0,3.06793175,0.,0.\Cl,0,-0.391809624,1.638263908,0.\H,0,
 1.01376757,0.,0.08869317\\Version=ES64L-G16RevB.01\HF=-950.5225129\MP2
 =-951.2259138\RMSD=6.122e-09\Dipole=-1.4828905,0.7679641,0.0252017\Qua
 drupole=-17.6804646,8.7692605,8.9112041,0.3308824,0.0087173,-0.0202207
 \PG=C01 [X(Br1Cl1H1O1)]\\@


 I DO NOT DEFINE TIME, SPACE, PLACE, AND MOTION, AS BEING WELL KNOWN TO ALL.
                                            -- NEWTON (1642-1726), PRINCIPIA
 Job cpu time:       0 days  0 hours  5 minutes 49.7 seconds.
 Elapsed time:       0 days  0 hours  0 minutes 18.8 seconds.
 File lengths (MBytes):  RWF=     15 Int=      0 D2E=      0 Chk=      8 Scr=      1
 Normal termination of Gaussian 16 at Thu Sep 30 14:39:08 2021.
