title                                                                   
SP        RMP2-FC                                                     Gen                 
Number of atoms                            I                4
Info1-9                                    I   N=           9
         136         123           0           0           0         110
           1           2           1
Full Title                                 C   N=           1
title       
Route                                      C   N=           5
#p pop=NBO SP NoSymm mp2/gen Pseudo=read density=current    
Charge                                     I               -1
Multiplicity                               I                1
Number of electrons                        I               52
Number of alpha electrons                  I               26
Number of beta electrons                   I               26
Number of basis functions                  I              174
Number of independent functions            I              174
Number of point charges in /Mol/           I                0
Number of translation vectors              I                0
Atomic numbers                             I   N=           4
           8          35          17           1
Nuclear charges                            R   N=           4
  8.00000000E+00  2.50000000E+01  1.70000000E+01  1.00000000E+00
Current cartesian coordinates              R   N=          12
  0.00000000E+00  0.00000000E+00  0.00000000E+00  5.79755078E+00  0.00000000E+00
  0.00000000E+00 -7.40412882E-01  3.09587011E+00  0.00000000E+00  1.53288028E+00
  0.00000000E+00  1.07333434E+00
Number of symbols in /Mol/                 I                0
Force Field                                I                0
Atom Types                                 C   N=           4
                                                
Int Atom Types                             I   N=           4
           0           0           0           0
MM charges                                 R   N=           4
  0.00000000E+00  0.00000000E+00  0.00000000E+00  0.00000000E+00
Integer atomic weights                     I   N=           4
          16          79          35           1
Real atomic weights                        R   N=           4
  1.59949146E+01  7.89183361E+01  3.49688527E+01  1.00782504E+00
Atom fragment info                         I   N=           4
           0           0           0           0
Atom residue num                           I   N=           4
           0           0           0           0
Nuclear spins                              I   N=           4
           0           3           3           1
Nuclear ZEff                               R   N=           4
 -5.60000000E+00 -1.43500000E+03 -1.42400000E+01 -1.00000000E+00
Nuclear ZNuc                               R   N=           4
  8.00000000E+00  3.50000000E+01  1.70000000E+01  1.00000000E+00
Nuclear QMom                               R   N=           4
  0.00000000E+00  3.13000000E+01 -8.16500000E+00  0.00000000E+00
Nuclear GFac                               R   N=           4
  0.00000000E+00  2.10639900E+00  8.21874000E-01  2.79284600E+00
MicOpt                                     I   N=           4
          -1          -1          -1          -1
Number of residues                         I                0
Number of secondary structures             I                0
Number of contracted shells                I               56
Number of primitive shells                 I              138
Pure/Cartesian d shells                    I                0
Pure/Cartesian f shells                    I                0
Highest angular momentum                   I                3
Largest degree of contraction              I               11
Shell types                                I   N=          56
           0           0           0           0           0           1
           1           1           1          -2          -2          -2
          -3          -3           0           0           0           0
           0           0           1           1           1           1
           1          -2          -2          -2          -2          -3
          -3           0           0           0           0           0
           0           1           1           1           1           1
          -2          -2          -2          -3          -3           0
           0           0           0           1           1           1
          -2          -2
Number of primitives per shell             I   N=          56
           7           6           1           1           1           3
           1           1           1           1           1           1
           1           1           7           6           1           1
           1           1           8           8           1           1
           1           8           1           1           1           1
           1          11           9           8           1           1
           1           6           6           1           1           1
           1           1           1           1           1           3
           1           1           1           1           1           1
           1           1
Shell to atom map                          I   N=          56
           1           1           1           1           1           1
           1           1           1           1           1           1
           1           1           2           2           2           2
           2           2           2           2           2           2
           2           2           2           2           2           2
           2           3           3           3           3           3
           3           3           3           3           3           3
           3           3           3           3           3           4
           4           4           4           4           4           4
           4           4
Primitive exponents                        R   N=         138
  1.53300000E+04  2.29900000E+03  5.22400000E+02  1.47300000E+02  4.75500000E+01
  1.67600000E+01  6.20700000E+00  5.22400000E+02  1.47300000E+02  4.75500000E+01
  1.67600000E+01  6.20700000E+00  6.88200000E-01  1.75200000E+00  2.38400000E-01
  7.37600000E-02  3.44600000E+01  7.74900000E+00  2.28000000E+00  7.15600000E-01
  2.14000000E-01  5.97400000E-02  2.31400000E+00  6.45000000E-01  2.14000000E-01
  1.42800000E+00  5.00000000E-01  9.65939000E+03  1.45596000E+03  3.25914000E+02
  4.65657000E+01  1.82469000E+01  3.80201000E+00  1.78632000E+00  9.65939000E+03
  3.25914000E+02  4.65657000E+01  1.82469000E+01  3.80201000E+00  1.78632000E+00
  6.02714000E-01  2.84014000E-01  1.20271000E-01  4.45000000E-02  4.92187000E+02
  9.23642000E+01  2.70718000E+01  7.26539000E+00  3.48481000E+00  1.64048000E+00
  6.48570000E-01  9.53040000E-02  4.92187000E+02  2.70718000E+01  7.26539000E+00
  3.48481000E+00  1.64048000E+00  6.48570000E-01  2.56407000E-01  9.53040000E-02
  7.66600000E-01  1.18200000E-01  3.96000000E-02  3.38996000E+02  1.03217000E+02
  4.23638000E+01  1.84356000E+01  8.37254000E+00  3.80222000E+00  1.68677000E+00
  6.77520000E-01  6.77520000E-01  2.55300000E-01  1.00900000E-01  5.60600000E-01
  2.45400000E-01  4.56100000E+05  6.83300000E+04  1.55500000E+04  4.40500000E+03
  1.43900000E+03  5.20400000E+02  2.03100000E+02  8.39600000E+01  3.62000000E+01
  1.58300000E+01  6.33400000E+00  4.40500000E+03  1.43900000E+03  5.20400000E+02
  2.03100000E+02  8.39600000E+01  3.62000000E+01  1.58300000E+01  6.33400000E+00
  2.69400000E+00  1.43900000E+03  2.03100000E+02  8.39600000E+01  3.62000000E+01
  1.58300000E+01  6.33400000E+00  2.69400000E+00  4.31300000E-01  9.76800000E-01
  1.62500000E-01  5.91000000E-02  6.63300000E+02  1.56800000E+02  4.99800000E+01
  1.84200000E+01  7.24000000E+00  2.92200000E+00  1.56800000E+02  4.99800000E+01
  1.84200000E+01  7.24000000E+00  2.92200000E+00  3.81800000E-01  1.02200000E+00
  1.30100000E-01  4.19000000E-02  1.04600000E+00  3.44000000E-01  1.35000000E-01
  7.06000000E-01  3.12000000E-01  3.38700000E+01  5.09500000E+00  1.15900000E+00
  3.25800000E-01  1.02700000E-01  2.52600000E-02  1.40700000E+00  3.88000000E-01
  1.02000000E-01  1.05700000E+00  2.47000000E-01
Contraction coefficients                   R   N=         138
  5.19808943E-04  4.02025621E-03  2.07128267E-02  8.10105536E-02  2.35962985E-01
  4.42653446E-01  3.57064423E-01 -4.42115008E-05 -1.22591041E-03 -1.05517725E-02
 -6.74452633E-02 -1.71198607E-01  1.07329856E+00  1.00000000E+00  1.00000000E+00
  1.00000000E+00  4.11634896E-02  2.57762836E-01  8.02419274E-01  1.00000000E+00
  1.00000000E+00  1.00000000E+00  1.00000000E+00  1.00000000E+00  1.00000000E+00
  1.00000000E+00  1.00000000E+00  3.80701661E-04  2.63868635E-03  8.70555302E-03
  8.03093709E-02 -4.07648708E-01  7.03092632E-01  4.97431509E-01 -2.19689157E-05
 -9.47832571E-04  9.38727693E-03 -1.47428152E-02 -2.77285578E-01 -7.38047787E-01
  1.00000000E+00  1.00000000E+00  1.00000000E+00  1.00000000E+00  4.71881392E-04
  5.49299123E-03 -8.80115226E-02  3.43400525E-01  5.10073044E-01  2.48575707E-01
  2.24628895E-02  8.56099489E-04 -4.13161033E-05  2.99292350E-03 -2.76886294E-02
 -5.33882855E-02 -1.24705505E-02  3.44020817E-01  5.41867327E-01  2.58979876E-01
  1.00000000E+00  1.00000000E+00  1.00000000E+00  1.52399887E-03  1.56729884E-02
  7.23999463E-02  1.86302862E-01  3.23880760E-01  3.74533722E-01  2.57417809E-01
  6.80509495E-02  1.00000000E+00  1.00000000E+00  1.00000000E+00  1.00000000E+00
  1.00000000E+00  4.93229477E-05  3.83207967E-04  2.00947816E-03  8.38950124E-03
  2.94843950E-02  8.78759948E-02  2.11589759E-01  3.65611554E-01  3.41246350E-01
  1.02162570E-01  2.14249949E-03 -2.21747925E-06 -1.71189708E-04 -1.27922846E-03
 -9.32956265E-03 -3.98910062E-02 -1.05536085E-01  9.36202446E-03  5.10511140E-01
  5.73150737E-01  4.03949245E-06  2.12481765E-04  8.59484452E-04  4.63248159E-03
  4.47343490E-04 -7.38438245E-02 -3.62271994E-01  1.16620337E+00  1.00000000E+00
  1.00000000E+00  1.00000000E+00  2.47206402E-03  1.97550234E-02  9.09917355E-02
  2.63187834E-01  4.49078073E-01  3.60183072E-01  3.03427809E-05 -1.22475826E-03
 -6.01429772E-03 -2.76401323E-02  4.35105612E-04  1.00307272E+00  1.00000000E+00
  1.00000000E+00  1.00000000E+00  1.00000000E+00  1.00000000E+00  1.00000000E+00
  1.00000000E+00  1.00000000E+00  2.54948632E-02  1.90362766E-01  8.52162022E-01
  1.00000000E+00  1.00000000E+00  1.00000000E+00  1.00000000E+00  1.00000000E+00
  1.00000000E+00  1.00000000E+00  1.00000000E+00
Coordinates of each shell                  R   N=         168
  0.00000000E+00  0.00000000E+00  0.00000000E+00  0.00000000E+00  0.00000000E+00
  0.00000000E+00  0.00000000E+00  0.00000000E+00  0.00000000E+00  0.00000000E+00
  0.00000000E+00  0.00000000E+00  0.00000000E+00  0.00000000E+00  0.00000000E+00
  0.00000000E+00  0.00000000E+00  0.00000000E+00  0.00000000E+00  0.00000000E+00
  0.00000000E+00  0.00000000E+00  0.00000000E+00  0.00000000E+00  0.00000000E+00
  0.00000000E+00  0.00000000E+00  0.00000000E+00  0.00000000E+00  0.00000000E+00
  0.00000000E+00  0.00000000E+00  0.00000000E+00  0.00000000E+00  0.00000000E+00
  0.00000000E+00  0.00000000E+00  0.00000000E+00  0.00000000E+00  0.00000000E+00
  0.00000000E+00  0.00000000E+00  5.79755078E+00  0.00000000E+00  0.00000000E+00
  5.79755078E+00  0.00000000E+00  0.00000000E+00  5.79755078E+00  0.00000000E+00
  0.00000000E+00  5.79755078E+00  0.00000000E+00  0.00000000E+00  5.79755078E+00
  0.00000000E+00  0.00000000E+00  5.79755078E+00  0.00000000E+00  0.00000000E+00
  5.79755078E+00  0.00000000E+00  0.00000000E+00  5.79755078E+00  0.00000000E+00
  0.00000000E+00  5.79755078E+00  0.00000000E+00  0.00000000E+00  5.79755078E+00
  0.00000000E+00  0.00000000E+00  5.79755078E+00  0.00000000E+00  0.00000000E+00
  5.79755078E+00  0.00000000E+00  0.00000000E+00  5.79755078E+00  0.00000000E+00
  0.00000000E+00  5.79755078E+00  0.00000000E+00  0.00000000E+00  5.79755078E+00
  0.00000000E+00  0.00000000E+00  5.79755078E+00  0.00000000E+00  0.00000000E+00
  5.79755078E+00  0.00000000E+00  0.00000000E+00 -7.40412882E-01  3.09587011E+00
  0.00000000E+00 -7.40412882E-01  3.09587011E+00  0.00000000E+00 -7.40412882E-01
  3.09587011E+00  0.00000000E+00 -7.40412882E-01  3.09587011E+00  0.00000000E+00
 -7.40412882E-01  3.09587011E+00  0.00000000E+00 -7.40412882E-01  3.09587011E+00
  0.00000000E+00 -7.40412882E-01  3.09587011E+00  0.00000000E+00 -7.40412882E-01
  3.09587011E+00  0.00000000E+00 -7.40412882E-01  3.09587011E+00  0.00000000E+00
 -7.40412882E-01  3.09587011E+00  0.00000000E+00 -7.40412882E-01  3.09587011E+00
  0.00000000E+00 -7.40412882E-01  3.09587011E+00  0.00000000E+00 -7.40412882E-01
  3.09587011E+00  0.00000000E+00 -7.40412882E-01  3.09587011E+00  0.00000000E+00
 -7.40412882E-01  3.09587011E+00  0.00000000E+00 -7.40412882E-01  3.09587011E+00
  0.00000000E+00  1.53288028E+00  0.00000000E+00  1.07333434E+00  1.53288028E+00
  0.00000000E+00  1.07333434E+00  1.53288028E+00  0.00000000E+00  1.07333434E+00
  1.53288028E+00  0.00000000E+00  1.07333434E+00  1.53288028E+00  0.00000000E+00
  1.07333434E+00  1.53288028E+00  0.00000000E+00  1.07333434E+00  1.53288028E+00
  0.00000000E+00  1.07333434E+00  1.53288028E+00  0.00000000E+00  1.07333434E+00
  1.53288028E+00  0.00000000E+00  1.07333434E+00
Num ILSW                                   I              100
ILSW                                       I   N=         100
           0           0           0           0           2           0
           0           0           0           0           0          -1
           5           0           0           0           0           0
           0           0           0           0           0           0
           1           1           0           0           0           0
           0           0      100000           0          -1           0
           0           0           0           0           0           0
           0           0           0           1           0           0
           0 -2000000000           1           0           0           0
           0           0           4          52           0           0
           0           0           0           0           0           0
           0           0           0           4           0           1
           0           0           0           0           0           0
           0           0           0           0           0           0
           0           0           0           0           0           0
           0           0           0           0           0           0
           0           0           0           0
Num RLSW                                   I               52
RLSW                                       R   N=          52
  1.00000000E+00  1.00000000E+00  1.00000000E+00  1.00000000E+00  1.00000000E+00
  0.00000000E+00  0.00000000E+00  1.00000000E+00  0.00000000E+00  0.00000000E+00
  0.00000000E+00  0.00000000E+00  1.00000000E+00  0.00000000E+00  0.00000000E+00
  0.00000000E+00  0.00000000E+00  1.00000000E+00  0.00000000E+00  0.00000000E+00
  0.00000000E+00  0.00000000E+00  1.00000000E+00  0.00000000E+00  0.00000000E+00
  0.00000000E+00  0.00000000E+00  1.00000000E+00  0.00000000E+00  0.00000000E+00
  0.00000000E+00  0.00000000E+00  1.00000000E+00  0.00000000E+00  0.00000000E+00
  0.00000000E+00  0.00000000E+00  0.00000000E+00  1.00000000E+00  1.00000000E+00
  0.00000000E+00  1.00000000E+00  0.00000000E+00  0.00000000E+00  0.00000000E+00
  0.00000000E+00  0.00000000E+00  0.00000000E+00  0.00000000E+00  0.00000000E+00
  0.00000000E+00  0.00000000E+00
ECP-MxAtEC                                 I           250000
ECP-MaxLECP                                I               10
ECP-MaxAtL                                 I          2250000
ECP-MxTECP                                 I         11250000
ECP-LenNCZ                                 I               16
ECP-KFirst                                 I   N=          40
           0           1           0           0           0           2
           0           0           0           5           0           0
           0           9           0           0           0          15
           0           0           0           0           0           0
           0           0           0           0           0           0
           0           0           0           0           0           0
           0           0           0           0
ECP-KLast                                  I   N=          40
           0           1           0           0           0           4
           0           0           0           8           0           0
           0          14           0           0           0          16
           0           0           0           0           0           0
           0           0           0           0           0           0
           0           0           0           0           0           0
           0           0           0           0
ECP-LMax                                   I   N=           4
           0           4           0           0
ECP-LPSkip                                 I   N=           4
           1           0           1           1
ECP-RNFroz                                 R   N=           4
  0.00000000E+00  1.00000000E+01  0.00000000E+00  0.00000000E+00
ECP-NLP                                    I   N=          16
           2           2           2           2           2           2
           2           2           2           2           2           2
           2           2           2           2
ECP-CLP1                                   R   N=          16
  0.00000000E+00  4.99628340E+01  3.70014205E+02  1.02414390E+01  9.91122440E+01
  1.98253046E+02  2.82617400E+01  5.66233660E+01 -1.86058530E+01 -2.79232800E+01
 -3.79693000E-01 -7.80583000E-01  3.59680000E-02  9.43970000E-02 -1.09126900E+00
 -2.88769100E+00
ECP-CLP2                                   R   N=          16
  0.00000000E+00  0.00000000E+00  0.00000000E+00  0.00000000E+00  0.00000000E+00
  0.00000000E+00  0.00000000E+00  0.00000000E+00  0.00000000E+00  0.00000000E+00
  0.00000000E+00  0.00000000E+00  0.00000000E+00  0.00000000E+00  0.00000000E+00
  0.00000000E+00
ECP-ZLP                                    R   N=          16
  1.00000000E+00  7.00242570E+01  3.11784120E+01  7.15659300E+00  4.67734710E+01
  4.61841200E+01  2.17138580E+01  2.09417920E+01  5.06988390E+01  5.06447640E+01
  1.54475090E+01  1.55002590E+01  2.80039100E+00  1.07748000E+00  1.44656060E+01
  2.12340650E+01
MxBond                                     I                2
NBond                                      I   N=           4
           2           0           1           1
IBond                                      I   N=           8
           3           4           0           0           1           0
           1           0
RBond                                      R   N=           8
  1.00000000E+00  1.00000000E+00  0.00000000E+00  0.00000000E+00  1.00000000E+00
  0.00000000E+00  1.00000000E+00  0.00000000E+00
Virial Ratio                               R      2.144401718777967E+00
SCF Energy                                 R     -9.505136915934940E+02
MP2 Energy                                 R     -9.512136793311324E+02
Total Energy                               R     -9.512136793311324E+02
Post-SCF wavefunction norm                 R      1.105083030319439E+00
RMS Density                                R      6.084320055493239E-09
Job Status                                 I                1
Nuclear derivative order                   I                0
External E-field                           R   N=          35
  0.00000000E+00  0.00000000E+00  0.00000000E+00  0.00000000E+00  0.00000000E+00
  0.00000000E+00  0.00000000E+00  0.00000000E+00  0.00000000E+00  0.00000000E+00
  0.00000000E+00  0.00000000E+00  0.00000000E+00  0.00000000E+00  0.00000000E+00
  0.00000000E+00  0.00000000E+00  0.00000000E+00  0.00000000E+00  0.00000000E+00
  0.00000000E+00  0.00000000E+00  0.00000000E+00  0.00000000E+00  0.00000000E+00
  0.00000000E+00  0.00000000E+00  0.00000000E+00  0.00000000E+00  0.00000000E+00
  0.00000000E+00  0.00000000E+00  0.00000000E+00  0.00000000E+00  0.00000000E+00
IOpCl                                      I                0
IROHF                                      I                0
Alpha Orbital Energies                     R   N=         174
 -1.04739389E+02 -2.04767467E+01 -1.04589955E+01 -9.54608587E+00 -7.92618064E+00
 -7.92346572E+00 -7.92332265E+00 -7.29397955E+00 -7.29349601E+00 -7.29336186E+00
 -2.84502876E+00 -2.84490893E+00 -2.84474129E+00 -2.84425049E+00 -2.84423906E+00
 -1.24650951E+00 -9.05205459E-01 -7.41118538E-01 -5.54600465E-01 -4.54396719E-01
 -4.45510657E-01 -3.16740441E-01 -2.90248436E-01 -1.68011473E-01 -1.62045297E-01
 -1.60935760E-01  1.51709427E-01  1.77893065E-01  2.21212115E-01  2.29716877E-01
  2.54703463E-01  2.66448593E-01  2.71583709E-01  2.80670570E-01  2.88232198E-01
  3.10878026E-01  3.28092702E-01  3.31917904E-01  3.60632743E-01  4.02029355E-01
  4.39957729E-01  4.54934517E-01  4.85133829E-01  4.91154167E-01  5.11584216E-01
  5.36035013E-01  5.45843604E-01  5.57685354E-01  5.71473022E-01  5.85540034E-01
  5.96992512E-01  6.03265868E-01  6.47453840E-01  6.55428906E-01  7.53666122E-01
  7.77536620E-01  8.10483266E-01  8.37093739E-01  8.46572636E-01  8.60439524E-01
  8.72537865E-01  8.83127912E-01  8.93636310E-01  9.41177099E-01  9.64524960E-01
  9.73522734E-01  9.95223516E-01  9.98181114E-01  1.00401341E+00  1.01129112E+00
  1.04618926E+00  1.06124065E+00  1.07204995E+00  1.08945355E+00  1.10760302E+00
  1.11977816E+00  1.13177309E+00  1.15382976E+00  1.15748100E+00  1.18327061E+00
  1.18770773E+00  1.21444352E+00  1.22671905E+00  1.26346782E+00  1.26891194E+00
  1.33302190E+00  1.34850107E+00  1.36417160E+00  1.39917574E+00  1.45300673E+00
  1.47871915E+00  1.51414841E+00  1.55701729E+00  1.57458462E+00  1.64512026E+00
  1.68403235E+00  1.69434991E+00  1.70888922E+00  1.76476984E+00  1.78640049E+00
  1.85991454E+00  1.96755823E+00  2.10208941E+00  2.33661968E+00  2.39405100E+00
  2.44065223E+00  2.46862403E+00  2.47064914E+00  2.48480569E+00  2.50822444E+00
  2.51137557E+00  2.52389729E+00  2.54706481E+00  2.55159660E+00  2.55626587E+00
  2.57009184E+00  2.59651682E+00  2.60124724E+00  2.62191007E+00  2.63560327E+00
  2.63971018E+00  2.65288034E+00  2.67770863E+00  2.68931448E+00  2.70444268E+00
  2.72096899E+00  2.73117836E+00  2.74421889E+00  2.78053631E+00  2.80558460E+00
  2.82167897E+00  2.83979586E+00  2.90738965E+00  2.95397676E+00  3.01076084E+00
  3.10256460E+00  3.13859748E+00  3.20092478E+00  3.22626798E+00  3.23496251E+00
  3.27698506E+00  3.29466623E+00  3.36843285E+00  3.50257884E+00  3.54820261E+00
  3.56564519E+00  3.91286399E+00  4.05313914E+00  4.35231893E+00  4.47682193E+00
  4.55418438E+00  4.61577494E+00  4.72444248E+00  4.93435306E+00  5.00246400E+00
  5.35780187E+00  5.43129762E+00  5.68301873E+00  6.38114538E+00  6.61424246E+00
  6.86526540E+00  6.89544687E+00  6.90958693E+00  6.98017288E+00  7.32252693E+00
  7.34800238E+00  7.35566559E+00  7.44681291E+00  7.50488479E+00  7.71538117E+00
  7.73668026E+00  8.37135850E+00  1.44833790E+01  7.98904183E+01
Alpha MO coefficients                      R   N=       30276
  6.20766445E-06  3.39019995E-05  1.21745780E-06 -1.35638356E-04 -7.99342546E-05
 -1.11176467E-07  3.21662200E-06  6.39061973E-07 -2.49262701E-07 -9.75249273E-06
 -2.70074882E-06  5.21718781E-05 -1.50336012E-04  4.20150815E-06  1.43680198E-05
 -3.11374938E-05  4.71370413E-06 -1.91594499E-06  2.27212644E-07  1.37798273E-07
 -2.90548855E-06 -1.37627060E-06  1.31258178E-05 -2.80765622E-07 -9.10766118E-07
  2.07825573E-05  9.39246892E-06  2.57310660E-05  9.08249985E-06 -8.37621370E-06
  5.68583150E-05  1.41664543E-05 -2.96223971E-08 -7.02725755E-08  5.39894820E-07
 -7.91376552E-07  7.95284874E-07 -1.25576383E-06  6.56518247E-07 -2.71308627E-07
 -2.44747404E-06  1.08190631E-05  3.61922368E-06 -3.26791625E-06 -6.35376606E-06
  1.02619422E-05  7.58174525E-08 -1.92155019E-07 -3.20147168E-06  1.41328135E-05
 -2.31802925E-05 -9.12923500E-06 -2.15149733E-07 -5.95463271E-08  4.97589327E-08
 -3.83609821E-06 -2.45523146E-07  5.75513733E-07  3.79079856E-07  1.80393088E-07
 -9.14487922E-08  2.16330131E-05 -5.14119385E-07 -4.63638268E-06  4.57082681E-06
 -3.66339391E-07  4.45625388E-08  6.23048877E-08  3.41762868E-08  3.14059322E-09
 -1.88722814E-07 -4.24481202E-08 -5.69962655E-07 -3.40450130E-07 -4.79761858E-08
  1.48808778E-06  2.00135671E-07  2.09944739E-06  1.79571628E-06  3.37752451E-07
 -4.90019488E-06 -2.16393180E-07  3.53810031E-06  2.12410650E-06 -1.23217179E-06
 -5.98989931E-06  6.59752682E-07  4.02755334E-08 -1.94047245E-08  2.70638216E-07
 -1.00394843E-07 -6.19805900E-07 -6.85883936E-07 -5.62933845E-07  5.75947873E-07
 -1.33292492E-06 -4.52298524E-07 -7.14940476E-07  1.13321390E-06  3.50306401E-06
  9.50060108E-07  9.99534870E-01  1.95372930E-03  1.84548942E-04 -4.17463311E-04
  6.90832030E-05  6.91910138E-05  1.65693392E-05 -7.62006345E-05  2.22628289E-06
  3.52908468E-05 -1.34482467E-04  3.65035864E-06 -1.71231640E-05  7.20978143E-05
 -2.06622765E-06  6.42223884E-06 -5.28640606E-05 -2.63507241E-06  1.68126741E-06
 -1.12444992E-05 -1.33842574E-06 -3.71510518E-06  1.57488994E-07 -1.59366519E-07
 -5.41384702E-06 -3.36712094E-06 -2.79775959E-05  5.72430053E-07 -1.23634089E-06
 -4.30126140E-05 -2.33152659E-05 -2.40640350E-06 -3.49017832E-06  5.29231568E-07
 -7.44142316E-06  3.16309932E-07 -5.69938505E-07 -1.40994312E-06  5.76581195E-06
  3.65639415E-07 -1.19583191E-06 -5.08704020E-06  4.53689135E-06  9.04107334E-07
 -9.67864340E-07  3.58009845E-06 -1.23202911E-06  2.28430153E-06 -3.21756799E-06
  6.14525943E-06 -8.26406199E-07 -2.43941339E-05  2.52428698E-05 -5.12382867E-06
  8.18843904E-07 -2.25918905E-06  4.39180874E-07 -6.85927024E-06  1.67363334E-05
  2.47316274E-07  1.04611008E-05  1.57478668E-05 -4.68498865E-06 -6.48596126E-07
 -7.92391446E-08 -1.19119964E-07 -1.56871728E-06 -8.63362599E-07 -7.21479257E-06
  1.65047633E-06 -1.15593557E-06  6.35323581E-06 -4.21146400E-06  9.76835890E-01
 -9.08009448E-03  4.33752968E-02  2.24056942E-03  4.54279355E-04  6.52483716E-04
  1.54899416E-03  8.82973059E-04 -7.39057334E-04 -1.20301378E-03 -8.19595791E-04
 -2.54955131E-04  7.59240114E-04 -2.66927601E-04 -1.16078130E-04  1.52332176E-04
 -9.89573856E-05  5.33470297E-05  2.85880948E-05  8.85336654E-07  1.00970245E-04
  4.27631348E-05  1.94804779E-04 -4.46727461E-04 -2.30219041E-05  1.06647146E-04
  1.74641432E-04 -1.94112063E-04 -6.27237645E-05  2.50835999E-05 -2.28150065E-04
 -1.88353802E-04  5.71710128E-06 -1.24503651E-05  1.24218304E-05 -9.44121312E-07
 -1.32054415E-05 -1.06483699E-05  1.07519851E-05  3.93478698E-05 -6.57344495E-05
 -1.15140139E-05 -1.16002717E-04 -3.02087516E-05 -4.72709226E-05 -4.76561704E-05
  1.01687836E-06  1.88189233E-07  3.43467378E-05 -1.69969355E-04  3.38390647E-04
  1.25537835E-04 -1.28353499E-06  1.97130621E-07  3.27893953E-06  4.42314427E-05
 -2.09160911E-06  3.56868897E-05  3.61925786E-06 -8.05344541E-07 -7.22344730E-06
 -2.99477432E-04  3.22702995E-05 -1.36094711E-04 -4.85417230E-05 -1.25840296E-05
 -8.14334288E-06 -2.14192364E-06  2.24524357E-06 -1.14699313E-07  4.01614155E-07
 -1.04510140E-06  2.03671235E-05 -1.85219117E-05  9.94483207E-07 -1.18165746E-05
  7.11141541E-06 -6.44737932E-05  6.64890325E-05 -4.00383015E-06  5.08207151E-05
 -2.10017498E-05 -8.71007591E-05  9.32365507E-05  1.40711554E-05  6.80084802E-05
  7.95614228E-06 -1.75603827E-06 -1.76905971E-05 -5.51578824E-06  1.94000336E-05
  4.09264616E-06 -1.54591550E-05  2.47732367E-06  3.00069731E-05  9.85710182E-05
  9.37123935E-06 -8.20791188E-05 -7.01494691E-06  3.42163094E-06 -2.09736868E-06
  3.94051724E-06  6.41700979E-05  6.68164460E-05 -2.63711565E-04 -1.29033898E-04
 -4.51871313E-04 -5.29611573E-06 -3.23745108E-06 -3.17589784E-06  2.39187579E-05
 -4.93081087E-04 -5.12501601E-05 -3.08647210E-05  2.36598600E-04  1.44999935E-05
  2.20909964E-04  4.62163809E-04  1.01424787E-04 -2.05802160E-05  1.02911137E-04
  2.36672524E-05  1.35238822E-05 -2.03622700E-06 -4.98347777E-07  1.05308195E-05
  1.12365623E-05 -2.85995406E-04 -3.02496214E-07  3.30811224E-05 -4.31386788E-04
 -1.90982951E-04  1.28839375E-04  5.83340462E-05 -5.78603085E-05  3.50535060E-04
 -3.46869976E-05  1.09791656E-05 -3.29638240E-05  1.60330427E-04  1.57005102E-06
  8.78695812E-06 -1.27630505E-04  1.87426228E-04 -1.38344849E-05 -2.82507616E-05
  9.23052429E-05  1.99896851E-05 -2.07900190E-05 -7.32766351E-05  3.97547756E-05
  4.10988131E-04  1.61798234E-03 -7.49016432E-04 -1.44983451E-05 -2.18725404E-04
  5.48574757E-05 -1.50847977E-04 -9.26777073E-04 -1.45297225E-05 -5.08367631E-04
 -1.72307081E-04 -2.56513066E-04  4.70562052E-04 -2.21691456E-05 -3.42018999E-05
 -4.43472507E-05  7.96043384E-06 -5.73205998E-05 -9.33435365E-05  4.89675346E-04
  1.76877904E-05  3.89928981E-04  4.56239375E-05 -7.88342935E-05 -1.11321663E-04
 -1.01935590E-04  2.51380264E-03  1.86195141E-03 -2.04864909E-05  3.62245641E-05
 -1.11078478E-05 -9.63608343E-05  5.91824364E-04  5.21542004E-05 -6.86369377E-04
  2.47916080E-03  3.26613808E-05 -3.16362061E-04  7.78355026E-04 -1.10402380E-04
 -2.99267731E-05 -5.62917294E-06 -8.19954615E-06 -4.60441127E-05 -3.37591948E-05
 -1.63865602E-04  3.46733529E-05  6.30455277E-05 -2.59772739E-04 -5.19700591E-05
 -2.66498324E-04 -1.18502792E-04  1.97234924E-04 -7.42995107E-04  1.27279516E-05
 -5.40341173E-06  9.67638571E-06 -2.95066667E-05  1.73141130E-05 -1.07790112E-05
  4.22756187E-05 -3.51466865E-05  1.11276207E-05  1.40810304E-05  1.54261715E-05
 -4.21493854E-05  1.25936701E-04 -4.87092994E-05  8.81794869E-05 -1.78404557E-06
  4.46118399E-06  6.90461988E-05 -2.84291613E-04  4.21773846E-04  2.27328904E-04