title                                                                   
SP        RMP2-FC                                                     Gen                 
Number of atoms                            I                4
Info1-9                                    I   N=           9
         136         123           0           0           0         110
           1           2           1
Full Title                                 C   N=           1
title       
Route                                      C   N=           5
#p pop=NBO SP NoSymm mp2/gen Pseudo=read density=current    
Charge                                     I               -1
Multiplicity                               I                1
Number of electrons                        I               52
Number of alpha electrons                  I               26
Number of beta electrons                   I               26
Number of basis functions                  I              174
Number of independent functions            I              174
Number of point charges in /Mol/           I                0
Number of translation vectors              I                0
Atomic numbers                             I   N=           4
           8          35          17           1
Nuclear charges                            R   N=           4
  8.00000000E+00  2.50000000E+01  1.70000000E+01  1.00000000E+00
Current cartesian coordinates              R   N=          12
  0.00000000E+00  0.00000000E+00  0.00000000E+00  5.79755078E+00  0.00000000E+00
  0.00000000E+00 -7.40412882E-01  3.09587011E+00  0.00000000E+00  1.31201217E+00
  0.00000000E+00  1.31201217E+00
Number of symbols in /Mol/                 I                0
Force Field                                I                0
Atom Types                                 C   N=           4
                                                
Int Atom Types                             I   N=           4
           0           0           0           0
MM charges                                 R   N=           4
  0.00000000E+00  0.00000000E+00  0.00000000E+00  0.00000000E+00
Integer atomic weights                     I   N=           4
          16          79          35           1
Real atomic weights                        R   N=           4
  1.59949146E+01  7.89183361E+01  3.49688527E+01  1.00782504E+00
Atom fragment info                         I   N=           4
           0           0           0           0
Atom residue num                           I   N=           4
           0           0           0           0
Nuclear spins                              I   N=           4
           0           3           3           1
Nuclear ZEff                               R   N=           4
 -5.60000000E+00 -1.43500000E+03 -1.42400000E+01 -1.00000000E+00
Nuclear ZNuc                               R   N=           4
  8.00000000E+00  3.50000000E+01  1.70000000E+01  1.00000000E+00
Nuclear QMom                               R   N=           4
  0.00000000E+00  3.13000000E+01 -8.16500000E+00  0.00000000E+00
Nuclear GFac                               R   N=           4
  0.00000000E+00  2.10639900E+00  8.21874000E-01  2.79284600E+00
MicOpt                                     I   N=           4
          -1          -1          -1          -1
Number of residues                         I                0
Number of secondary structures             I                0
Number of contracted shells                I               56
Number of primitive shells                 I              138
Pure/Cartesian d shells                    I                0
Pure/Cartesian f shells                    I                0
Highest angular momentum                   I                3
Largest degree of contraction              I               11
Shell types                                I   N=          56
           0           0           0           0           0           1
           1           1           1          -2          -2          -2
          -3          -3           0           0           0           0
           0           0           1           1           1           1
           1          -2          -2          -2          -2          -3
          -3           0           0           0           0           0
           0           1           1           1           1           1
          -2          -2          -2          -3          -3           0
           0           0           0           1           1           1
          -2          -2
Number of primitives per shell             I   N=          56
           7           6           1           1           1           3
           1           1           1           1           1           1
           1           1           7           6           1           1
           1           1           8           8           1           1
           1           8           1           1           1           1
           1          11           9           8           1           1
           1           6           6           1           1           1
           1           1           1           1           1           3
           1           1           1           1           1           1
           1           1
Shell to atom map                          I   N=          56
           1           1           1           1           1           1
           1           1           1           1           1           1
           1           1           2           2           2           2
           2           2           2           2           2           2
           2           2           2           2           2           2
           2           3           3           3           3           3
           3           3           3           3           3           3
           3           3           3           3           3           4
           4           4           4           4           4           4
           4           4
Primitive exponents                        R   N=         138
  1.53300000E+04  2.29900000E+03  5.22400000E+02  1.47300000E+02  4.75500000E+01
  1.67600000E+01  6.20700000E+00  5.22400000E+02  1.47300000E+02  4.75500000E+01
  1.67600000E+01  6.20700000E+00  6.88200000E-01  1.75200000E+00  2.38400000E-01
  7.37600000E-02  3.44600000E+01  7.74900000E+00  2.28000000E+00  7.15600000E-01
  2.14000000E-01  5.97400000E-02  2.31400000E+00  6.45000000E-01  2.14000000E-01
  1.42800000E+00  5.00000000E-01  9.65939000E+03  1.45596000E+03  3.25914000E+02
  4.65657000E+01  1.82469000E+01  3.80201000E+00  1.78632000E+00  9.65939000E+03
  3.25914000E+02  4.65657000E+01  1.82469000E+01  3.80201000E+00  1.78632000E+00
  6.02714000E-01  2.84014000E-01  1.20271000E-01  4.45000000E-02  4.92187000E+02
  9.23642000E+01  2.70718000E+01  7.26539000E+00  3.48481000E+00  1.64048000E+00
  6.48570000E-01  9.53040000E-02  4.92187000E+02  2.70718000E+01  7.26539000E+00
  3.48481000E+00  1.64048000E+00  6.48570000E-01  2.56407000E-01  9.53040000E-02
  7.66600000E-01  1.18200000E-01  3.96000000E-02  3.38996000E+02  1.03217000E+02
  4.23638000E+01  1.84356000E+01  8.37254000E+00  3.80222000E+00  1.68677000E+00
  6.77520000E-01  6.77520000E-01  2.55300000E-01  1.00900000E-01  5.60600000E-01
  2.45400000E-01  4.56100000E+05  6.83300000E+04  1.55500000E+04  4.40500000E+03
  1.43900000E+03  5.20400000E+02  2.03100000E+02  8.39600000E+01  3.62000000E+01
  1.58300000E+01  6.33400000E+00  4.40500000E+03  1.43900000E+03  5.20400000E+02
  2.03100000E+02  8.39600000E+01  3.62000000E+01  1.58300000E+01  6.33400000E+00
  2.69400000E+00  1.43900000E+03  2.03100000E+02  8.39600000E+01  3.62000000E+01
  1.58300000E+01  6.33400000E+00  2.69400000E+00  4.31300000E-01  9.76800000E-01
  1.62500000E-01  5.91000000E-02  6.63300000E+02  1.56800000E+02  4.99800000E+01
  1.84200000E+01  7.24000000E+00  2.92200000E+00  1.56800000E+02  4.99800000E+01
  1.84200000E+01  7.24000000E+00  2.92200000E+00  3.81800000E-01  1.02200000E+00
  1.30100000E-01  4.19000000E-02  1.04600000E+00  3.44000000E-01  1.35000000E-01
  7.06000000E-01  3.12000000E-01  3.38700000E+01  5.09500000E+00  1.15900000E+00
  3.25800000E-01  1.02700000E-01  2.52600000E-02  1.40700000E+00  3.88000000E-01
  1.02000000E-01  1.05700000E+00  2.47000000E-01
Contraction coefficients                   R   N=         138
  5.19808943E-04  4.02025621E-03  2.07128267E-02  8.10105536E-02  2.35962985E-01
  4.42653446E-01  3.57064423E-01 -4.42115008E-05 -1.22591041E-03 -1.05517725E-02
 -6.74452633E-02 -1.71198607E-01  1.07329856E+00  1.00000000E+00  1.00000000E+00
  1.00000000E+00  4.11634896E-02  2.57762836E-01  8.02419274E-01  1.00000000E+00
  1.00000000E+00  1.00000000E+00  1.00000000E+00  1.00000000E+00  1.00000000E+00
  1.00000000E+00  1.00000000E+00  3.80701661E-04  2.63868635E-03  8.70555302E-03
  8.03093709E-02 -4.07648708E-01  7.03092632E-01  4.97431509E-01 -2.19689157E-05
 -9.47832571E-04  9.38727693E-03 -1.47428152E-02 -2.77285578E-01 -7.38047787E-01
  1.00000000E+00  1.00000000E+00  1.00000000E+00  1.00000000E+00  4.71881392E-04
  5.49299123E-03 -8.80115226E-02  3.43400525E-01  5.10073044E-01  2.48575707E-01
  2.24628895E-02  8.56099489E-04 -4.13161033E-05  2.99292350E-03 -2.76886294E-02
 -5.33882855E-02 -1.24705505E-02  3.44020817E-01  5.41867327E-01  2.58979876E-01
  1.00000000E+00  1.00000000E+00  1.00000000E+00  1.52399887E-03  1.56729884E-02
  7.23999463E-02  1.86302862E-01  3.23880760E-01  3.74533722E-01  2.57417809E-01
  6.80509495E-02  1.00000000E+00  1.00000000E+00  1.00000000E+00  1.00000000E+00
  1.00000000E+00  4.93229477E-05  3.83207967E-04  2.00947816E-03  8.38950124E-03
  2.94843950E-02  8.78759948E-02  2.11589759E-01  3.65611554E-01  3.41246350E-01
  1.02162570E-01  2.14249949E-03 -2.21747925E-06 -1.71189708E-04 -1.27922846E-03
 -9.32956265E-03 -3.98910062E-02 -1.05536085E-01  9.36202446E-03  5.10511140E-01
  5.73150737E-01  4.03949245E-06  2.12481765E-04  8.59484452E-04  4.63248159E-03
  4.47343490E-04 -7.38438245E-02 -3.62271994E-01  1.16620337E+00  1.00000000E+00
  1.00000000E+00  1.00000000E+00  2.47206402E-03  1.97550234E-02  9.09917355E-02
  2.63187834E-01  4.49078073E-01  3.60183072E-01  3.03427809E-05 -1.22475826E-03
 -6.01429772E-03 -2.76401323E-02  4.35105612E-04  1.00307272E+00  1.00000000E+00
  1.00000000E+00  1.00000000E+00  1.00000000E+00  1.00000000E+00  1.00000000E+00
  1.00000000E+00  1.00000000E+00  2.54948632E-02  1.90362766E-01  8.52162022E-01
  1.00000000E+00  1.00000000E+00  1.00000000E+00  1.00000000E+00  1.00000000E+00
  1.00000000E+00  1.00000000E+00  1.00000000E+00
Coordinates of each shell                  R   N=         168
  0.00000000E+00  0.00000000E+00  0.00000000E+00  0.00000000E+00  0.00000000E+00
  0.00000000E+00  0.00000000E+00  0.00000000E+00  0.00000000E+00  0.00000000E+00
  0.00000000E+00  0.00000000E+00  0.00000000E+00  0.00000000E+00  0.00000000E+00
  0.00000000E+00  0.00000000E+00  0.00000000E+00  0.00000000E+00  0.00000000E+00
  0.00000000E+00  0.00000000E+00  0.00000000E+00  0.00000000E+00  0.00000000E+00
  0.00000000E+00  0.00000000E+00  0.00000000E+00  0.00000000E+00  0.00000000E+00
  0.00000000E+00  0.00000000E+00  0.00000000E+00  0.00000000E+00  0.00000000E+00
  0.00000000E+00  0.00000000E+00  0.00000000E+00  0.00000000E+00  0.00000000E+00
  0.00000000E+00  0.00000000E+00  5.79755078E+00  0.00000000E+00  0.00000000E+00
  5.79755078E+00  0.00000000E+00  0.00000000E+00  5.79755078E+00  0.00000000E+00
  0.00000000E+00  5.79755078E+00  0.00000000E+00  0.00000000E+00  5.79755078E+00
  0.00000000E+00  0.00000000E+00  5.79755078E+00  0.00000000E+00  0.00000000E+00
  5.79755078E+00  0.00000000E+00  0.00000000E+00  5.79755078E+00  0.00000000E+00
  0.00000000E+00  5.79755078E+00  0.00000000E+00  0.00000000E+00  5.79755078E+00
  0.00000000E+00  0.00000000E+00  5.79755078E+00  0.00000000E+00  0.00000000E+00
  5.79755078E+00  0.00000000E+00  0.00000000E+00  5.79755078E+00  0.00000000E+00
  0.00000000E+00  5.79755078E+00  0.00000000E+00  0.00000000E+00  5.79755078E+00
  0.00000000E+00  0.00000000E+00  5.79755078E+00  0.00000000E+00  0.00000000E+00
  5.79755078E+00  0.00000000E+00  0.00000000E+00 -7.40412882E-01  3.09587011E+00
  0.00000000E+00 -7.40412882E-01  3.09587011E+00  0.00000000E+00 -7.40412882E-01
  3.09587011E+00  0.00000000E+00 -7.40412882E-01  3.09587011E+00  0.00000000E+00
 -7.40412882E-01  3.09587011E+00  0.00000000E+00 -7.40412882E-01  3.09587011E+00
  0.00000000E+00 -7.40412882E-01  3.09587011E+00  0.00000000E+00 -7.40412882E-01
  3.09587011E+00  0.00000000E+00 -7.40412882E-01  3.09587011E+00  0.00000000E+00
 -7.40412882E-01  3.09587011E+00  0.00000000E+00 -7.40412882E-01  3.09587011E+00
  0.00000000E+00 -7.40412882E-01  3.09587011E+00  0.00000000E+00 -7.40412882E-01
  3.09587011E+00  0.00000000E+00 -7.40412882E-01  3.09587011E+00  0.00000000E+00
 -7.40412882E-01  3.09587011E+00  0.00000000E+00 -7.40412882E-01  3.09587011E+00
  0.00000000E+00  1.31201217E+00  0.00000000E+00  1.31201217E+00  1.31201217E+00
  0.00000000E+00  1.31201217E+00  1.31201217E+00  0.00000000E+00  1.31201217E+00
  1.31201217E+00  0.00000000E+00  1.31201217E+00  1.31201217E+00  0.00000000E+00
  1.31201217E+00  1.31201217E+00  0.00000000E+00  1.31201217E+00  1.31201217E+00
  0.00000000E+00  1.31201217E+00  1.31201217E+00  0.00000000E+00  1.31201217E+00
  1.31201217E+00  0.00000000E+00  1.31201217E+00
Num ILSW                                   I              100
ILSW                                       I   N=         100
           0           0           0           0           2           0
           0           0           0           0           0          -1
           5           0           0           0           0           0
           0           0           0           0           0           0
           1           1           0           0           0           0
           0           0      100000           0          -1           0
           0           0           0           0           0           0
           0           0           0           1           0           0
           0 -2000000000           1           0           0           0
           0           0           4          52           0           0
           0           0           0           0           0           0
           0           0           0           4           0           1
           0           0           0           0           0           0
           0           0           0           0           0           0
           0           0           0           0           0           0
           0           0           0           0           0           0
           0           0           0           0
Num RLSW                                   I               52
RLSW                                       R   N=          52
  1.00000000E+00  1.00000000E+00  1.00000000E+00  1.00000000E+00  1.00000000E+00
  0.00000000E+00  0.00000000E+00  1.00000000E+00  0.00000000E+00  0.00000000E+00
  0.00000000E+00  0.00000000E+00  1.00000000E+00  0.00000000E+00  0.00000000E+00
  0.00000000E+00  0.00000000E+00  1.00000000E+00  0.00000000E+00  0.00000000E+00
  0.00000000E+00  0.00000000E+00  1.00000000E+00  0.00000000E+00  0.00000000E+00
  0.00000000E+00  0.00000000E+00  1.00000000E+00  0.00000000E+00  0.00000000E+00
  0.00000000E+00  0.00000000E+00  1.00000000E+00  0.00000000E+00  0.00000000E+00
  0.00000000E+00  0.00000000E+00  0.00000000E+00  1.00000000E+00  1.00000000E+00
  0.00000000E+00  1.00000000E+00  0.00000000E+00  0.00000000E+00  0.00000000E+00
  0.00000000E+00  0.00000000E+00  0.00000000E+00  0.00000000E+00  0.00000000E+00
  0.00000000E+00  0.00000000E+00
ECP-MxAtEC                                 I           250000
ECP-MaxLECP                                I               10
ECP-MaxAtL                                 I          2250000
ECP-MxTECP                                 I         11250000
ECP-LenNCZ                                 I               16
ECP-KFirst                                 I   N=          40
           0           1           0           0           0           2
           0           0           0           5           0           0
           0           9           0           0           0          15
           0           0           0           0           0           0
           0           0           0           0           0           0
           0           0           0           0           0           0
           0           0           0           0
ECP-KLast                                  I   N=          40
           0           1           0           0           0           4
           0           0           0           8           0           0
           0          14           0           0           0          16
           0           0           0           0           0           0
           0           0           0           0           0           0
           0           0           0           0           0           0
           0           0           0           0
ECP-LMax                                   I   N=           4
           0           4           0           0
ECP-LPSkip                                 I   N=           4
           1           0           1           1
ECP-RNFroz                                 R   N=           4
  0.00000000E+00  1.00000000E+01  0.00000000E+00  0.00000000E+00
ECP-NLP                                    I   N=          16
           2           2           2           2           2           2
           2           2           2           2           2           2
           2           2           2           2
ECP-CLP1                                   R   N=          16
  0.00000000E+00  4.99628340E+01  3.70014205E+02  1.02414390E+01  9.91122440E+01
  1.98253046E+02  2.82617400E+01  5.66233660E+01 -1.86058530E+01 -2.79232800E+01
 -3.79693000E-01 -7.80583000E-01  3.59680000E-02  9.43970000E-02 -1.09126900E+00
 -2.88769100E+00
ECP-CLP2                                   R   N=          16
  0.00000000E+00  0.00000000E+00  0.00000000E+00  0.00000000E+00  0.00000000E+00
  0.00000000E+00  0.00000000E+00  0.00000000E+00  0.00000000E+00  0.00000000E+00
  0.00000000E+00  0.00000000E+00  0.00000000E+00  0.00000000E+00  0.00000000E+00
  0.00000000E+00
ECP-ZLP                                    R   N=          16
  1.00000000E+00  7.00242570E+01  3.11784120E+01  7.15659300E+00  4.67734710E+01
  4.61841200E+01  2.17138580E+01  2.09417920E+01  5.06988390E+01  5.06447640E+01
  1.54475090E+01  1.55002590E+01  2.80039100E+00  1.07748000E+00  1.44656060E+01
  2.12340650E+01
MxBond                                     I                2
NBond                                      I   N=           4
           2           0           1           1
IBond                                      I   N=           8
           3           4           0           0           1           0
           1           0
RBond                                      R   N=           8
  1.00000000E+00  1.00000000E+00  0.00000000E+00  0.00000000E+00  1.00000000E+00
  0.00000000E+00  1.00000000E+00  0.00000000E+00
Virial Ratio                               R      2.144382105923993E+00
SCF Energy                                 R     -9.505088203577758E+02
MP2 Energy                                 R     -9.512076999406986E+02
Total Energy                               R     -9.512076999406986E+02
Post-SCF wavefunction norm                 R      1.104976975195146E+00
RMS Density                                R      6.892087374109382E-09
Job Status                                 I                1
Nuclear derivative order                   I                0
External E-field                           R   N=          35
  0.00000000E+00  0.00000000E+00  0.00000000E+00  0.00000000E+00  0.00000000E+00
  0.00000000E+00  0.00000000E+00  0.00000000E+00  0.00000000E+00  0.00000000E+00
  0.00000000E+00  0.00000000E+00  0.00000000E+00  0.00000000E+00  0.00000000E+00
  0.00000000E+00  0.00000000E+00  0.00000000E+00  0.00000000E+00  0.00000000E+00
  0.00000000E+00  0.00000000E+00  0.00000000E+00  0.00000000E+00  0.00000000E+00
  0.00000000E+00  0.00000000E+00  0.00000000E+00  0.00000000E+00  0.00000000E+00
  0.00000000E+00  0.00000000E+00  0.00000000E+00  0.00000000E+00  0.00000000E+00
IOpCl                                      I                0
IROHF                                      I                0
Alpha Orbital Energies                     R   N=         174
 -1.04742613E+02 -2.04830898E+01 -1.04622879E+01 -9.54049195E+00 -7.92947903E+00
 -7.92673614E+00 -7.92657392E+00 -7.28833520E+00 -7.28794152E+00 -7.28775559E+00
 -2.83940722E+00 -2.83932708E+00 -2.83909291E+00 -2.83869047E+00 -2.83866613E+00
 -1.25416346E+00 -9.08925556E-01 -7.34482633E-01 -5.60958173E-01 -4.59421778E-01
 -4.50293995E-01 -3.20585766E-01 -2.94000133E-01 -1.60976414E-01 -1.56598006E-01
 -1.55095700E-01  1.48974699E-01  1.76039318E-01  2.19580318E-01  2.29647200E-01
  2.56636884E-01  2.66457605E-01  2.71684838E-01  2.79015568E-01  2.84676843E-01
  3.11182165E-01  3.21696060E-01  3.33419006E-01  3.58967213E-01  3.96272203E-01
  4.38967238E-01  4.53394166E-01  4.86833003E-01  4.93796212E-01  5.09007442E-01
  5.33361631E-01  5.42096231E-01  5.56395426E-01  5.66754730E-01  5.83214360E-01
  5.92934391E-01  6.00818585E-01  6.29557390E-01  6.45586637E-01  7.52504523E-01
  7.73578506E-01  8.09554556E-01  8.37570703E-01  8.45757683E-01  8.57786187E-01
  8.69679636E-01  8.79849781E-01  8.94522813E-01  9.33720371E-01  9.60928420E-01
  9.79262857E-01  9.97329438E-01  1.00381361E+00  1.01066709E+00  1.01837203E+00
  1.03938419E+00  1.05543585E+00  1.06848810E+00  1.08759812E+00  1.10426896E+00
  1.11997652E+00  1.12304128E+00  1.15554207E+00  1.16081769E+00  1.18492193E+00
  1.19499126E+00  1.20391691E+00  1.21550340E+00  1.23079127E+00  1.25937906E+00
  1.31231038E+00  1.32760044E+00  1.36124324E+00  1.39097203E+00  1.42756032E+00
  1.46997599E+00  1.50127782E+00  1.54472310E+00  1.58501492E+00  1.63331619E+00
  1.66241368E+00  1.68824614E+00  1.69777859E+00  1.73210078E+00  1.75655691E+00
  1.85732113E+00  1.96670592E+00  2.09764026E+00  2.32194480E+00  2.39554500E+00
  2.43733967E+00  2.46499881E+00  2.47482279E+00  2.47794329E+00  2.49781502E+00
  2.50445669E+00  2.52465864E+00  2.54329936E+00  2.55267116E+00  2.55736894E+00
  2.56363620E+00  2.58968330E+00  2.60796161E+00  2.62447147E+00  2.63118225E+00
  2.63684673E+00  2.65317872E+00  2.67229146E+00  2.68349448E+00  2.70324869E+00
  2.70707319E+00  2.73114376E+00  2.74521980E+00  2.77655416E+00  2.80851163E+00
  2.82125638E+00  2.83439038E+00  2.90919934E+00  2.93074129E+00  3.00112596E+00
  3.09469604E+00  3.12513409E+00  3.20284492E+00  3.21934924E+00  3.22400264E+00
  3.25888408E+00  3.29083491E+00  3.35613619E+00  3.48940851E+00  3.54678920E+00
  3.55198309E+00  3.90867311E+00  3.98488747E+00  4.35769207E+00  4.45055717E+00
  4.53481365E+00  4.60170612E+00  4.72298990E+00  4.90513478E+00  5.00154594E+00
  5.36284256E+00  5.44815145E+00  5.68321668E+00  6.36780322E+00  6.62375419E+00
  6.84814067E+00  6.89553459E+00  6.90812123E+00  6.96917658E+00  7.32953789E+00
  7.35625494E+00  7.36652067E+00  7.45829246E+00  7.47322747E+00  7.69488727E+00
  7.71385023E+00  8.38782944E+00  1.46086969E+01  7.98949633E+01
Alpha MO coefficients                      R   N=       30276
  6.58165296E-06  3.57585263E-05  8.41260290E-07 -1.30200139E-04 -7.14224450E-05
 -2.08084725E-07  3.24629624E-06  4.92591277E-07  7.82665708E-07 -9.82297306E-06
 -1.55346982E-06  5.13756885E-05 -1.47310763E-04  6.76234791E-06  1.53876904E-05
 -2.87663695E-05  5.60169082E-06 -1.86110766E-06  1.85475382E-07  1.82527659E-07
 -2.83265132E-06 -1.44243326E-06  1.32457565E-05  5.20705951E-07 -1.07451013E-06
  2.06832817E-05  9.79566982E-06  2.68664416E-05  1.04224506E-05 -1.01025358E-05
  5.52512582E-05  1.56805311E-05  4.17944833E-08 -1.11627639E-07  8.79011658E-07
 -8.26924463E-07  8.02360498E-07 -1.09022057E-06  4.66396676E-07 -3.52610021E-07
 -1.85760252E-06  9.56057457E-06  4.08085152E-06 -3.20156695E-06 -6.93157558E-06
  1.11352489E-05  5.41846056E-08 -1.28754263E-07 -2.83906738E-06  1.24238847E-05
 -1.75250473E-05 -9.26024847E-06 -2.84155493E-07 -1.52538844E-07  1.39380369E-07
 -4.67923272E-06 -1.06405816E-06  1.20908322E-06  6.49509474E-07  5.00129315E-07
 -4.17473649E-07  1.85914515E-05  9.17812706E-07 -3.96956774E-06  4.51053507E-06
 -2.59758464E-07 -8.39161233E-08  7.43799049E-08  1.59476750E-08  7.07743789E-09
 -2.13907808E-07 -7.83741753E-08 -6.49909893E-07 -1.94377584E-07 -6.60010175E-08
  1.64209350E-06  4.14671363E-07  2.00308379E-06  1.00110500E-06  3.09012923E-07
 -4.62850171E-06 -5.29784816E-07  3.08708236E-06  1.98611797E-06 -9.61652642E-07
 -5.21070241E-06 -1.12227323E-08  6.32430389E-08  2.39692236E-08  3.41301066E-07
 -5.05310155E-08 -4.55290791E-07 -7.85957688E-07 -8.36792032E-07  3.29807759E-07
 -1.51610678E-06 -6.19970185E-07 -5.47557246E-07  8.12607088E-07  3.72422483E-06
  1.59505564E-06  9.99534872E-01  1.95393200E-03  1.84954286E-04 -4.17585873E-04
  6.75387900E-05  6.54717794E-05  1.59474206E-05 -7.65731301E-05  2.53733212E-06
  3.45973226E-05 -1.34812805E-04  4.33653987E-06 -1.66434964E-05  7.23787282E-05
 -2.42261342E-06  7.28061788E-06 -5.02434005E-05 -2.40677383E-06  1.21231856E-06
 -1.08922085E-05 -1.41082731E-06 -3.73452801E-06  1.45954355E-07 -1.14812950E-07
 -5.60148813E-06 -3.34715268E-06 -2.77459574E-05  7.14537335E-07 -1.69474221E-06
 -4.27840235E-05 -2.32240089E-05 -2.76636908E-06 -3.34304236E-06  5.17169841E-07
 -6.07001774E-06  4.42693720E-07 -5.58410023E-07 -1.24522706E-06  5.55508890E-06
  1.75844630E-07 -1.29649878E-06 -5.31858922E-06  4.78384068E-06  6.36600987E-07
 -1.33677802E-06  3.86337288E-06 -1.01943202E-06  2.34109527E-06 -2.77402171E-06
  5.53212838E-06 -5.17407696E-07 -2.55214953E-05  1.15919090E-05 -4.19293625E-06
  1.02120204E-06 -1.94109678E-06  7.16104708E-07 -7.00897859E-06  1.62561202E-05
  1.85016727E-06  8.90556440E-06  1.26368975E-05 -3.68288125E-06 -1.02489363E-06
 -2.57571447E-07 -1.03047004E-07 -1.87070267E-06 -7.66985982E-07 -4.38106381E-06
  1.20322143E-06 -7.59039256E-07  4.73708175E-06 -3.50556715E-06  9.76840110E-01
 -9.06505377E-03  4.33746875E-02  2.29662045E-03  2.12079818E-04  4.96139883E-04
  1.52785701E-03  1.08699090E-03 -5.84878711E-04 -1.19266752E-03 -9.92459535E-04
 -3.61176689E-04  8.21964323E-04 -2.36742165E-04 -1.32852682E-04  1.14983175E-04
 -1.15849870E-04  6.10504225E-05  3.34870115E-05  3.69779583E-06  9.76497069E-05
  4.46788235E-05  6.42854114E-05 -4.82235184E-04 -2.33332195E-05  1.67973239E-04
  1.83963982E-04 -1.63831674E-04 -7.59227547E-05  5.42143980E-05 -2.71377680E-04
 -1.94854431E-04 -2.49014141E-06 -1.63808128E-05  6.36534937E-06  3.42893524E-06
 -1.46070347E-05 -1.09679942E-05  1.30277442E-05  1.77387113E-05 -1.06078018E-04
 -1.61028645E-05 -1.15084088E-04 -2.99279631E-05 -2.61467183E-05 -4.17671842E-05
  7.15895415E-07  7.04725995E-07  4.75069549E-05 -2.91899727E-04  5.92515618E-04
  2.52394018E-04 -2.85153923E-06  6.45465743E-07  2.95913221E-06  3.99382826E-05
  1.56066762E-06  2.09919892E-05  1.45108980E-05 -2.44159390E-06 -9.34506830E-06
 -5.28007380E-04  2.67663684E-05  2.72428316E-05 -9.51276952E-05 -1.25380579E-05
  1.11401527E-05 -1.81330375E-06  4.81143296E-08 -1.15192919E-07  1.06415020E-06
 -9.41880714E-07  1.90219829E-05  3.78504035E-07  8.97558857E-07 -1.93948488E-05
  6.67317642E-06 -7.29240138E-05 -1.23220406E-05 -3.10639880E-06  1.01994532E-04
 -2.12520422E-05 -1.05772556E-04 -2.26874343E-06  1.29413734E-05  1.35927621E-04
  1.00317004E-05  5.51829436E-06 -1.21531769E-05 -6.02937667E-06  1.15321512E-05
  2.84795187E-06 -1.53081596E-05  3.37369028E-06 -1.46034528E-05  8.15008208E-05
  1.01625672E-05 -2.32425836E-05 -5.26844999E-06 -1.96611119E-05 -2.88666837E-06
  3.43110018E-06  5.60936515E-05  4.79252859E-05 -2.53617280E-04 -1.45360237E-04
 -3.49413571E-04 -5.62192562E-06 -9.78193871E-07 -4.43659107E-06  1.99272606E-05
 -4.57555024E-04 -6.97292861E-05 -2.96877847E-05  2.27851933E-04  2.02169075E-05
  2.34484567E-04  4.54034736E-04  1.24478188E-04 -1.53913993E-05  8.41480664E-05
  3.20659721E-05  1.38911754E-05  2.52912275E-07 -7.44827209E-07  1.17348876E-05
  1.18006884E-05 -2.80452055E-04 -1.07726059E-05  4.26452647E-05 -4.22591501E-04
 -1.92233058E-04  1.41592541E-04  8.41708257E-05 -6.19449288E-05  3.53499437E-04
 -3.34802507E-05  1.08022408E-05 -3.56370439E-05  1.60434730E-04  8.98990849E-07
  1.06777725E-05 -1.27673385E-04  1.86129415E-04 -8.39917314E-06 -2.11863619E-05
  8.80961957E-05  2.34481985E-05 -2.32853918E-05 -7.68558881E-05  3.95455298E-05
  4.43786271E-04  1.77699271E-03 -9.94368845E-04 -5.29738702E-05 -2.02257140E-04
  5.91884655E-05 -1.86277620E-04 -7.34378549E-04 -4.79797766E-05 -7.04735531E-04
 -4.45734856E-04 -2.88608092E-04  4.34457415E-04 -3.36554112E-05 -4.10083563E-05
 -5.45727006E-05  1.56493604E-05 -4.71458025E-05  1.10621436E-04  5.21788562E-04
  3.33080892E-05  1.68874728E-04  5.59698325E-05 -8.24549102E-05 -1.32949293E-04
 -1.00537573E-04  2.37752762E-03  1.60524341E-03 -1.95364642E-05  3.62579102E-05
 -1.02926162E-05 -1.14801032E-04  5.93838034E-04  3.50724478E-05 -7.07093253E-04
  2.40660786E-03 -1.60054564E-05 -3.53934183E-04  7.06247863E-04 -1.35908553E-04
 -3.20318109E-05 -4.48895553E-06 -9.57494319E-06 -4.72704221E-05 -3.14124993E-05
 -1.53484949E-04  2.10631434E-05  7.10257235E-05 -2.60028648E-04 -7.16010620E-05
 -2.79174586E-04 -1.44147640E-04  2.33945421E-04 -7.17555040E-04 -4.74033495E-05
 -4.54972892E-06  1.44006852E-05 -3.47939165E-05  1.68763315E-05 -1.16799071E-05
  3.82898675E-05 -3.24551016E-05  2.39681712E-05  7.37363157E-06  5.49315052E-05
 -4.67759606E-05  1.25176121E-04 -3.73822993E-05  5.47821923E-05 -1.63382524E-06
  4.18911413E-06  6.74020883E-05 -2.57501114E-04  3.12443555E-04  2.83745817E-04