 Entering Gaussian System, Link 0=g16
 Input=brhocl-_tz.gjf
 Output=brhocl-_tz.log
 Initial command:
 /sw/contrib/gaussian/g16/B01/g16/l1.exe "/scr/Gau-23565.inp" -scrdir="/scr/"
 Entering Link 1 = /sw/contrib/gaussian/g16/B01/g16/l1.exe PID=     23567.
  
 Copyright (c) 1988-2017, Gaussian, Inc.  All Rights Reserved.
  
 This is part of the Gaussian(R) 16 program.  It is based on
 the Gaussian(R) 09 system (copyright 2009, Gaussian, Inc.),
 the Gaussian(R) 03 system (copyright 2003, Gaussian, Inc.),
 the Gaussian(R) 98 system (copyright 1998, Gaussian, Inc.),
 the Gaussian(R) 94 system (copyright 1995, Gaussian, Inc.),
 the Gaussian 92(TM) system (copyright 1992, Gaussian, Inc.),
 the Gaussian 90(TM) system (copyright 1990, Gaussian, Inc.),
 the Gaussian 88(TM) system (copyright 1988, Gaussian, Inc.),
 the Gaussian 86(TM) system (copyright 1986, Carnegie Mellon
 University), and the Gaussian 82(TM) system (copyright 1983,
 Carnegie Mellon University). Gaussian is a federally registered
 trademark of Gaussian, Inc.
  
 This software contains proprietary and confidential information,
 including trade secrets, belonging to Gaussian, Inc.
  
 This software is provided under written license and may be
 used, copied, transmitted, or stored only in accord with that
 written license.
  
 The following legend is applicable only to US Government
 contracts under FAR:
  
                    RESTRICTED RIGHTS LEGEND
  
 Use, reproduction and disclosure by the US Government is
 subject to restrictions as set forth in subparagraphs (a)
 and (c) of the Commercial Computer Software - Restricted
 Rights clause in FAR 52.227-19.
  
 Gaussian, Inc.
 340 Quinnipiac St., Bldg. 40, Wallingford CT 06492
  
  
 ---------------------------------------------------------------
 Warning -- This program may not be used in any manner that
 competes with the business of Gaussian, Inc. or will provide
 assistance to any competitor of Gaussian, Inc.  The licensee
 of this program is prohibited from giving any competitor of
 Gaussian, Inc. access to this program.  By using this program,
 the user acknowledges that Gaussian, Inc. is engaged in the
 business of creating and licensing software in the field of
 computational chemistry and represents and warrants to the
 licensee that it is not a competitor of Gaussian, Inc. and that
 it will not use this program in any manner prohibited above.
 ---------------------------------------------------------------
  

 Cite this work as:
 Gaussian 16, Revision B.01,
 M. J. Frisch, G. W. Trucks, H. B. Schlegel, G. E. Scuseria, 
 M. A. Robb, J. R. Cheeseman, G. Scalmani, V. Barone, 
 G. A. Petersson, H. Nakatsuji, X. Li, M. Caricato, A. V. Marenich, 
 J. Bloino, B. G. Janesko, R. Gomperts, B. Mennucci, H. P. Hratchian, 
 J. V. Ortiz, A. F. Izmaylov, J. L. Sonnenberg, D. Williams-Young, 
 F. Ding, F. Lipparini, F. Egidi, J. Goings, B. Peng, A. Petrone, 
 T. Henderson, D. Ranasinghe, V. G. Zakrzewski, J. Gao, N. Rega, 
 G. Zheng, W. Liang, M. Hada, M. Ehara, K. Toyota, R. Fukuda, 
 J. Hasegawa, M. Ishida, T. Nakajima, Y. Honda, O. Kitao, H. Nakai, 
 T. Vreven, K. Throssell, J. A. Montgomery, Jr., J. E. Peralta, 
 F. Ogliaro, M. J. Bearpark, J. J. Heyd, E. N. Brothers, K. N. Kudin, 
 V. N. Staroverov, T. A. Keith, R. Kobayashi, J. Normand, 
 K. Raghavachari, A. P. Rendell, J. C. Burant, S. S. Iyengar, 
 J. Tomasi, M. Cossi, J. M. Millam, M. Klene, C. Adamo, R. Cammi, 
 J. W. Ochterski, R. L. Martin, K. Morokuma, O. Farkas, 
 J. B. Foresman, and D. J. Fox, Gaussian, Inc., Wallingford CT, 2016.
 
 ******************************************
 Gaussian 16:  ES64L-G16RevB.01 20-Dec-2017
                29-Jun-2021 
 ******************************************
 %nproc=28
 Will use up to   28 processors via shared memory.
 %mem=120GB
 %chk=/gscratch/ilahie/abmccoy/hocl/br_hocl_tz.chk
 -----------------------------------------------
 # opt=(z-matrix,tight) mp2/aug-cc-pvtz freq=anh
 -----------------------------------------------
 1/7=10,10=7,18=40,38=1,80=1/1,3;
 2/12=2,17=6,18=5,29=3,40=1/2;
 3/5=16,6=1,7=10,11=9,25=1,30=1,71=1/1,2,3;
 4//1;
 5/5=2,38=5/2;
 8/6=4,10=1/1;
 9/15=2,16=-3/6;
 10/5=1/2;
 6/7=2,8=2,9=2,10=2/1;
 7/12=2,29=1/1,2,3,16;
 1/7=10,10=7,18=40,80=1/3(2);
 2/29=3/2;
 99//99;
 2/29=3/2;
 3/5=16,6=1,7=10,11=9,25=1,30=1,71=1/1,2,3;
 4/5=5,16=3,69=1/1;
 5/5=2,38=5/2;
 8/6=4,10=1/1;
 9/15=2,16=-3/6;
 10/5=1/2;
 7/12=2/1,2,3,16;
 1/7=10,18=40,80=1/3(-8);
 2/29=3/2;
 6/7=2,8=2,9=2,10=2/1;
 99/9=10/99;
 -----
 title
 -----
 Symbolic Z-matrix:
 Charge = -1 Multiplicity = 1
 O
 H                    1    r1
 Cl                   1    r2       2    a1
 Br                   1    r3       3    a2       2    d1       0
       Variables:
  r1                    1.01773                  
  r2                    1.685                    
  r3                    3.07067                  
  a1                  103.50791                  
  a2                  106.18684                  
  d1                   -0.00017                  
 

 GradGradGradGradGradGradGradGradGradGradGradGradGradGradGradGradGradGrad
 Berny optimization.
 Initialization pass.
                       ----------------------------
                       !    Initial Parameters    !
                       ! (Angstroms and Degrees)  !
 ----------------------                            ----------------------
 !      Name          Value   Derivative information (Atomic Units)     !
 ------------------------------------------------------------------------
 !       r1          1.0177   estimate D2E/DX2                          !
 !       r2          1.685    estimate D2E/DX2                          !
 !       r3          3.0707   estimate D2E/DX2                          !
 !       a1        103.5079   estimate D2E/DX2                          !
 !       a2        106.1868   estimate D2E/DX2                          !
 !       d1         -0.0002   estimate D2E/DX2                          !
 ------------------------------------------------------------------------
 Trust Radius=3.00D-01 FncErr=1.00D-07 GrdErr=1.00D-07 EigMax=2.50D+02 EigMin=1.00D-04
 Number of steps in this run=     20 maximum allowed number of steps=    100.
 GradGradGradGradGradGradGradGradGradGradGradGradGradGradGradGradGradGrad

 ---------------------------------------------------------------------------------------------------
                            Z-MATRIX (ANGSTROMS AND DEGREES)
   CD    Cent   Atom    N1       Length/X        N2       Alpha/Y        N3        Beta/Z          J
 ---------------------------------------------------------------------------------------------------
      1      1  O 
      2      2  H        1   1.017728(     1)
      3      3  Cl       1   1.685000(     2)      2  103.508(     4)
      4      4  Br       1   3.070672(     3)      3  106.187(     5)      2   -0.000(     6)      0
 ---------------------------------------------------------------------------------------------------
                         Z-Matrix orientation:                         
 ---------------------------------------------------------------------
 Center     Atomic      Atomic             Coordinates (Angstroms)
 Number     Number       Type             X           Y           Z
 ---------------------------------------------------------------------
      1          8           0        0.000000    0.000000    0.000000
      2          1           0        0.000000    0.000000    1.017728
      3         17           0        1.638389    0.000000   -0.393582
      4         35           0       -0.143521   -0.000009    3.067317
 ---------------------------------------------------------------------
                    Distance matrix (angstroms):
                    1          2          3          4
     1  O    0.000000
     2  H    1.017728   0.000000
     3  Cl   1.685000   2.162432   0.000000
     4  Br   3.070672   2.054608   3.892688   0.000000
 Stoichiometry    BrClHO(1-)
 Framework group  C1[X(BrClHO)]
 Deg. of freedom     6
 Full point group                 C1      NOp   1
 Largest Abelian subgroup         C1      NOp   1
 Largest concise Abelian subgroup C1      NOp   1
                         Standard orientation:                         
 ---------------------------------------------------------------------
 Center     Atomic      Atomic             Coordinates (Angstroms)
 Number     Number       Type             X           Y           Z
 ---------------------------------------------------------------------
      1          8           0        1.390624    0.992420   -0.000000
      2          1           0        0.452829    0.597058    0.000003
      3         17           0        2.389766   -0.364393    0.000000
      4         35           0       -1.491538   -0.066907   -0.000000
 ---------------------------------------------------------------------
 Rotational constants (GHZ):          23.9624113           1.2465781           1.1849351
 Standard basis: Aug-CC-pVTZ (5D, 7F)
 There are   208 symmetry adapted cartesian basis functions of A   symmetry.
 There are   178 symmetry adapted basis functions of A   symmetry.
   178 basis functions,   430 primitive gaussians,   208 cartesian basis functions
    31 alpha electrons       31 beta electrons
       nuclear repulsion energy       189.1835816906 Hartrees.
 NAtoms=    4 NActive=    4 NUniq=    4 SFac= 1.00D+00 NAtFMM=   60 NAOKFM=F Big=F
 Integral buffers will be    131072 words long.
 Raffenetti 1 integral format.
 Two-electron integral symmetry is turned on.
 One-electron integrals computed using PRISM.
 NBasis=   178 RedAO= T EigKep=  2.40D-04  NBF=   178
 NBsUse=   178 1.00D-06 EigRej= -1.00D+00 NBFU=   178
 ExpMin= 2.53D-02 ExpMax= 1.06D+07 ExpMxC= 1.21D+04 IAcc=3 IRadAn=         5 AccDes= 0.00D+00
 Harris functional with IExCor=  205 and IRadAn=       5 diagonalized for initial guess.
 HarFok:  IExCor=  205 AccDes= 0.00D+00 IRadAn=         5 IDoV= 1 UseB2=F ITyADJ=14
 ICtDFT=  3500011 ScaDFX=  1.000000  1.000000  1.000000  1.000000
 FoFCou: FMM=F IPFlag=           0 FMFlag=      100000 FMFlg1=           0
         NFxFlg=           0 DoJE=T BraDBF=F KetDBF=T FulRan=T
         wScrn=  0.000000 ICntrl=       500 IOpCl=  0 I1Cent=   200000004 NGrid=           0
         NMat0=    1 NMatS0=      1 NMatT0=    0 NMatD0=    1 NMtDS0=    0 NMtDT0=    0
 Petite list used in FoFCou.
 Keep R1 ints in memory in canonical form, NReq=149454523.
 Requested convergence on RMS density matrix=1.00D-08 within 128 cycles.
 Requested convergence on MAX density matrix=1.00D-06.
 Requested convergence on             energy=1.00D-06.
 No special actions if energy rises.
 SCF Done:  E(RHF) =  -3107.47856270     A.U. after   13 cycles
            NFock= 13  Conv=0.49D-08     -V/T= 2.0000
 ExpMin= 2.53D-02 ExpMax= 1.06D+07 ExpMxC= 1.21D+04 IAcc=3 IRadAn=         5 AccDes= 0.00D+00
 HarFok:  IExCor=  205 AccDes= 0.00D+00 IRadAn=         5 IDoV=-2 UseB2=F ITyADJ=14
 ICtDFT= 12500011 ScaDFX=  1.000000  1.000000  1.000000  1.000000
 Range of M.O.s used for correlation:    16   178
 NBasis=   178 NAE=    31 NBE=    31 NFC=    15 NFV=     0
 NROrb=    163 NOA=    16 NOB=    16 NVA=   147 NVB=   147

 **** Warning!!: The largest alpha MO coefficient is  0.18523133D+02

 Fully direct method using O(ONN) memory.
 JobTyp=1 Pass  1:  I=  16 to  31 NPSUse= 28 ParTrn=T ParDer=T DoDerP=T.
 Spin components of T(2) and E(2):
     alpha-alpha T2 =       0.3036393570D-01 E2=     -0.9425654900D-01
     alpha-beta  T2 =       0.1615788016D+00 E2=     -0.5157576557D+00
     beta-beta   T2 =       0.3036393570D-01 E2=     -0.9425654900D-01
 ANorm=    0.1105579790D+01
 E2 =    -0.7042707537D+00 EUMP2 =    -0.31081828334584D+04
          IDoAtm=1111
          Differentiating once with respect to electric field.
                with respect to dipole field.
          Differentiating once with respect to nuclear coordinates.
 Keep R1 ints in memory in canonical form, NReq=149459506.
          There are     1 degrees of freedom in the 1st order CPHF.  IDoFFX=0 NUNeed=     1.
 LinEq1:  Iter=  0 NonCon=     1 RMS=2.66D-03 Max=4.78D-02 NDo=     1
 AX will form     1 AO Fock derivatives at one time.
 LinEq1:  Iter=  1 NonCon=     1 RMS=4.18D-04 Max=5.01D-03 NDo=     1
 LinEq1:  Iter=  2 NonCon=     1 RMS=1.97D-04 Max=4.25D-03 NDo=     1
 LinEq1:  Iter=  3 NonCon=     1 RMS=6.45D-05 Max=1.12D-03 NDo=     1
 LinEq1:  Iter=  4 NonCon=     1 RMS=2.76D-05 Max=9.34D-04 NDo=     1
 LinEq1:  Iter=  5 NonCon=     1 RMS=9.85D-06 Max=1.64D-04 NDo=     1
 LinEq1:  Iter=  6 NonCon=     1 RMS=2.04D-06 Max=2.43D-05 NDo=     1
 LinEq1:  Iter=  7 NonCon=     1 RMS=4.91D-07 Max=8.97D-06 NDo=     1
 LinEq1:  Iter=  8 NonCon=     1 RMS=1.34D-07 Max=2.05D-06 NDo=     1
 LinEq1:  Iter=  9 NonCon=     1 RMS=3.17D-08 Max=7.24D-07 NDo=     1
 LinEq1:  Iter= 10 NonCon=     1 RMS=8.74D-09 Max=2.39D-07 NDo=     1
 LinEq1:  Iter= 11 NonCon=     1 RMS=2.23D-09 Max=4.68D-08 NDo=     1
 LinEq1:  Iter= 12 NonCon=     1 RMS=4.34D-10 Max=6.41D-09 NDo=     1
 LinEq1:  Iter= 13 NonCon=     1 RMS=1.19D-10 Max=1.65D-09 NDo=     1
 LinEq1:  Iter= 14 NonCon=     0 RMS=2.73D-11 Max=4.10D-10 NDo=     1
 Linear equations converged to 1.000D-10 1.000D-09 after    14 iterations.
 End of Minotr F.D. properties file   721 does not exist.
 End of Minotr F.D. properties file   722 does not exist.
 End of Minotr F.D. properties file   788 does not exist.

 **********************************************************************

            Population analysis using the SCF Density.

 **********************************************************************

 Orbital symmetries:
       Occupied  (A) (A) (A) (A) (A) (A) (A) (A) (A) (A) (A) (A)
                 (A) (A) (A) (A) (A) (A) (A) (A) (A) (A) (A) (A)
                 (A) (A) (A) (A) (A) (A) (A)
       Virtual   (A) (A) (A) (A) (A) (A) (A) (A) (A) (A) (A) (A)
                 (A) (A) (A) (A) (A) (A) (A) (A) (A) (A) (A) (A)
                 (A) (A) (A) (A) (A) (A) (A) (A) (A) (A) (A) (A)
                 (A) (A) (A) (A) (A) (A) (A) (A) (A) (A) (A) (A)
                 (A) (A) (A) (A) (A) (A) (A) (A) (A) (A) (A) (A)
                 (A) (A) (A) (A) (A) (A) (A) (A) (A) (A) (A) (A)
                 (A) (A) (A) (A) (A) (A) (A) (A) (A) (A) (A) (A)
                 (A) (A) (A) (A) (A) (A) (A) (A) (A) (A) (A) (A)
                 (A) (A) (A) (A) (A) (A) (A) (A) (A) (A) (A) (A)
                 (A) (A) (A) (A) (A) (A) (A) (A) (A) (A) (A) (A)
                 (A) (A) (A) (A) (A) (A) (A) (A) (A) (A) (A) (A)
                 (A) (A) (A) (A) (A) (A) (A) (A) (A) (A) (A) (A)
                 (A) (A) (A)
 The electronic state is 1-A.
 Alpha  occ. eigenvalues -- -489.75679-104.73150 -64.89717 -58.25167 -58.25162
 Alpha  occ. eigenvalues --  -58.25162 -20.46128 -10.45102  -9.56971  -7.91818
 Alpha  occ. eigenvalues --   -7.91556  -7.91546  -7.17755  -7.17696  -7.17695
 Alpha  occ. eigenvalues --   -2.91925  -2.91897  -2.91896  -2.91832  -2.91831
 Alpha  occ. eigenvalues --   -1.22753  -0.89556  -0.73250  -0.53806  -0.44177
 Alpha  occ. eigenvalues --   -0.43337  -0.30845  -0.28082  -0.18697  -0.17712
 Alpha  occ. eigenvalues --   -0.17710
 Alpha virt. eigenvalues --    0.15582   0.18129   0.21620   0.22703   0.24078
 Alpha virt. eigenvalues --    0.24473   0.24981   0.28715   0.30473   0.31921
 Alpha virt. eigenvalues --    0.32119   0.32520   0.35913   0.43606   0.43620
 Alpha virt. eigenvalues --    0.47002   0.47963   0.48587   0.50199   0.53957
 Alpha virt. eigenvalues --    0.54164   0.56983   0.59331   0.59851   0.60416
 Alpha virt. eigenvalues --    0.60994   0.65729   0.69598   0.74190   0.74586
 Alpha virt. eigenvalues --    0.75392   0.77845   0.78662   0.84602   0.89007
 Alpha virt. eigenvalues --    0.89763   0.91508   0.94449   0.99734   0.99823
 Alpha virt. eigenvalues --    1.00381   1.01039   1.02181   1.03790   1.06531
 Alpha virt. eigenvalues --    1.08009   1.09099   1.09622   1.11052   1.13279
 Alpha virt. eigenvalues --    1.15492   1.17649   1.18184   1.20701   1.22360
 Alpha virt. eigenvalues --    1.24432   1.28353   1.28947   1.32415   1.32967
 Alpha virt. eigenvalues --    1.37402   1.38992   1.47648   1.50577   1.51350
 Alpha virt. eigenvalues --    1.56991   1.59541   1.63061   1.66916   1.70055
 Alpha virt. eigenvalues --    1.71132   1.78392   1.78762   1.79834   1.89868
 Alpha virt. eigenvalues --    1.97708   2.14901   2.37807   2.40991   2.41365
 Alpha virt. eigenvalues --    2.42038   2.46096   2.50211   2.50732   2.52785
 Alpha virt. eigenvalues --    2.53515   2.54852   2.55128   2.55392   2.55811
 Alpha virt. eigenvalues --    2.58442   2.60531   2.62651   2.64562   2.65979
 Alpha virt. eigenvalues --    2.67535   2.68420   2.68833   2.72129   2.72786
 Alpha virt. eigenvalues --    2.73988   2.75557   2.78421   2.80808   2.81925
 Alpha virt. eigenvalues --    2.89127   3.03157   3.06906   3.09599   3.16512
 Alpha virt. eigenvalues --    3.19913   3.21608   3.25295   3.29456   3.31307
 Alpha virt. eigenvalues --    3.33389   3.53542   3.54791   3.57233   3.93938
 Alpha virt. eigenvalues --    4.18800   4.30717   4.44672   4.53762   4.58914
 Alpha virt. eigenvalues --    4.78112   4.98538   5.02738   5.26293   5.33774
 Alpha virt. eigenvalues --    5.36924   5.65746   6.43202   6.60520   6.84975
 Alpha virt. eigenvalues --    6.90228   6.91633   6.99440   7.27037   7.32807
 Alpha virt. eigenvalues --    7.34552   7.45160   7.55654   7.74156   7.81444
 Alpha virt. eigenvalues --    8.34692  14.56517
          Condensed to atoms (all electrons):
               1          2          3          4
     1  O    8.402694   0.205332  -0.007090  -0.076702
     2  H    0.205332   0.397199  -0.017197   0.067998
     3  Cl  -0.007090  -0.017197  16.968909   0.002010
     4  Br  -0.076702   0.067998   0.002010  35.882497
 Mulliken charges:
               1
     1  O   -0.524234
     2  H    0.346668
     3  Cl   0.053368
     4  Br  -0.875803
 Sum of Mulliken charges =  -1.00000
 Mulliken charges with hydrogens summed into heavy atoms:
               1
     1  O   -0.177566
     3  Cl   0.053368
     4  Br  -0.875803
 Electronic spatial extent (au):  <R**2>=            825.5654
 Charge=             -1.0000 electrons
 Dipole moment (field-independent basis, Debye):
    X=              2.9936    Y=             -0.4691    Z=              0.0000  Tot=              3.0301
 Quadrupole moment (field-independent basis, Debye-Ang):
   XX=            -57.7302   YY=            -43.2952   ZZ=            -42.6185
   XY=             -2.3807   XZ=              0.0000   YZ=              0.0000
 Traceless Quadrupole moment (field-independent basis, Debye-Ang):
   XX=             -9.8489   YY=              4.5861   ZZ=              5.2628
   XY=             -2.3807   XZ=              0.0000   YZ=              0.0000
 Octapole moment (field-independent basis, Debye-Ang**2):
  XXX=            -18.9563  YYY=             -1.6042  ZZZ=             -0.0000  XYY=             -6.7040
  XXY=             -4.2071  XXZ=             -0.0000  XZZ=             -6.7053  YZZ=              0.5292
  YYZ=             -0.0000  XYZ=             -0.0000
 Hexadecapole moment (field-independent basis, Debye-Ang**3):
 XXXX=           -924.0475 YYYY=           -104.1664 ZZZZ=            -58.7776 XXXY=             -7.7289
 XXXZ=              0.0000 YYYX=             -2.9014 YYYZ=              0.0000 ZZZX=              0.0000
 ZZZY=              0.0000 XXYY=           -160.7707 XXZZ=           -160.0431 YYZZ=            -27.7093
 XXYZ=             -0.0000 YYXZ=              0.0000 ZZXY=              2.0522
 N-N= 1.891835816906D+02 E-N=-7.820862165937D+03  KE= 3.107330090911D+03
 Calling FoFJK, ICntrl=  10002127 FMM=F ISym2X=0 I1Cent= 0 IOpClX= 0 NMat=1 NMatS=1 NMatT=0.
 ***** Axes restored to original set *****
 -------------------------------------------------------------------
 Center     Atomic                   Forces (Hartrees/Bohr)
 Number     Number              X              Y              Z
 -------------------------------------------------------------------
      1        8          -0.000095120    0.000000079    0.000026126
      2        1          -0.000029397   -0.000000125   -0.000060114
      3       17           0.000070214    0.000000003    0.000063945
      4       35           0.000054304    0.000000042   -0.000029957
 -------------------------------------------------------------------
 Cartesian Forces:  Max     0.000095120 RMS     0.000047499
 -----------------------------------------------------------------------------------------------
                       Internal Coordinate Forces (Hartree/Bohr or radian)
  Cent   Atom   N1       Length/X         N2         Alpha/Y        N3         Beta/Z          J
 -----------------------------------------------------------------------------------------------
      1  O 
      2  H        1  -0.000060(     1)
      3  Cl       1   0.000053(     2)      2   0.000056(     4)
      4  Br       1  -0.000032(     3)      3  -0.000307(     5)      2   0.000000(     6)     0
 -----------------------------------------------------------------------------------------------
 Internal  Forces:  Max     0.000306643 RMS     0.000132116

 GradGradGradGradGradGradGradGradGradGradGradGradGradGradGradGradGradGrad
 Berny optimization.
 Search for a local minimum.
 Step number   1 out of a maximum of   20
 All quantities printed in internal units (Hartrees-Bohrs-Radians)
 Second derivative matrix not updated -- first step.
 The second derivative matrix:
                          r1        r2        r3        a1        a2
           r1           0.44703
           r2          -0.00000   0.37758
           r3          -0.00000   0.00000   0.02136
           a1           0.00000  -0.00000  -0.00000   0.32000
           a2          -0.00000   0.00000   0.00000  -0.16000   0.41000
           d1           0.00000  -0.00000  -0.00000   0.00001  -0.00001
                          d1
           d1           0.04150
 ITU=  0
     Eigenvalues ---    0.02136   0.04150   0.19879   0.37758   0.44703
     Eigenvalues ---    0.53121
 RFO step:  Lambda=-3.09825494D-07 EMin= 2.13558193D-02
 Linear search not attempted -- first point.
 Variable       Old X    -DE/DX   Delta X   Delta X   Delta X     New X
                                 (Linear)    (Quad)   (Total)
    r1        1.92323  -0.00006   0.00000  -0.00013  -0.00013   1.92309
    r2        3.18419   0.00005   0.00000   0.00014   0.00014   3.18433
    r3        5.80273  -0.00003   0.00000  -0.00152  -0.00152   5.80121
    a1        1.80655   0.00006   0.00000  -0.00025  -0.00025   1.80631
    a2        1.85331  -0.00031   0.00000  -0.00084  -0.00084   1.85247
    d1       -0.00000   0.00000   0.00000   0.00001   0.00001   0.00000
         Item               Value     Threshold  Converged?
 Maximum Force            0.000307     0.000015     NO 
 RMS     Force            0.000132     0.000010     NO 
 Maximum Displacement     0.001520     0.000060     NO 
 RMS     Displacement     0.000721     0.000040     NO 
 Predicted change in Energy=-1.549127D-07
 GradGradGradGradGradGradGradGradGradGradGradGradGradGradGradGradGradGrad

 ---------------------------------------------------------------------------------------------------
                            Z-MATRIX (ANGSTROMS AND DEGREES)
   CD    Cent   Atom    N1       Length/X        N2       Alpha/Y        N3        Beta/Z          J
 ---------------------------------------------------------------------------------------------------
      1      1  O 
      2      2  H        1   1.017656(     1)
      3      3  Cl       1   1.685075(     2)      2  103.494(     4)
      4      4  Br       1   3.069868(     3)      3  106.138(     5)      2    0.000(     6)      0
 ---------------------------------------------------------------------------------------------------
                         Z-Matrix orientation:                         
 ---------------------------------------------------------------------
 Center     Atomic      Atomic             Coordinates (Angstroms)
 Number     Number       Type             X           Y           Z
 ---------------------------------------------------------------------
      1          8           0        0.000000    0.000000    0.000000
      2          1           0        0.000000    0.000000    1.017656
      3         17           0        1.638558    0.000000   -0.393197
      4         35           0       -0.141648    0.000007    3.066598
 ---------------------------------------------------------------------
                    Distance matrix (angstroms):
                    1          2          3          4
     1  O    0.000000
     2  H    1.017656   0.000000
     3  Cl   1.685075   2.162263   0.000000
     4  Br   3.069868   2.053832   3.890928   0.000000
 Stoichiometry    BrClHO(1-)
 Framework group  C1[X(BrClHO)]
 Deg. of freedom     6
 Full point group                 C1      NOp   1
 Largest Abelian subgroup         C1      NOp   1
 Largest concise Abelian subgroup C1      NOp   1
                         Standard orientation:                         
 ---------------------------------------------------------------------
 Center     Atomic      Atomic             Coordinates (Angstroms)
 Number     Number       Type             X           Y           Z
 ---------------------------------------------------------------------
      1          8           0        1.390246    0.992858    0.000000
      2          1           0        0.452382    0.597845   -0.000002
      3         17           0        2.388634   -0.364603    0.000000
      4         35           0       -1.490890   -0.066927    0.000000
 ---------------------------------------------------------------------
 Rotational constants (GHZ):          23.9392656           1.2476797           1.1858736
 Standard basis: Aug-CC-pVTZ (5D, 7F)
 There are   208 symmetry adapted cartesian basis functions of A   symmetry.
 There are   178 symmetry adapted basis functions of A   symmetry.
   178 basis functions,   430 primitive gaussians,   208 cartesian basis functions
    31 alpha electrons       31 beta electrons
       nuclear repulsion energy       189.2349370597 Hartrees.
 NAtoms=    4 NActive=    4 NUniq=    4 SFac= 1.00D+00 NAtFMM=   60 NAOKFM=F Big=F
 Integral buffers will be    131072 words long.
 Raffenetti 1 integral format.
 Two-electron integral symmetry is turned on.
 One-electron integrals computed using PRISM.
 NBasis=   178 RedAO= T EigKep=  2.40D-04  NBF=   178
 NBsUse=   178 1.00D-06 EigRej= -1.00D+00 NBFU=   178
 Initial guess from the checkpoint file:  "/gscratch/ilahie/abmccoy/hocl/br_hocl_tz.chk"
 B after Tr=    -0.000000   -0.000000   -0.000000
         Rot=    1.000000   -0.000000   -0.000000    0.000011 Ang=   0.00 deg.
 Keep R1 ints in memory in canonical form, NReq=149454567.
 Requested convergence on RMS density matrix=1.00D-08 within 128 cycles.
 Requested convergence on MAX density matrix=1.00D-06.
 Requested convergence on             energy=1.00D-06.
 No special actions if energy rises.
 SCF Done:  E(RHF) =  -3107.47854681     A.U. after    8 cycles
            NFock=  8  Conv=0.71D-08     -V/T= 2.0000
 ExpMin= 2.53D-02 ExpMax= 1.06D+07 ExpMxC= 1.21D+04 IAcc=3 IRadAn=         5 AccDes= 0.00D+00
 HarFok:  IExCor=  205 AccDes= 0.00D+00 IRadAn=         5 IDoV=-2 UseB2=F ITyADJ=14
 ICtDFT= 12500011 ScaDFX=  1.000000  1.000000  1.000000  1.000000
 Range of M.O.s used for correlation:    16   178
 NBasis=   178 NAE=    31 NBE=    31 NFC=    15 NFV=     0
 NROrb=    163 NOA=    16 NOB=    16 NVA=   147 NVB=   147

 **** Warning!!: The largest alpha MO coefficient is  0.18273083D+02

 Fully direct method using O(ONN) memory.
 JobTyp=1 Pass  1:  I=  16 to  31 NPSUse= 28 ParTrn=T ParDer=T DoDerP=T.
 Spin components of T(2) and E(2):
     alpha-alpha T2 =       0.3036518378D-01 E2=     -0.9426003316D-01
     alpha-beta  T2 =       0.1615813181D+00 E2=     -0.5157668232D+00
     beta-beta   T2 =       0.3036518378D-01 E2=     -0.9426003316D-01
 ANorm=    0.1105582057D+01
 E2 =    -0.7042868895D+00 EUMP2 =    -0.31081828336964D+04
          IDoAtm=1111
          Differentiating once with respect to electric field.
                with respect to dipole field.
          Differentiating once with respect to nuclear coordinates.
 Keep R1 ints in memory in canonical form, NReq=149459550.
          There are     1 degrees of freedom in the 1st order CPHF.  IDoFFX=0 NUNeed=     1.
 LinEq1:  Iter=  0 NonCon=     1 RMS=2.66D-03 Max=4.77D-02 NDo=     1
 AX will form     1 AO Fock derivatives at one time.
 LinEq1:  Iter=  1 NonCon=     1 RMS=4.19D-04 Max=5.01D-03 NDo=     1
 LinEq1:  Iter=  2 NonCon=     1 RMS=1.97D-04 Max=4.26D-03 NDo=     1
 LinEq1:  Iter=  3 NonCon=     1 RMS=6.45D-05 Max=1.12D-03 NDo=     1
 LinEq1:  Iter=  4 NonCon=     1 RMS=2.76D-05 Max=9.34D-04 NDo=     1
 LinEq1:  Iter=  5 NonCon=     1 RMS=9.86D-06 Max=1.64D-04 NDo=     1
 LinEq1:  Iter=  6 NonCon=     1 RMS=2.04D-06 Max=2.42D-05 NDo=     1
 LinEq1:  Iter=  7 NonCon=     1 RMS=4.91D-07 Max=8.98D-06 NDo=     1
 LinEq1:  Iter=  8 NonCon=     1 RMS=1.34D-07 Max=2.05D-06 NDo=     1
 LinEq1:  Iter=  9 NonCon=     1 RMS=3.16D-08 Max=7.20D-07 NDo=     1
 LinEq1:  Iter= 10 NonCon=     1 RMS=8.71D-09 Max=2.39D-07 NDo=     1
 LinEq1:  Iter= 11 NonCon=     1 RMS=2.22D-09 Max=4.70D-08 NDo=     1
 LinEq1:  Iter= 12 NonCon=     1 RMS=4.34D-10 Max=6.40D-09 NDo=     1
 LinEq1:  Iter= 13 NonCon=     1 RMS=1.19D-10 Max=1.65D-09 NDo=     1
 LinEq1:  Iter= 14 NonCon=     0 RMS=2.73D-11 Max=4.09D-10 NDo=     1
 Linear equations converged to 1.000D-10 1.000D-09 after    14 iterations.
 End of Minotr F.D. properties file   721 does not exist.
 End of Minotr F.D. properties file   722 does not exist.
 End of Minotr F.D. properties file   788 does not exist.
 Calling FoFJK, ICntrl=  10002127 FMM=F ISym2X=0 I1Cent= 0 IOpClX= 0 NMat=1 NMatS=1 NMatT=0.
 ***** Axes restored to original set *****
 -------------------------------------------------------------------
 Center     Atomic                   Forces (Hartrees/Bohr)
 Number     Number              X              Y              Z
 -------------------------------------------------------------------
      1        8          -0.000053136   -0.000000067   -0.000081762
      2        1          -0.000022524    0.000000104    0.000000838
      3       17           0.000032710   -0.000000003    0.000060327
      4       35           0.000042950   -0.000000035    0.000020597
 -------------------------------------------------------------------
 Cartesian Forces:  Max     0.000081762 RMS     0.000037633
 -----------------------------------------------------------------------------------------------
                       Internal Coordinate Forces (Hartree/Bohr or radian)
  Cent   Atom   N1       Length/X         N2         Alpha/Y        N3         Beta/Z          J
 -----------------------------------------------------------------------------------------------
      1  O 
      2  H        1   0.000001(     1)
      3  Cl       1   0.000018(     2)      2   0.000043(     4)
      4  Br       1   0.000019(     3)      3  -0.000254(     5)      2  -0.000000(     6)     0
 -----------------------------------------------------------------------------------------------
 Internal  Forces:  Max     0.000254411 RMS     0.000105878

 GradGradGradGradGradGradGradGradGradGradGradGradGradGradGradGradGradGrad
 Berny optimization.
 Search for a local minimum.
 Step number   2 out of a maximum of   20
 All quantities printed in internal units (Hartrees-Bohrs-Radians)
 Update second derivatives using D2CorN and points    1    2
 DE= -2.38D-07 DEPred=-1.55D-07 R= 1.54D+00
 Trust test= 1.54D+00 RLast= 1.77D-03 DXMaxT set to 3.00D-01
 The second derivative matrix:
                          r1        r2        r3        a1        a2
           r1           0.44706
           r2           0.00036   0.37678
           r3           0.00060   0.00390   0.03041
           a1           0.00097  -0.00028   0.01128   0.32341
           a2          -0.00537   0.00815  -0.05945  -0.16415   0.34122
           d1          -0.00000  -0.00001  -0.00006  -0.00004   0.00019
                          d1
           d1           0.04150
 ITU=  0  0
     Eigenvalues ---    0.01779   0.04150   0.17480   0.37669   0.44672
     Eigenvalues ---    0.50288
 RFO step:  Lambda=-2.51200489D-07 EMin= 1.77886273D-02
 Quartic linear search produced a step of  2.00000.
 Variable       Old X    -DE/DX   Delta X   Delta X   Delta X     New X
                                 (Linear)    (Quad)   (Total)
    r1        1.92309   0.00000  -0.00027   0.00026  -0.00001   1.92308
    r2        3.18433   0.00002   0.00028  -0.00015   0.00013   3.18446
    r3        5.80121   0.00002  -0.00304   0.00238  -0.00066   5.80055
    a1        1.80631   0.00004  -0.00049  -0.00013  -0.00062   1.80569
    a2        1.85247  -0.00025  -0.00169  -0.00014  -0.00183   1.85063
    d1        0.00000  -0.00000   0.00001  -0.00002  -0.00001  -0.00000
         Item               Value     Threshold  Converged?
 Maximum Force            0.000254     0.000015     NO 
 RMS     Force            0.000106     0.000010     NO 
 Maximum Displacement     0.001832     0.000060     NO 
 RMS     Displacement     0.000835     0.000040     NO 
 Predicted change in Energy=-4.041974D-08
 GradGradGradGradGradGradGradGradGradGradGradGradGradGradGradGradGradGrad

 ---------------------------------------------------------------------------------------------------
                            Z-MATRIX (ANGSTROMS AND DEGREES)
   CD    Cent   Atom    N1       Length/X        N2       Alpha/Y        N3        Beta/Z          J
 ---------------------------------------------------------------------------------------------------
      1      1  O 
      2      2  H        1   1.017653(     1)
      3      3  Cl       1   1.685143(     2)      2  103.459(     4)
      4      4  Br       1   3.069520(     3)      3  106.034(     5)      2   -0.000(     6)      0
 ---------------------------------------------------------------------------------------------------
                         Z-Matrix orientation:                         
 ---------------------------------------------------------------------
 Center     Atomic      Atomic             Coordinates (Angstroms)
 Number     Number       Type             X           Y           Z
 ---------------------------------------------------------------------
      1          8           0        0.000000    0.000000    0.000000
      2          1           0        0.000000    0.000000    1.017653
      3         17           0        1.638866    0.000000   -0.392203
      4         35           0       -0.137905   -0.000012    3.066421
 ---------------------------------------------------------------------
                    Distance matrix (angstroms):
                    1          2          3          4
     1  O    0.000000
     2  H    1.017653   0.000000
     3  Cl   1.685143   2.161845   0.000000
     4  Br   3.069520   2.053404   3.888315   0.000000
 Stoichiometry    BrClHO(1-)
 Framework group  C1[X(BrClHO)]
 Deg. of freedom     6
 Full point group                 C1      NOp   1
 Largest Abelian subgroup         C1      NOp   1
 Largest concise Abelian subgroup C1      NOp   1
                         Standard orientation:                         
 ---------------------------------------------------------------------
 Center     Atomic      Atomic             Coordinates (Angstroms)
 Number     Number       Type             X           Y           Z
 ---------------------------------------------------------------------
      1          8           0        1.390373    0.993821   -0.000000
      2          1           0        0.452182    0.599595    0.000004
      3         17           0        2.386828   -0.365144    0.000000
      4         35           0       -1.490035   -0.066935   -0.000000
 ---------------------------------------------------------------------
 Rotational constants (GHZ):          23.8865993           1.2492098           1.1871261
 Standard basis: Aug-CC-pVTZ (5D, 7F)
 There are   208 symmetry adapted cartesian basis functions of A   symmetry.
 There are   178 symmetry adapted basis functions of A   symmetry.
   178 basis functions,   430 primitive gaussians,   208 cartesian basis functions
    31 alpha electrons       31 beta electrons
       nuclear repulsion energy       189.2957379875 Hartrees.
 NAtoms=    4 NActive=    4 NUniq=    4 SFac= 1.00D+00 NAtFMM=   60 NAOKFM=F Big=F
 Integral buffers will be    131072 words long.
 Raffenetti 1 integral format.
 Two-electron integral symmetry is turned on.
 One-electron integrals computed using PRISM.
 NBasis=   178 RedAO= T EigKep=  2.40D-04  NBF=   178
 NBsUse=   178 1.00D-06 EigRej= -1.00D+00 NBFU=   178
 Initial guess from the checkpoint file:  "/gscratch/ilahie/abmccoy/hocl/br_hocl_tz.chk"
 B after Tr=     0.000000    0.000000    0.000000
         Rot=    1.000000    0.000000    0.000000    0.000050 Ang=   0.01 deg.
 Keep R1 ints in memory in canonical form, NReq=149454567.
 Requested convergence on RMS density matrix=1.00D-08 within 128 cycles.
 Requested convergence on MAX density matrix=1.00D-06.
 Requested convergence on             energy=1.00D-06.
 No special actions if energy rises.
 SCF Done:  E(RHF) =  -3107.47853000     A.U. after    9 cycles
            NFock=  9  Conv=0.27D-08     -V/T= 2.0000
 ExpMin= 2.53D-02 ExpMax= 1.06D+07 ExpMxC= 1.21D+04 IAcc=3 IRadAn=         5 AccDes= 0.00D+00
 HarFok:  IExCor=  205 AccDes= 0.00D+00 IRadAn=         5 IDoV=-2 UseB2=F ITyADJ=14
 ICtDFT= 12500011 ScaDFX=  1.000000  1.000000  1.000000  1.000000
 Range of M.O.s used for correlation:    16   178
 NBasis=   178 NAE=    31 NBE=    31 NFC=    15 NFV=     0
 NROrb=    163 NOA=    16 NOB=    16 NVA=   147 NVB=   147

 **** Warning!!: The largest alpha MO coefficient is  0.17902038D+02

 Fully direct method using O(ONN) memory.
 JobTyp=1 Pass  1:  I=  16 to  31 NPSUse= 28 ParTrn=T ParDer=T DoDerP=T.
 Spin components of T(2) and E(2):
     alpha-alpha T2 =       0.3036666464D-01 E2=     -0.9426342852D-01
     alpha-beta  T2 =       0.1615858544D+00 E2=     -0.5157771722D+00
     beta-beta   T2 =       0.3036666464D-01 E2=     -0.9426342852D-01
 ANorm=    0.1105585448D+01
 E2 =    -0.7043040292D+00 EUMP2 =    -0.31081828340299D+04
          IDoAtm=1111
          Differentiating once with respect to electric field.
                with respect to dipole field.
          Differentiating once with respect to nuclear coordinates.
 Keep R1 ints in memory in canonical form, NReq=149459550.
          There are     1 degrees of freedom in the 1st order CPHF.  IDoFFX=0 NUNeed=     1.
 LinEq1:  Iter=  0 NonCon=     1 RMS=2.66D-03 Max=4.77D-02 NDo=     1
 AX will form     1 AO Fock derivatives at one time.
 LinEq1:  Iter=  1 NonCon=     1 RMS=4.19D-04 Max=5.01D-03 NDo=     1
 LinEq1:  Iter=  2 NonCon=     1 RMS=1.97D-04 Max=4.26D-03 NDo=     1
 LinEq1:  Iter=  3 NonCon=     1 RMS=6.46D-05 Max=1.12D-03 NDo=     1
 LinEq1:  Iter=  4 NonCon=     1 RMS=2.76D-05 Max=9.35D-04 NDo=     1
 LinEq1:  Iter=  5 NonCon=     1 RMS=9.86D-06 Max=1.64D-04 NDo=     1
 LinEq1:  Iter=  6 NonCon=     1 RMS=2.04D-06 Max=2.43D-05 NDo=     1
 LinEq1:  Iter=  7 NonCon=     1 RMS=4.91D-07 Max=8.97D-06 NDo=     1
 LinEq1:  Iter=  8 NonCon=     1 RMS=1.34D-07 Max=2.05D-06 NDo=     1
 LinEq1:  Iter=  9 NonCon=     1 RMS=3.17D-08 Max=7.23D-07 NDo=     1
 LinEq1:  Iter= 10 NonCon=     1 RMS=8.74D-09 Max=2.39D-07 NDo=     1
 LinEq1:  Iter= 11 NonCon=     1 RMS=2.23D-09 Max=4.69D-08 NDo=     1
 LinEq1:  Iter= 12 NonCon=     1 RMS=4.35D-10 Max=6.42D-09 NDo=     1
 LinEq1:  Iter= 13 NonCon=     1 RMS=1.20D-10 Max=1.65D-09 NDo=     1
 LinEq1:  Iter= 14 NonCon=     0 RMS=2.73D-11 Max=4.10D-10 NDo=     1
 Linear equations converged to 1.000D-10 1.000D-09 after    14 iterations.
 End of Minotr F.D. properties file   721 does not exist.
 End of Minotr F.D. properties file   722 does not exist.
 End of Minotr F.D. properties file   788 does not exist.
 Calling FoFJK, ICntrl=  10002127 FMM=F ISym2X=0 I1Cent= 0 IOpClX= 0 NMat=1 NMatS=1 NMatT=0.
 ***** Axes restored to original set *****
 -------------------------------------------------------------------
 Center     Atomic                   Forces (Hartrees/Bohr)
 Number     Number              X              Y              Z
 -------------------------------------------------------------------
      1        8          -0.000005621    0.000000109   -0.000099360
      2        1          -0.000027790   -0.000000170    0.000018477
      3       17           0.000007402    0.000000005    0.000033611
      4       35           0.000026009    0.000000057    0.000047272
 -------------------------------------------------------------------
 Cartesian Forces:  Max     0.000099360 RMS     0.000035489
 -----------------------------------------------------------------------------------------------
                       Internal Coordinate Forces (Hartree/Bohr or radian)
  Cent   Atom   N1       Length/X         N2         Alpha/Y        N3         Beta/Z          J
 -----------------------------------------------------------------------------------------------
      1  O 
      2  H        1   0.000018(     1)
      3  Cl       1  -0.000001(     2)      2   0.000053(     4)
      4  Br       1   0.000046(     3)      3  -0.000163(     5)      2   0.000000(     6)     0
 -----------------------------------------------------------------------------------------------
 Internal  Forces:  Max     0.000163033 RMS     0.000072916

 GradGradGradGradGradGradGradGradGradGradGradGradGradGradGradGradGradGrad
 Berny optimization.
 Search for a local minimum.
 Step number   3 out of a maximum of   20
 All quantities printed in internal units (Hartrees-Bohrs-Radians)
 Update second derivatives using D2CorN and points    1    2    3
 DE= -3.33D-07 DEPred=-4.04D-08 R= 8.25D+00
 Trust test= 8.25D+00 RLast= 2.05D-03 DXMaxT set to 3.00D-01
 The second derivative matrix:
                          r1        r2        r3        a1        a2
           r1           0.44740
           r2          -0.00014   0.37639
           r3           0.00554   0.00176   0.07824
           a1           0.00418  -0.00248   0.04478   0.34602
           a2          -0.00104   0.01818  -0.07113  -0.16015   0.15726
           d1           0.00001  -0.00001   0.00002   0.00004   0.00001
                          d1
           d1           0.04150
 ITU=  0  0  0
     Eigenvalues ---    0.02526   0.04150   0.10313   0.37551   0.44468
     Eigenvalues ---    0.45673
 RFO step:  Lambda=-1.03433181D-07 EMin= 2.52631652D-02
 Quartic linear search produced a step of  1.12098.
 Variable       Old X    -DE/DX   Delta X   Delta X   Delta X     New X
                                 (Linear)    (Quad)   (Total)
    r1        1.92308   0.00002  -0.00001   0.00007   0.00006   1.92314
    r2        3.18446  -0.00000   0.00014  -0.00009   0.00005   3.18451
    r3        5.80055   0.00005  -0.00074   0.00140   0.00066   5.80121
    a1        1.80569   0.00005  -0.00069   0.00029  -0.00040   1.80529
    a2        1.85063  -0.00016  -0.00205   0.00060  -0.00145   1.84918
    d1       -0.00000   0.00000  -0.00001   0.00002   0.00001   0.00001
         Item               Value     Threshold  Converged?
 Maximum Force            0.000163     0.000015     NO 
 RMS     Force            0.000073     0.000010     NO 
 Maximum Displacement     0.001450     0.000060     NO 
 RMS     Displacement     0.000671     0.000040     NO 
 Predicted change in Energy=-7.282851D-08
 GradGradGradGradGradGradGradGradGradGradGradGradGradGradGradGradGradGrad

 ---------------------------------------------------------------------------------------------------
                            Z-MATRIX (ANGSTROMS AND DEGREES)
   CD    Cent   Atom    N1       Length/X        N2       Alpha/Y        N3        Beta/Z          J
 ---------------------------------------------------------------------------------------------------
      1      1  O 
      2      2  H        1   1.017684(     1)
      3      3  Cl       1   1.685171(     2)      2  103.436(     4)
      4      4  Br       1   3.069869(     3)      3  105.950(     5)      2    0.001(     6)      0
 ---------------------------------------------------------------------------------------------------
                         Z-Matrix orientation:                         
 ---------------------------------------------------------------------
 Center     Atomic      Atomic             Coordinates (Angstroms)
 Number     Number       Type             X           Y           Z
 ---------------------------------------------------------------------
      1          8           0        0.000000    0.000000    0.000000
      2          1           0        0.000000    0.000000    1.017684
      3         17           0        1.639050    0.000000   -0.391555
      4         35           0       -0.134697    0.000028    3.066913
 ---------------------------------------------------------------------
                    Distance matrix (angstroms):
                    1          2          3          4
     1  O    0.000000
     2  H    1.017684   0.000000
     3  Cl   1.685171   2.161583   0.000000
     4  Br   3.069869   2.053651   3.886796   0.000000
 Stoichiometry    BrClHO(1-)
 Framework group  C1[X(BrClHO)]
 Deg. of freedom     6
 Full point group                 C1      NOp   1
 Largest Abelian subgroup         C1      NOp   1
 Largest concise Abelian subgroup C1      NOp   1
                         Standard orientation:                         
 ---------------------------------------------------------------------
 Center     Atomic      Atomic             Coordinates (Angstroms)
 Number     Number       Type             X           Y           Z
 ---------------------------------------------------------------------
      1          8           0        1.390891    0.994593    0.000001
      2          1           0        0.452345    0.601132   -0.000009
      3         17           0        2.385694   -0.365615    0.000000
      4         35           0       -1.489608   -0.066926    0.000000
 ---------------------------------------------------------------------
 Rotational constants (GHZ):          23.8433871           1.2500320           1.1877615
 Standard basis: Aug-CC-pVTZ (5D, 7F)
 There are   208 symmetry adapted cartesian basis functions of A   symmetry.
 There are   178 symmetry adapted basis functions of A   symmetry.
   178 basis functions,   430 primitive gaussians,   208 cartesian basis functions
    31 alpha electrons       31 beta electrons
       nuclear repulsion energy       189.3204973109 Hartrees.
 NAtoms=    4 NActive=    4 NUniq=    4 SFac= 1.00D+00 NAtFMM=   60 NAOKFM=F Big=F
 Integral buffers will be    131072 words long.
 Raffenetti 1 integral format.
 Two-electron integral symmetry is turned on.
 One-electron integrals computed using PRISM.
 NBasis=   178 RedAO= T EigKep=  2.40D-04  NBF=   178
 NBsUse=   178 1.00D-06 EigRej= -1.00D+00 NBFU=   178
 Initial guess from the checkpoint file:  "/gscratch/ilahie/abmccoy/hocl/br_hocl_tz.chk"
 B after Tr=    -0.000000   -0.000000   -0.000000
         Rot=    1.000000   -0.000000   -0.000000    0.000051 Ang=   0.01 deg.
 Keep R1 ints in memory in canonical form, NReq=149454611.
 Requested convergence on RMS density matrix=1.00D-08 within 128 cycles.
 Requested convergence on MAX density matrix=1.00D-06.
 Requested convergence on             energy=1.00D-06.
 No special actions if energy rises.
 SCF Done:  E(RHF) =  -3107.47852679     A.U. after    9 cycles
            NFock=  9  Conv=0.23D-08     -V/T= 2.0000
 ExpMin= 2.53D-02 ExpMax= 1.06D+07 ExpMxC= 1.21D+04 IAcc=3 IRadAn=         5 AccDes= 0.00D+00
 HarFok:  IExCor=  205 AccDes= 0.00D+00 IRadAn=         5 IDoV=-2 UseB2=F ITyADJ=14
 ICtDFT= 12500011 ScaDFX=  1.000000  1.000000  1.000000  1.000000
 Range of M.O.s used for correlation:    16   178
 NBasis=   178 NAE=    31 NBE=    31 NFC=    15 NFV=     0
 NROrb=    163 NOA=    16 NOB=    16 NVA=   147 NVB=   147

 **** Warning!!: The largest alpha MO coefficient is  0.17703068D+02

 Fully direct method using O(ONN) memory.
 JobTyp=1 Pass  1:  I=  16 to  31 NPSUse= 28 ParTrn=T ParDer=T DoDerP=T.
 Spin components of T(2) and E(2):
     alpha-alpha T2 =       0.3036707139D-01 E2=     -0.9426375754D-01
     alpha-beta  T2 =       0.1615885489D+00 E2=     -0.5157799100D+00
     beta-beta   T2 =       0.3036707139D-01 E2=     -0.9426375754D-01
 ANorm=    0.1105587035D+01
 E2 =    -0.7043074251D+00 EUMP2 =    -0.31081828342199D+04
          IDoAtm=1111
          Differentiating once with respect to electric field.
                with respect to dipole field.
          Differentiating once with respect to nuclear coordinates.
 Keep R1 ints in memory in canonical form, NReq=149459550.
          There are     1 degrees of freedom in the 1st order CPHF.  IDoFFX=0 NUNeed=     1.
 LinEq1:  Iter=  0 NonCon=     1 RMS=2.66D-03 Max=4.77D-02 NDo=     1
 AX will form     1 AO Fock derivatives at one time.
 LinEq1:  Iter=  1 NonCon=     1 RMS=4.19D-04 Max=5.01D-03 NDo=     1
 LinEq1:  Iter=  2 NonCon=     1 RMS=1.97D-04 Max=4.26D-03 NDo=     1
 LinEq1:  Iter=  3 NonCon=     1 RMS=6.46D-05 Max=1.12D-03 NDo=     1
 LinEq1:  Iter=  4 NonCon=     1 RMS=2.76D-05 Max=9.35D-04 NDo=     1
 LinEq1:  Iter=  5 NonCon=     1 RMS=9.86D-06 Max=1.64D-04 NDo=     1
 LinEq1:  Iter=  6 NonCon=     1 RMS=2.04D-06 Max=2.43D-05 NDo=     1
 LinEq1:  Iter=  7 NonCon=     1 RMS=4.91D-07 Max=8.96D-06 NDo=     1
 LinEq1:  Iter=  8 NonCon=     1 RMS=1.35D-07 Max=2.06D-06 NDo=     1
 LinEq1:  Iter=  9 NonCon=     1 RMS=3.18D-08 Max=7.30D-07 NDo=     1
 LinEq1:  Iter= 10 NonCon=     1 RMS=8.79D-09 Max=2.40D-07 NDo=     1
 LinEq1:  Iter= 11 NonCon=     1 RMS=2.24D-09 Max=4.66D-08 NDo=     1
 LinEq1:  Iter= 12 NonCon=     1 RMS=4.36D-10 Max=6.44D-09 NDo=     1
 LinEq1:  Iter= 13 NonCon=     1 RMS=1.20D-10 Max=1.66D-09 NDo=     1
 LinEq1:  Iter= 14 NonCon=     0 RMS=2.73D-11 Max=4.10D-10 NDo=     1
 Linear equations converged to 1.000D-10 1.000D-09 after    14 iterations.
 End of Minotr F.D. properties file   721 does not exist.
 End of Minotr F.D. properties file   722 does not exist.
 End of Minotr F.D. properties file   788 does not exist.
 Calling FoFJK, ICntrl=  10002127 FMM=F ISym2X=0 I1Cent= 0 IOpClX= 0 NMat=1 NMatS=1 NMatT=0.
 ***** Axes restored to original set *****
 -------------------------------------------------------------------
 Center     Atomic                   Forces (Hartrees/Bohr)
 Number     Number              X              Y              Z
 -------------------------------------------------------------------
      1        8           0.000009329   -0.000000255   -0.000047828
      2        1          -0.000022215    0.000000400    0.000000358
      3       17          -0.000001162   -0.000000011    0.000015403
      4       35           0.000014048   -0.000000134    0.000032067
 -------------------------------------------------------------------
 Cartesian Forces:  Max     0.000047828 RMS     0.000019002
 -----------------------------------------------------------------------------------------------
                       Internal Coordinate Forces (Hartree/Bohr or radian)
  Cent   Atom   N1       Length/X         N2         Alpha/Y        N3         Beta/Z          J
 -----------------------------------------------------------------------------------------------
      1  O 
      2  H        1   0.000000(     1)
      3  Cl       1  -0.000005(     2)      2   0.000043(     4)
      4  Br       1   0.000031(     3)      3  -0.000090(     5)      2  -0.000001(     6)     0
 -----------------------------------------------------------------------------------------------
 Internal  Forces:  Max     0.000089580 RMS     0.000042546

 GradGradGradGradGradGradGradGradGradGradGradGradGradGradGradGradGradGrad
 Berny optimization.
 Search for a local minimum.
 Step number   4 out of a maximum of   20
 All quantities printed in internal units (Hartrees-Bohrs-Radians)
 Update second derivatives using D2CorN and points    1    2    3    4
 DE= -1.90D-07 DEPred=-7.28D-08 R= 2.61D+00
 Trust test= 2.61D+00 RLast= 1.64D-03 DXMaxT set to 3.00D-01
 The second derivative matrix:
                          r1        r2        r3        a1        a2
           r1           0.44725
           r2          -0.00035   0.37686
           r3           0.00452  -0.00087   0.07300
           a1           0.00488  -0.00672   0.05710   0.37788
           a2           0.00485   0.01584  -0.01196  -0.11780   0.07850
           d1          -0.00001   0.00003  -0.00022  -0.00032  -0.00004
                          d1
           d1           0.04151
 ITU=  0  0  0  0
     Eigenvalues ---    0.03530   0.04151   0.06536   0.37487   0.42981
     Eigenvalues ---    0.44816
 RFO step:  Lambda= 0.00000000D+00 EMin= 3.53012141D-02
 Quartic linear search produced a step of  1.17286.
 Variable       Old X    -DE/DX   Delta X   Delta X   Delta X     New X
                                 (Linear)    (Quad)   (Total)
    r1        1.92314   0.00000   0.00007  -0.00005   0.00002   1.92316
    r2        3.18451  -0.00000   0.00006  -0.00003   0.00003   3.18454
    r3        5.80121   0.00003   0.00077   0.00014   0.00091   5.80212
    a1        1.80529   0.00004  -0.00047   0.00011  -0.00036   1.80493
    a2        1.84918  -0.00009  -0.00170   0.00015  -0.00155   1.84763
    d1        0.00001  -0.00000   0.00002  -0.00005  -0.00003  -0.00002
         Item               Value     Threshold  Converged?
 Maximum Force            0.000090     0.000015     NO 
 RMS     Force            0.000043     0.000010     NO 
 Maximum Displacement     0.001552     0.000060     NO 
 RMS     Displacement     0.000750     0.000040     NO 
 Predicted change in Energy=-7.113215D-08
 GradGradGradGradGradGradGradGradGradGradGradGradGradGradGradGradGradGrad

 ---------------------------------------------------------------------------------------------------
                            Z-MATRIX (ANGSTROMS AND DEGREES)
   CD    Cent   Atom    N1       Length/X        N2       Alpha/Y        N3        Beta/Z          J
 ---------------------------------------------------------------------------------------------------
      1      1  O 
      2      2  H        1   1.017693(     1)
      3      3  Cl       1   1.685188(     2)      2  103.415(     4)
      4      4  Br       1   3.070351(     3)      3  105.862(     5)      2   -0.001(     6)      0
 ---------------------------------------------------------------------------------------------------
                         Z-Matrix orientation:                         
 ---------------------------------------------------------------------
 Center     Atomic      Atomic             Coordinates (Angstroms)
 Number     Number       Type             X           Y           Z
 ---------------------------------------------------------------------
      1          8           0        0.000000    0.000000    0.000000
      2          1           0        0.000000    0.000000    1.017693
      3         17           0        1.639209    0.000000   -0.390966
      4         35           0       -0.131068   -0.000062    3.067552
 ---------------------------------------------------------------------
                    Distance matrix (angstroms):
                    1          2          3          4
     1  O    0.000000
     2  H    1.017693   0.000000
     3  Cl   1.685188   2.161325   0.000000
     4  Br   3.070351   2.054045   3.885258   0.000000
 Stoichiometry    BrClHO(1-)
 Framework group  C1[X(BrClHO)]
 Deg. of freedom     6
 Full point group                 C1      NOp   1
 Largest Abelian subgroup         C1      NOp   1
 Largest concise Abelian subgroup C1      NOp   1
                         Standard orientation:                         
 ---------------------------------------------------------------------
 Center     Atomic      Atomic             Coordinates (Angstroms)
 Number     Number       Type             X           Y           Z
 ---------------------------------------------------------------------
      1          8           0        1.391522    0.995416   -0.000002
      2          1           0        0.452587    0.602858    0.000020
      3         17           0        2.384527   -0.366127   -0.000000
      4         35           0       -1.489192   -0.066915   -0.000000
 ---------------------------------------------------------------------
 Rotational constants (GHZ):          23.7971353           1.2508479           1.1883830
 Standard basis: Aug-CC-pVTZ (5D, 7F)
 There are   208 symmetry adapted cartesian basis functions of A   symmetry.
 There are   178 symmetry adapted basis functions of A   symmetry.
   178 basis functions,   430 primitive gaussians,   208 cartesian basis functions
    31 alpha electrons       31 beta electrons
       nuclear repulsion energy       189.3432694895 Hartrees.
 NAtoms=    4 NActive=    4 NUniq=    4 SFac= 1.00D+00 NAtFMM=   60 NAOKFM=F Big=F
 Integral buffers will be    131072 words long.
 Raffenetti 1 integral format.
 Two-electron integral symmetry is turned on.
 One-electron integrals computed using PRISM.
 NBasis=   178 RedAO= T EigKep=  2.40D-04  NBF=   178
 NBsUse=   178 1.00D-06 EigRej= -1.00D+00 NBFU=   178
 Initial guess from the checkpoint file:  "/gscratch/ilahie/abmccoy/hocl/br_hocl_tz.chk"
 B after Tr=     0.000000    0.000000    0.000000
         Rot=    1.000000    0.000000    0.000000    0.000057 Ang=   0.01 deg.
 Keep R1 ints in memory in canonical form, NReq=149454712.
 Requested convergence on RMS density matrix=1.00D-08 within 128 cycles.
 Requested convergence on MAX density matrix=1.00D-06.
 Requested convergence on             energy=1.00D-06.
 No special actions if energy rises.
 SCF Done:  E(RHF) =  -3107.47852737     A.U. after    9 cycles
            NFock=  9  Conv=0.26D-08     -V/T= 2.0000
 ExpMin= 2.53D-02 ExpMax= 1.06D+07 ExpMxC= 1.21D+04 IAcc=3 IRadAn=         5 AccDes= 0.00D+00
 HarFok:  IExCor=  205 AccDes= 0.00D+00 IRadAn=         5 IDoV=-2 UseB2=F ITyADJ=14
 ICtDFT= 12500011 ScaDFX=  1.000000  1.000000  1.000000  1.000000
 Range of M.O.s used for correlation:    16   178
 NBasis=   178 NAE=    31 NBE=    31 NFC=    15 NFV=     0
 NROrb=    163 NOA=    16 NOB=    16 NVA=   147 NVB=   147

 **** Warning!!: The largest alpha MO coefficient is  0.17504274D+02

 Fully direct method using O(ONN) memory.
 JobTyp=1 Pass  1:  I=  16 to  31 NPSUse= 28 ParTrn=T ParDer=T DoDerP=T.
 Spin components of T(2) and E(2):
     alpha-alpha T2 =       0.3036709128D-01 E2=     -0.9426331730D-01
     alpha-beta  T2 =       0.1615899121D+00 E2=     -0.5157802982D+00
     beta-beta   T2 =       0.3036709128D-01 E2=     -0.9426331730D-01
 ANorm=    0.1105587669D+01
 E2 =    -0.7043069329D+00 EUMP2 =    -0.31081828343025D+04
          IDoAtm=1111
          Differentiating once with respect to electric field.
                with respect to dipole field.
          Differentiating once with respect to nuclear coordinates.
 Keep R1 ints in memory in canonical form, NReq=149459550.
          There are     1 degrees of freedom in the 1st order CPHF.  IDoFFX=0 NUNeed=     1.
 LinEq1:  Iter=  0 NonCon=     1 RMS=2.66D-03 Max=4.76D-02 NDo=     1
 AX will form     1 AO Fock derivatives at one time.
 LinEq1:  Iter=  1 NonCon=     1 RMS=4.19D-04 Max=5.02D-03 NDo=     1
 LinEq1:  Iter=  2 NonCon=     1 RMS=1.97D-04 Max=4.26D-03 NDo=     1
 LinEq1:  Iter=  3 NonCon=     1 RMS=6.46D-05 Max=1.12D-03 NDo=     1
 LinEq1:  Iter=  4 NonCon=     1 RMS=2.76D-05 Max=9.34D-04 NDo=     1
 LinEq1:  Iter=  5 NonCon=     1 RMS=9.86D-06 Max=1.65D-04 NDo=     1
 LinEq1:  Iter=  6 NonCon=     1 RMS=2.04D-06 Max=2.43D-05 NDo=     1
 LinEq1:  Iter=  7 NonCon=     1 RMS=4.91D-07 Max=8.94D-06 NDo=     1
 LinEq1:  Iter=  8 NonCon=     1 RMS=1.35D-07 Max=2.06D-06 NDo=     1
 LinEq1:  Iter=  9 NonCon=     1 RMS=3.19D-08 Max=7.38D-07 NDo=     1
 LinEq1:  Iter= 10 NonCon=     1 RMS=8.84D-09 Max=2.41D-07 NDo=     1
 LinEq1:  Iter= 11 NonCon=     1 RMS=2.25D-09 Max=4.62D-08 NDo=     1
 LinEq1:  Iter= 12 NonCon=     1 RMS=4.37D-10 Max=6.46D-09 NDo=     1
 LinEq1:  Iter= 13 NonCon=     1 RMS=1.20D-10 Max=1.56D-09 NDo=     1
 LinEq1:  Iter= 14 NonCon=     0 RMS=2.74D-11 Max=4.10D-10 NDo=     1
 Linear equations converged to 1.000D-10 1.000D-09 after    14 iterations.
 End of Minotr F.D. properties file   721 does not exist.
 End of Minotr F.D. properties file   722 does not exist.
 End of Minotr F.D. properties file   788 does not exist.
 Calling FoFJK, ICntrl=  10002127 FMM=F ISym2X=0 I1Cent= 0 IOpClX= 0 NMat=1 NMatS=1 NMatT=0.
 ***** Axes restored to original set *****
 -------------------------------------------------------------------
 Center     Atomic                   Forces (Hartrees/Bohr)
 Number     Number              X              Y              Z
 -------------------------------------------------------------------
      1        8           0.000014152    0.000000560   -0.000000902
      2        1          -0.000008016   -0.000000877   -0.000007994
      3       17          -0.000006828    0.000000023   -0.000001244
      4       35           0.000000693    0.000000294    0.000010140
 -------------------------------------------------------------------
 Cartesian Forces:  Max     0.000014152 RMS     0.000006337
 -----------------------------------------------------------------------------------------------
                       Internal Coordinate Forces (Hartree/Bohr or radian)
  Cent   Atom   N1       Length/X         N2         Alpha/Y        N3         Beta/Z          J
 -----------------------------------------------------------------------------------------------
      1  O 
      2  H        1  -0.000008(     1)
      3  Cl       1  -0.000006(     2)      2   0.000015(     4)
      4  Br       1   0.000010(     3)      3  -0.000007(     5)      2   0.000002(     6)     0
 -----------------------------------------------------------------------------------------------
 Internal  Forces:  Max     0.000015428 RMS     0.000009034

 GradGradGradGradGradGradGradGradGradGradGradGradGradGradGradGradGradGrad
 Berny optimization.
 Search for a local minimum.
 Step number   5 out of a maximum of   20
 All quantities printed in internal units (Hartrees-Bohrs-Radians)
 Update second derivatives using D2CorN and points    1    2    3    4    5

 DE= -8.26D-08 DEPred=-7.11D-08 R= 1.16D+00
 Trust test= 1.16D+00 RLast= 1.84D-03 DXMaxT set to 3.00D-01
 The second derivative matrix:
                          r1        r2        r3        a1        a2
           r1           0.44724
           r2          -0.00019   0.37712
           r3           0.00462   0.00064   0.05838
           a1           0.00383  -0.00851   0.04793   0.39070
           a2           0.00299   0.01149   0.00416  -0.09251   0.07753
           d1          -0.00003  -0.00003  -0.00020   0.00004   0.00032
                          d1
           d1           0.04152
 ITU=  0  0  0  0  0
     Eigenvalues ---    0.03589   0.04154   0.06874   0.37479   0.42371
     Eigenvalues ---    0.44783
 RFO step:  Lambda= 0.00000000D+00 EMin= 3.58876838D-02
 Quartic linear search produced a step of  0.09682.
 Variable       Old X    -DE/DX   Delta X   Delta X   Delta X     New X
                                 (Linear)    (Quad)   (Total)
    r1        1.92316  -0.00001   0.00000  -0.00002  -0.00002   1.92314
    r2        3.18454  -0.00001   0.00000  -0.00002  -0.00002   3.18453
    r3        5.80212   0.00001   0.00009   0.00011   0.00020   5.80232
    a1        1.80493   0.00002  -0.00004   0.00003  -0.00000   1.80493
    a2        1.84763  -0.00001  -0.00015   0.00005  -0.00010   1.84754
    d1       -0.00002   0.00000  -0.00000   0.00005   0.00004   0.00002
         Item               Value     Threshold  Converged?
 Maximum Force            0.000015     0.000015     NO 
 RMS     Force            0.000009     0.000010     YES
 Maximum Displacement     0.000198     0.000060     NO 
 RMS     Displacement     0.000092     0.000040     NO 
 Predicted change in Energy=-1.367994D-09
 GradGradGradGradGradGradGradGradGradGradGradGradGradGradGradGradGradGrad

 ---------------------------------------------------------------------------------------------------
                            Z-MATRIX (ANGSTROMS AND DEGREES)
   CD    Cent   Atom    N1       Length/X        N2       Alpha/Y        N3        Beta/Z          J
 ---------------------------------------------------------------------------------------------------
      1      1  O 
      2      2  H        1   1.017683(     1)
      3      3  Cl       1   1.685180(     2)      2  103.415(     4)
      4      4  Br       1   3.070456(     3)      3  105.856(     5)      2    0.001(     6)      0
 ---------------------------------------------------------------------------------------------------
                         Z-Matrix orientation:                         
 ---------------------------------------------------------------------
 Center     Atomic      Atomic             Coordinates (Angstroms)
 Number     Number       Type             X           Y           Z
 ---------------------------------------------------------------------
      1          8           0        0.000000    0.000000    0.000000
      2          1           0        0.000000    0.000000    1.017683
      3         17           0        1.639202    0.000000   -0.390959
      4         35           0       -0.130789    0.000063    3.067669
 ---------------------------------------------------------------------
                    Distance matrix (angstroms):
                    1          2          3          4
     1  O    0.000000
     2  H    1.017683   0.000000
     3  Cl   1.685180   2.161309   0.000000
     4  Br   3.070456   2.054154   3.885225   0.000000
 Stoichiometry    BrClHO(1-)
 Framework group  C1[X(BrClHO)]
 Deg. of freedom     6
 Full point group                 C1      NOp   1
 Largest Abelian subgroup         C1      NOp   1
 Largest concise Abelian subgroup C1      NOp   1
                         Standard orientation:                         
 ---------------------------------------------------------------------
 Center     Atomic      Atomic             Coordinates (Angstroms)
 Number     Number       Type             X           Y           Z
 ---------------------------------------------------------------------
      1          8           0        1.391613    0.995464    0.000002
      2          1           0        0.452653    0.602994   -0.000020
      3         17           0        2.384488   -0.366164    0.000000
      4         35           0       -1.489196   -0.066912    0.000000
 ---------------------------------------------------------------------
 Rotational constants (GHZ):          23.7942007           1.2508529           1.1883802
 Standard basis: Aug-CC-pVTZ (5D, 7F)
 There are   208 symmetry adapted cartesian basis functions of A   symmetry.
 There are   178 symmetry adapted basis functions of A   symmetry.
   178 basis functions,   430 primitive gaussians,   208 cartesian basis functions
    31 alpha electrons       31 beta electrons
       nuclear repulsion energy       189.3420980127 Hartrees.
 NAtoms=    4 NActive=    4 NUniq=    4 SFac= 1.00D+00 NAtFMM=   60 NAOKFM=F Big=F
 Integral buffers will be    131072 words long.
 Raffenetti 1 integral format.
 Two-electron integral symmetry is turned on.
 One-electron integrals computed using PRISM.
 NBasis=   178 RedAO= T EigKep=  2.40D-04  NBF=   178
 NBsUse=   178 1.00D-06 EigRej= -1.00D+00 NBFU=   178
 Initial guess from the checkpoint file:  "/gscratch/ilahie/abmccoy/hocl/br_hocl_tz.chk"
 B after Tr=    -0.000000   -0.000000   -0.000000
         Rot=    1.000000   -0.000000    0.000000    0.000005 Ang=   0.00 deg.
 Keep R1 ints in memory in canonical form, NReq=149454712.
 Requested convergence on RMS density matrix=1.00D-08 within 128 cycles.
 Requested convergence on MAX density matrix=1.00D-06.
 Requested convergence on             energy=1.00D-06.
 No special actions if energy rises.
 SCF Done:  E(RHF) =  -3107.47852980     A.U. after    6 cycles
            NFock=  6  Conv=0.34D-08     -V/T= 2.0000
 ExpMin= 2.53D-02 ExpMax= 1.06D+07 ExpMxC= 1.21D+04 IAcc=3 IRadAn=         5 AccDes= 0.00D+00
 HarFok:  IExCor=  205 AccDes= 0.00D+00 IRadAn=         5 IDoV=-2 UseB2=F ITyADJ=14
 ICtDFT= 12500011 ScaDFX=  1.000000  1.000000  1.000000  1.000000
 Range of M.O.s used for correlation:    16   178
 NBasis=   178 NAE=    31 NBE=    31 NFC=    15 NFV=     0
 NROrb=    163 NOA=    16 NOB=    16 NVA=   147 NVB=   147

 **** Warning!!: The largest alpha MO coefficient is  0.17506504D+02

 Fully direct method using O(ONN) memory.
 JobTyp=1 Pass  1:  I=  16 to  31 NPSUse= 28 ParTrn=T ParDer=T DoDerP=T.
 Spin components of T(2) and E(2):
     alpha-alpha T2 =       0.3036685542D-01 E2=     -0.9426282874D-01
     alpha-beta  T2 =       0.1615891409D+00 E2=     -0.5157788508D+00
     beta-beta   T2 =       0.3036685542D-01 E2=     -0.9426282874D-01
 ANorm=    0.1105587107D+01
 E2 =    -0.7043045083D+00 EUMP2 =    -0.31081828343065D+04
          IDoAtm=1111
          Differentiating once with respect to electric field.
                with respect to dipole field.
          Differentiating once with respect to nuclear coordinates.
 Keep R1 ints in memory in canonical form, NReq=149459550.
          There are     1 degrees of freedom in the 1st order CPHF.  IDoFFX=0 NUNeed=     1.
 LinEq1:  Iter=  0 NonCon=     1 RMS=2.66D-03 Max=4.76D-02 NDo=     1
 AX will form     1 AO Fock derivatives at one time.
 LinEq1:  Iter=  1 NonCon=     1 RMS=4.19D-04 Max=5.02D-03 NDo=     1
 LinEq1:  Iter=  2 NonCon=     1 RMS=1.97D-04 Max=4.26D-03 NDo=     1
 LinEq1:  Iter=  3 NonCon=     1 RMS=6.46D-05 Max=1.12D-03 NDo=     1
 LinEq1:  Iter=  4 NonCon=     1 RMS=2.76D-05 Max=9.34D-04 NDo=     1
 LinEq1:  Iter=  5 NonCon=     1 RMS=9.86D-06 Max=1.64D-04 NDo=     1
 LinEq1:  Iter=  6 NonCon=     1 RMS=2.04D-06 Max=2.43D-05 NDo=     1
 LinEq1:  Iter=  7 NonCon=     1 RMS=4.91D-07 Max=8.94D-06 NDo=     1
 LinEq1:  Iter=  8 NonCon=     1 RMS=1.35D-07 Max=2.06D-06 NDo=     1
 LinEq1:  Iter=  9 NonCon=     1 RMS=3.19D-08 Max=7.39D-07 NDo=     1
 LinEq1:  Iter= 10 NonCon=     1 RMS=8.85D-09 Max=2.41D-07 NDo=     1
 LinEq1:  Iter= 11 NonCon=     1 RMS=2.25D-09 Max=4.61D-08 NDo=     1
 LinEq1:  Iter= 12 NonCon=     1 RMS=4.37D-10 Max=6.46D-09 NDo=     1
 LinEq1:  Iter= 13 NonCon=     1 RMS=1.20D-10 Max=1.55D-09 NDo=     1
 LinEq1:  Iter= 14 NonCon=     0 RMS=2.74D-11 Max=4.10D-10 NDo=     1
 Linear equations converged to 1.000D-10 1.000D-09 after    14 iterations.
 End of Minotr F.D. properties file   721 does not exist.
 End of Minotr F.D. properties file   722 does not exist.
 End of Minotr F.D. properties file   788 does not exist.
 Calling FoFJK, ICntrl=  10002127 FMM=F ISym2X=0 I1Cent= 0 IOpClX= 0 NMat=1 NMatS=1 NMatT=0.
 ***** Axes restored to original set *****
 -------------------------------------------------------------------
 Center     Atomic                   Forces (Hartrees/Bohr)
 Number     Number              X              Y              Z
 -------------------------------------------------------------------
      1        8           0.000008626   -0.000000563    0.000001365
      2        1          -0.000005106    0.000000882   -0.000003905
      3       17          -0.000003420   -0.000000023   -0.000002182
      4       35          -0.000000101   -0.000000297    0.000004722
 -------------------------------------------------------------------
 Cartesian Forces:  Max     0.000008626 RMS     0.000003623
 -----------------------------------------------------------------------------------------------
                       Internal Coordinate Forces (Hartree/Bohr or radian)
  Cent   Atom   N1       Length/X         N2         Alpha/Y        N3         Beta/Z          J
 -----------------------------------------------------------------------------------------------
      1  O 
      2  H        1  -0.000004(     1)
      3  Cl       1  -0.000003(     2)      2   0.000010(     4)
      4  Br       1   0.000005(     3)      3  -0.000001(     5)      2  -0.000002(     6)     0
 -----------------------------------------------------------------------------------------------
 Internal  Forces:  Max     0.000009870 RMS     0.000004933

 GradGradGradGradGradGradGradGradGradGradGradGradGradGradGradGradGradGrad
 Berny optimization.
 Search for a local minimum.
 Step number   6 out of a maximum of   20
 All quantities printed in internal units (Hartrees-Bohrs-Radians)
 Update second derivatives using D2CorN and points    1    2    3    4    5
                                                          6
 DE= -4.02D-09 DEPred=-1.37D-09 R= 2.94D+00
 Trust test= 2.94D+00 RLast= 2.26D-04 DXMaxT set to 3.00D-01
 The second derivative matrix:
                          r1        r2        r3        a1        a2
           r1           0.44572
           r2          -0.00123   0.37619
           r3           0.01340   0.00833   0.03498
           a1           0.00489  -0.00672   0.01937   0.39077
           a2          -0.00208   0.00816   0.00911  -0.08216   0.07665
           d1           0.00128   0.00089   0.00142  -0.00412  -0.00149
                          d1
           d1           0.04280
 ITU=  0  0  0  0  0  0
     Eigenvalues ---    0.02710   0.04300   0.06259   0.37478   0.41248
     Eigenvalues ---    0.44718
 RFO step:  Lambda= 0.00000000D+00 EMin= 2.70985038D-02
 Quartic linear search produced a step of  0.06696.
 Variable       Old X    -DE/DX   Delta X   Delta X   Delta X     New X
                                 (Linear)    (Quad)   (Total)
    r1        1.92314  -0.00000  -0.00000  -0.00001  -0.00001   1.92313
    r2        3.18453  -0.00000  -0.00000  -0.00001  -0.00001   3.18452
    r3        5.80232   0.00000   0.00001  -0.00000   0.00001   5.80233
    a1        1.80493   0.00001  -0.00000   0.00004   0.00004   1.80496
    a2        1.84754  -0.00000  -0.00001   0.00006   0.00005   1.84759
    d1        0.00002  -0.00000   0.00000  -0.00006  -0.00005  -0.00003
         Item               Value     Threshold  Converged?
 Maximum Force            0.000010     0.000015     YES
 RMS     Force            0.000005     0.000010     YES
 Maximum Displacement     0.000052     0.000060     YES
 RMS     Displacement     0.000034     0.000040     YES
 Predicted change in Energy=-2.083916D-10
 Optimization completed.
    -- Stationary point found.
                       ----------------------------
                       !   Optimized Parameters   !
                       ! (Angstroms and Degrees)  !
 ----------------------                            ----------------------
 !      Name          Value   Derivative information (Atomic Units)     !
 ------------------------------------------------------------------------
 !       r1          1.0177   -DE/DX =    0.0                           !
 !       r2          1.6852   -DE/DX =    0.0                           !
 !       r3          3.0705   -DE/DX =    0.0                           !
 !       a1        103.4147   -DE/DX =    0.0                           !
 !       a2        105.856    -DE/DX =    0.0                           !
 !       d1          0.0012   -DE/DX =    0.0                           !
 ------------------------------------------------------------------------
 GradGradGradGradGradGradGradGradGradGradGradGradGradGradGradGradGradGrad

 ---------------------------------------------------------------------------------------------------
                            Z-MATRIX (ANGSTROMS AND DEGREES)
   CD    Cent   Atom    N1       Length/X        N2       Alpha/Y        N3        Beta/Z          J
 ---------------------------------------------------------------------------------------------------
      1      1  O 
      2      2  H        1   1.017683(     1)
      3      3  Cl       1   1.685180(     2)      2  103.415(     4)
      4      4  Br       1   3.070456(     3)      3  105.856(     5)      2    0.001(     6)      0
 ---------------------------------------------------------------------------------------------------
                         Z-Matrix orientation:                         
 ---------------------------------------------------------------------
 Center     Atomic      Atomic             Coordinates (Angstroms)
 Number     Number       Type             X           Y           Z
 ---------------------------------------------------------------------
      1          8           0        0.000000    0.000000    0.000000
      2          1           0        0.000000    0.000000    1.017683
      3         17           0        1.639202    0.000000   -0.390959
      4         35           0       -0.130789    0.000063    3.067669
 ---------------------------------------------------------------------
                    Distance matrix (angstroms):
                    1          2          3          4
     1  O    0.000000
     2  H    1.017683   0.000000
     3  Cl   1.685180   2.161309   0.000000
     4  Br   3.070456   2.054154   3.885225   0.000000
 Stoichiometry    BrClHO(1-)
 Framework group  C1[X(BrClHO)]
 Deg. of freedom     6
 Full point group                 C1      NOp   1
 Largest Abelian subgroup         C1      NOp   1
 Largest concise Abelian subgroup C1      NOp   1
                         Standard orientation:                         
 ---------------------------------------------------------------------
 Center     Atomic      Atomic             Coordinates (Angstroms)
 Number     Number       Type             X           Y           Z
 ---------------------------------------------------------------------
      1          8           0        1.391613    0.995464    0.000002
      2          1           0        0.452653    0.602994   -0.000020
      3         17           0        2.384488   -0.366164    0.000000
      4         35           0       -1.489196   -0.066912    0.000000
 ---------------------------------------------------------------------
 Rotational constants (GHZ):          23.7942007           1.2508529           1.1883802

 **********************************************************************

            Population analysis using the SCF Density.

 **********************************************************************

 Orbital symmetries:
       Occupied  (A) (A) (A) (A) (A) (A) (A) (A) (A) (A) (A) (A)
                 (A) (A) (A) (A) (A) (A) (A) (A) (A) (A) (A) (A)
                 (A) (A) (A) (A) (A) (A) (A)
       Virtual   (A) (A) (A) (A) (A) (A) (A) (A) (A) (A) (A) (A)
                 (A) (A) (A) (A) (A) (A) (A) (A) (A) (A) (A) (A)
                 (A) (A) (A) (A) (A) (A) (A) (A) (A) (A) (A) (A)
                 (A) (A) (A) (A) (A) (A) (A) (A) (A) (A) (A) (A)
                 (A) (A) (A) (A) (A) (A) (A) (A) (A) (A) (A) (A)
                 (A) (A) (A) (A) (A) (A) (A) (A) (A) (A) (A) (A)
                 (A) (A) (A) (A) (A) (A) (A) (A) (A) (A) (A) (A)
                 (A) (A) (A) (A) (A) (A) (A) (A) (A) (A) (A) (A)
                 (A) (A) (A) (A) (A) (A) (A) (A) (A) (A) (A) (A)
                 (A) (A) (A) (A) (A) (A) (A) (A) (A) (A) (A) (A)
                 (A) (A) (A) (A) (A) (A) (A) (A) (A) (A) (A) (A)
                 (A) (A) (A) (A) (A) (A) (A) (A) (A) (A) (A) (A)
                 (A) (A) (A)
 The electronic state is 1-A.
 Alpha  occ. eigenvalues -- -489.75677-104.73136 -64.89714 -58.25165 -58.25160
 Alpha  occ. eigenvalues --  -58.25160 -20.46123 -10.45088  -9.56969  -7.91804
 Alpha  occ. eigenvalues --   -7.91542  -7.91532  -7.17752  -7.17693  -7.17693
[...]
      3(1)        1(1)      3659.709   3281.459                      1.13933949
      3(1)        2(1)      2193.404   2133.562                      7.39592883
      4(1)        1(1)      3659.169   3345.231                      0.12199287
      4(1)        2(1)      2192.864   2135.955                      0.05209011
      4(1)        3(1)      1552.717   1531.184                      0.08169948
      5(1)        1(1)      3120.651   2772.496                     90.00188300
      5(1)        2(1)      1654.346   1604.543                     10.43519888
      5(1)        3(1)      1014.199   1002.509                      0.03409278
      5(1)        4(1)      1013.659    992.851                      0.68788644
      6(1)        1(1)      2967.295   2604.618                    173.24102537
      6(1)        2(1)      1500.990   1456.675                      8.92554371
      6(1)        3(1)       860.843    850.907                      0.22548977
      6(1)        4(1)       860.302    848.329                      0.16438519
      6(1)        5(1)       321.784    320.209                      5.84100998


 GradGradGradGradGradGradGradGradGradGradGradGradGradGradGradGradGradGrad
 Berny optimization.
 Search for a local minimum.
 Step number   1 out of a maximum of    2
 All quantities printed in internal units (Hartrees-Bohrs-Radians)
 Second derivative matrix not updated -- analytic derivatives used.
 The second derivative matrix:
                          r1        r2        r3        a1        a2
           r1           0.29652
           r2          -0.00412   0.26499
           r3           0.01100  -0.00217   0.03022
           a1          -0.00319   0.06089  -0.00169   0.27005
           a2           0.00514  -0.01094   0.00448  -0.08035   0.07479
           d1           0.00000  -0.00000   0.00000  -0.00000  -0.00000
                          d1
           d1           0.07826
 ITU=  0
     Eigenvalues ---    0.02896   0.04617   0.07826   0.21899   0.29622
     Eigenvalues ---    0.34622
 Angle between quadratic step and forces=  47.89 degrees.
 Linear search not attempted -- first point.
 Variable       Old X    -DE/DX   Delta X   Delta X   Delta X     New X
                                 (Linear)    (Quad)   (Total)
    r1        1.92314  -0.00000   0.00000  -0.00002  -0.00002   1.92312
    r2        3.18453  -0.00000   0.00000  -0.00002  -0.00002   3.18451
    r3        5.80232   0.00000   0.00000   0.00016   0.00016   5.80248
    a1        1.80493   0.00001   0.00000   0.00005   0.00005   1.80498
    a2        1.84754  -0.00000   0.00000   0.00004   0.00004   1.84757
    d1        0.00002  -0.00000   0.00000  -0.00002  -0.00002   0.00000
         Item               Value     Threshold  Converged?
 Maximum Force            0.000010     0.000015     YES
 RMS     Force            0.000005     0.000010     YES
 Maximum Displacement     0.000159     0.000060     NO 
 RMS     Displacement     0.000072     0.000040     NO 
 Predicted change in Energy=-7.101064D-10
                       ----------------------------
                       ! Non-Optimized Parameters !
                       ! (Angstroms and Degrees)  !
 ----------------------                            ----------------------
 !      Name          Value   Derivative information (Atomic Units)     !
 ------------------------------------------------------------------------
 !       r1          1.0177   -DE/DX =    0.0                           !
 !       r2          1.6852   -DE/DX =    0.0                           !
 !       r3          3.0705   -DE/DX =    0.0                           !
 !       a1        103.4178   -DE/DX =    0.0                           !
 !       a2        105.8582   -DE/DX =    0.0                           !
 !       d1          0.0      -DE/DX =    0.0                           !
 ------------------------------------------------------------------------
 GradGradGradGradGradGradGradGradGradGradGradGradGradGradGradGradGradGrad


 ----------------------------------------------------------------------

 Electric dipole moment (input orientation):
 (Debye = 10**-18 statcoulomb cm , SI units = C m)
                  (au)            (Debye)         (10**-30 SI)
   Tot        0.115773D+01      0.294264D+01      0.981561D+01
   x          0.643806D+00      0.163639D+01      0.545842D+01
   y         -0.225794D-04     -0.573910D-04     -0.191436D-03
   z         -0.962207D+00     -0.244569D+01     -0.815793D+01

 Dipole polarizability, Alpha (input orientation).
 (esu units = cm**3 , SI units = C**2 m**2 J**-1)
 Alpha(0;0):
               (au)            (10**-24 esu)      (10**-40 SI)
   iso        0.622587D+02      0.922579D+01      0.102651D+02
   aniso      0.227356D+02      0.336907D+01      0.374859D+01
   xx         0.616509D+02      0.913573D+01      0.101649D+02
   yx        -0.124972D-03     -0.185189D-04     -0.206051D-04
   yy         0.525092D+02      0.778107D+01      0.865760D+01
   zx        -0.842345D+01     -0.124823D+01     -0.138884D+01
   zy         0.418070D-03      0.619515D-04      0.689304D-04
   zz         0.726160D+02      0.107606D+02      0.119728D+02

 ----------------------------------------------------------------------

 Dipole orientation:
     8         -0.00000000         -0.00000000         -0.00000000
     1          1.06945118          0.00003751         -1.59835828
    17          2.16366144         -0.00003276          2.33662056
    35          3.01830281         -0.00000374         -4.95547958

 Electric dipole moment (dipole orientation):
 (Debye = 10**-18 statcoulomb cm , SI units = C m)
                  (au)            (Debye)         (10**-30 SI)
   Tot        0.115773D+01      0.294264D+01      0.981561D+01
   x          0.000000D+00      0.000000D+00      0.000000D+00
   y          0.000000D+00      0.000000D+00      0.000000D+00
   z          0.115773D+01      0.294264D+01      0.981561D+01

 Dipole polarizability, Alpha (dipole orientation).
 (esu units = cm**3 , SI units = C**2 m**2 J**-1)
 Alpha(0;0):
               (au)            (10**-24 esu)      (10**-40 SI)
   iso        0.622587D+02      0.922579D+01      0.102651D+02
   aniso      0.227356D+02      0.336907D+01      0.374859D+01
   xx         0.572555D+02      0.848439D+01      0.944015D+01
   yx        -0.643460D-04     -0.953509D-05     -0.106092D-04
   yy         0.525092D+02      0.778107D+01      0.865760D+01
   zx        -0.185418D+01     -0.274761D+00     -0.305713D+00
   zy        -0.718930D-04     -0.106534D-04     -0.118535D-04
   zz         0.770115D+02      0.114119D+02      0.126975D+02

 ----------------------------------------------------------------------
 1\1\GINC-N2206\Freq\RMP2-FC\Aug-CC-pVTZ\Br1Cl1H1O1(1-)\ABMCCOY\29-Jun-
 2021\1\\#N Geom=AllCheck Guess=TCheck SCRF=Check GenChk RMP2(FC)/Aug-C
 C-pVTZ Freq\\title\\-1,1\O\H,1,r1\Cl,1,r2,2,a1\Br,1,r3,3,a2,2,d1,0\\r1
 =1.0176829\r2=1.6851803\r3=3.07045608\a1=103.41473841\a2=105.85604168\
 d1=0.00121402\\Version=ES64L-G16RevB.01\State=1-A\HF=-3107.4785298\MP2
 =-3108.1828343\RMSD=9.775e-10\RMSF=3.621e-06\ZeroPoint=0.0140662\Therm
 al=0.0183462\Dipole=0.6438063,-0.0000226,-0.9622067\DipoleDeriv=-0.440
 3182,-0.0000003,0.1164521,-0.0000004,-0.2819186,-0.0000056,0.3681634,-
 0.0000185,-1.2041916,0.0612907,-0.0000013,-0.0877405,-0.0000043,0.1326
 494,0.0000232,-0.4236469,0.0000307,1.5458893,0.1442823,0.0000006,-0.07
 02323,0.0000003,-0.086081,0.0000002,-0.0888606,0.,-0.0853324,-0.765254
 8,0.000001,0.0415208,0.0000044,-0.7646498,-0.0000177,0.1443441,-0.0000
 121,-1.2563654\Polar=61.6509449,-0.000125,52.5092325,-8.4234521,0.0004
 181,72.6160193\Quadrupole=3.0800563,3.719586,-6.7996423,0.0000535,2.38
 32456,-0.0001918\PG=C01 [X(Br1Cl1H1O1)]\NImag=0\\0.26201553,0.00000006
 ,0.00911181,-0.04041936,0.00000028,0.38700453,-0.04217426,-0.00000004,
 -0.03969840,0.07301775,-0.00000011,-0.01427414,0.00000088,0.00000003,0
 .02236545,0.00385236,0.00000024,-0.30783198,0.00165351,-0.00000092,0.2
 9651887,-0.22287427,-0.00000008,0.07608918,-0.02361195,0.00000009,-0.0
 0415312,0.24462500,-0.00000006,0.00037890,0.00000006,0.00000001,-0.000
 59637,0.,0.00000006,0.00001709,0.03293925,0.00000005,-0.03850257,0.037
 47478,-0.00000001,0.00036100,-0.06969963,-0.00000003,0.03852329,0.0030
 3301,0.00000006,0.00402858,-0.00723153,0.,-0.00135275,0.00186123,0.,-0
 .00071440,0.00233730,0.00000010,0.00478342,-0.00000121,0.,-0.00749495,
 0.00000068,-0.00000007,0.00020039,-0.00000001,-0.00000004,0.00251113,0
 .00362775,-0.00000056,-0.04066998,0.00057011,0.00000006,0.01095211,-0.
 00223643,-0.00000003,-0.00038173,-0.00196143,0.00000054,0.03009960\\-0
 .00000862,0.00000056,-0.00000136,0.00000510,-0.00000088,0.00000391,0.0
 0000342,0.00000002,0.00000217,0.00000010,0.00000030,-0.00000472\\-0.00
 422976,-0.00000029,-0.00118471,0.00145058,-0.00000006,0.00823290,-0.00
 141575,0.00000003,-0.01143097,-0.00104260,0.00000004,0.00091045,0.0000
 0007,-0.00000005,-0.00029149,-0.00982324,0.00000004,-0.00480339,0.0109
 8801,-0.00000005,0.00419076,0.00584611,0.00000024,0.00845026,0.0024347
 8,0.00000002,-0.00023652,-0.00838572,0.00000026,0.00050658,-0.00000007
 ,0.00000002,-0.00065613,0.,-0.00000028,0.00012363,0.00887171,-0.000000
 01,-0.00573368,0.00032336,-0.00000004,0.00020205,-0.00883532,0.0000000
 6,0.00560958,-0.00020061,0.00000002,0.00153012,0.00002356,-0.00000001,
 -0.00092824,0.00010483,0.,-0.00035975,0.00007225,-0.00000001,-0.000232
 32,0.00000007,0.,0.00003717,0.,0.00000002,0.00002591,0.,0.,0.00016917,
 -0.00049905,0.00000004,0.00230418,0.00011962,0.00000003,0.00041059,0.0
 0062158,0.,-0.00007795,-0.00024214,-0.00000007,-0.00263682,-0.00348015
 ,-0.00000043,-0.00376022,0.00329960,0.,-0.00761334,-0.00065036,0.00000
 006,-0.01820687,-0.00206055,0.00000004,0.00155102,0.00000044,-0.000000
 10,-0.00063056,-0.01759839,0.00000014,0.02626760,0.01665161,-0.0000000
 7,-0.02175911,0.00322347,0.00000033,0.01197618,0.00313959,0.00000006,0
 .00177769,-0.00699796,0.00000038,0.00106970,-0.00000009,0.00000002,-0.
 00072610,0.,-0.00000039,-0.00044759,0.01431910,0.,-0.00692312,0.000341
 71,-0.00000008,-0.00042270,-0.01404627,0.00000008,0.00782051,0.0009070
 4,0.00000004,0.00293108,-0.00042868,0.,-0.00083090,0.00063490,0.,-0.00
 061453,-0.00111324,0.,0.00113950,-0.00000035,0.00000003,-0.00019436,-0
 .00000008,0.,0.00010398,-0.00000001,-0.00000003,-0.00104908,-0.0000202
 9,-0.00000014,-0.01173112,0.00121354,-0.00000029,-0.00408582,0.0002924
 0,0.,-0.00047469,-0.00148564,0.00000044,0.01629167,0.00008932,0.012079
 59,-0.00001031,-0.00003619,0.18812291,0.00000107,0.00000119,-0.0239566
 2,0.00000645,0.00000376,0.00095071,-0.00000076,-0.18383841,0.00728120,
 0.00000052,0.00001051,-0.16139280,-0.00000115,-0.00001031,0.16926456,0
 .,-0.00009031,0.01140122,0.00002947,-0.00000469,-0.00773414,-0.0000000
 5,0.00009457,-0.01209523,0.00001122,-0.01152485,0.01644931,0.00000042,
 -0.00013918,-0.00445356,-0.00001157,0.00002417,-0.01744301,0.00000031,
 0.00000449,0.00610892,0.00000017,-0.00002800,0.01147580,-0.00000232,-0
 .00000021,0.00047581,0.00000028,-0.00000024,-0.00049777,-0.00000016,0.
 00000044,0.00009948,-0.00000067,0.,-0.00093506,-0.00000015,0.00724036,
 0.00022612,-0.00000017,-0.00773258,0.00078647,-0.00000007,-0.00014170,
 -0.00007753,0.00000040,0.00000151,-0.00928709,-0.00000023,-0.00000066,
 0.00846494,0.00000099,-0.00000142,0.00018823,0.00000183,0.00000057,0.0
 0063392,-0.00000261,0.18341576,-0.00000587,-0.02189023,-0.07427561,-0.
 00009157,0.01293586,0.00267638,0.00001166,0.01284725,0.00739749,-0.000
 00053,-0.00111813,0.00008945,-0.00000350,0.00035528,0.02187459,0.00007
 856,-0.01458011,-0.02105750,-0.00008245,0.01177130,-0.18554251,-0.0000
 0556,0.06102326,-0.00987469,0.00000378,-0.00053839,0.19525221,0.000005
 86,0.02310587,0.00000560,-0.00000801,0.00089927,0.00000007,0.00000219,
 -0.02383448,0.04958342,0.00000847,0.00041261,0.00959358,-0.00000298,0.
 00044505,-0.05917024,-0.00000559,-0.00192103,-0.00054964,-0.00000023,0
 .00040511,-0.00019915,0.00000024,-0.00027873,0.00016500,-0.00000005,-0
 .00000676,0.00058381,0.00000053,-0.00009751,-0.00000347,-0.00000015,-0
 .00013642,0.00000382,-0.00000041,-0.00017066,0.00000010,0.00000004,0.0
 0040460,0.00281763,0.00000454,0.00123160,-0.00138340,-0.00000402,0.002
 36381,-0.00131464,-0.00000007,0.00106337,-0.00011958,-0.00000044,-0.00
 465875,-0.01788231,0.00000004,0.03255727,0.11659785,0.00000004,-0.0267
 7912,0.01430470,-0.00000012,-0.13199145,0.01719575,0.00000031,-0.02098
 822,-0.00000024,-0.00000018,0.00376409,-0.11623582,-0.00000002,0.00246
 421,0.10244262,0.00000021,0.03333531,0.00555129,0.00000002,0.00782170,
 -0.03271523,0.,0.02330655,0.02623098,-0.00000003,-0.01106513,0.0000000
 1,0.00000006,0.01683317,-0.00000008,-0.00000003,-0.00585167,0.00981672
 ,-0.00000004,0.01790417,0.02083912,-0.00000005,-0.03293868,-0.03118960
 ,0.00000005,0.01372616,-0.00197366,0.00000006,0.00757188,0.00121474,-0
 .00000013,-0.00951332,0.00093296,0.,0.00053377,-0.00017395,-0.00000032
 ,-0.00050391,0.00000019,0.00000024,0.00039095,-0.00000011,0.,0.0000836
 3,0.00000005,0.00000007,0.00002935,-0.01017880,0.00000003,0.00641072,0
 .00870981,0.00000008,-0.00286084,0.00006137,0.00000002,0.00130835,0.00
 140761,-0.00000012,-0.00485815,0.14596020,-0.00000015,0.16069887,-0.00
 936953,-0.00000048,-1.40879727,-0.11894432,0.00000019,0.02876013,0.107
 76343,-0.00000019,-0.16463352,0.00000199,0.00000002,0.17160232,-0.0224
 9872,0.00000047,1.43402894,0.00561223,-0.00000192,-1.46196100,-0.02962
 100,-0.00000006,-0.02473438,0.02097822,0.00000019,0.02081770,0.0075622
 3,0.00000009,0.00218660,0.00000011,-0.00000013,0.00097549,-0.00000003,
 0.00000004,-0.00315340,0.02424563,0.00000014,0.02198332,-0.03174394,-0
 .00000007,-0.00550986,0.00895560,-0.00000009,-0.01672218,0.00260511,0.
 00000002,0.00534378,-0.00979733,-0.00000003,-0.00393122,0.00108055,0.,
 -0.00145729,0.00611163,0.00000024,0.00174806,-0.00000162,-0.00000008,-
 0.00794429,0.00000148,-0.00000017,-0.00000868,0.00000002,0.00000001,0.
 00620488,0.00762263,-0.00000013,-0.04721499,-0.00262844,0.,0.03344195,
 -0.00503892,0.00000001,0.00024871,0.00004473,0.00000013,0.01352427,-0.
 00487471,0.00000598,0.00066637,0.00252344,0.00000054,-0.00181101,-0.00
 097581,-0.00000003,0.00003724,0.00068327,-0.00000070,-0.00007758,-0.00
 000106,-0.00000135,0.00015917,-0.00049324,-0.00000683,0.00249601,0.000
 54000,0.00000449,-0.00261753,0.00585263,-0.00000604,-0.00234151,0.0002
 5887,0.00000214,-0.00004621,-0.00599046,-0.00000565,-0.00055475,0.0000
 0147,0.00000151,-0.00009905,0.00000079,0.00000421,0.00062967,-0.002062
 85,0.00000610,-0.00092403,-0.00045399,-0.00000435,0.00013511,0.0022911
 6,-0.00000197,0.00114134,-0.00000119,0.00000008,-0.00022017,0.00003184
 ,-0.00000009,0.00000127,-0.00012134,-0.00000006,0.00022568,0.00009797,
 0.00000037,-0.00003404,-0.00000094,-0.00000014,0.00001748,0.00000155,-
 0.00000031,0.00002427,0.00000022,0.00000008,-0.00000824,0.00002959,0.0
 0000020,0.00024011,-0.00011866,0.00000092,-0.00001783,0.00009746,-0.00
 000029,-0.00035203,-0.00001099,-0.00000083,0.00014209,-0.01127737,0.00
 000594,0.00046480,0.00185353,0.00000061,-0.00441934,-0.00138946,-0.000
 00001,0.00136204,0.00027573,-0.00000068,0.00040741,-0.00000103,-0.0000
 0140,-0.00084689,0.00107785,-0.00000685,0.00877594,-0.00141268,0.00000
 464,-0.00596353,0.01228224,-0.00000602,-0.00459534,0.00071605,0.000002
 14,-0.00000505,-0.01309310,-0.00000563,-0.00116060,0.00000146,0.000001
 51,-0.00016775,0.00000078,0.00000419,0.00126259,-0.00283029,0.00000608
 ,-0.00140903,-0.00131086,-0.00000435,0.00049189,0.00432589,-0.00000195
 ,0.00142003,0.00038407,0.00000009,0.00138099,0.00039920,-0.00000006,0.
 00033836,0.00009485,-0.00000007,-0.00018482,-0.00087937,0.00000037,0.0
 0028841,-0.00000104,-0.00000009,0.00060724,0.00000143,-0.00000031,0.00
 006592,0.00000021,0.00000003,-0.00096432,-0.00010116,0.00000016,-0.002
 94926,0.00135889,0.00000073,-0.00330449,0.00027482,-0.00000029,-0.0005
 0300,-0.00153427,-0.00000061,0.00676263,0.07734680,-0.00000441,0.29640
 659,-0.02309094,0.00000653,-0.94056940,-0.06528387,0.00000686,0.036535
 76,0.06114192,0.00001248,-0.28369843,-0.00000421,-0.00001217,0.2784140
 9,-0.00144721,-0.00000755,0.91032498,-0.01116935,0.00000543,-0.9192633
 1,-0.01179584,-0.00000275,-0.01397903,0.00594313,0.00000002,0.01395409
 ,0.00568477,-0.00000803,-0.01515937,-0.00000178,0.00000523,0.00704793,
 0.00000056,0.00000288,0.00815877,0.02261663,0.00000136,0.02741504,-0.0
 2282315,-0.00000297,-0.00874532,0.00053080,0.00000151,-0.01759591,-0.0
 0026779,0.00000030,0.00053511,-0.00179933,-0.00000035,-0.00133914,0.00
 016779,-0.00000009,-0.00032432,0.00189994,-0.00000004,0.00245120,-0.00
 000054,0.00000008,-0.00176359,0.00000158,-0.00000015,-0.00004681,0.000
 00010,0.00000014,-0.00063915,0.00192053,-0.00000035,0.00282549,-0.0025
 4497,0.00000185,0.01768674,-0.00050507,-0.00000029,-0.00107276,0.00112
 994,-0.00000122,-0.01943749,0.15013559,0.00001639,-0.01968755,-0.04040
 048,-0.00001162,-0.03007042,-0.00247596,-0.00000655,0.00157030,0.00406
 514,-0.00001416,-0.00308515,0.00000733,0.00000948,0.00208197,-0.003807
 90,0.00000059,0.01788535,-0.00287861,-0.00000351,-0.01554497,-0.147918
 11,-0.00000975,0.03866317,-0.00158333,0.00000464,0.00712196,0.14975208
 ,-0.00000315,0.02276615,0.00000488,-0.00000246,0.00106156,0.00000105,0
 .00000565,-0.02379777,0.04286775,0.00001110,0.01249349,0.00120504,-0.0
 0000577,-0.00192310,-0.04401088,-0.00000564,-0.01135991,0.00025792,-0.
 00000009,0.00016812,-0.00000445,0.00000004,-0.00043708,-0.00025088,-0.
 00000004,-0.00006197,-0.00000402,0.00000092,0.00000657,-0.00000059,-0.
 00000047,-0.00005837,0.00000187,-0.00000054,-0.00002985,0.00000031,0.0
 0000009,0.00007545,0.00133954,-0.00000008,-0.00032090,0.00010320,0.000
 00195,-0.00040397,-0.00177323,-0.00000028,0.00079067,0.00032942,-0.000
 00159,-0.00006532,0.11810998,0.00000595,0.04000865,-0.02255885,0.00000
 058,-0.87064729,-0.11845020,0.00000005,0.05191736,0.12515702,-0.000001
 08,-0.05844718,-0.00000127,-0.00000113,0.05801080,-0.04468181,-0.00000
 706,0.82790802,-0.00690331,0.00000410,-0.81927826,-0.00534498,-0.00000
 607,-0.02824774,-0.00043405,0.00000230,0.05089817,0.00527211,-0.000005
 55,0.01931868,0.00000154,0.00000145,0.00206636,0.00000078,0.00000416,-
 0.02177744,0.05757605,0.00000617,0.04214695,-0.03615926,-0.00000434,-0
 .03011700,-0.02094023,-0.00000197,-0.00942549,0.00568470,0.00000006,-0
 .00110872,-0.00627163,-0.00000009,0.00068538,0.00050705,-0.00000006,-0
 .00047728,0.00008628,0.00000067,-0.00088015,-0.00000084,-0.00000037,-0
 .00162995,0.00000218,-0.00000039,0.00039263,0.00000015,0.00000009,0.00
 212075,0.00966376,0.00000031,0.00058191,-0.00885548,0.00000152,0.02149
 273,-0.00170979,-0.00000034,-0.00260209,0.00090069,-0.00000148,-0.0194
 6066,-0.90138765,0.00000607,-0.93328271,0.00397062,0.00000803,4.844776
 20,0.87526583,-0.00000035,0.00744349,-0.84954722,-0.00000079,0.9394579
 8,-0.00000957,-0.00000140,-0.92646881,0.01697546,-0.00001486,-4.882841
 39,-0.02595167,0.00001406,4.93156933,0.02797425,-0.00000572,-0.0087065
 4,-0.01522886,0.00000220,0.00658945,-0.01215792,-0.00000574,-0.0057312
 5,0.00000139,0.00000172,-0.00104007,0.00000076,0.00000408,0.00705897,-
 0.02128327,0.00000585,0.00099758,0.01265650,-0.00000426,0.00350015,0.0
 0833166,-0.00000190,-0.00700051,-0.00185278,0.,-0.00270620,-0.01048880
 ,0.,0.00238545,-0.00058750,-0.00000005,0.00029461,0.01292528,0.0000004
 7,-0.00044401,0.00000015,0.00000003,-0.01194909,0.00000004,-0.00000056
 ,-0.00028741,0.00000031,0.00000007,0.01267385,0.00033607,0.00000098,0.
 03706376,0.00585152,-0.00000024,-0.05222504,-0.00621422,-0.00000025,0.
 00250445,0.00002528,-0.00000050,0.01265632\\@


 IN THE WOODS WE RETURN TO REASON AND FAITH.

                                 -- EMERSON
 Job cpu time:       1 days  2 hours 44 minutes  4.4 seconds.
 Elapsed time:       0 days  0 hours 57 minutes 57.3 seconds.
 File lengths (MBytes):  RWF=   9248 Int=      0 D2E=      0 Chk=     48 Scr=      1
 Normal termination of Gaussian 16 at Tue Jun 29 15:21:39 2021.
