 Entering Gaussian System, Link 0=g16
 Input=brhocl_40_sp.gjf
 Output=brhocl_40_sp.log
 Initial command:
 /sw/contrib/gaussian/g16/B01/g16/l1.exe "/scr/Gau-26022.inp" -scrdir="/scr/"
 Entering Link 1 = /sw/contrib/gaussian/g16/B01/g16/l1.exe PID=     26023.
  
 Copyright (c) 1988-2017, Gaussian, Inc.  All Rights Reserved.
  
 This is part of the Gaussian(R) 16 program.  It is based on
 the Gaussian(R) 09 system (copyright 2009, Gaussian, Inc.),
 the Gaussian(R) 03 system (copyright 2003, Gaussian, Inc.),
 the Gaussian(R) 98 system (copyright 1998, Gaussian, Inc.),
 the Gaussian(R) 94 system (copyright 1995, Gaussian, Inc.),
 the Gaussian 92(TM) system (copyright 1992, Gaussian, Inc.),
 the Gaussian 90(TM) system (copyright 1990, Gaussian, Inc.),
 the Gaussian 88(TM) system (copyright 1988, Gaussian, Inc.),
 the Gaussian 86(TM) system (copyright 1986, Carnegie Mellon
 University), and the Gaussian 82(TM) system (copyright 1983,
 Carnegie Mellon University). Gaussian is a federally registered
 trademark of Gaussian, Inc.
  
 This software contains proprietary and confidential information,
 including trade secrets, belonging to Gaussian, Inc.
  
 This software is provided under written license and may be
 used, copied, transmitted, or stored only in accord with that
 written license.
  
 The following legend is applicable only to US Government
 contracts under FAR:
  
                    RESTRICTED RIGHTS LEGEND
  
 Use, reproduction and disclosure by the US Government is
 subject to restrictions as set forth in subparagraphs (a)
 and (c) of the Commercial Computer Software - Restricted
 Rights clause in FAR 52.227-19.
  
 Gaussian, Inc.
 340 Quinnipiac St., Bldg. 40, Wallingford CT 06492
  
  
 ---------------------------------------------------------------
 Warning -- This program may not be used in any manner that
 competes with the business of Gaussian, Inc. or will provide
 assistance to any competitor of Gaussian, Inc.  The licensee
 of this program is prohibited from giving any competitor of
 Gaussian, Inc. access to this program.  By using this program,
 the user acknowledges that Gaussian, Inc. is engaged in the
 business of creating and licensing software in the field of
 computational chemistry and represents and warrants to the
 licensee that it is not a competitor of Gaussian, Inc. and that
 it will not use this program in any manner prohibited above.
 ---------------------------------------------------------------
  

 Cite this work as:
 Gaussian 16, Revision B.01,
 M. J. Frisch, G. W. Trucks, H. B. Schlegel, G. E. Scuseria, 
 M. A. Robb, J. R. Cheeseman, G. Scalmani, V. Barone, 
 G. A. Petersson, H. Nakatsuji, X. Li, M. Caricato, A. V. Marenich, 
 J. Bloino, B. G. Janesko, R. Gomperts, B. Mennucci, H. P. Hratchian, 
 J. V. Ortiz, A. F. Izmaylov, J. L. Sonnenberg, D. Williams-Young, 
 F. Ding, F. Lipparini, F. Egidi, J. Goings, B. Peng, A. Petrone, 
 T. Henderson, D. Ranasinghe, V. G. Zakrzewski, J. Gao, N. Rega, 
 G. Zheng, W. Liang, M. Hada, M. Ehara, K. Toyota, R. Fukuda, 
 J. Hasegawa, M. Ishida, T. Nakajima, Y. Honda, O. Kitao, H. Nakai, 
 T. Vreven, K. Throssell, J. A. Montgomery, Jr., J. E. Peralta, 
 F. Ogliaro, M. J. Bearpark, J. J. Heyd, E. N. Brothers, K. N. Kudin, 
 V. N. Staroverov, T. A. Keith, R. Kobayashi, J. Normand, 
 K. Raghavachari, A. P. Rendell, J. C. Burant, S. S. Iyengar, 
 J. Tomasi, M. Cossi, J. M. Millam, M. Klene, C. Adamo, R. Cammi, 
 J. W. Ochterski, R. L. Martin, K. Morokuma, O. Farkas, 
 J. B. Foresman, and D. J. Fox, Gaussian, Inc., Wallingford CT, 2016.
 
 ******************************************
 Gaussian 16:  ES64L-G16RevB.01 20-Dec-2017
                23-Sep-2021 
 ******************************************
 %nproc=28
 Will use up to   28 processors via shared memory.
 %mem=120GB
 %chk=/gscratch/ilahie/mccoygrp/coire_hocl/brhocl/brhocl_40_sp.chk
 ----------------------------------------------------
 #p pop=NBO SP NoSymm mp2/aug-cc-pvtz density=current
 ----------------------------------------------------
 1/30=1,38=1,172=1/1;
 2/12=2,15=1,17=6,18=5,40=1/2;
 3/5=16,6=1,7=10,11=9,25=1,30=1,71=1/1,2,3;
 4//1;
 5/5=2,38=5/2;
 8/6=4,10=1/1;
 9/15=1,16=-3/6;
 10/5=1,13=10,31=1/2;
 6/7=2,8=2,9=2,10=2,22=-1,40=1/1,7;
 99/5=1,9=1/99;
 Leave Link    1 at Thu Sep 23 16:35:00 2021, MaxMem= 16106127360 cpu:               2.4 elap:               0.1
 (Enter /sw/contrib/gaussian/g16/B01/g16/l101.exe)
 -----
 title
 -----
 Symbolic Z-matrix:
 Charge = -1 Multiplicity = 1
 O                     0.        0.        0. 
 Br                    3.07382   0.        0. 
 Cl                   -0.39092   1.63833   0. 
 H                     0.75502   0.        0.63354 
 
 ITRead=  0  0  0  0
 MicOpt= -1 -1 -1 -1
 NAtoms=      4 NQM=        4 NQMF=       0 NMMI=      0 NMMIF=      0
                NMic=       0 NMicF=      0.
                    Isotopes and Nuclear Properties:
 (Nuclear quadrupole moments (NQMom) in fm**2, nuclear magnetic moments (NMagM)
  in nuclear magnetons)

  Atom         1           2           3           4
 IAtWgt=          16          79          35           1
 AtmWgt=  15.9949146  78.9183361  34.9688527   1.0078250
 NucSpn=           0           3           3           1
 AtZEff=  -0.0000000  -0.0000000  -0.0000000  -0.0000000
 NQMom=    0.0000000  31.3000000  -8.1650000   0.0000000
 NMagM=    0.0000000   2.1063990   0.8218740   2.7928460
 AtZNuc=   8.0000000  35.0000000  17.0000000   1.0000000
 Leave Link  101 at Thu Sep 23 16:35:00 2021, MaxMem= 16106127360 cpu:               3.7 elap:               0.2
 (Enter /sw/contrib/gaussian/g16/B01/g16/l202.exe)
                          Input orientation:                          
 ---------------------------------------------------------------------
 Center     Atomic      Atomic             Coordinates (Angstroms)
 Number     Number       Type             X           Y           Z
 ---------------------------------------------------------------------
      1          8           0        0.000000    0.000000    0.000000
      2         35           0        3.073817    0.000000    0.000000
      3         17           0       -0.390921    1.638333    0.000000
      4          1           0        0.755021    0.000000    0.633538
 ---------------------------------------------------------------------
                    Distance matrix (angstroms):
                    1          2          3          4
     1  O    0.000000
     2  Br   3.073817   0.000000
     3  Cl   1.684326   3.832564   0.000000
     4  H    0.985610   2.403786   2.097305   0.000000
 Symmetry turned off by external request.
 Stoichiometry    BrClHO(1-)
 Framework group  C1[X(BrClHO)]
 Deg. of freedom     6
 Full point group                 C1      NOp   1
 Rotational constants (GHZ):          22.1156896           1.2785050           1.2108930
 Leave Link  202 at Thu Sep 23 16:35:00 2021, MaxMem= 16106127360 cpu:               0.3 elap:               0.0
 (Enter /sw/contrib/gaussian/g16/B01/g16/l301.exe)
 Standard basis: Aug-CC-pVTZ (5D, 7F)
 Ernie: Thresh=  0.10000D-02 Tol=  0.10000D-05 Strict=F.
 Ernie:  48 primitive shells out of 228 were deleted.
   178 basis functions,   430 primitive gaussians,   208 cartesian basis functions
    31 alpha electrons       31 beta electrons
       nuclear repulsion energy       189.3754824001 Hartrees.
 IExCor=    0 DFT=F Ex=HF Corr=None ExCW=0 ScaHFX=  1.000000
 ScaDFX=  1.000000  1.000000  1.000000  1.000000 ScalE2=  1.000000  1.000000
 IRadAn=      5 IRanWt=     -1 IRanGd=            0 ICorTp=0 IEmpDi=  4
 NAtoms=    4 NActive=    4 NUniq=    4 SFac= 1.00D+00 NAtFMM=   60 NAOKFM=F Big=F
 Integral buffers will be    131072 words long.
 Raffenetti 1 integral format.
 Two-electron integral symmetry is turned off.
 Leave Link  301 at Thu Sep 23 16:35:00 2021, MaxMem= 16106127360 cpu:               1.4 elap:               0.1
 (Enter /sw/contrib/gaussian/g16/B01/g16/l302.exe)
 NPDir=0 NMtPBC=     1 NCelOv=     1 NCel=       1 NClECP=     1 NCelD=      1
         NCelK=      1 NCelE2=     1 NClLst=     1 CellRange=     0.0.
 One-electron integrals computed using PRISM.
 NBasis=   178 RedAO= T EigKep=  2.94D-04  NBF=   178
 NBsUse=   178 1.00D-06 EigRej= -1.00D+00 NBFU=   178
 Leave Link  302 at Thu Sep 23 16:35:00 2021, MaxMem= 16106127360 cpu:               4.3 elap:               0.2
 (Enter /sw/contrib/gaussian/g16/B01/g16/l303.exe)
 DipDrv:  MaxL=1.
 Leave Link  303 at Thu Sep 23 16:35:00 2021, MaxMem= 16106127360 cpu:               1.5 elap:               0.1
 (Enter /sw/contrib/gaussian/g16/B01/g16/l401.exe)
 ExpMin= 2.53D-02 ExpMax= 1.06D+07 ExpMxC= 1.21D+04 IAcc=3 IRadAn=         5 AccDes= 0.00D+00
 Harris functional with IExCor=  205 and IRadAn=       5 diagonalized for initial guess.
 HarFok:  IExCor=  205 AccDes= 0.00D+00 IRadAn=         5 IDoV= 1 UseB2=F ITyADJ=14
 ICtDFT=  3500011 ScaDFX=  1.000000  1.000000  1.000000  1.000000
 FoFCou: FMM=F IPFlag=           0 FMFlag=      100000 FMFlg1=           0
         NFxFlg=           0 DoJE=T BraDBF=F KetDBF=T FulRan=T
         wScrn=  0.000000 ICntrl=       500 IOpCl=  0 I1Cent=   200000004 NGrid=           0
         NMat0=    1 NMatS0=      1 NMatT0=    0 NMatD0=    1 NMtDS0=    0 NMtDT0=    0
 Symmetry not used in FoFCou.
 Harris En= -3106.39019562913    
 JPrj=0 DoOrth=F DoCkMO=F.
 Leave Link  401 at Thu Sep 23 16:35:01 2021, MaxMem= 16106127360 cpu:               7.1 elap:               0.3
 (Enter /sw/contrib/gaussian/g16/B01/g16/l502.exe)
 Keep R1 ints in memory in canonical form, NReq=149454470.
 FoFCou: FMM=F IPFlag=           0 FMFlag=           0 FMFlg1=           0
         NFxFlg=           0 DoJE=F BraDBF=F KetDBF=F FulRan=T
         wScrn=  0.000000 ICntrl=       600 IOpCl=  0 I1Cent=           0 NGrid=           0
         NMat0=    1 NMatS0=  15931 NMatT0=    0 NMatD0=    1 NMtDS0=    0 NMtDT0=    0
 Symmetry not used in FoFCou.
 Two-electron integral symmetry not used.
 Closed shell SCF:
 Using DIIS extrapolation, IDIIS=  1040.
 NGot= 16106127360 LenX= 15979127348 LenY= 15979083643
 Requested convergence on RMS density matrix=1.00D-08 within 128 cycles.
 Requested convergence on MAX density matrix=1.00D-06.
 Requested convergence on             energy=1.00D-06.
 No special actions if energy rises.

 Cycle   1  Pass 1  IDiag  1:
 E= -3107.29893183960    
 DIIS: error= 4.68D-02 at cycle   1 NSaved=   1.
 NSaved= 1 IEnMin= 1 EnMin= -3107.29893183960     IErMin= 1 ErrMin= 4.68D-02
 ErrMax= 4.68D-02  0.00D+00 EMaxC= 1.00D-01 BMatC= 6.18D-01 BMatP= 6.18D-01
 IDIUse=3 WtCom= 5.32D-01 WtEn= 4.68D-01
 Coeff-Com:  0.100D+01
 Coeff-En:   0.100D+01
 Coeff:      0.100D+01
 Gap=     0.554 Goal=   None    Shift=    0.000
 GapD=    0.554 DampG=2.000 DampE=0.500 DampFc=1.0000 IDamp=-1.
 RMSDP=2.74D-03 MaxDP=9.09D-02              OVMax= 1.17D-01

 Cycle   2  Pass 1  IDiag  1:
 E= -3107.43952061331     Delta-E=       -0.140588773710 Rises=F Damp=F
 DIIS: error= 9.97D-03 at cycle   2 NSaved=   2.
 NSaved= 2 IEnMin= 2 EnMin= -3107.43952061331     IErMin= 2 ErrMin= 9.97D-03
 ErrMax= 9.97D-03  0.00D+00 EMaxC= 1.00D-01 BMatC= 4.17D-02 BMatP= 6.18D-01
 IDIUse=3 WtCom= 9.00D-01 WtEn= 9.97D-02
 Coeff-Com:  0.133D+00 0.867D+00
 Coeff-En:   0.000D+00 0.100D+01
 Coeff:      0.120D+00 0.880D+00
 Gap=     0.312 Goal=   None    Shift=    0.000
 RMSDP=9.64D-04 MaxDP=3.87D-02 DE=-1.41D-01 OVMax= 7.23D-02

 Cycle   3  Pass 1  IDiag  1:
 E= -3107.45821828389     Delta-E=       -0.018697670578 Rises=F Damp=F
 DIIS: error= 6.13D-03 at cycle   3 NSaved=   3.
 NSaved= 3 IEnMin= 3 EnMin= -3107.45821828389     IErMin= 3 ErrMin= 6.13D-03
 ErrMax= 6.13D-03  0.00D+00 EMaxC= 1.00D-01 BMatC= 1.26D-02 BMatP= 4.17D-02
 IDIUse=3 WtCom= 9.39D-01 WtEn= 6.13D-02
 Coeff-Com:  0.721D-02 0.352D+00 0.641D+00
 Coeff-En:   0.000D+00 0.155D+00 0.845D+00
 Coeff:      0.676D-02 0.340D+00 0.653D+00
 Gap=     0.311 Goal=   None    Shift=    0.000
 RMSDP=3.27D-04 MaxDP=1.29D-02 DE=-1.87D-02 OVMax= 3.37D-02

 Cycle   4  Pass 1  IDiag  1:
 E= -3107.46685548469     Delta-E=       -0.008637200807 Rises=F Damp=F
 DIIS: error= 6.47D-04 at cycle   4 NSaved=   4.
 NSaved= 4 IEnMin= 4 EnMin= -3107.46685548469     IErMin= 4 ErrMin= 6.47D-04
 ErrMax= 6.47D-04  0.00D+00 EMaxC= 1.00D-01 BMatC= 1.35D-04 BMatP= 1.26D-02
 IDIUse=3 WtCom= 9.94D-01 WtEn= 6.47D-03
 Coeff-Com: -0.486D-02-0.309D-01 0.333D-01 0.100D+01
 Coeff-En:   0.000D+00 0.000D+00 0.000D+00 0.100D+01
 Coeff:     -0.483D-02-0.307D-01 0.331D-01 0.100D+01
 Gap=     0.309 Goal=   None    Shift=    0.000
 RMSDP=5.71D-05 MaxDP=1.20D-03 DE=-8.64D-03 OVMax= 3.56D-03

 Cycle   5  Pass 1  IDiag  1:
 E= -3107.46702151694     Delta-E=       -0.000166032244 Rises=F Damp=F
 DIIS: error= 1.66D-04 at cycle   5 NSaved=   5.
 NSaved= 5 IEnMin= 5 EnMin= -3107.46702151694     IErMin= 5 ErrMin= 1.66D-04
 ErrMax= 1.66D-04  0.00D+00 EMaxC= 1.00D-01 BMatC= 1.04D-05 BMatP= 1.35D-04
 IDIUse=3 WtCom= 9.98D-01 WtEn= 1.66D-03
 Coeff-Com:  0.595D-03-0.140D-01-0.309D-01-0.173D+00 0.122D+01
 Coeff-En:   0.000D+00 0.000D+00 0.000D+00 0.000D+00 0.100D+01
 Coeff:      0.594D-03-0.140D-01-0.309D-01-0.172D+00 0.122D+01
 Gap=     0.310 Goal=   None    Shift=    0.000
 RMSDP=2.86D-05 MaxDP=9.13D-04 DE=-1.66D-04 OVMax= 2.55D-03

 Cycle   6  Pass 1  IDiag  1:
 E= -3107.46704981428     Delta-E=       -0.000028297345 Rises=F Damp=F
 DIIS: error= 6.42D-05 at cycle   6 NSaved=   6.
 NSaved= 6 IEnMin= 6 EnMin= -3107.46704981428     IErMin= 6 ErrMin= 6.42D-05
 ErrMax= 6.42D-05  0.00D+00 EMaxC= 1.00D-01 BMatC= 1.53D-06 BMatP= 1.04D-05
 IDIUse=1 WtCom= 1.00D+00 WtEn= 0.00D+00
 Coeff-Com:  0.555D-03 0.254D-02-0.282D-02-0.127D+00 0.265D-02 0.112D+01
 Coeff:      0.555D-03 0.254D-02-0.282D-02-0.127D+00 0.265D-02 0.112D+01
 Gap=     0.310 Goal=   None    Shift=    0.000
 RMSDP=1.18D-05 MaxDP=4.58D-04 DE=-2.83D-05 OVMax= 1.26D-03

 Cycle   7  Pass 1  IDiag  1:
 E= -3107.46705461194     Delta-E=       -0.000004797654 Rises=F Damp=F
 DIIS: error= 2.45D-05 at cycle   7 NSaved=   7.
 NSaved= 7 IEnMin= 7 EnMin= -3107.46705461194     IErMin= 7 ErrMin= 2.45D-05
 ErrMax= 2.45D-05  0.00D+00 EMaxC= 1.00D-01 BMatC= 1.69D-07 BMatP= 1.53D-06
 IDIUse=1 WtCom= 1.00D+00 WtEn= 0.00D+00
 Coeff-Com: -0.221D-03 0.147D-02 0.620D-02 0.468D-01-0.164D+00-0.224D+00
 Coeff-Com:  0.133D+01
 Coeff:     -0.221D-03 0.147D-02 0.620D-02 0.468D-01-0.164D+00-0.224D+00
 Coeff:      0.133D+01
 Gap=     0.310 Goal=   None    Shift=    0.000
 RMSDP=5.11D-06 MaxDP=1.81D-04 DE=-4.80D-06 OVMax= 5.19D-04

 Cycle   8  Pass 1  IDiag  1:
 E= -3107.46705524736     Delta-E=       -0.000000635423 Rises=F Damp=F
 DIIS: error= 5.66D-06 at cycle   8 NSaved=   8.
 NSaved= 8 IEnMin= 8 EnMin= -3107.46705524736     IErMin= 8 ErrMin= 5.66D-06
 ErrMax= 5.66D-06  0.00D+00 EMaxC= 1.00D-01 BMatC= 1.04D-08 BMatP= 1.69D-07
 IDIUse=1 WtCom= 1.00D+00 WtEn= 0.00D+00
 Coeff-Com: -0.105D-04-0.662D-03-0.577D-03 0.652D-02 0.117D-01-0.434D-01
 Coeff-Com: -0.167D+00 0.119D+01
 Coeff:     -0.105D-04-0.662D-03-0.577D-03 0.652D-02 0.117D-01-0.434D-01
 Coeff:     -0.167D+00 0.119D+01
 Gap=     0.310 Goal=   None    Shift=    0.000
 RMSDP=1.19D-06 MaxDP=2.79D-05 DE=-6.35D-07 OVMax= 1.19D-04

 Cycle   9  Pass 1  IDiag  1:
 E= -3107.46705528371     Delta-E=       -0.000000036353 Rises=F Damp=F
 DIIS: error= 2.92D-06 at cycle   9 NSaved=   9.
 NSaved= 9 IEnMin= 9 EnMin= -3107.46705528371     IErMin= 9 ErrMin= 2.92D-06
 ErrMax= 2.92D-06  0.00D+00 EMaxC= 1.00D-01 BMatC= 1.47D-09 BMatP= 1.04D-08
 IDIUse=1 WtCom= 1.00D+00 WtEn= 0.00D+00
 Coeff-Com:  0.200D-04-0.412D-04-0.491D-03-0.623D-02 0.149D-01 0.362D-01
 Coeff-Com: -0.142D+00-0.497D-01 0.115D+01
 Coeff:      0.200D-04-0.412D-04-0.491D-03-0.623D-02 0.149D-01 0.362D-01
 Coeff:     -0.142D+00-0.497D-01 0.115D+01
 Gap=     0.310 Goal=   None    Shift=    0.000
 RMSDP=4.42D-07 MaxDP=9.05D-06 DE=-3.64D-08 OVMax= 5.00D-05

 Cycle  10  Pass 1  IDiag  1:
 E= -3107.46705528906     Delta-E=       -0.000000005346 Rises=F Damp=F
 DIIS: error= 1.44D-06 at cycle  10 NSaved=  10.
 NSaved=10 IEnMin=10 EnMin= -3107.46705528906     IErMin=10 ErrMin= 1.44D-06
 ErrMax= 1.44D-06  0.00D+00 EMaxC= 1.00D-01 BMatC= 2.70D-10 BMatP= 1.47D-09
 IDIUse=1 WtCom= 1.00D+00 WtEn= 0.00D+00
 Coeff-Com: -0.107D-05 0.972D-04 0.164D-03 0.422D-03-0.450D-02-0.244D-02
 Coeff-Com:  0.610D-01-0.212D+00-0.173D+00 0.133D+01
 Coeff:     -0.107D-05 0.972D-04 0.164D-03 0.422D-03-0.450D-02-0.244D-02
 Coeff:      0.610D-01-0.212D+00-0.173D+00 0.133D+01
 Gap=     0.310 Goal=   None    Shift=    0.000
 RMSDP=2.53D-07 MaxDP=5.93D-06 DE=-5.35D-09 OVMax= 2.94D-05

 Cycle  11  Pass 1  IDiag  1:
 E= -3107.46705529036     Delta-E=       -0.000000001301 Rises=F Damp=F
 DIIS: error= 5.25D-07 at cycle  11 NSaved=  11.
 NSaved=11 IEnMin=11 EnMin= -3107.46705529036     IErMin=11 ErrMin= 5.25D-07
 ErrMax= 5.25D-07  0.00D+00 EMaxC= 1.00D-01 BMatC= 3.14D-11 BMatP= 2.70D-10
 IDIUse=1 WtCom= 1.00D+00 WtEn= 0.00D+00
 Coeff-Com: -0.200D-05-0.522D-06 0.312D-04 0.506D-03-0.103D-02-0.262D-02
 Coeff-Com:  0.576D-02 0.400D-01-0.127D+00-0.225D+00 0.131D+01
 Coeff:     -0.200D-05-0.522D-06 0.312D-04 0.506D-03-0.103D-02-0.262D-02
 Coeff:      0.576D-02 0.400D-01-0.127D+00-0.225D+00 0.131D+01
 Gap=     0.310 Goal=   None    Shift=    0.000
 RMSDP=9.90D-08 MaxDP=2.55D-06 DE=-1.30D-09 OVMax= 1.05D-05

 Cycle  12  Pass 1  IDiag  1:
 E= -3107.46705529054     Delta-E=       -0.000000000183 Rises=F Damp=F
 DIIS: error= 1.22D-07 at cycle  12 NSaved=  12.
 NSaved=12 IEnMin=12 EnMin= -3107.46705529054     IErMin=12 ErrMin= 1.22D-07
 ErrMax= 1.22D-07  0.00D+00 EMaxC= 1.00D-01 BMatC= 3.74D-12 BMatP= 3.14D-11
 IDIUse=1 WtCom= 1.00D+00 WtEn= 0.00D+00
 Coeff-Com:  0.255D-06-0.172D-04-0.294D-04-0.279D-04 0.722D-03 0.905D-04
 Coeff-Com: -0.917D-02 0.328D-01 0.192D-01-0.176D+00-0.117D-01 0.114D+01
 Coeff:      0.255D-06-0.172D-04-0.294D-04-0.279D-04 0.722D-03 0.905D-04
 Coeff:     -0.917D-02 0.328D-01 0.192D-01-0.176D+00-0.117D-01 0.114D+01
 Gap=     0.310 Goal=   None    Shift=    0.000
 RMSDP=3.04D-08 MaxDP=7.88D-07 DE=-1.83D-10 OVMax= 2.91D-06

 Cycle  13  Pass 1  IDiag  1:
 E= -3107.46705529054     Delta-E=        0.000000000005 Rises=F Damp=F
 DIIS: error= 4.80D-08 at cycle  13 NSaved=  13.
 NSaved=13 IEnMin=12 EnMin= -3107.46705529054     IErMin=13 ErrMin= 4.80D-08
 ErrMax= 4.80D-08  0.00D+00 EMaxC= 1.00D-01 BMatC= 5.32D-13 BMatP= 3.74D-12
 IDIUse=1 WtCom= 1.00D+00 WtEn= 0.00D+00
 Coeff-Com:  0.171D-06 0.564D-05 0.513D-05-0.618D-04-0.601D-04 0.188D-03
 Coeff-Com:  0.222D-02-0.137D-01 0.505D-02 0.768D-01-0.994D-01-0.476D+00
 Coeff-Com:  0.151D+01
 Coeff:      0.171D-06 0.564D-05 0.513D-05-0.618D-04-0.601D-04 0.188D-03
 Coeff:      0.222D-02-0.137D-01 0.505D-02 0.768D-01-0.994D-01-0.476D+00
 Coeff:      0.151D+01
 Gap=     0.310 Goal=   None    Shift=    0.000
 RMSDP=1.29D-08 MaxDP=2.55D-07 DE= 4.55D-12 OVMax= 1.56D-06

 Cycle  14  Pass 1  IDiag  1:
 E= -3107.46705529054     Delta-E=        0.000000000000 Rises=F Damp=F
 DIIS: error= 2.23D-08 at cycle  14 NSaved=  14.
 NSaved=14 IEnMin=12 EnMin= -3107.46705529054     IErMin=14 ErrMin= 2.23D-08
 ErrMax= 2.23D-08  0.00D+00 EMaxC= 1.00D-01 BMatC= 1.05D-13 BMatP= 5.32D-13
 IDIUse=1 WtCom= 1.00D+00 WtEn= 0.00D+00
 Coeff-Com: -0.515D-07 0.757D-06 0.229D-05 0.152D-04-0.673D-04-0.430D-04
 Coeff-Com:  0.489D-03-0.129D-03-0.511D-02-0.590D-03 0.513D-01-0.666D-01
 Coeff-Com: -0.450D+00 0.147D+01
 Coeff:     -0.515D-07 0.757D-06 0.229D-05 0.152D-04-0.673D-04-0.430D-04
 Coeff:      0.489D-03-0.129D-03-0.511D-02-0.590D-03 0.513D-01-0.666D-01
 Coeff:     -0.450D+00 0.147D+01
 Gap=     0.310 Goal=   None    Shift=    0.000
 RMSDP=6.11D-09 MaxDP=1.25D-07 DE= 4.55D-13 OVMax= 7.74D-07

 SCF Done:  E(RHF) =  -3107.46705529     A.U. after   14 cycles
            NFock= 14  Conv=0.61D-08     -V/T= 2.0000
 KE= 3.107346987792D+03 PE=-7.821498812517D+03 EE= 1.417309287035D+03
 Leave Link  502 at Thu Sep 23 16:35:05 2021, MaxMem= 16106127360 cpu:              40.8 elap:               4.2
 (Enter /sw/contrib/gaussian/g16/B01/g16/l801.exe)
 ExpMin= 2.53D-02 ExpMax= 1.06D+07 ExpMxC= 1.21D+04 IAcc=3 IRadAn=         5 AccDes= 0.00D+00
 HarFok:  IExCor=  205 AccDes= 0.00D+00 IRadAn=         5 IDoV=-2 UseB2=F ITyADJ=14
 ICtDFT= 12500011 ScaDFX=  1.000000  1.000000  1.000000  1.000000
 Largest valence mixing into a core orbital is  4.47D-04
 Largest core mixing into a valence orbital is  1.59D-04
 Range of M.O.s used for correlation:    16   178
 NBasis=   178 NAE=    31 NBE=    31 NFC=    15 NFV=     0
 NROrb=    163 NOA=    16 NOB=    16 NVA=   147 NVB=   147

 **** Warning!!: The largest alpha MO coefficient is  0.10657013D+02

 Leave Link  801 at Thu Sep 23 16:35:05 2021, MaxMem= 16106127360 cpu:               2.1 elap:               0.1
 (Enter /sw/contrib/gaussian/g16/B01/g16/l906.exe)
 Frozen-core derivative calculation, NFC=  15 NFV=   0.
 FulOut=F Deriv=T AODrv=F NAtomX=     4
   MMem=         124  MDisk=          16 MDiskD=          16
  W3Min=     1147744 MinDsk=     1765480 NBas6D=         208
 NBas2D=       22240    NTT=       21736    LW2=     9911920
    MDV= 16105653173 MDiskM=      387107 NBas2p=       22041
 Fully in-core method, ICMem=   527338992.
 IMap=   1   2   3   4   5   6   7   8   9  10  11  12  13  14  15  16  17  18  19  20
 IMap=  21  22  23  24  25  26  27  28  29  30  31
 JobTyp=1 Pass  1 fully in-core, NPsUse= 28.
 Compute canonical integrals.
 FoFCou: FMM=F IPFlag=           0 FMFlag=           0 FMFlg1=           0
         NFxFlg=           0 DoJE=F BraDBF=F KetDBF=F FulRan=T
         wScrn=  0.000000 ICntrl=       600 IOpCl=  1 I1Cent=           0 NGrid=           0
         NMat0=    1 NMatS0=  22240 NMatT0=    0 NMatD0=    1 NMtDS0=    0 NMtDT0=    0
 Symmetry not used in FoFCou.
 Spin components of T(2) and E(2):
     alpha-alpha T2 =       0.3007452008D-01 E2=     -0.9336621513D-01
     alpha-beta  T2 =       0.1611016461D+00 E2=     -0.5134174956D+00
     beta-beta   T2 =       0.3007452008D-01 E2=     -0.9336621513D-01
 The integrals were generated   1 times.
 ANorm=    0.1105102116D+01
 E2 =    -0.7001499259D+00 EUMP2 =    -0.31081672052164D+04
 Leave Link  906 at Thu Sep 23 16:35:11 2021, MaxMem= 16106127360 cpu:             173.2 elap:               6.2
 (Enter /sw/contrib/gaussian/g16/B01/g16/l1002.exe)
 Minotr:  Closed shell wavefunction.
          Computing MP2/KS-MP2 derivatives.
          Using Z-Vector for PSCF gradient.
          Skipping F1 and S1 gradient terms here.
          Frozen-core window.
          Direct CPHF calculation.
          Differentiating once with respect to electric field.
                with respect to dipole field.
          Electric field/nuclear overlap derivatives assumed to be zero.
          Requested convergence is 1.0D-10 RMS, and 1.0D-09 maximum.
          NewPWx=F KeepS1=T KeepF1=T KeepIn=T MapXYZ=F SortEE=F KeepMc=T.
 Keep R1 ints in memory in canonical form, NReq=149459278.
 FoFCou: FMM=F IPFlag=           0 FMFlag=           0 FMFlg1=           0
         NFxFlg=           0 DoJE=F BraDBF=F KetDBF=F FulRan=T
         wScrn=  0.000000 ICntrl=       600 IOpCl=  0 I1Cent=           0 NGrid=           0
         NMat0=    1 NMatS0=  15931 NMatT0=    0 NMatD0=    1 NMtDS0=    0 NMtDT0=    0
 Symmetry not used in FoFCou.
 Two-electron integral symmetry not used.
          MDV=   16106127360 using IRadAn=       5.
          Solving linear equations separately, MaxMat=       0.
          There are     1 degrees of freedom in the 1st order CPHF.  IDoFFX=0 NUNeed=     1.
 LinEq1:  Iter=  0 NonCon=     1 RMS=2.62D-03 Max=3.70D-02 NDo=     1
 AX will form     1 AO Fock derivatives at one time.
 LinEq1:  Iter=  1 NonCon=     1 RMS=4.16D-04 Max=3.80D-03 NDo=     1
 LinEq1:  Iter=  2 NonCon=     1 RMS=1.99D-04 Max=3.10D-03 NDo=     1
 LinEq1:  Iter=  3 NonCon=     1 RMS=6.41D-05 Max=8.88D-04 NDo=     1
 LinEq1:  Iter=  4 NonCon=     1 RMS=2.54D-05 Max=6.80D-04 NDo=     1
 LinEq1:  Iter=  5 NonCon=     1 RMS=1.15D-05 Max=2.64D-04 NDo=     1
 LinEq1:  Iter=  6 NonCon=     1 RMS=3.44D-06 Max=7.83D-05 NDo=     1
 LinEq1:  Iter=  7 NonCon=     1 RMS=9.27D-07 Max=1.29D-05 NDo=     1
 LinEq1:  Iter=  8 NonCon=     1 RMS=2.73D-07 Max=3.49D-06 NDo=     1
 LinEq1:  Iter=  9 NonCon=     1 RMS=7.18D-08 Max=1.41D-06 NDo=     1
 LinEq1:  Iter= 10 NonCon=     1 RMS=1.77D-08 Max=3.41D-07 NDo=     1
 LinEq1:  Iter= 11 NonCon=     1 RMS=4.48D-09 Max=9.57D-08 NDo=     1
 LinEq1:  Iter= 12 NonCon=     1 RMS=1.00D-09 Max=1.79D-08 NDo=     1
 LinEq1:  Iter= 13 NonCon=     1 RMS=2.68D-10 Max=2.89D-09 NDo=     1
 LinEq1:  Iter= 14 NonCon=     0 RMS=6.86D-11 Max=6.52D-10 NDo=     1
 Linear equations converged to 1.000D-10 1.000D-09 after    14 iterations.
 End of Minotr F.D. properties file   721 does not exist.
 End of Minotr F.D. properties file   722 does not exist.
 End of Minotr F.D. properties file   788 does not exist.
 Leave Link 1002 at Thu Sep 23 16:35:16 2021, MaxMem= 16106127360 cpu:              42.9 elap:               5.0
 (Enter /sw/contrib/gaussian/g16/B01/g16/l601.exe)
 Copying SCF densities to generalized density rwf, IOpCl= 0 IROHF=0.

 **********************************************************************

            Population analysis using the MP2 Density.

 **********************************************************************

 Alpha  occ. eigenvalues -- -489.74047-104.74127 -64.88076 -58.23528 -58.23522
 Alpha  occ. eigenvalues --  -58.23518 -20.48025 -10.46092  -9.55326  -7.92810
 Alpha  occ. eigenvalues --   -7.92537  -7.92522  -7.16095  -7.16058  -7.16045
 Alpha  occ. eigenvalues --   -2.90268  -2.90257  -2.90237  -2.90192  -2.90190
 Alpha  occ. eigenvalues --   -1.25078  -0.90736  -0.71172  -0.55794  -0.45723
 Alpha  occ. eigenvalues --   -0.44826  -0.31892  -0.29240  -0.16630  -0.16114
 Alpha  occ. eigenvalues --   -0.15984
 Alpha virt. eigenvalues --    0.15048   0.17647   0.21719   0.22530   0.24269
 Alpha virt. eigenvalues --    0.25009   0.25122   0.27805   0.28173   0.31014
 Alpha virt. eigenvalues --    0.32549   0.33359   0.36551   0.39868   0.44179
 Alpha virt. eigenvalues --    0.45722   0.49135   0.49639   0.51328   0.53444
 Alpha virt. eigenvalues --    0.54561   0.55434   0.56719   0.58603   0.59658
 Alpha virt. eigenvalues --    0.60305   0.63995   0.64652   0.73039   0.74399
 Alpha virt. eigenvalues --    0.75456   0.77326   0.81519   0.86437   0.86904
 Alpha virt. eigenvalues --    0.87627   0.89745   0.94102   0.96771   0.98995
 Alpha virt. eigenvalues --    1.00960   1.01971   1.02975   1.04102   1.04361
 Alpha virt. eigenvalues --    1.07378   1.08105   1.09221   1.10707   1.12626
 Alpha virt. eigenvalues --    1.13117   1.17346   1.18624   1.19637   1.21052
 Alpha virt. eigenvalues --    1.21297   1.23044   1.26242   1.26505   1.33102
 Alpha virt. eigenvalues --    1.34240   1.36558   1.39769   1.44937   1.48315
 Alpha virt. eigenvalues --    1.51175   1.55506   1.58829   1.64010   1.67783
 Alpha virt. eigenvalues --    1.69198   1.69965   1.75092   1.76797   1.85802
 Alpha virt. eigenvalues --    1.96660   2.09912   2.31220   2.39812   2.40164
 Alpha virt. eigenvalues --    2.41072   2.45906   2.46852   2.49366   2.51401
 Alpha virt. eigenvalues --    2.53749   2.55141   2.56391   2.56423   2.56960
 Alpha virt. eigenvalues --    2.57218   2.60378   2.61109   2.63368   2.63919
 Alpha virt. eigenvalues --    2.65472   2.66987   2.68644   2.69646   2.70702
 Alpha virt. eigenvalues --    2.71956   2.72554   2.75165   2.78728   2.80601
 Alpha virt. eigenvalues --    2.86204   2.92898   2.96818   3.01564   3.10777
 Alpha virt. eigenvalues --    3.18650   3.21289   3.22403   3.23445   3.29138
 Alpha virt. eigenvalues --    3.34021   3.48914   3.54864   3.55467   3.90336
 Alpha virt. eigenvalues --    4.01022   4.33345   4.39760   4.46785   4.55469
 Alpha virt. eigenvalues --    4.62888   4.72551   4.91798   5.00045   5.35937
 Alpha virt. eigenvalues --    5.44245   5.68398   6.37169   6.61964   6.85620
 Alpha virt. eigenvalues --    6.89491   6.90772   6.97392   7.32585   7.35033
 Alpha virt. eigenvalues --    7.36067   7.45279   7.48824   7.70448   7.72475
 Alpha virt. eigenvalues --    8.37955  14.54294
          Condensed to atoms (all electrons):
               1          2          3          4
     1  O    8.514377  -0.077229  -0.118409   0.072874
     2  Br  -0.077229  35.919601   0.001440   0.068950
     3  Cl  -0.118409   0.001440  17.047339  -0.000659
     4  H    0.072874   0.068950  -0.000659   0.624750
 Mulliken charges:
               1
     1  O   -0.391613
     2  Br  -0.912762
     3  Cl   0.070289
     4  H    0.234086
 Sum of Mulliken charges =  -1.00000
 Mulliken charges with hydrogens summed into heavy atoms:
               1
     1  O   -0.157527
     2  Br  -0.912762
     3  Cl   0.070289
 Electronic spatial extent (au):  <R**2>=           1483.0099
 Charge=             -1.0000 electrons
 Dipole moment (field-independent basis, Debye):
    X=            -11.8322    Y=             -0.5203    Z=              0.5548  Tot=             11.8567
 Quadrupole moment (field-independent basis, Debye-Ang):
   XX=            -84.1157   YY=            -43.3219   ZZ=            -42.5626
   XY=              0.4411   XZ=              0.1967   YZ=             -0.2107
 Traceless Quadrupole moment (field-independent basis, Debye-Ang):
   XX=            -27.4489   YY=             13.3448   ZZ=             14.1041
   XY=              0.4411   XZ=              0.1967   YZ=             -0.2107
 Octapole moment (field-independent basis, Debye-Ang**2):
  XXX=           -327.7840  YYY=            -61.7746  ZZZ=             -1.8373  XYY=            -67.8168
  XXY=            -21.7247  XXZ=             -3.1790  XZZ=            -66.8027  YZZ=            -22.1368
  YYZ=             -1.1156  XYZ=              0.1161
 Hexadecapole moment (field-independent basis, Debye-Ang**3):
 XXXX=          -1795.9025 YYYY=           -257.3323 ZZZZ=            -64.8844 XXXY=             28.1390
 XXXZ=            -11.9962 YYYX=             21.9885 YYYZ=             -0.9563 ZZZX=             -2.7434
 ZZZY=             -0.3064 XXYY=           -281.9424 XXZZ=           -246.3148 YYZZ=            -58.3571
 XXYZ=             -0.2119 YYXZ=             -0.6988 ZZXY=              9.2109
 N-N= 1.893754824001D+02 E-N=-7.820053039010D+03  KE= 3.107374930456D+03
 No NMR shielding tensors so no spin-rotation constants.
 Leave Link  601 at Thu Sep 23 16:35:16 2021, MaxMem= 16106127360 cpu:               5.0 elap:               0.2
 (Enter /sw/contrib/gaussian/g16/B01/g16/l607.exe)
 ******************************Gaussian NBO Version 3.1******************************
             N A T U R A L   A T O M I C   O R B I T A L   A N D
          N A T U R A L   B O N D   O R B I T A L   A N A L Y S I S
 ******************************Gaussian NBO Version 3.1******************************
       /RESON  / : Allow strongly delocalized NBO set

 Analyzing the MP2 density

 Job title: title                                                           

 Storage needed:     95974 in NPA,    127345 in NBO (********** available)
 GSVD:  LWork=        4314 too small for GESVD, short by       49391 words or       49391 for optimal perf.


 NATURAL POPULATIONS:  Natural atomic orbital occupancies 
                                                          
   NAO  Atom  No  lang   Type(AO)    Occupancy
 --------------------------------------------
     1    O    1  S      Cor( 1S)     1.99971
     2    O    1  S      Val( 2S)     1.79319
     3    O    1  S      Ryd( 3S)     0.00903
     4    O    1  S      Ryd( 4S)     0.00108
     5    O    1  S      Ryd( 5S)     0.00016
     6    O    1  px     Val( 2p)     1.72517
     7    O    1  px     Ryd( 3p)     0.01425
     8    O    1  px     Ryd( 4p)     0.00070
     9    O    1  px     Ryd( 5p)     0.00038
    10    O    1  py     Val( 2p)     1.27670
    11    O    1  py     Ryd( 3p)     0.00770
    12    O    1  py     Ryd( 4p)     0.00061
    13    O    1  py     Ryd( 5p)     0.00032
    14    O    1  pz     Val( 2p)     1.80878
    15    O    1  pz     Ryd( 3p)     0.01613
    16    O    1  pz     Ryd( 4p)     0.00071
    17    O    1  pz     Ryd( 5p)     0.00024
    18    O    1  dxy    Ryd( 3d)     0.00918
    19    O    1  dxy    Ryd( 4d)     0.00050
    20    O    1  dxy    Ryd( 5d)     0.00018
    21    O    1  dxz    Ryd( 3d)     0.01126
    22    O    1  dxz    Ryd( 4d)     0.00054
    23    O    1  dxz    Ryd( 5d)     0.00014
    24    O    1  dyz    Ryd( 3d)     0.00986
    25    O    1  dyz    Ryd( 4d)     0.00056
    26    O    1  dyz    Ryd( 5d)     0.00010
    27    O    1  dx2y2  Ryd( 3d)     0.01051
    28    O    1  dx2y2  Ryd( 4d)     0.00048
    29    O    1  dx2y2  Ryd( 5d)     0.00019
    30    O    1  dz2    Ryd( 3d)     0.00932
    31    O    1  dz2    Ryd( 4d)     0.00057
    32    O    1  dz2    Ryd( 5d)     0.00021
    33    O    1  f(0)   Ryd( 4f)     0.00059
    34    O    1  f(0)   Ryd( 5f)     0.00011
    35    O    1  f(C1)  Ryd( 4f)     0.00059
    36    O    1  f(C1)  Ryd( 5f)     0.00012
    37    O    1  f(S1)  Ryd( 4f)     0.00060
    38    O    1  f(S1)  Ryd( 5f)     0.00012
    39    O    1  f(C2)  Ryd( 4f)     0.00064
    40    O    1  f(C2)  Ryd( 5f)     0.00014
    41    O    1  f(S2)  Ryd( 4f)     0.00060
    42    O    1  f(S2)  Ryd( 5f)     0.00012
    43    O    1  f(C3)  Ryd( 4f)     0.00064
    44    O    1  f(C3)  Ryd( 5f)     0.00014
    45    O    1  f(S3)  Ryd( 4f)     0.00061
    46    O    1  f(S3)  Ryd( 5f)     0.00011

    47   Br    2  S      Cor( 1S)     2.00001
    48   Br    2  S      Cor( 2S)     2.00000
    49   Br    2  S      Cor( 3S)     2.00000
    50   Br    2  S      Val( 4S)     1.97876
    51   Br    2  S      Ryd( 5S)     0.00313
    52   Br    2  S      Ryd( 6S)     0.00056
    53   Br    2  S      Ryd( 7S)     0.00020
    54   Br    2  px     Cor( 2p)     2.00000
    55   Br    2  px     Cor( 3p)     2.00000
    56   Br    2  px     Val( 4p)     1.92058
    57   Br    2  px     Ryd( 5p)     0.01059
    58   Br    2  px     Ryd( 6p)     0.00080
    59   Br    2  px     Ryd( 7p)     0.00010
    60   Br    2  py     Cor( 2p)     2.00002
    61   Br    2  py     Cor( 3p)     2.00000
    62   Br    2  py     Val( 4p)     1.95340
    63   Br    2  py     Ryd( 5p)     0.01188
    64   Br    2  py     Ryd( 6p)     0.00083
    65   Br    2  py     Ryd( 7p)     0.00009
    66   Br    2  pz     Cor( 2p)     2.00002
    67   Br    2  pz     Cor( 3p)     2.00000
    68   Br    2  pz     Val( 4p)     1.94729
    69   Br    2  pz     Ryd( 5p)     0.01180
    70   Br    2  pz     Ryd( 6p)     0.00083
    71   Br    2  pz     Ryd( 7p)     0.00008
    72   Br    2  dxy    Cor( 3d)     1.99768
    73   Br    2  dxy    Ryd( 4d)     0.01903
    74   Br    2  dxy    Ryd( 5d)     0.00160
    75   Br    2  dxy    Ryd( 6d)     0.00024
    76   Br    2  dxz    Cor( 3d)     1.99767
    77   Br    2  dxz    Ryd( 4d)     0.01922
    78   Br    2  dxz    Ryd( 5d)     0.00163
    79   Br    2  dxz    Ryd( 6d)     0.00027
    80   Br    2  dyz    Cor( 3d)     1.99769
    81   Br    2  dyz    Ryd( 4d)     0.01878
    82   Br    2  dyz    Ryd( 5d)     0.00178
    83   Br    2  dyz    Ryd( 6d)     0.00023
    84   Br    2  dx2y2  Cor( 3d)     1.99766
    85   Br    2  dx2y2  Ryd( 4d)     0.01870
    86   Br    2  dx2y2  Ryd( 5d)     0.00169
    87   Br    2  dx2y2  Ryd( 6d)     0.00027
    88   Br    2  dz2    Cor( 3d)     1.99768
    89   Br    2  dz2    Ryd( 4d)     0.01875
    90   Br    2  dz2    Ryd( 5d)     0.00173
    91   Br    2  dz2    Ryd( 6d)     0.00023
    92   Br    2  f(0)   Ryd( 4f)     0.00176
    93   Br    2  f(0)   Ryd( 5f)     0.00026
    94   Br    2  f(C1)  Ryd( 4f)     0.00175
    95   Br    2  f(C1)  Ryd( 5f)     0.00027
    96   Br    2  f(S1)  Ryd( 4f)     0.00176
    97   Br    2  f(S1)  Ryd( 5f)     0.00025
    98   Br    2  f(C2)  Ryd( 4f)     0.00175
    99   Br    2  f(C2)  Ryd( 5f)     0.00027
   100   Br    2  f(S2)  Ryd( 4f)     0.00177
   101   Br    2  f(S2)  Ryd( 5f)     0.00026
   102   Br    2  f(C3)  Ryd( 4f)     0.00175
   103   Br    2  f(C3)  Ryd( 5f)     0.00028
   104   Br    2  f(S3)  Ryd( 4f)     0.00174
   105   Br    2  f(S3)  Ryd( 5f)     0.00027

   106   Cl    3  S      Cor( 1S)     2.00000
   107   Cl    3  S      Cor( 2S)     1.99981
   108   Cl    3  S      Val( 3S)     1.88375
   109   Cl    3  S      Ryd( 4S)     0.00831
   110   Cl    3  S      Ryd( 5S)     0.00055
   111   Cl    3  S      Ryd( 6S)     0.00017
   112   Cl    3  px     Cor( 2p)     2.00003
   113   Cl    3  px     Val( 3p)     1.89328
   114   Cl    3  px     Ryd( 4p)     0.00975
   115   Cl    3  px     Ryd( 5p)     0.00058
   116   Cl    3  px     Ryd( 6p)     0.00008
   117   Cl    3  py     Cor( 2p)     1.99997
   118   Cl    3  py     Val( 3p)     0.96042
   119   Cl    3  py     Ryd( 4p)     0.00705
   120   Cl    3  py     Ryd( 5p)     0.00052
   121   Cl    3  py     Ryd( 6p)     0.00021
   122   Cl    3  pz     Cor( 2p)     2.00003
   123   Cl    3  pz     Val( 3p)     1.95416
   124   Cl    3  pz     Ryd( 4p)     0.01024
   125   Cl    3  pz     Ryd( 5p)     0.00061
   126   Cl    3  pz     Ryd( 6p)     0.00003
   127   Cl    3  dxy    Ryd( 3d)     0.01856
   128   Cl    3  dxy    Ryd( 4d)     0.00073
   129   Cl    3  dxy    Ryd( 5d)     0.00026
   130   Cl    3  dxz    Ryd( 3d)     0.01714
   131   Cl    3  dxz    Ryd( 4d)     0.00079
   132   Cl    3  dxz    Ryd( 5d)     0.00020
   133   Cl    3  dyz    Ryd( 3d)     0.01891
   134   Cl    3  dyz    Ryd( 4d)     0.00086
   135   Cl    3  dyz    Ryd( 5d)     0.00034
   136   Cl    3  dx2y2  Ryd( 3d)     0.01871
   137   Cl    3  dx2y2  Ryd( 4d)     0.00069
   138   Cl    3  dx2y2  Ryd( 5d)     0.00025
   139   Cl    3  dz2    Ryd( 3d)     0.01739
   140   Cl    3  dz2    Ryd( 4d)     0.00063
   141   Cl    3  dz2    Ryd( 5d)     0.00017
   142   Cl    3  f(0)   Ryd( 4f)     0.00128
   143   Cl    3  f(0)   Ryd( 5f)     0.00013
   144   Cl    3  f(C1)  Ryd( 4f)     0.00127
   145   Cl    3  f(C1)  Ryd( 5f)     0.00013
   146   Cl    3  f(S1)  Ryd( 4f)     0.00140
   147   Cl    3  f(S1)  Ryd( 5f)     0.00013
   148   Cl    3  f(C2)  Ryd( 4f)     0.00127
   149   Cl    3  f(C2)  Ryd( 5f)     0.00014
   150   Cl    3  f(S2)  Ryd( 4f)     0.00122
   151   Cl    3  f(S2)  Ryd( 5f)     0.00013
   152   Cl    3  f(C3)  Ryd( 4f)     0.00145
   153   Cl    3  f(C3)  Ryd( 5f)     0.00014
   154   Cl    3  f(S3)  Ryd( 4f)     0.00147
   155   Cl    3  f(S3)  Ryd( 5f)     0.00015

   156    H    4  S      Val( 1S)     0.48120
   157    H    4  S      Ryd( 2S)     0.00553
   158    H    4  S      Ryd( 3S)     0.00031
   159    H    4  S      Ryd( 4S)     0.00015
   160    H    4  px     Ryd( 2p)     0.00593
   161    H    4  px     Ryd( 3p)     0.00067
   162    H    4  px     Ryd( 4p)     0.00029
   163    H    4  py     Ryd( 2p)     0.00275
   164    H    4  py     Ryd( 3p)     0.00041
   165    H    4  py     Ryd( 4p)     0.00011
   166    H    4  pz     Ryd( 2p)     0.00351
   167    H    4  pz     Ryd( 3p)     0.00055
   168    H    4  pz     Ryd( 4p)     0.00018
   169    H    4  dxy    Ryd( 3d)     0.00026
   170    H    4  dxy    Ryd( 4d)     0.00008
   171    H    4  dxz    Ryd( 3d)     0.00032
   172    H    4  dxz    Ryd( 4d)     0.00009
   173    H    4  dyz    Ryd( 3d)     0.00017
   174    H    4  dyz    Ryd( 4d)     0.00007
   175    H    4  dx2y2  Ryd( 3d)     0.00027
   176    H    4  dx2y2  Ryd( 4d)     0.00011
   177    H    4  dz2    Ryd( 3d)     0.00024
   178    H    4  dz2    Ryd( 4d)     0.00011

 WARNING:  5 low occupancy (<1.9990e) core orbitals found on Br    2


 Summary of Natural Population Analysis:                  
                                                          
                                       Natural Population 
                Natural  -----------------------------------------------
    Atom  No    Charge         Core      Valence    Rydberg      Total
 -----------------------------------------------------------------------
      O    1   -0.71358      1.99971     6.60384    0.11003     8.71358
     Br    2   -0.94762     27.98843     7.80004    0.15916    35.94762
     Cl    3    0.16450      9.99983     6.69161    0.14405    16.83550
      H    4    0.49670      0.00000     0.48120    0.02210     0.50330
 =======================================================================
   * Total *   -1.00000     39.98797    21.57669    0.43533    62.00000

                                 Natural Population      
 --------------------------------------------------------
   Core                      39.98797 ( 99.9699% of  40)
   Valence                   21.57669 ( 98.0759% of  22)
   Natural Minimal Basis     61.56467 ( 99.2978% of  62)
   Natural Rydberg Basis      0.43533 (  0.7022% of  62)
 --------------------------------------------------------

    Atom  No          Natural Electron Configuration
 ----------------------------------------------------------------------------
      O    1      [core]2S( 1.79)2p( 4.81)3S( 0.01)3p( 0.04)3d( 0.05)
     Br    2      [core]4S( 1.98)4p( 5.82)4d( 0.09)5p( 0.03)4f( 0.01)5d( 0.01)
     Cl    3      [core]3S( 1.88)3p( 4.81)4S( 0.01)3d( 0.09)4p( 0.03)4f( 0.01)
      H    4            1S( 0.48)2S( 0.01)2p( 0.01)


 NATURAL BOND ORBITAL ANALYSIS:

                       Occupancies       Lewis Structure    Low   High
           Occ.    -------------------  -----------------   occ   occ
  Cycle   Thresh.   Lewis   Non-Lewis     CR  BD  3C  LP    (L)   (NL)   Dev
 =============================================================================
   1(1)    1.90    61.50029   0.49971     20   2   0   9     0      0    0.05
 -----------------------------------------------------------------------------

 Structure accepted: No low occupancy Lewis orbitals

 WARNING:  5 low occupancy (<1.9990e) core orbitals found on Br    2

 --------------------------------------------------------
   Core                     39.98797 ( 99.970% of  40)
   Valence Lewis            21.51231 ( 97.783% of  22)
  ==================       ============================
   Total Lewis              61.50029 ( 99.194% of  62)
  -----------------------------------------------------
   Valence non-Lewis         0.11308 (  0.182% of  62)
   Rydberg non-Lewis         0.38663 (  0.624% of  62)
  ==================       ============================
   Total non-Lewis           0.49971 (  0.806% of  62)
 --------------------------------------------------------


       (Occupancy)   Bond orbital/ Coefficients/ Hybrids
 ---------------------------------------------------------------------------------
     1. (1.94002) BD ( 1) O   1 -Cl   3  
                ( 59.23%)   0.7696* O   1 s( 10.14%)p 8.80( 89.29%)d 0.05(  0.55%)
                                                  f 0.00(  0.02%)
                                            0.0003  0.3156 -0.0407 -0.0127 -0.0018
                                           -0.2198  0.0267  0.0060  0.0022  0.9178
                                           -0.0177 -0.0079 -0.0090  0.0266  0.0195
                                            0.0035 -0.0006 -0.0130 -0.0017 -0.0025
                                            0.0086  0.0010 -0.0011  0.0219  0.0030
                                           -0.0005 -0.0589 -0.0045 -0.0001 -0.0351
                                           -0.0028 -0.0004 -0.0001  0.0003  0.0017
                                            0.0005 -0.0071  0.0001 -0.0035  0.0019
                                            0.0055 -0.0010  0.0054  0.0010 -0.0070
                                            0.0010
                ( 40.77%)   0.6385*Cl   3 s(  8.44%)p10.70( 90.27%)d 0.14(  1.18%)
                                                  f 0.01(  0.11%)
                                           -0.0000  0.0005  0.2840 -0.0597 -0.0099
                                           -0.0029  0.0001  0.2251 -0.0142 -0.0044
                                            0.0012 -0.0004 -0.9205  0.0661  0.0128
                                           -0.0033  0.0000  0.0049 -0.0003 -0.0023
                                            0.0012 -0.0473  0.0055 -0.0000  0.0079
                                            0.0005 -0.0009 -0.0112 -0.0015 -0.0010
                                           -0.0796  0.0095  0.0006 -0.0537  0.0058
                                           -0.0001 -0.0008  0.0002 -0.0047  0.0006
                                            0.0194 -0.0024  0.0001 -0.0007 -0.0019
                                            0.0013 -0.0176  0.0026  0.0196 -0.0023
     2. (1.96395) BD ( 1) O   1 - H   4  
                ( 77.63%)   0.8811* O   1 s( 24.57%)p 3.05( 74.89%)d 0.02(  0.53%)
                                                  f 0.00(  0.01%)
                                            0.0002  0.4956 -0.0053 -0.0072  0.0021
                                            0.6437 -0.0134 -0.0064 -0.0017 -0.0309
                                            0.0155  0.0015  0.0017  0.5771 -0.0059
                                           -0.0056 -0.0036  0.0192  0.0038  0.0011
                                            0.0606  0.0034 -0.0006  0.0192  0.0034
                                            0.0003  0.0253  0.0015  0.0019  0.0147
                                            0.0024  0.0019 -0.0072  0.0007  0.0049
                                            0.0009  0.0014 -0.0006  0.0040  0.0023
                                           -0.0000 -0.0009 -0.0023  0.0022 -0.0018
                                            0.0000
                ( 22.37%)   0.4729* H   4 s( 99.81%)p 0.00(  0.18%)d 0.00(  0.00%)
                                            0.9988  0.0216  0.0009  0.0003 -0.0003
                                           -0.0238 -0.0061  0.0113  0.0018 -0.0040
                                            0.0254 -0.0206 -0.0043  0.0010  0.0011
                                            0.0016 -0.0006  0.0016  0.0017  0.0003
                                           -0.0018 -0.0012 -0.0015
     3. (1.99971) CR ( 1) O   1           s(100.00%)p 0.00(  0.00%)
                                            1.0000 -0.0004  0.0000  0.0000  0.0000
                                           -0.0000 -0.0000  0.0000  0.0000 -0.0002
                                            0.0000  0.0000  0.0000 -0.0000 -0.0000
                                            0.0000  0.0000  0.0000 -0.0000 -0.0000
                                           -0.0000 -0.0000  0.0000 -0.0000 -0.0000
                                           -0.0000  0.0000  0.0000 -0.0000  0.0000
                                            0.0000 -0.0000  0.0000 -0.0000 -0.0000
                                           -0.0000  0.0000 -0.0000 -0.0000 -0.0000
                                           -0.0000  0.0000 -0.0000 -0.0000  0.0000
                                           -0.0000
     4. (2.00001) CR ( 1)Br   2           s(100.00%)p 0.00(  0.00%)
                                            1.0000 -0.0000 -0.0000  0.0000  0.0000
                                           -0.0000 -0.0000  0.0000  0.0000 -0.0002
                                            0.0000  0.0000  0.0000 -0.0000 -0.0000
                                            0.0000 -0.0000  0.0000  0.0000 -0.0000
                                           -0.0000  0.0001  0.0000 -0.0000  0.0000
                                            0.0000 -0.0000  0.0000 -0.0000  0.0000
                                           -0.0000  0.0000 -0.0000 -0.0000 -0.0000
                                           -0.0000  0.0000 -0.0000  0.0000 -0.0000
                                           -0.0000  0.0000 -0.0000  0.0000  0.0000
                                           -0.0000 -0.0000  0.0000  0.0000 -0.0000
                                           -0.0000  0.0000  0.0000 -0.0000 -0.0000
                                           -0.0000 -0.0000  0.0000  0.0000
     5. (2.00000) CR ( 2)Br   2           s(100.00%)
                                           -0.0000  1.0000 -0.0000  0.0000  0.0000
                                           -0.0000 -0.0000  0.0000  0.0000 -0.0000
                                            0.0000  0.0000  0.0000  0.0000 -0.0000
                                            0.0000 -0.0000  0.0000  0.0000 -0.0000
                                           -0.0000  0.0000  0.0000 -0.0000  0.0000
                                            0.0000 -0.0000  0.0000 -0.0000  0.0000
                                           -0.0000  0.0000 -0.0000 -0.0000 -0.0000
                                           -0.0000  0.0000 -0.0000  0.0000 -0.0000
                                           -0.0000  0.0000 -0.0000  0.0000  0.0000
                                           -0.0000 -0.0000  0.0000  0.0000 -0.0000
                                           -0.0000  0.0000  0.0000 -0.0000 -0.0000
                                           -0.0000 -0.0000  0.0000  0.0000
     6. (2.00000) CR ( 3)Br   2           s(100.00%)
                                           -0.0000 -0.0000  1.0000  0.0000  0.0000
                                           -0.0000 -0.0000  0.0000  0.0000 -0.0001
                                            0.0000  0.0000  0.0000  0.0000 -0.0000
                                            0.0000 -0.0000  0.0000  0.0000 -0.0000
                                           -0.0000  0.0000  0.0000 -0.0000  0.0000
                                            0.0000 -0.0000  0.0000 -0.0000  0.0000
                                           -0.0000  0.0000 -0.0000 -0.0000 -0.0000
                                           -0.0000  0.0000 -0.0000  0.0000 -0.0000
                                           -0.0000  0.0000 -0.0000  0.0000  0.0000
                                           -0.0000 -0.0000  0.0000  0.0000 -0.0000
                                           -0.0000  0.0000  0.0000 -0.0000 -0.0000
                                           -0.0000 -0.0000  0.0000  0.0000
     7. (2.00000) CR ( 4)Br   2           s(  0.00%)p 1.00(100.00%)
                                            0.0000  0.0000  0.0000 -0.0001 -0.0000
                                           -0.0000  0.0000  1.0000 -0.0000  0.0001
                                           -0.0000 -0.0000 -0.0000  0.0000  0.0000
                                            0.0000  0.0000 -0.0000 -0.0000  0.0000
                                            0.0000 -0.0001 -0.0000  0.0000 -0.0000
                                           -0.0000  0.0000 -0.0000  0.0000 -0.0000
                                            0.0000 -0.0000  0.0000 -0.0000  0.0000
                                           -0.0000 -0.0000  0.0000 -0.0000  0.0000
                                            0.0000 -0.0000  0.0000 -0.0000 -0.0000
                                            0.0000  0.0000 -0.0000 -0.0000  0.0000
                                            0.0000 -0.0000 -0.0000 -0.0000  0.0000
                                            0.0000  0.0000 -0.0000 -0.0000
     8. (2.00000) CR ( 5)Br   2           s(  0.00%)p 1.00(100.00%)
                                            0.0000  0.0000  0.0000 -0.0000 -0.0000
                                           -0.0000 -0.0000 -0.0000  1.0000  0.0000
                                           -0.0000 -0.0000 -0.0000  0.0000  0.0000
                                            0.0000  0.0000 -0.0000 -0.0000  0.0000
                                            0.0000 -0.0000 -0.0000  0.0000 -0.0000
                                           -0.0000  0.0000 -0.0000  0.0000 -0.0000
                                            0.0000 -0.0000  0.0000 -0.0000  0.0000
                                           -0.0000 -0.0000  0.0000 -0.0000  0.0000
                                            0.0000 -0.0000  0.0000 -0.0000 -0.0000
                                            0.0000  0.0000 -0.0000 -0.0000  0.0000
                                            0.0000 -0.0000 -0.0000  0.0000  0.0000
                                            0.0000  0.0000 -0.0000 -0.0000
     9. (2.00002) CR ( 6)Br   2           s(  0.00%)p 1.00(100.00%)
                                           -0.0000  0.0000  0.0000  0.0000 -0.0000
                                            0.0000  0.0000  0.0000  0.0000 -0.0000
                                            0.0000  0.0000 -0.0000  1.0000 -0.0000
                                           -0.0001 -0.0000 -0.0000 -0.0000 -0.0000
                                           -0.0000  0.0000  0.0000 -0.0000 -0.0000
                                           -0.0000  0.0000 -0.0000  0.0000  0.0000
                                           -0.0000 -0.0000  0.0000  0.0000 -0.0000
                                            0.0000 -0.0000 -0.0000 -0.0000  0.0000
                                           -0.0000  0.0000 -0.0000  0.0000 -0.0000
                                            0.0000  0.0000  0.0000  0.0000  0.0000
                                            0.0000 -0.0000 -0.0000  0.0000  0.0000
                                            0.0000  0.0000 -0.0000 -0.0000
    10. (2.00000) CR ( 7)Br   2           s(  0.00%)p 1.00(100.00%)
                                           -0.0000 -0.0000 -0.0000  0.0000 -0.0000
                                            0.0000  0.0000  0.0000  0.0000 -0.0000
                                            0.0000  0.0000 -0.0000 -0.0000  1.0000
                                           -0.0000 -0.0000 -0.0000 -0.0000 -0.0000
                                           -0.0000  0.0000  0.0000 -0.0000 -0.0000
                                           -0.0000  0.0000 -0.0000 -0.0000  0.0000
                                           -0.0000  0.0000 -0.0000  0.0000 -0.0000
                                            0.0000 -0.0000 -0.0000  0.0000  0.0000
                                           -0.0000  0.0000 -0.0000  0.0000 -0.0000
                                           -0.0000 -0.0000  0.0000  0.0000  0.0000
                                            0.0000  0.0000  0.0000  0.0000  0.0000
                                           -0.0000 -0.0000 -0.0000 -0.0000
    11. (2.00002) CR ( 8)Br   2           s(  0.00%)p 1.00(100.00%)
                                           -0.0000 -0.0000 -0.0000  0.0000  0.0000
                                           -0.0000 -0.0000  0.0000  0.0000 -0.0001
                                            0.0000  0.0000 -0.0000 -0.0000 -0.0000
                                            0.0000  0.0000  0.0000  0.0000  1.0000
                                           -0.0000 -0.0000  0.0000 -0.0000  0.0000
                                            0.0000 -0.0000  0.0000 -0.0000  0.0000
                                           -0.0000  0.0000 -0.0000 -0.0000 -0.0000
                                           -0.0000 -0.0000 -0.0000  0.0000 -0.0000
                                           -0.0000  0.0000 -0.0000  0.0000 -0.0000
                                           -0.0000 -0.0000  0.0000  0.0000 -0.0000
                                           -0.0000  0.0000  0.0000  0.0000  0.0000
                                           -0.0000 -0.0000  0.0000  0.0000
    12. (2.00000) CR ( 9)Br   2           s(  0.00%)p 1.00(100.00%)
                                           -0.0000 -0.0000 -0.0000  0.0000  0.0000
                                           -0.0000 -0.0000  0.0000  0.0000 -0.0000
                                            0.0000  0.0000 -0.0000 -0.0000 -0.0000
                                           -0.0000 -0.0000  0.0000  0.0000 -0.0000
                                            1.0000 -0.0000  0.0000 -0.0000  0.0000
                                            0.0000 -0.0000  0.0000 -0.0000  0.0000
                                           -0.0000  0.0000 -0.0000 -0.0000 -0.0000
                                           -0.0000 -0.0000 -0.0000  0.0000 -0.0000
                                           -0.0000  0.0000 -0.0000  0.0000 -0.0000
                                           -0.0000 -0.0000  0.0000  0.0000 -0.0000
                                           -0.0000  0.0000  0.0000  0.0000  0.0000
                                           -0.0000 -0.0000  0.0000  0.0000
    13. (1.99768) CR (10)Br   2           s(  0.00%)p 0.00(  0.00%)d 1.00(100.00%)
                                            0.0000  0.0000  0.0000 -0.0000 -0.0000
                                            0.0000  0.0000 -0.0000 -0.0000  0.0000
                                           -0.0000 -0.0000 -0.0000 -0.0000 -0.0000
                                           -0.0000 -0.0000 -0.0000 -0.0000  0.0000
                                            0.0000 -0.0000 -0.0000  0.0000 -0.0000
                                            1.0000  0.0000 -0.0000  0.0000 -0.0000
                                            0.0000 -0.0000  0.0000  0.0000 -0.0000
                                            0.0000 -0.0000  0.0000 -0.0000  0.0000
                                           -0.0000 -0.0000  0.0000 -0.0000 -0.0000
                                            0.0000  0.0000 -0.0000 -0.0000  0.0000
                                            0.0000 -0.0000 -0.0000  0.0000  0.0000
                                            0.0000  0.0000 -0.0000 -0.0000
    14. (1.99767) CR (11)Br   2           s(  0.00%)p 0.00(  0.00%)d 1.00(100.00%)
                                            0.0000  0.0000  0.0000 -0.0000 -0.0000
                                            0.0000  0.0000 -0.0000 -0.0000  0.0001
                                           -0.0000 -0.0000 -0.0000  0.0000  0.0000
                                           -0.0000  0.0000 -0.0000 -0.0000  0.0000
                                            0.0000 -0.0000 -0.0000  0.0000 -0.0000
                                           -0.0000  0.0000 -0.0000  0.0000  1.0000
                                            0.0000 -0.0000  0.0000  0.0000  0.0000
                                            0.0000 -0.0000  0.0000 -0.0000  0.0000
                                            0.0000 -0.0000  0.0000 -0.0000 -0.0000
                                            0.0000  0.0000 -0.0000 -0.0000  0.0000
                                            0.0000 -0.0000 -0.0000  0.0000  0.0000
                                            0.0000  0.0000 -0.0000 -0.0000
    15. (1.99769) CR (12)Br   2           s(  0.00%)p 0.00(  0.00%)d 1.00(100.00%)
                                           -0.0000 -0.0000 -0.0000 -0.0000  0.0000
                                           -0.0000 -0.0000 -0.0000 -0.0000 -0.0000
                                           -0.0000 -0.0000  0.0000  0.0000  0.0000
                                            0.0000  0.0000  0.0000  0.0000 -0.0000
                                           -0.0000 -0.0000  0.0000 -0.0000  0.0000
                                            0.0000 -0.0000  0.0000 -0.0000  0.0000
                                           -0.0000  0.0000 -0.0000  1.0000  0.0000
                                           -0.0000  0.0000 -0.0000  0.0000 -0.0000
                                            0.0000  0.0000 -0.0000  0.0000  0.0000
                                           -0.0000 -0.0000  0.0000  0.0000 -0.0000
                                           -0.0000  0.0000  0.0000 -0.0000 -0.0000
                                           -0.0000 -0.0000  0.0000  0.0000
    16. (1.99766) CR (13)Br   2           s(  0.00%)p 0.00(  0.00%)d 1.00(100.00%)
                                           -0.0000 -0.0000 -0.0000  0.0000  0.0000
                                           -0.0000 -0.0000  0.0000  0.0000 -0.0001
                                            0.0000  0.0000  0.0000 -0.0000 -0.0000
                                           -0.0000 -0.0000  0.0000  0.0000 -0.0000
                                           -0.0000  0.0000  0.0000 -0.0000  0.0000
                                            0.0000 -0.0000  0.0000 -0.0000  0.0000
                                           -0.0000  0.0000 -0.0000 -0.0000 -0.0000
                                            0.0000  0.0000  1.0000  0.0000 -0.0000
                                           -0.0000  0.0000 -0.0000  0.0000  0.0000
                                           -0.0000 -0.0000  0.0000  0.0000 -0.0000
                                           -0.0000  0.0000  0.0000  0.0000 -0.0000
                                           -0.0000 -0.0000  0.0000  0.0000
    17. (1.99768) CR (14)Br   2           s(  0.00%)p 0.00(  0.00%)d 1.00(100.00%)
                                            0.0000  0.0000  0.0000 -0.0000 -0.0000
                                            0.0000  0.0000 -0.0000 -0.0000  0.0000
                                           -0.0000 -0.0000 -0.0000  0.0000  0.0000
                                            0.0000  0.0000 -0.0000 -0.0000  0.0000
                                            0.0000 -0.0000 -0.0000  0.0000 -0.0000
                                           -0.0000  0.0000 -0.0000  0.0000 -0.0000
                                            0.0000 -0.0000  0.0000  0.0000  0.0000
                                           -0.0000 -0.0000  0.0000 -0.0000  0.0000
                                            0.0000  1.0000  0.0000 -0.0000  0.0000
                                            0.0000  0.0000 -0.0000 -0.0000  0.0000
                                            0.0000 -0.0000 -0.0000 -0.0000  0.0000
                                            0.0000  0.0000 -0.0000 -0.0000
    18. (2.00000) CR ( 1)Cl   3           s(100.00%)
                                            1.0000  0.0000  0.0000 -0.0000 -0.0000
                                           -0.0000  0.0000  0.0000 -0.0000 -0.0000
                                            0.0000 -0.0000 -0.0000  0.0000  0.0000
                                           -0.0000 -0.0000  0.0000 -0.0000 -0.0000
                                            0.0000 -0.0000  0.0000 -0.0000  0.0000
                                            0.0000 -0.0000 -0.0000 -0.0000 -0.0000
                                           -0.0000  0.0000  0.0000 -0.0000  0.0000
                                           -0.0000 -0.0000  0.0000 -0.0000  0.0000
                                            0.0000 -0.0000 -0.0000 -0.0000 -0.0000
                                            0.0000 -0.0000  0.0000  0.0000 -0.0000
    19. (1.99981) CR ( 2)Cl   3           s(100.00%)p 0.00(  0.00%)
                                            0.0000  1.0000 -0.0004  0.0000  0.0000
                                            0.0000 -0.0000 -0.0001  0.0000  0.0000
                                           -0.0000  0.0000  0.0004 -0.0000 -0.0000
                                            0.0000 -0.0000 -0.0000 -0.0000  0.0000
                                           -0.0000  0.0000 -0.0000 -0.0000 -0.0000
                                           -0.0000  0.0000  0.0000  0.0000  0.0000
                                            0.0000 -0.0000 -0.0000  0.0000 -0.0000
                                           -0.0000  0.0000 -0.0000  0.0000 -0.0000
                                           -0.0000  0.0000 -0.0000  0.0000  0.0000
                                           -0.0000  0.0000 -0.0000 -0.0000  0.0000
    20. (2.00003) CR ( 3)Cl   3           s(  0.00%)p 1.00(100.00%)
                                            0.0000 -0.0000 -0.0000  0.0000  0.0000
                                            0.0000  1.0000  0.0001  0.0000  0.0000
                                           -0.0000  0.0000  0.0001 -0.0000 -0.0000
                                            0.0000 -0.0000  0.0000  0.0000  0.0000
                                            0.0000  0.0000  0.0000  0.0000 -0.0000
                                            0.0000  0.0000  0.0000 -0.0000  0.0000
                                            0.0000 -0.0000 -0.0000  0.0000 -0.0000
                                            0.0000 -0.0000  0.0000  0.0000 -0.0000
                                           -0.0000  0.0000  0.0000 -0.0000  0.0000
                                           -0.0000  0.0000 -0.0000 -0.0000  0.0000
    21. (1.99997) CR ( 4)Cl   3           s(  0.00%)p 1.00(100.00%)
                                           -0.0000  0.0000  0.0001 -0.0000 -0.0000
                                           -0.0000  0.0000  0.0001 -0.0000 -0.0000
                                            0.0000  1.0000 -0.0003  0.0000  0.0000
                                           -0.0000 -0.0000  0.0000  0.0000 -0.0000
                                            0.0000 -0.0000  0.0000  0.0000  0.0000
                                            0.0000 -0.0000 -0.0000 -0.0000 -0.0000
                                           -0.0000  0.0000 -0.0000 -0.0000  0.0000
                                           -0.0000 -0.0000  0.0000 -0.0000  0.0000
                                            0.0000 -0.0000  0.0000 -0.0000 -0.0000
                                            0.0000 -0.0000  0.0000  0.0000 -0.0000
    22. (2.00003) CR ( 5)Cl   3           s(  0.00%)p 1.00(100.00%)
                                           -0.0000 -0.0000 -0.0000  0.0000  0.0000
                                           -0.0000 -0.0000  0.0000  0.0000 -0.0000
                                            0.0000 -0.0000  0.0000 -0.0000  0.0000
                                           -0.0000  1.0000  0.0002  0.0000  0.0000
                                           -0.0000 -0.0000 -0.0000 -0.0000 -0.0000
                                           -0.0000 -0.0000  0.0000  0.0000  0.0000
                                            0.0000 -0.0000 -0.0000  0.0000  0.0000
                                            0.0000 -0.0000  0.0000  0.0000 -0.0000
                                           -0.0000  0.0000 -0.0000  0.0000 -0.0000
                                            0.0000  0.0000  0.0000 -0.0000 -0.0000
    23. (1.96870) LP ( 1) O   1           s( 65.40%)p 0.53( 34.50%)d 0.00(  0.09%)
                                                  f 0.00(  0.00%)
                                            0.0002  0.8086  0.0113  0.0065 -0.0008
                                           -0.3091 -0.0057 -0.0035 -0.0023 -0.3404
                                           -0.0044 -0.0053 -0.0024 -0.3654 -0.0050
                                           -0.0037 -0.0012 -0.0173 -0.0010  0.0037
                                           -0.0109  0.0000  0.0009 -0.0213 -0.0025
                                            0.0014  0.0025  0.0007  0.0014 -0.0042
                                           -0.0005  0.0011  0.0028 -0.0005 -0.0005
                                           -0.0003 -0.0017  0.0011  0.0022 -0.0011
                                           -0.0018  0.0006  0.0038 -0.0017  0.0001
                                            0.0005
    24. (1.95309) LP ( 2) O   1           s(  0.02%)p99.99( 99.75%)d12.89(  0.22%)
                                                  f 0.89(  0.02%)
                                           -0.0000  0.0008  0.0118  0.0052 -0.0009
                                           -0.6605 -0.0126 -0.0035 -0.0025 -0.1787
                                           -0.0052 -0.0013 -0.0023  0.7272  0.0155
                                            0.0054  0.0049 -0.0250 -0.0017  0.0035
                                           -0.0105 -0.0039 -0.0037  0.0218  0.0031
                                           -0.0013 -0.0004  0.0040  0.0050  0.0288
                                           -0.0008 -0.0066 -0.0009  0.0006  0.0064
                                           -0.0001  0.0008 -0.0006 -0.0075  0.0010
                                           -0.0036  0.0001  0.0042 -0.0020  0.0040
                                           -0.0005
    25. (1.98023) LP ( 1)Br   2           s( 97.85%)p 0.02(  2.15%)d 0.00(  0.00%)
                                                  f 0.00(  0.00%)
                                            0.0000  0.0000  0.0000  0.9892 -0.0001
                                            0.0000  0.0001  0.0000  0.0000  0.1368
                                           -0.0008  0.0005 -0.0001 -0.0000  0.0000
                                           -0.0028 -0.0000 -0.0000 -0.0001 -0.0000
                                           -0.0000 -0.0527  0.0005 -0.0001  0.0002
                                           -0.0000 -0.0001  0.0000 -0.0000  0.0000
                                           -0.0007  0.0004  0.0001  0.0000 -0.0000
                                            0.0000 -0.0000 -0.0000  0.0012 -0.0005
                                           -0.0001  0.0000 -0.0007  0.0002  0.0000
                                           -0.0003 -0.0003  0.0003  0.0001 -0.0000
                                           -0.0000  0.0004  0.0004  0.0000  0.0000
                                           -0.0004 -0.0003  0.0000  0.0000
    26. (1.95360) LP ( 2)Br   2           s(  0.00%)p 1.00( 99.99%)d 0.00(  0.01%)
                                                  f 0.00(  0.00%)
                                           -0.0000 -0.0000 -0.0000  0.0051  0.0002
                                           -0.0004 -0.0013 -0.0000 -0.0000 -0.0983
                                            0.0001 -0.0000  0.0000  0.0001  0.0000
                                            0.9726  0.0005  0.0009  0.0002 -0.0000
                                           -0.0000 -0.2102  0.0001 -0.0002  0.0002
                                            0.0000 -0.0070  0.0019 -0.0001 -0.0000
                                            0.0005  0.0003 -0.0005 -0.0000  0.0039
                                           -0.0017  0.0015 -0.0000  0.0012 -0.0005
                                            0.0004  0.0000 -0.0011  0.0004 -0.0002
                                           -0.0001 -0.0001  0.0006  0.0004 -0.0002
                                           -0.0001  0.0001  0.0002 -0.0017 -0.0012
                                           -0.0002 -0.0001  0.0019  0.0013
    27. (1.95302) LP ( 3)Br   2           s(  0.00%)p 1.00( 99.99%)d 0.00(  0.00%)
                                                  f 0.00(  0.00%)
                                           -0.0000 -0.0000 -0.0000 -0.0028 -0.0003
                                            0.0014  0.0030  0.0000  0.0000  0.3715
                                           -0.0012 -0.0001  0.0002  0.0000  0.0000
                                            0.2318  0.0000  0.0001 -0.0001  0.0001
                                            0.0000  0.8990 -0.0005  0.0007 -0.0003
                                            0.0000 -0.0015  0.0003  0.0003  0.0000
                                           -0.0029  0.0000  0.0013 -0.0000  0.0009
                                           -0.0004  0.0004  0.0000 -0.0011  0.0002
                                            0.0008 -0.0000  0.0048 -0.0020  0.0014
                                            0.0000  0.0002 -0.0023 -0.0016 -0.0001
                                           -0.0000  0.0004 -0.0000 -0.0005 -0.0004
                                            0.0005  0.0002  0.0004  0.0002
    28. (1.91428) LP ( 4)Br   2           s(  2.15%)p45.59( 97.81%)d 0.02(  0.04%)
                                                  f 0.00(  0.00%)
                                           -0.0002 -0.0000 -0.0001  0.1465  0.0008
                                           -0.0003 -0.0007  0.0002  0.0000 -0.9128
                                            0.0005  0.0016  0.0002 -0.0000 -0.0000
                                           -0.0109 -0.0001  0.0002  0.0007 -0.0001
                                           -0.0000  0.3805  0.0027 -0.0006  0.0007
                                            0.0000 -0.0000  0.0004 -0.0005  0.0001
                                           -0.0146  0.0038 -0.0016 -0.0000 -0.0001
                                            0.0000  0.0001 -0.0001  0.0109 -0.0024
                                           -0.0003  0.0000 -0.0034  0.0008  0.0001
                                           -0.0024 -0.0015  0.0007  0.0008 -0.0000
                                           -0.0001  0.0033  0.0020  0.0000 -0.0001
                                           -0.0025 -0.0014  0.0001  0.0004
    29. (1.97439) LP ( 1)Cl   3           s( 91.77%)p 0.09(  8.21%)d 0.00(  0.02%)
                                                  f 0.00(  0.00%)
                                            0.0000  0.0003  0.9579  0.0070  0.0012
                                            0.0003 -0.0000 -0.0517 -0.0004  0.0003
                                            0.0002  0.0000  0.2803 -0.0065 -0.0028
                                            0.0011  0.0000  0.0277  0.0008  0.0001
                                            0.0001  0.0049 -0.0001  0.0003  0.0007
                                            0.0001 -0.0003  0.0006  0.0006  0.0005
                                            0.0107 -0.0005 -0.0001  0.0084  0.0008
                                            0.0003 -0.0003  0.0001  0.0007 -0.0001
                                           -0.0023 -0.0003  0.0000 -0.0001 -0.0006
                                            0.0003  0.0017  0.0003 -0.0027  0.0000
    30. (1.95616) LP ( 2)Cl   3           s(  0.02%)p99.99( 99.92%)d 2.20(  0.05%)
                                                  f 0.38(  0.01%)
                                            0.0000  0.0000  0.0128 -0.0071 -0.0033
                                            0.0016 -0.0001  0.5842  0.0079  0.0026
                                           -0.0004 -0.0000  0.1434  0.0020 -0.0002
                                            0.0009  0.0001 -0.7982 -0.0124 -0.0036
                                            0.0016  0.0029  0.0087  0.0041  0.0061
                                            0.0079  0.0031 -0.0034 -0.0124 -0.0066
                                           -0.0045 -0.0068 -0.0038 -0.0003  0.0007
                                            0.0001  0.0033  0.0003 -0.0019  0.0005
                                            0.0002 -0.0004  0.0057 -0.0015  0.0027
                                           -0.0005 -0.0035  0.0005 -0.0039  0.0011
    31. (1.95486) LP ( 3)Cl   3           s(  0.09%)p99.99( 99.86%)d 0.44(  0.04%)
                                                  f 0.10(  0.01%)
                                            0.0000 -0.0000  0.0295  0.0046  0.0035
                                           -0.0015  0.0001 -0.7765 -0.0102 -0.0012
                                            0.0003  0.0001 -0.1849 -0.0026 -0.0006
                                           -0.0008  0.0001 -0.6011 -0.0095 -0.0014
                                            0.0004  0.0050 -0.0083 -0.0045  0.0000
                                            0.0038  0.0022  0.0027 -0.0076 -0.0046
                                            0.0061  0.0097  0.0054 -0.0024 -0.0032
                                           -0.0002  0.0036 -0.0004  0.0005  0.0007
                                            0.0010  0.0001  0.0031 -0.0001  0.0026
                                           -0.0005  0.0051 -0.0010  0.0054 -0.0008
    32. (0.01956) RY*( 1) O   1           s(  0.22%)p99.99( 98.04%)d 7.54(  1.68%)
                                                  f 0.25(  0.06%)
                                           -0.0000 -0.0006  0.0470  0.0050  0.0012
                                            0.0170 -0.6572  0.0270  0.0091  0.0078
                                           -0.1799  0.0061 -0.0035 -0.0195  0.7167
                                           -0.0281 -0.0014 -0.0713 -0.0158 -0.0014
                                           -0.0232 -0.0104 -0.0081  0.0597  0.0190
                                            0.0058 -0.0053  0.0073  0.0066  0.0815
                                            0.0058 -0.0062 -0.0043  0.0034  0.0062
                                           -0.0064  0.0031 -0.0015 -0.0101  0.0085
                                           -0.0042  0.0033  0.0108 -0.0078  0.0049
                                           -0.0052
    33. (0.01530) RY*( 2) O   1           s( 28.66%)p 2.37( 67.99%)d 0.11(  3.06%)
                                                  f 0.01(  0.29%)
                                           -0.0000  0.0012  0.5321 -0.0592 -0.0032
                                            0.0047 -0.4025  0.0053  0.0234  0.0422
                                           -0.4882 -0.0023  0.0332  0.0077 -0.5248
                                            0.0082  0.0229 -0.0906 -0.0175 -0.0066
                                           -0.0321  0.0000  0.0093 -0.1334 -0.0233
                                           -0.0084  0.0495  0.0015 -0.0021  0.0018
                                            0.0019  0.0011  0.0074 -0.0063  0.0203
                                           -0.0101 -0.0166  0.0073  0.0269 -0.0124
                                           -0.0079  0.0052  0.0271 -0.0129 -0.0099
                                            0.0034
    34. (0.00777) RY*( 3) O   1           s( 13.42%)p 0.43(  5.74%)d 5.90( 79.25%)
                                                  f 0.12(  1.59%)
                                            0.0000  0.0136  0.3626 -0.0499  0.0109
                                            0.0080  0.1744 -0.0097  0.0558 -0.0165
                                           -0.1003  0.0020  0.0336 -0.0027  0.1093
                                           -0.0087  0.0142  0.6008 -0.0084 -0.0021
                                           -0.2270  0.0020 -0.0114  0.3288  0.0091
                                            0.0070 -0.4766 -0.0088 -0.0266  0.2084
                                           -0.0056  0.0041 -0.0016 -0.0006 -0.0060
                                           -0.0047  0.0080 -0.0003 -0.0650  0.0262
                                            0.0285 -0.0125 -0.0832  0.0308 -0.0403
                                            0.0203
    35. (0.00710) RY*( 4) O   1           s(  1.18%)p 0.30(  0.35%)d81.71( 96.72%)
                                                  f 1.47(  1.74%)
                                           -0.0000  0.0064  0.1083 -0.0080 -0.0032
                                            0.0124  0.0445  0.0080  0.0001 -0.0013
                                           -0.0072  0.0061  0.0090 -0.0125 -0.0275
                                           -0.0088  0.0119 -0.2088  0.0187 -0.0009
                                           -0.3062  0.0161 -0.0040  0.7701 -0.0350
                                            0.0042  0.3706 -0.0235  0.0028 -0.3109
                                            0.0163 -0.0092 -0.0761  0.0320 -0.0268
                                            0.0117  0.0185 -0.0074 -0.0656  0.0262
                                           -0.0142  0.0066  0.0420 -0.0212  0.0410
                                           -0.0151
    36. (0.00632) RY*( 5) O   1           s(  0.17%)p32.67(  5.49%)d99.99( 92.81%)
                                                  f 9.10(  1.53%)
                                           -0.0000  0.0011  0.0368 -0.0178 -0.0025
                                            0.0416  0.2125 -0.0135  0.0033 -0.0024
                                           -0.0811 -0.0018  0.0256 -0.0145  0.0182
                                           -0.0028  0.0041 -0.6566  0.0401 -0.0135
                                           -0.1134  0.0061 -0.0040  0.1395 -0.0243
                                           -0.0087 -0.2763  0.0137 -0.0128  0.6189
[...]
                                            0.1337 -0.1689  0.0410
   161. (0.00036) RY*( 7) H   4           s(  3.76%)p18.39( 69.20%)d 7.19( 27.03%)
                                           -0.0053 -0.0460 -0.0216  0.1871  0.0626
                                            0.0055  0.4120 -0.0241 -0.6420  0.0427
                                            0.1428 -0.2785 -0.0767 -0.1320  0.1158
                                            0.3024 -0.1180  0.1191  0.0857 -0.2237
                                           -0.1796  0.1304  0.1154
   162. (0.00027) RY*( 8) H   4           s( 19.52%)p 1.15( 22.40%)d 2.97( 58.07%)
                                            0.0070 -0.0127  0.4318  0.0926 -0.0305
                                            0.3857  0.0059  0.0289  0.2118 -0.0585
                                            0.0264 -0.0110 -0.1562 -0.4592 -0.0469
                                           -0.1620  0.1454  0.4813 -0.0886 -0.2795
                                           -0.0219 -0.0102  0.0457
   163. (0.00025) RY*( 9) H   4           s(  7.19%)p 3.79( 27.26%)d 9.11( 65.55%)
                                            0.0035 -0.0589  0.1554  0.2105  0.0459
                                            0.0133  0.0375 -0.0736  0.3015 -0.0548
                                           -0.0057  0.1677 -0.3760  0.3460 -0.1148
                                            0.4988  0.0548 -0.2517 -0.1010 -0.4397
                                           -0.0068  0.0185  0.0593
   164. (0.00022) RY*(10) H   4           s(  7.71%)p 4.73( 36.43%)d 7.25( 55.87%)
                                           -0.0050 -0.0078 -0.1591  0.2273  0.0677
                                           -0.2765 -0.3505  0.1138 -0.0720  0.1189
                                           -0.0403  0.2343 -0.2675 -0.4128 -0.0302
                                            0.4516  0.0887  0.2193  0.0014  0.3266
                                            0.1259 -0.0195 -0.0679
   165. (0.00019) RY*(11) H   4           s( 19.09%)p 3.22( 61.45%)d 1.02( 19.46%)
                                           -0.0212 -0.0854  0.4267 -0.0321 -0.1044
                                           -0.3443 -0.0769  0.0005  0.1499 -0.0480
                                           -0.0290 -0.6539 -0.1611  0.0706  0.0028
                                            0.0786  0.0612 -0.0225 -0.0512  0.3198
                                           -0.1059 -0.1124  0.2247
   166. (0.00016) RY*(12) H   4           s(  3.99%)p10.31( 41.07%)d13.79( 54.94%)
                                            0.0078 -0.0185 -0.0454  0.1934 -0.0701
                                            0.2674  0.2676  0.0528  0.1165  0.2721
                                            0.1193  0.1149 -0.3806 -0.0290 -0.0449
                                           -0.2212 -0.0306 -0.2352 -0.0219  0.4354
                                           -0.0637  0.4226  0.2620
   167. (0.00012) RY*(13) H   4           s( 32.80%)p 0.74( 24.38%)d 1.31( 42.82%)
                                            0.0075  0.0765  0.2771  0.4953  0.0376
                                            0.0854  0.1303  0.0126  0.0222  0.2640
                                           -0.0740  0.1669  0.3382  0.0457 -0.1294
                                            0.0421 -0.3364 -0.0401 -0.0565  0.1904
                                           -0.1712 -0.4732 -0.0135
   168. (0.00013) RY*(14) H   4           s( 19.64%)p 0.92( 18.16%)d 3.17( 62.20%)
                                           -0.0058 -0.0215  0.2456  0.3682  0.0225
                                           -0.0192 -0.2038  0.0344  0.0671 -0.0712
                                            0.0580 -0.1956  0.2947 -0.0933  0.1112
                                            0.0177 -0.2004 -0.2015  0.0813 -0.0653
                                            0.3310  0.5401 -0.3282
   169. (0.00010) RY*(15) H   4           s(  0.88%)p51.02( 44.73%)d62.03( 54.39%)
   170. (0.00009) RY*(16) H   4           s(  1.22%)p 8.14(  9.95%)d72.67( 88.83%)
   171. (0.00006) RY*(17) H   4           s( 32.72%)p 0.40( 12.93%)d 1.66( 54.35%)
   172. (0.00006) RY*(18) H   4           s(  0.19%)p14.24(  2.77%)d99.99( 97.04%)
   173. (0.00006) RY*(19) H   4           s( 10.34%)p 0.90(  9.35%)d 7.77( 80.31%)
   174. (0.00004) RY*(20) H   4           s(  4.14%)p 6.87( 28.45%)d16.27( 67.41%)
   175. (0.00003) RY*(21) H   4           s(  3.39%)p 7.93( 26.85%)d20.60( 69.76%)
   176. (0.00003) RY*(22) H   4           s(  6.62%)p 5.51( 36.52%)d 8.59( 56.85%)
   177. (0.05830) BD*( 1) O   1 -Cl   3  
                ( 40.77%)   0.6385* O   1 s( 10.14%)p 8.80( 89.29%)d 0.05(  0.55%)
                                                  f 0.00(  0.02%)
                                           -0.0003 -0.3156  0.0407  0.0127  0.0018
                                            0.2198 -0.0267 -0.0060 -0.0022 -0.9178
                                            0.0177  0.0079  0.0090 -0.0266 -0.0195
                                           -0.0035  0.0006  0.0130  0.0017  0.0025
                                           -0.0086 -0.0010  0.0011 -0.0219 -0.0030
                                            0.0005  0.0589  0.0045  0.0001  0.0351
                                            0.0028  0.0004  0.0001 -0.0003 -0.0017
                                           -0.0005  0.0071 -0.0001  0.0035 -0.0019
                                           -0.0055  0.0010 -0.0054 -0.0010  0.0070
                                           -0.0010
                ( 59.23%)  -0.7696*Cl   3 s(  8.44%)p10.70( 90.27%)d 0.14(  1.18%)
                                                  f 0.01(  0.11%)
                                            0.0000 -0.0005 -0.2840  0.0597  0.0099
                                            0.0029 -0.0001 -0.2251  0.0142  0.0044
                                           -0.0012  0.0004  0.9205 -0.0661 -0.0128
                                            0.0033 -0.0000 -0.0049  0.0003  0.0023
                                           -0.0012  0.0473 -0.0055  0.0000 -0.0079
                                           -0.0005  0.0009  0.0112  0.0015  0.0010
                                            0.0796 -0.0095 -0.0006  0.0537 -0.0058
                                            0.0001  0.0008 -0.0002  0.0047 -0.0006
                                           -0.0194  0.0024 -0.0001  0.0007  0.0019
                                           -0.0013  0.0176 -0.0026 -0.0196  0.0023
   178. (0.05477) BD*( 1) O   1 - H   4  
                ( 22.37%)   0.4729* O   1 s( 24.57%)p 3.05( 74.89%)d 0.02(  0.53%)
                                                  f 0.00(  0.01%)
                                           -0.0002 -0.4956  0.0053  0.0072 -0.0021
                                           -0.6437  0.0134  0.0064  0.0017  0.0309
                                           -0.0155 -0.0015 -0.0017 -0.5771  0.0059
                                            0.0056  0.0036 -0.0192 -0.0038 -0.0011
                                           -0.0606 -0.0034  0.0006 -0.0192 -0.0034
                                           -0.0003 -0.0253 -0.0015 -0.0019 -0.0147
                                           -0.0024 -0.0019  0.0072 -0.0007 -0.0049
                                           -0.0009 -0.0014  0.0006 -0.0040 -0.0023
                                            0.0000  0.0009  0.0023 -0.0022  0.0018
                                           -0.0000
                ( 77.63%)  -0.8811* H   4 s( 99.81%)p 0.00(  0.18%)d 0.00(  0.00%)
                                           -0.9988 -0.0216 -0.0009 -0.0003  0.0003
                                            0.0238  0.0061 -0.0113 -0.0018  0.0040
                                           -0.0254  0.0206  0.0043 -0.0010 -0.0011
                                           -0.0016  0.0006 -0.0016 -0.0017 -0.0003
                                            0.0018  0.0012  0.0015


 NHO Directionality and "Bond Bending" (deviations from line of nuclear centers)

         [Thresholds for printing:  angular deviation  >  1.0 degree]
                                    hybrid p-character > 25.0%
                                    orbital occupancy  >  0.10e

                                Line of Centers        Hybrid 1              Hybrid 2
                                ---------------  -------------------   ------------------
                NBO               Theta   Phi    Theta   Phi    Dev    Theta   Phi    Dev
 ========================================================================================
     1. BD (   1) O   1 -Cl   3    90.0  103.4    86.9  101.8   3.5      --     --    --
     2. BD (   1) O   1 - H   4    50.0    0.0    47.9  358.9   2.3      --     --    --
    23. LP (   1) O   1             --     --    128.2  227.7   --       --     --    --
    24. LP (   2) O   1             --     --     43.1  195.4   --       --     --    --
    26. LP (   2)Br   2             --     --    102.1   95.8   --       --     --    --
    27. LP (   3)Br   2             --     --     25.9   32.0   --       --     --    --
    28. LP (   4)Br   2             --     --     67.2  180.6   --       --     --    --
    30. LP (   2)Cl   3             --     --    143.0   13.8   --       --     --    --
    31. LP (   3)Cl   3             --     --    127.1  193.5   --       --     --    --


 Natural Bond Orbitals (Summary):

           NBO                  Occupancy  
 -----------------------------------------------
 Molecular unit  1  (HOCl)
     1. BD (   1) O   1 -Cl   3          1.94002
     2. BD (   1) O   1 - H   4          1.96395
     3. CR (   1) O   1                  1.99971
    18. CR (   1)Cl   3                  2.00000
    19. CR (   2)Cl   3                  1.99981
    20. CR (   3)Cl   3                  2.00003
    21. CR (   4)Cl   3                  1.99997
    22. CR (   5)Cl   3                  2.00003
    23. LP (   1) O   1                  1.96870
    24. LP (   2) O   1                  1.95309
    29. LP (   1)Cl   3                  1.97439
    30. LP (   2)Cl   3                  1.95616
    31. LP (   3)Cl   3                  1.95486
    32. RY*(   1) O   1                  0.01956
    33. RY*(   2) O   1                  0.01530
    34. RY*(   3) O   1                  0.00777
    35. RY*(   4) O   1                  0.00710
    36. RY*(   5) O   1                  0.00632
    37. RY*(   6) O   1                  0.00610
    38. RY*(   7) O   1                  0.00573
    39. RY*(   8) O   1                  0.00276
    40. RY*(   9) O   1                  0.00249
    41. RY*(  10) O   1                  0.00078
    42. RY*(  11) O   1                  0.00069
    43. RY*(  12) O   1                  0.00064
    44. RY*(  13) O   1                  0.00058
    45. RY*(  14) O   1                  0.00050
    46. RY*(  15) O   1                  0.00050
    47. RY*(  16) O   1                  0.00051
    48. RY*(  17) O   1                  0.00047
    49. RY*(  18) O   1                  0.00048
    50. RY*(  19) O   1                  0.00045
    51. RY*(  20) O   1                  0.00045
    52. RY*(  21) O   1                  0.00044
    53. RY*(  22) O   1                  0.00041
    54. RY*(  23) O   1                  0.00034
    55. RY*(  24) O   1                  0.00030
    56. RY*(  25) O   1                  0.00024
    57. RY*(  26) O   1                  0.00019
    58. RY*(  27) O   1                  0.00015
    59. RY*(  28) O   1                  0.00013
    60. RY*(  29) O   1                  0.00013
    61. RY*(  30) O   1                  0.00011
    62. RY*(  31) O   1                  0.00009
    63. RY*(  32) O   1                  0.00009
    64. RY*(  33) O   1                  0.00007
    65. RY*(  34) O   1                  0.00007
    66. RY*(  35) O   1                  0.00008
    67. RY*(  36) O   1                  0.00008
    68. RY*(  37) O   1                  0.00006
    69. RY*(  38) O   1                  0.00004
    70. RY*(  39) O   1                  0.00005
    71. RY*(  40) O   1                  0.00005
    72. RY*(  41) O   1                  0.00002
   114. RY*(   1)Cl   3                  0.02240
   115. RY*(   2)Cl   3                  0.01748
   116. RY*(   3)Cl   3                  0.01683
   117. RY*(   4)Cl   3                  0.01637
   118. RY*(   5)Cl   3                  0.01165
   119. RY*(   6)Cl   3                  0.00916
   120. RY*(   7)Cl   3                  0.00897
   121. RY*(   8)Cl   3                  0.00627
   122. RY*(   9)Cl   3                  0.00172
   123. RY*(  10)Cl   3                  0.00126
   124. RY*(  11)Cl   3                  0.00127
   125. RY*(  12)Cl   3                  0.00119
   126. RY*(  13)Cl   3                  0.00119
   127. RY*(  14)Cl   3                  0.00116
   128. RY*(  15)Cl   3                  0.00109
   129. RY*(  16)Cl   3                  0.00094
   130. RY*(  17)Cl   3                  0.00076
   131. RY*(  18)Cl   3                  0.00074
   132. RY*(  19)Cl   3                  0.00062
   133. RY*(  20)Cl   3                  0.00055
   134. RY*(  21)Cl   3                  0.00041
   135. RY*(  22)Cl   3                  0.00038
   136. RY*(  23)Cl   3                  0.00032
   137. RY*(  24)Cl   3                  0.00031
   138. RY*(  25)Cl   3                  0.00019
   139. RY*(  26)Cl   3                  0.00016
   140. RY*(  27)Cl   3                  0.00014
   141. RY*(  28)Cl   3                  0.00013
   142. RY*(  29)Cl   3                  0.00012
   143. RY*(  30)Cl   3                  0.00011
   144. RY*(  31)Cl   3                  0.00012
   145. RY*(  32)Cl   3                  0.00011
   146. RY*(  33)Cl   3                  0.00011
   147. RY*(  34)Cl   3                  0.00009
   148. RY*(  35)Cl   3                  0.00009
   149. RY*(  36)Cl   3                  0.00009
   150. RY*(  37)Cl   3                  0.00007
   151. RY*(  38)Cl   3                  0.00006
   152. RY*(  39)Cl   3                  0.00003
   153. RY*(  40)Cl   3                  0.00003
   154. RY*(  41)Cl   3                  0.00001
   155. RY*(   1) H   4                  0.00798
   156. RY*(   2) H   4                  0.00470
   157. RY*(   3) H   4                  0.00307
   158. RY*(   4) H   4                  0.00258
   159. RY*(   5) H   4                  0.00056
   160. RY*(   6) H   4                  0.00046
   161. RY*(   7) H   4                  0.00036
   162. RY*(   8) H   4                  0.00027
   163. RY*(   9) H   4                  0.00025
   164. RY*(  10) H   4                  0.00022
   165. RY*(  11) H   4                  0.00019
   166. RY*(  12) H   4                  0.00016
   167. RY*(  13) H   4                  0.00012
   168. RY*(  14) H   4                  0.00013
   169. RY*(  15) H   4                  0.00010
   170. RY*(  16) H   4                  0.00009
   171. RY*(  17) H   4                  0.00006
   172. RY*(  18) H   4                  0.00006
   173. RY*(  19) H   4                  0.00006
   174. RY*(  20) H   4                  0.00004
   175. RY*(  21) H   4                  0.00003
   176. RY*(  22) H   4                  0.00003
   177. BD*(   1) O   1 -Cl   3          0.05830
   178. BD*(   1) O   1 - H   4          0.05477
       -------------------------------
              Total Lewis   25.71072  ( 98.6886%)
        Valence non-Lewis    0.11308  (  0.4340%)
        Rydberg non-Lewis    0.22858  (  0.8774%)
       -------------------------------
            Total unit  1   26.05238  (100.0000%)
           Charge unit  1   -0.05238

 Molecular unit  2  (Br)
     4. CR (   1)Br   2                  2.00001
     5. CR (   2)Br   2                  2.00000
     6. CR (   3)Br   2                  2.00000
     7. CR (   4)Br   2                  2.00000
     8. CR (   5)Br   2                  2.00000
     9. CR (   6)Br   2                  2.00002
    10. CR (   7)Br   2                  2.00000
    11. CR (   8)Br   2                  2.00002
    12. CR (   9)Br   2                  2.00000
    13. CR (  10)Br   2                  1.99768
    14. CR (  11)Br   2                  1.99767
    15. CR (  12)Br   2                  1.99769
    16. CR (  13)Br   2                  1.99766
    17. CR (  14)Br   2                  1.99768
    25. LP (   1)Br   2                  1.98023
    26. LP (   2)Br   2                  1.95360
    27. LP (   3)Br   2                  1.95302
    28. LP (   4)Br   2                  1.91428
    73. RY*(   1)Br   2                  0.01896
    74. RY*(   2)Br   2                  0.01890
    75. RY*(   3)Br   2                  0.01875
    76. RY*(   4)Br   2                  0.01875
    77. RY*(   5)Br   2                  0.01847
    78. RY*(   6)Br   2                  0.01188
    79. RY*(   7)Br   2                  0.01185
    80. RY*(   8)Br   2                  0.01047
    81. RY*(   9)Br   2                  0.00347
    82. RY*(  10)Br   2                  0.00181
    83. RY*(  11)Br   2                  0.00181
    84. RY*(  12)Br   2                  0.00177
    85. RY*(  13)Br   2                  0.00177
    86. RY*(  14)Br   2                  0.00177
    87. RY*(  15)Br   2                  0.00176
    88. RY*(  16)Br   2                  0.00176
    89. RY*(  17)Br   2                  0.00176
    90. RY*(  18)Br   2                  0.00176
    91. RY*(  19)Br   2                  0.00157
    92. RY*(  20)Br   2                  0.00154
    93. RY*(  21)Br   2                  0.00142
    94. RY*(  22)Br   2                  0.00082
    95. RY*(  23)Br   2                  0.00082
    96. RY*(  24)Br   2                  0.00078
    97. RY*(  25)Br   2                  0.00050
    98. RY*(  26)Br   2                  0.00030
    99. RY*(  27)Br   2                  0.00026
   100. RY*(  28)Br   2                  0.00027
   101. RY*(  29)Br   2                  0.00025
   102. RY*(  30)Br   2                  0.00024
   103. RY*(  31)Br   2                  0.00025
   104. RY*(  32)Br   2                  0.00024
   105. RY*(  33)Br   2                  0.00024
   106. RY*(  34)Br   2                  0.00023
   107. RY*(  35)Br   2                  0.00020
   108. RY*(  36)Br   2                  0.00018
   109. RY*(  37)Br   2                  0.00017
   110. RY*(  38)Br   2                  0.00012
   111. RY*(  39)Br   2                  0.00007
   112. RY*(  40)Br   2                  0.00007
   113. RY*(  41)Br   2                  0.00005
       -------------------------------
              Total Lewis   35.78957  ( 99.5603%)
        Valence non-Lewis    0.00000  (  0.0000%)
        Rydberg non-Lewis    0.15806  (  0.4397%)
       -------------------------------
            Total unit  2   35.94762  (100.0000%)
           Charge unit  2   -0.94762
 Leave Link  607 at Thu Sep 23 16:35:19 2021, MaxMem= 16106127360 cpu:              69.2 elap:               2.5
 (Enter /sw/contrib/gaussian/g16/B01/g16/l9999.exe)
 1\1\GINC-N2112\SP\RMP2-FC\Aug-CC-pVTZ\Br1Cl1H1O1(1-)\CGAVINH\23-Sep-20
 21\0\\#p pop=NBO SP NoSymm mp2/aug-cc-pvtz density=current\\title\\-1,
 1\O,0,0.,0.,0.\Br,0,3.07381747,0.,0.\Cl,0,-0.390920758,1.638332522,0.\
 H,0,0.75502106,0.,0.6335379\\Version=ES64L-G16RevB.01\HF=-3107.4670553
 \MP2=-3108.1672052\RMSD=6.109e-09\Dipole=-1.5048065,0.6581033,0.237915
 3\Quadrupole=-20.4076203,9.9215428,10.4860776,0.3279841,0.146251,-0.15
 66313\PG=C01 [X(Br1Cl1H1O1)]\\@


 MUD THROWN IS GROUND LOST -- FROM A TEA BAG
 Job cpu time:       0 days  0 hours  5 minutes 55.8 seconds.
 Elapsed time:       0 days  0 hours  0 minutes 19.3 seconds.
 File lengths (MBytes):  RWF=     15 Int=      0 D2E=      0 Chk=      8 Scr=      1
 Normal termination of Gaussian 16 at Thu Sep 23 16:35:19 2021.
