 Entering Gaussian System, Link 0=g16
 Input=brhocl_20_sp.gjf
 Output=brhocl_20_sp.log
 Initial command:
 /sw/contrib/gaussian/g16/B01/g16/l1.exe "/scr/Gau-24196.inp" -scrdir="/scr/"
 Entering Link 1 = /sw/contrib/gaussian/g16/B01/g16/l1.exe PID=     24197.
  
 Copyright (c) 1988-2017, Gaussian, Inc.  All Rights Reserved.
  
 This is part of the Gaussian(R) 16 program.  It is based on
 the Gaussian(R) 09 system (copyright 2009, Gaussian, Inc.),
 the Gaussian(R) 03 system (copyright 2003, Gaussian, Inc.),
 the Gaussian(R) 98 system (copyright 1998, Gaussian, Inc.),
 the Gaussian(R) 94 system (copyright 1995, Gaussian, Inc.),
 the Gaussian 92(TM) system (copyright 1992, Gaussian, Inc.),
 the Gaussian 90(TM) system (copyright 1990, Gaussian, Inc.),
 the Gaussian 88(TM) system (copyright 1988, Gaussian, Inc.),
 the Gaussian 86(TM) system (copyright 1986, Carnegie Mellon
 University), and the Gaussian 82(TM) system (copyright 1983,
 Carnegie Mellon University). Gaussian is a federally registered
 trademark of Gaussian, Inc.
  
 This software contains proprietary and confidential information,
 including trade secrets, belonging to Gaussian, Inc.
  
 This software is provided under written license and may be
 used, copied, transmitted, or stored only in accord with that
 written license.
  
 The following legend is applicable only to US Government
 contracts under FAR:
  
                    RESTRICTED RIGHTS LEGEND
  
 Use, reproduction and disclosure by the US Government is
 subject to restrictions as set forth in subparagraphs (a)
 and (c) of the Commercial Computer Software - Restricted
 Rights clause in FAR 52.227-19.
  
 Gaussian, Inc.
 340 Quinnipiac St., Bldg. 40, Wallingford CT 06492
  
  
 ---------------------------------------------------------------
 Warning -- This program may not be used in any manner that
 competes with the business of Gaussian, Inc. or will provide
 assistance to any competitor of Gaussian, Inc.  The licensee
 of this program is prohibited from giving any competitor of
 Gaussian, Inc. access to this program.  By using this program,
 the user acknowledges that Gaussian, Inc. is engaged in the
 business of creating and licensing software in the field of
 computational chemistry and represents and warrants to the
 licensee that it is not a competitor of Gaussian, Inc. and that
 it will not use this program in any manner prohibited above.
 ---------------------------------------------------------------
  

 Cite this work as:
 Gaussian 16, Revision B.01,
 M. J. Frisch, G. W. Trucks, H. B. Schlegel, G. E. Scuseria, 
 M. A. Robb, J. R. Cheeseman, G. Scalmani, V. Barone, 
 G. A. Petersson, H. Nakatsuji, X. Li, M. Caricato, A. V. Marenich, 
 J. Bloino, B. G. Janesko, R. Gomperts, B. Mennucci, H. P. Hratchian, 
 J. V. Ortiz, A. F. Izmaylov, J. L. Sonnenberg, D. Williams-Young, 
 F. Ding, F. Lipparini, F. Egidi, J. Goings, B. Peng, A. Petrone, 
 T. Henderson, D. Ranasinghe, V. G. Zakrzewski, J. Gao, N. Rega, 
 G. Zheng, W. Liang, M. Hada, M. Ehara, K. Toyota, R. Fukuda, 
 J. Hasegawa, M. Ishida, T. Nakajima, Y. Honda, O. Kitao, H. Nakai, 
 T. Vreven, K. Throssell, J. A. Montgomery, Jr., J. E. Peralta, 
 F. Ogliaro, M. J. Bearpark, J. J. Heyd, E. N. Brothers, K. N. Kudin, 
 V. N. Staroverov, T. A. Keith, R. Kobayashi, J. Normand, 
 K. Raghavachari, A. P. Rendell, J. C. Burant, S. S. Iyengar, 
 J. Tomasi, M. Cossi, J. M. Millam, M. Klene, C. Adamo, R. Cammi, 
 J. W. Ochterski, R. L. Martin, K. Morokuma, O. Farkas, 
 J. B. Foresman, and D. J. Fox, Gaussian, Inc., Wallingford CT, 2016.
 
 ******************************************
 Gaussian 16:  ES64L-G16RevB.01 20-Dec-2017
                23-Sep-2021 
 ******************************************
 %nproc=28
 Will use up to   28 processors via shared memory.
 %mem=120GB
 %chk=/gscratch/ilahie/mccoygrp/coire_hocl/brhocl/brhocl_20_sp.chk
 ----------------------------------------------------
 #p pop=NBO SP NoSymm mp2/aug-cc-pvtz density=current
 ----------------------------------------------------
 1/30=1,38=1,172=1/1;
 2/12=2,15=1,17=6,18=5,40=1/2;
 3/5=16,6=1,7=10,11=9,25=1,30=1,71=1/1,2,3;
 4//1;
 5/5=2,38=5/2;
 8/6=4,10=1/1;
 9/15=1,16=-3/6;
 10/5=1,13=10,31=1/2;
 6/7=2,8=2,9=2,10=2,22=-1,40=1/1,7;
 99/5=1,9=1/99;
 Leave Link    1 at Thu Sep 23 16:33:40 2021, MaxMem= 16106127360 cpu:               2.6 elap:               0.1
 (Enter /sw/contrib/gaussian/g16/B01/g16/l101.exe)
 -----
 title
 -----
 Symbolic Z-matrix:
 Charge = -1 Multiplicity = 1
 O                     0.        0.        0. 
 Br                    3.07382   0.        0. 
 Cl                   -0.39092   1.63833   0. 
 H                     0.94489   0.        0.34391 
 
 ITRead=  0  0  0  0
 MicOpt= -1 -1 -1 -1
 NAtoms=      4 NQM=        4 NQMF=       0 NMMI=      0 NMMIF=      0
                NMic=       0 NMicF=      0.
                    Isotopes and Nuclear Properties:
 (Nuclear quadrupole moments (NQMom) in fm**2, nuclear magnetic moments (NMagM)
  in nuclear magnetons)

  Atom         1           2           3           4
 IAtWgt=          16          79          35           1
 AtmWgt=  15.9949146  78.9183361  34.9688527   1.0078250
 NucSpn=           0           3           3           1
 AtZEff=  -0.0000000  -0.0000000  -0.0000000  -0.0000000
 NQMom=    0.0000000  31.3000000  -8.1650000   0.0000000
 NMagM=    0.0000000   2.1063990   0.8218740   2.7928460
 AtZNuc=   8.0000000  35.0000000  17.0000000   1.0000000
 Leave Link  101 at Thu Sep 23 16:33:40 2021, MaxMem= 16106127360 cpu:               2.6 elap:               0.1
 (Enter /sw/contrib/gaussian/g16/B01/g16/l202.exe)
                          Input orientation:                          
 ---------------------------------------------------------------------
 Center     Atomic      Atomic             Coordinates (Angstroms)
 Number     Number       Type             X           Y           Z
 ---------------------------------------------------------------------
      1          8           0        0.000000    0.000000    0.000000
      2         35           0        3.073817    0.000000    0.000000
      3         17           0       -0.390921    1.638333    0.000000
      4          1           0        0.944889    0.000000    0.343912
 ---------------------------------------------------------------------
                    Distance matrix (angstroms):
                    1          2          3          4
     1  O    0.000000
     2  Br   3.073817   0.000000
     3  Cl   1.684326   3.832564   0.000000
     4  H    1.005530   2.156528   2.141681   0.000000
 Symmetry turned off by external request.
 Stoichiometry    BrClHO(1-)
 Framework group  C1[X(BrClHO)]
 Deg. of freedom     6
 Full point group                 C1      NOp   1
 Rotational constants (GHZ):          22.4907462           1.2801990           1.2119244
 Leave Link  202 at Thu Sep 23 16:33:40 2021, MaxMem= 16106127360 cpu:               0.2 elap:               0.0
 (Enter /sw/contrib/gaussian/g16/B01/g16/l301.exe)
 Standard basis: Aug-CC-pVTZ (5D, 7F)
 Ernie: Thresh=  0.10000D-02 Tol=  0.10000D-05 Strict=F.
 Ernie:  48 primitive shells out of 228 were deleted.
   178 basis functions,   430 primitive gaussians,   208 cartesian basis functions
    31 alpha electrons       31 beta electrons
       nuclear repulsion energy       190.0849407097 Hartrees.
 IExCor=    0 DFT=F Ex=HF Corr=None ExCW=0 ScaHFX=  1.000000
 ScaDFX=  1.000000  1.000000  1.000000  1.000000 ScalE2=  1.000000  1.000000
 IRadAn=      5 IRanWt=     -1 IRanGd=            0 ICorTp=0 IEmpDi=  4
 NAtoms=    4 NActive=    4 NUniq=    4 SFac= 1.00D+00 NAtFMM=   60 NAOKFM=F Big=F
 Integral buffers will be    131072 words long.
 Raffenetti 1 integral format.
 Two-electron integral symmetry is turned off.
 Leave Link  301 at Thu Sep 23 16:33:40 2021, MaxMem= 16106127360 cpu:               2.4 elap:               0.1
 (Enter /sw/contrib/gaussian/g16/B01/g16/l302.exe)
 NPDir=0 NMtPBC=     1 NCelOv=     1 NCel=       1 NClECP=     1 NCelD=      1
         NCelK=      1 NCelE2=     1 NClLst=     1 CellRange=     0.0.
 One-electron integrals computed using PRISM.
 NBasis=   178 RedAO= T EigKep=  2.65D-04  NBF=   178
 NBsUse=   178 1.00D-06 EigRej= -1.00D+00 NBFU=   178
 Leave Link  302 at Thu Sep 23 16:33:41 2021, MaxMem= 16106127360 cpu:               6.3 elap:               0.3
 (Enter /sw/contrib/gaussian/g16/B01/g16/l303.exe)
 DipDrv:  MaxL=1.
 Leave Link  303 at Thu Sep 23 16:33:41 2021, MaxMem= 16106127360 cpu:               2.6 elap:               0.1
 (Enter /sw/contrib/gaussian/g16/B01/g16/l401.exe)
 ExpMin= 2.53D-02 ExpMax= 1.06D+07 ExpMxC= 1.21D+04 IAcc=3 IRadAn=         5 AccDes= 0.00D+00
 Harris functional with IExCor=  205 and IRadAn=       5 diagonalized for initial guess.
 HarFok:  IExCor=  205 AccDes= 0.00D+00 IRadAn=         5 IDoV= 1 UseB2=F ITyADJ=14
 ICtDFT=  3500011 ScaDFX=  1.000000  1.000000  1.000000  1.000000
 FoFCou: FMM=F IPFlag=           0 FMFlag=      100000 FMFlg1=           0
         NFxFlg=           0 DoJE=T BraDBF=F KetDBF=T FulRan=T
         wScrn=  0.000000 ICntrl=       500 IOpCl=  0 I1Cent=   200000004 NGrid=           0
         NMat0=    1 NMatS0=      1 NMatT0=    0 NMatD0=    1 NMtDS0=    0 NMtDT0=    0
 Symmetry not used in FoFCou.
 Harris En= -3106.38975236650    
 JPrj=0 DoOrth=F DoCkMO=F.
 Leave Link  401 at Thu Sep 23 16:33:41 2021, MaxMem= 16106127360 cpu:               8.3 elap:               0.3
 (Enter /sw/contrib/gaussian/g16/B01/g16/l502.exe)
 Keep R1 ints in memory in canonical form, NReq=149454866.
 FoFCou: FMM=F IPFlag=           0 FMFlag=           0 FMFlg1=           0
         NFxFlg=           0 DoJE=F BraDBF=F KetDBF=F FulRan=T
         wScrn=  0.000000 ICntrl=       600 IOpCl=  0 I1Cent=           0 NGrid=           0
         NMat0=    1 NMatS0=  15931 NMatT0=    0 NMatD0=    1 NMtDS0=    0 NMtDT0=    0
 Symmetry not used in FoFCou.
 Two-electron integral symmetry not used.
 Closed shell SCF:
 Using DIIS extrapolation, IDIIS=  1040.
 NGot= 16106127360 LenX= 15979127348 LenY= 15979083643
 Requested convergence on RMS density matrix=1.00D-08 within 128 cycles.
 Requested convergence on MAX density matrix=1.00D-06.
 Requested convergence on             energy=1.00D-06.
 No special actions if energy rises.

 Cycle   1  Pass 1  IDiag  1:
 E= -3107.31216119313    
 DIIS: error= 6.39D-02 at cycle   1 NSaved=   1.
 NSaved= 1 IEnMin= 1 EnMin= -3107.31216119313     IErMin= 1 ErrMin= 6.39D-02
 ErrMax= 6.39D-02  0.00D+00 EMaxC= 1.00D-01 BMatC= 6.25D-01 BMatP= 6.25D-01
 IDIUse=3 WtCom= 3.61D-01 WtEn= 6.39D-01
 Coeff-Com:  0.100D+01
 Coeff-En:   0.100D+01
 Coeff:      0.100D+01
 Gap=     0.557 Goal=   None    Shift=    0.000
 GapD=    0.557 DampG=2.000 DampE=0.500 DampFc=1.0000 IDamp=-1.
 RMSDP=2.85D-03 MaxDP=9.51D-02              OVMax= 1.16D-01

 Cycle   2  Pass 1  IDiag  1:
 E= -3107.44830731015     Delta-E=       -0.136146117015 Rises=F Damp=F
 DIIS: error= 9.84D-03 at cycle   2 NSaved=   2.
 NSaved= 2 IEnMin= 2 EnMin= -3107.44830731015     IErMin= 2 ErrMin= 9.84D-03
 ErrMax= 9.84D-03  0.00D+00 EMaxC= 1.00D-01 BMatC= 4.13D-02 BMatP= 6.25D-01
 IDIUse=3 WtCom= 9.02D-01 WtEn= 9.84D-02
 Coeff-Com:  0.132D+00 0.868D+00
 Coeff-En:   0.000D+00 0.100D+01
 Coeff:      0.119D+00 0.881D+00
 Gap=     0.328 Goal=   None    Shift=    0.000
 RMSDP=1.02D-03 MaxDP=3.76D-02 DE=-1.36D-01 OVMax= 7.10D-02

 Cycle   3  Pass 1  IDiag  1:
 E= -3107.46642613563     Delta-E=       -0.018118825486 Rises=F Damp=F
 DIIS: error= 5.08D-03 at cycle   3 NSaved=   3.
 NSaved= 3 IEnMin= 3 EnMin= -3107.46642613563     IErMin= 3 ErrMin= 5.08D-03
 ErrMax= 5.08D-03  0.00D+00 EMaxC= 1.00D-01 BMatC= 1.26D-02 BMatP= 4.13D-02
 IDIUse=3 WtCom= 9.49D-01 WtEn= 5.08D-02
 Coeff-Com:  0.699D-02 0.353D+00 0.640D+00
 Coeff-En:   0.000D+00 0.162D+00 0.838D+00
 Coeff:      0.663D-02 0.343D+00 0.650D+00
 Gap=     0.327 Goal=   None    Shift=    0.000
 RMSDP=3.29D-04 MaxDP=1.28D-02 DE=-1.81D-02 OVMax= 3.37D-02

 Cycle   4  Pass 1  IDiag  1:
 E= -3107.47506525517     Delta-E=       -0.008639119537 Rises=F Damp=F
 DIIS: error= 6.69D-04 at cycle   4 NSaved=   4.
 NSaved= 4 IEnMin= 4 EnMin= -3107.47506525517     IErMin= 4 ErrMin= 6.69D-04
 ErrMax= 6.69D-04  0.00D+00 EMaxC= 1.00D-01 BMatC= 1.37D-04 BMatP= 1.26D-02
 IDIUse=3 WtCom= 9.93D-01 WtEn= 6.69D-03
 Coeff-Com: -0.502D-02-0.288D-01 0.366D-01 0.997D+00
 Coeff-En:   0.000D+00 0.000D+00 0.000D+00 0.100D+01
 Coeff:     -0.499D-02-0.286D-01 0.363D-01 0.997D+00
 Gap=     0.325 Goal=   None    Shift=    0.000
 RMSDP=5.81D-05 MaxDP=1.23D-03 DE=-8.64D-03 OVMax= 3.70D-03

 Cycle   5  Pass 1  IDiag  1:
 E= -3107.47523817577     Delta-E=       -0.000172920605 Rises=F Damp=F
 DIIS: error= 1.67D-04 at cycle   5 NSaved=   5.
 NSaved= 5 IEnMin= 5 EnMin= -3107.47523817577     IErMin= 5 ErrMin= 1.67D-04
 ErrMax= 1.67D-04  0.00D+00 EMaxC= 1.00D-01 BMatC= 1.14D-05 BMatP= 1.37D-04
 IDIUse=3 WtCom= 9.98D-01 WtEn= 1.67D-03
 Coeff-Com:  0.740D-03-0.160D-01-0.352D-01-0.175D+00 0.123D+01
 Coeff-En:   0.000D+00 0.000D+00 0.000D+00 0.000D+00 0.100D+01
 Coeff:      0.739D-03-0.160D-01-0.351D-01-0.174D+00 0.122D+01
 Gap=     0.326 Goal=   None    Shift=    0.000
 RMSDP=2.99D-05 MaxDP=9.94D-04 DE=-1.73D-04 OVMax= 2.74D-03

 Cycle   6  Pass 1  IDiag  1:
 E= -3107.47526963897     Delta-E=       -0.000031463200 Rises=F Damp=F
 DIIS: error= 9.40D-05 at cycle   6 NSaved=   6.
 NSaved= 6 IEnMin= 6 EnMin= -3107.47526963897     IErMin= 6 ErrMin= 9.40D-05
 ErrMax= 9.40D-05  0.00D+00 EMaxC= 1.00D-01 BMatC= 1.61D-06 BMatP= 1.14D-05
 IDIUse=1 WtCom= 1.00D+00 WtEn= 0.00D+00
 Coeff-Com:  0.502D-03 0.342D-02-0.116D-02-0.126D+00-0.347D-01 0.116D+01
 Coeff:      0.502D-03 0.342D-02-0.116D-02-0.126D+00-0.347D-01 0.116D+01
 Gap=     0.326 Goal=   None    Shift=    0.000
 RMSDP=1.26D-05 MaxDP=5.07D-04 DE=-3.15D-05 OVMax= 1.37D-03

 Cycle   7  Pass 1  IDiag  1:
 E= -3107.47527499250     Delta-E=       -0.000005353525 Rises=F Damp=F
 DIIS: error= 3.27D-05 at cycle   7 NSaved=   7.
 NSaved= 7 IEnMin= 7 EnMin= -3107.47527499250     IErMin= 7 ErrMin= 3.27D-05
 ErrMax= 3.27D-05  0.00D+00 EMaxC= 1.00D-01 BMatC= 1.73D-07 BMatP= 1.61D-06
 IDIUse=1 WtCom= 1.00D+00 WtEn= 0.00D+00
 Coeff-Com: -0.229D-03 0.111D-02 0.612D-02 0.530D-01-0.158D+00-0.259D+00
 Coeff-Com:  0.136D+01
 Coeff:     -0.229D-03 0.111D-02 0.612D-02 0.530D-01-0.158D+00-0.259D+00
 Coeff:      0.136D+01
 Gap=     0.326 Goal=   None    Shift=    0.000
 RMSDP=5.23D-06 MaxDP=1.91D-04 DE=-5.35D-06 OVMax= 5.40D-04

 Cycle   8  Pass 1  IDiag  1:
 E= -3107.47527565584     Delta-E=       -0.000000663346 Rises=F Damp=F
 DIIS: error= 5.66D-06 at cycle   8 NSaved=   8.
 NSaved= 8 IEnMin= 8 EnMin= -3107.47527565584     IErMin= 8 ErrMin= 5.66D-06
 ErrMax= 5.66D-06  0.00D+00 EMaxC= 1.00D-01 BMatC= 8.88D-09 BMatP= 1.73D-07
 IDIUse=1 WtCom= 1.00D+00 WtEn= 0.00D+00
 Coeff-Com:  0.115D-04-0.601D-03-0.104D-02-0.146D-02 0.255D-01-0.172D-02
 Coeff-Com: -0.289D+00 0.127D+01
 Coeff:      0.115D-04-0.601D-03-0.104D-02-0.146D-02 0.255D-01-0.172D-02
 Coeff:     -0.289D+00 0.127D+01
 Gap=     0.326 Goal=   None    Shift=    0.000
 RMSDP=1.18D-06 MaxDP=2.87D-05 DE=-6.63D-07 OVMax= 1.27D-04

 Cycle   9  Pass 1  IDiag  1:
 E= -3107.47527569073     Delta-E=       -0.000000034881 Rises=F Damp=F
 DIIS: error= 3.18D-06 at cycle   9 NSaved=   9.
 NSaved= 9 IEnMin= 9 EnMin= -3107.47527569073     IErMin= 9 ErrMin= 3.18D-06
 ErrMax= 3.18D-06  0.00D+00 EMaxC= 1.00D-01 BMatC= 1.10D-09 BMatP= 8.88D-09
 IDIUse=1 WtCom= 1.00D+00 WtEn= 0.00D+00
 Coeff-Com:  0.135D-04 0.601D-04-0.215D-03-0.426D-02 0.686D-02 0.257D-01
 Coeff-Com: -0.563D-01-0.274D+00 0.130D+01
 Coeff:      0.135D-04 0.601D-04-0.215D-03-0.426D-02 0.686D-02 0.257D-01
 Coeff:     -0.563D-01-0.274D+00 0.130D+01
 Gap=     0.326 Goal=   None    Shift=    0.000
 RMSDP=4.56D-07 MaxDP=8.76D-06 DE=-3.49D-08 OVMax= 5.57D-05

 Cycle  10  Pass 1  IDiag  1:
 E= -3107.47527569583     Delta-E=       -0.000000005102 Rises=F Damp=F
 DIIS: error= 1.33D-06 at cycle  10 NSaved=  10.
 NSaved=10 IEnMin=10 EnMin= -3107.47527569583     IErMin=10 ErrMin= 1.33D-06
 ErrMax= 1.33D-06  0.00D+00 EMaxC= 1.00D-01 BMatC= 1.98D-10 BMatP= 1.10D-09
 IDIUse=1 WtCom= 1.00D+00 WtEn= 0.00D+00
 Coeff-Com: -0.425D-05 0.843D-04 0.214D-03 0.133D-02-0.612D-02-0.569D-02
 Coeff-Com:  0.674D-01-0.190D+00-0.205D+00 0.134D+01
 Coeff:     -0.425D-05 0.843D-04 0.214D-03 0.133D-02-0.612D-02-0.569D-02
 Coeff:      0.674D-01-0.190D+00-0.205D+00 0.134D+01
 Gap=     0.326 Goal=   None    Shift=    0.000
 RMSDP=2.38D-07 MaxDP=5.27D-06 DE=-5.10D-09 OVMax= 2.86D-05

 Cycle  11  Pass 1  IDiag  1:
 E= -3107.47527569684     Delta-E=       -0.000000001013 Rises=F Damp=F
 DIIS: error= 4.82D-07 at cycle  11 NSaved=  11.
 NSaved=11 IEnMin=11 EnMin= -3107.47527569684     IErMin=11 ErrMin= 4.82D-07
 ErrMax= 4.82D-07  0.00D+00 EMaxC= 1.00D-01 BMatC= 2.00D-11 BMatP= 1.98D-10
 IDIUse=1 WtCom= 1.00D+00 WtEn= 0.00D+00
 Coeff-Com: -0.103D-05-0.698D-05-0.805D-06 0.177D-03-0.959D-04-0.749D-03
 Coeff-Com: -0.462D-02 0.574D-01-0.142D+00-0.152D+00 0.124D+01
 Coeff:     -0.103D-05-0.698D-05-0.805D-06 0.177D-03-0.959D-04-0.749D-03
 Coeff:     -0.462D-02 0.574D-01-0.142D+00-0.152D+00 0.124D+01
 Gap=     0.326 Goal=   None    Shift=    0.000
 RMSDP=7.52D-08 MaxDP=1.69D-06 DE=-1.01D-09 OVMax= 8.60D-06

 Cycle  12  Pass 1  IDiag  1:
 E= -3107.47527569694     Delta-E=       -0.000000000096 Rises=F Damp=F
 DIIS: error= 8.63D-08 at cycle  12 NSaved=  12.
 NSaved=12 IEnMin=12 EnMin= -3107.47527569694     IErMin=12 ErrMin= 8.63D-08
 ErrMax= 8.63D-08  0.00D+00 EMaxC= 1.00D-01 BMatC= 2.04D-12 BMatP= 2.00D-11
 IDIUse=1 WtCom= 1.00D+00 WtEn= 0.00D+00
 Coeff-Com:  0.106D-06-0.141D-04-0.225D-04 0.178D-04 0.509D-03-0.303D-03
 Coeff-Com: -0.589D-02 0.290D-01-0.832D-02-0.145D+00 0.157D+00 0.973D+00
 Coeff:      0.106D-06-0.141D-04-0.225D-04 0.178D-04 0.509D-03-0.303D-03
 Coeff:     -0.589D-02 0.290D-01-0.832D-02-0.145D+00 0.157D+00 0.973D+00
 Gap=     0.326 Goal=   None    Shift=    0.000
 RMSDP=1.75D-08 MaxDP=3.19D-07 DE=-9.60D-11 OVMax= 1.61D-06

 Cycle  13  Pass 1  IDiag  1:
 E= -3107.47527569696     Delta-E=       -0.000000000021 Rises=F Damp=F
 DIIS: error= 3.35D-08 at cycle  13 NSaved=  13.
 NSaved=13 IEnMin=13 EnMin= -3107.47527569696     IErMin=13 ErrMin= 3.35D-08
 ErrMax= 3.35D-08  0.00D+00 EMaxC= 1.00D-01 BMatC= 2.11D-13 BMatP= 2.04D-12
 IDIUse=1 WtCom= 1.00D+00 WtEn= 0.00D+00
 Coeff-Com:  0.119D-06 0.381D-05 0.337D-05-0.451D-04-0.397D-04 0.203D-03
 Coeff-Com:  0.120D-02-0.104D-01 0.144D-01 0.422D-01-0.145D+00-0.212D+00
 Coeff-Com:  0.131D+01
 Coeff:      0.119D-06 0.381D-05 0.337D-05-0.451D-04-0.397D-04 0.203D-03
 Coeff:      0.120D-02-0.104D-01 0.144D-01 0.422D-01-0.145D+00-0.212D+00
 Coeff:      0.131D+01
 Gap=     0.326 Goal=   None    Shift=    0.000
 RMSDP=7.19D-09 MaxDP=1.47D-07 DE=-2.09D-11 OVMax= 7.02D-07

 SCF Done:  E(RHF) =  -3107.47527570     A.U. after   13 cycles
            NFock= 13  Conv=0.72D-08     -V/T= 2.0000
 KE= 3.107333629891D+03 PE=-7.822759607547D+03 EE= 1.417865761249D+03
 Leave Link  502 at Thu Sep 23 16:33:46 2021, MaxMem= 16106127360 cpu:              43.3 elap:               4.4
 (Enter /sw/contrib/gaussian/g16/B01/g16/l801.exe)
 ExpMin= 2.53D-02 ExpMax= 1.06D+07 ExpMxC= 1.21D+04 IAcc=3 IRadAn=         5 AccDes= 0.00D+00
 HarFok:  IExCor=  205 AccDes= 0.00D+00 IRadAn=         5 IDoV=-2 UseB2=F ITyADJ=14
 ICtDFT= 12500011 ScaDFX=  1.000000  1.000000  1.000000  1.000000
 Largest valence mixing into a core orbital is  4.47D-04
 Largest core mixing into a valence orbital is  1.58D-04
 Range of M.O.s used for correlation:    16   178
 NBasis=   178 NAE=    31 NBE=    31 NFC=    15 NFV=     0
 NROrb=    163 NOA=    16 NOB=    16 NVA=   147 NVB=   147

 **** Warning!!: The largest alpha MO coefficient is  0.10472639D+02

 Leave Link  801 at Thu Sep 23 16:33:46 2021, MaxMem= 16106127360 cpu:               3.1 elap:               0.2
 (Enter /sw/contrib/gaussian/g16/B01/g16/l906.exe)
 Frozen-core derivative calculation, NFC=  15 NFV=   0.
 FulOut=F Deriv=T AODrv=F NAtomX=     4
   MMem=         124  MDisk=          16 MDiskD=          16
  W3Min=     1147744 MinDsk=     1765480 NBas6D=         208
 NBas2D=       22240    NTT=       21736    LW2=     9911920
    MDV= 16105652795 MDiskM=      387107 NBas2p=       22041
 Fully in-core method, ICMem=   527338992.
 IMap=   1   2   3   4   5   6   7   8   9  10  11  12  13  14  15  16  17  18  19  20
 IMap=  21  22  23  24  25  26  27  28  29  30  31
 JobTyp=1 Pass  1 fully in-core, NPsUse= 28.
 Compute canonical integrals.
 FoFCou: FMM=F IPFlag=           0 FMFlag=           0 FMFlg1=           0
         NFxFlg=           0 DoJE=F BraDBF=F KetDBF=F FulRan=T
         wScrn=  0.000000 ICntrl=       600 IOpCl=  1 I1Cent=           0 NGrid=           0
         NMat0=    1 NMatS0=  22240 NMatT0=    0 NMatD0=    1 NMtDS0=    0 NMtDT0=    0
 Symmetry not used in FoFCou.
 Spin components of T(2) and E(2):
     alpha-alpha T2 =       0.3025960621D-01 E2=     -0.9394569330D-01
     alpha-beta  T2 =       0.1613705840D+00 E2=     -0.5149061096D+00
     beta-beta   T2 =       0.3025960621D-01 E2=     -0.9394569330D-01
 The integrals were generated   1 times.
 ANorm=    0.1105391241D+01
 E2 =    -0.7027974962D+00 EUMP2 =    -0.31081780731931D+04
 Leave Link  906 at Thu Sep 23 16:33:52 2021, MaxMem= 16106127360 cpu:             173.0 elap:               6.2
 (Enter /sw/contrib/gaussian/g16/B01/g16/l1002.exe)
 Minotr:  Closed shell wavefunction.
          Computing MP2/KS-MP2 derivatives.
          Using Z-Vector for PSCF gradient.
          Skipping F1 and S1 gradient terms here.
          Frozen-core window.
          Direct CPHF calculation.
          Differentiating once with respect to electric field.
                with respect to dipole field.
          Electric field/nuclear overlap derivatives assumed to be zero.
          Requested convergence is 1.0D-10 RMS, and 1.0D-09 maximum.
          NewPWx=F KeepS1=T KeepF1=T KeepIn=T MapXYZ=F SortEE=F KeepMc=T.
 Keep R1 ints in memory in canonical form, NReq=149459454.
 FoFCou: FMM=F IPFlag=           0 FMFlag=           0 FMFlg1=           0
         NFxFlg=           0 DoJE=F BraDBF=F KetDBF=F FulRan=T
         wScrn=  0.000000 ICntrl=       600 IOpCl=  0 I1Cent=           0 NGrid=           0
         NMat0=    1 NMatS0=  15931 NMatT0=    0 NMatD0=    1 NMtDS0=    0 NMtDT0=    0
 Symmetry not used in FoFCou.
 Two-electron integral symmetry not used.
          MDV=   16106127360 using IRadAn=       5.
          Solving linear equations separately, MaxMat=       0.
          There are     1 degrees of freedom in the 1st order CPHF.  IDoFFX=0 NUNeed=     1.
 LinEq1:  Iter=  0 NonCon=     1 RMS=2.64D-03 Max=3.90D-02 NDo=     1
 AX will form     1 AO Fock derivatives at one time.
 LinEq1:  Iter=  1 NonCon=     1 RMS=4.17D-04 Max=4.41D-03 NDo=     1
 LinEq1:  Iter=  2 NonCon=     1 RMS=1.96D-04 Max=3.89D-03 NDo=     1
 LinEq1:  Iter=  3 NonCon=     1 RMS=6.35D-05 Max=8.97D-04 NDo=     1
 LinEq1:  Iter=  4 NonCon=     1 RMS=2.65D-05 Max=8.69D-04 NDo=     1
 LinEq1:  Iter=  5 NonCon=     1 RMS=1.04D-05 Max=1.94D-04 NDo=     1
 LinEq1:  Iter=  6 NonCon=     1 RMS=2.71D-06 Max=7.45D-05 NDo=     1
 LinEq1:  Iter=  7 NonCon=     1 RMS=8.05D-07 Max=1.90D-05 NDo=     1
 LinEq1:  Iter=  8 NonCon=     1 RMS=2.54D-07 Max=4.21D-06 NDo=     1
 LinEq1:  Iter=  9 NonCon=     1 RMS=6.70D-08 Max=7.53D-07 NDo=     1
 LinEq1:  Iter= 10 NonCon=     1 RMS=1.60D-08 Max=2.38D-07 NDo=     1
 LinEq1:  Iter= 11 NonCon=     1 RMS=3.72D-09 Max=8.67D-08 NDo=     1
 LinEq1:  Iter= 12 NonCon=     1 RMS=7.99D-10 Max=2.34D-08 NDo=     1
 LinEq1:  Iter= 13 NonCon=     1 RMS=2.40D-10 Max=3.67D-09 NDo=     1
 LinEq1:  Iter= 14 NonCon=     0 RMS=6.83D-11 Max=7.39D-10 NDo=     1
 Linear equations converged to 1.000D-10 1.000D-09 after    14 iterations.
 End of Minotr F.D. properties file   721 does not exist.
 End of Minotr F.D. properties file   722 does not exist.
 End of Minotr F.D. properties file   788 does not exist.
 Leave Link 1002 at Thu Sep 23 16:33:57 2021, MaxMem= 16106127360 cpu:              41.5 elap:               4.9
 (Enter /sw/contrib/gaussian/g16/B01/g16/l601.exe)
 Copying SCF densities to generalized density rwf, IOpCl= 0 IROHF=0.

 **********************************************************************

            Population analysis using the MP2 Density.

 **********************************************************************

 Alpha  occ. eigenvalues -- -489.75127-104.73440 -64.89161 -58.24612 -58.24606
 Alpha  occ. eigenvalues --  -58.24604 -20.46735 -10.45394  -9.56413  -7.92112
 Alpha  occ. eigenvalues --   -7.91844  -7.91833  -7.17191  -7.17139  -7.17135
 Alpha  occ. eigenvalues --   -2.91361  -2.91340  -2.91335  -2.91273  -2.91273
 Alpha  occ. eigenvalues --   -1.23525  -0.89916  -0.72528  -0.54458  -0.44680
 Alpha  occ. eigenvalues --   -0.43833  -0.31119  -0.28436  -0.18009  -0.17169
 Alpha  occ. eigenvalues --   -0.17121
 Alpha virt. eigenvalues --    0.15479   0.17979   0.21647   0.22668   0.24151
 Alpha virt. eigenvalues --    0.24756   0.25016   0.28477   0.29572   0.30705
 Alpha virt. eigenvalues --    0.32720   0.33527   0.36483   0.41637   0.44194
 Alpha virt. eigenvalues --    0.46302   0.48582   0.48972   0.51096   0.53871
 Alpha virt. eigenvalues --    0.54499   0.56250   0.58645   0.59342   0.59946
 Alpha virt. eigenvalues --    0.61280   0.65216   0.68698   0.73336   0.74026
 Alpha virt. eigenvalues --    0.75575   0.77233   0.79707   0.86131   0.87841
 Alpha virt. eigenvalues --    0.88709   0.90382   0.94499   0.98771   0.99086
 Alpha virt. eigenvalues --    1.00757   1.00918   1.01808   1.04479   1.06570
 Alpha virt. eigenvalues --    1.07180   1.09377   1.09531   1.11801   1.13529
 Alpha virt. eigenvalues --    1.16360   1.17123   1.18255   1.18928   1.20159
 Alpha virt. eigenvalues --    1.21867   1.26005   1.29018   1.31440   1.35433
 Alpha virt. eigenvalues --    1.37350   1.38780   1.45059   1.48937   1.50065
 Alpha virt. eigenvalues --    1.54010   1.57051   1.59951   1.66241   1.69411
 Alpha virt. eigenvalues --    1.70602   1.74219   1.78744   1.79434   1.87627
 Alpha virt. eigenvalues --    1.97045   2.12422   2.34716   2.39103   2.41404
 Alpha virt. eigenvalues --    2.45059   2.46364   2.46777   2.50816   2.53199
 Alpha virt. eigenvalues --    2.53491   2.55254   2.55878   2.56047   2.56769
 Alpha virt. eigenvalues --    2.58861   2.59100   2.62248   2.62838   2.65129
 Alpha virt. eigenvalues --    2.66466   2.68868   2.69516   2.71505   2.73263
 Alpha virt. eigenvalues --    2.75214   2.76791   2.77795   2.78281   2.81356
 Alpha virt. eigenvalues --    2.86997   2.91590   3.03514   3.09187   3.14874
 Alpha virt. eigenvalues --    3.18915   3.21832   3.24752   3.26612   3.29910
 Alpha virt. eigenvalues --    3.35050   3.51792   3.54734   3.57401   3.91963
 Alpha virt. eigenvalues --    4.15252   4.32312   4.41950   4.50793   4.56024
 Alpha virt. eigenvalues --    4.74805   4.81037   4.97767   5.05081   5.34272
 Alpha virt. eigenvalues --    5.42122   5.67325   6.40816   6.58310   6.87124
 Alpha virt. eigenvalues --    6.89977   6.91728   6.99088   7.30746   7.34045
 Alpha virt. eigenvalues --    7.34896   7.43782   7.53706   7.73862   7.77345
 Alpha virt. eigenvalues --    8.35079  14.44014
          Condensed to atoms (all electrons):
               1          2          3          4
     1  O    8.615880  -0.083015  -0.117192   0.038315
     2  Br  -0.083015  35.887361   0.004011   0.060873
     3  Cl  -0.117192   0.004011  17.059781  -0.002055
     4  H    0.038315   0.060873  -0.002055   0.635104
 Mulliken charges:
               1
     1  O   -0.453988
     2  Br  -0.869230
     3  Cl   0.055455
     4  H    0.267763
 Sum of Mulliken charges =  -1.00000
 Mulliken charges with hydrogens summed into heavy atoms:
               1
     1  O   -0.186225
     2  Br  -0.869230
     3  Cl   0.055455
 Electronic spatial extent (au):  <R**2>=           1480.9447
 Charge=             -1.0000 electrons
 Dipole moment (field-independent basis, Debye):
    X=            -10.9146    Y=             -0.6158    Z=              0.2450  Tot=             10.9347
 Quadrupole moment (field-independent basis, Debye-Ang):
   XX=            -80.6945   YY=            -43.3248   ZZ=            -43.0126
   XY=              0.4337   XZ=              0.0845   YZ=             -0.1088
 Traceless Quadrupole moment (field-independent basis, Debye-Ang):
   XX=            -25.0172   YY=             12.3525   ZZ=             12.6647
   XY=              0.4337   XZ=              0.0845   YZ=             -0.1088
 Octapole moment (field-independent basis, Debye-Ang**2):
  XXX=           -314.7471  YYY=            -62.7004  ZZZ=             -1.2784  XYY=            -66.7720
  XXY=            -21.7299  XXZ=             -2.1012  XZZ=            -66.0815  YZZ=            -22.2581
  YYZ=             -0.6375  XYZ=              0.0659
 Hexadecapole moment (field-independent basis, Debye-Ang**3):
 XXXX=          -1736.2839 YYYY=           -258.2727 ZZZZ=            -62.8672 XXXY=             28.1857
 XXXZ=             -8.6321 YYYX=             21.9710 YYYZ=             -0.5377 ZZZX=             -1.9542
 ZZZY=             -0.1717 XXYY=           -277.7390 XXZZ=           -242.1907 YYZZ=            -58.0428
 XXYZ=             -0.1285 YYXZ=             -0.4627 ZZXY=              9.2452
 N-N= 1.900849407097D+02 E-N=-7.821324160214D+03  KE= 3.107360015189D+03
 No NMR shielding tensors so no spin-rotation constants.
 Leave Link  601 at Thu Sep 23 16:33:57 2021, MaxMem= 16106127360 cpu:               4.3 elap:               0.2
 (Enter /sw/contrib/gaussian/g16/B01/g16/l607.exe)
 ******************************Gaussian NBO Version 3.1******************************
             N A T U R A L   A T O M I C   O R B I T A L   A N D
          N A T U R A L   B O N D   O R B I T A L   A N A L Y S I S
 ******************************Gaussian NBO Version 3.1******************************
       /RESON  / : Allow strongly delocalized NBO set

 Analyzing the MP2 density

 Job title: title                                                           

 Storage needed:     95974 in NPA,    127345 in NBO (********** available)
 GSVD:  LWork=        4314 too small for GESVD, short by       49391 words or       49391 for optimal perf.


 NATURAL POPULATIONS:  Natural atomic orbital occupancies 
                                                          
   NAO  Atom  No  lang   Type(AO)    Occupancy
 --------------------------------------------
     1    O    1  S      Cor( 1S)     1.99970
     2    O    1  S      Val( 2S)     1.79108
     3    O    1  S      Ryd( 3S)     0.00954
     4    O    1  S      Ryd( 4S)     0.00113
     5    O    1  S      Ryd( 5S)     0.00019
     6    O    1  px     Val( 2p)     1.67241
     7    O    1  px     Ryd( 3p)     0.01211
     8    O    1  px     Ryd( 4p)     0.00074
     9    O    1  px     Ryd( 5p)     0.00045
    10    O    1  py     Val( 2p)     1.26872
    11    O    1  py     Ryd( 3p)     0.00781
    12    O    1  py     Ryd( 4p)     0.00063
    13    O    1  py     Ryd( 5p)     0.00037
    14    O    1  pz     Val( 2p)     1.91091
    15    O    1  pz     Ryd( 3p)     0.01902
    16    O    1  pz     Ryd( 4p)     0.00068
    17    O    1  pz     Ryd( 5p)     0.00020
    18    O    1  dxy    Ryd( 3d)     0.00935
    19    O    1  dxy    Ryd( 4d)     0.00047
    20    O    1  dxy    Ryd( 5d)     0.00017
    21    O    1  dxz    Ryd( 3d)     0.00915
    22    O    1  dxz    Ryd( 4d)     0.00059
    23    O    1  dxz    Ryd( 5d)     0.00025
    24    O    1  dyz    Ryd( 3d)     0.00944
    25    O    1  dyz    Ryd( 4d)     0.00057
    26    O    1  dyz    Ryd( 5d)     0.00011
    27    O    1  dx2y2  Ryd( 3d)     0.01194
    28    O    1  dx2y2  Ryd( 4d)     0.00039
    29    O    1  dx2y2  Ryd( 5d)     0.00016
    30    O    1  dz2    Ryd( 3d)     0.00911
    31    O    1  dz2    Ryd( 4d)     0.00057
    32    O    1  dz2    Ryd( 5d)     0.00019
    33    O    1  f(0)   Ryd( 4f)     0.00067
    34    O    1  f(0)   Ryd( 5f)     0.00011
    35    O    1  f(C1)  Ryd( 4f)     0.00059
    36    O    1  f(C1)  Ryd( 5f)     0.00011
    37    O    1  f(S1)  Ryd( 4f)     0.00064
    38    O    1  f(S1)  Ryd( 5f)     0.00011
    39    O    1  f(C2)  Ryd( 4f)     0.00060
    40    O    1  f(C2)  Ryd( 5f)     0.00013
    41    O    1  f(S2)  Ryd( 4f)     0.00058
    42    O    1  f(S2)  Ryd( 5f)     0.00012
    43    O    1  f(C3)  Ryd( 4f)     0.00057
    44    O    1  f(C3)  Ryd( 5f)     0.00015
    45    O    1  f(S3)  Ryd( 4f)     0.00057
    46    O    1  f(S3)  Ryd( 5f)     0.00012

    47   Br    2  S      Cor( 1S)     2.00000
    48   Br    2  S      Cor( 2S)     2.00000
    49   Br    2  S      Cor( 3S)     1.99990
    50   Br    2  S      Val( 4S)     1.97099
    51   Br    2  S      Ryd( 5S)     0.00217
    52   Br    2  S      Ryd( 6S)     0.00049
    53   Br    2  S      Ryd( 7S)     0.00018
    54   Br    2  px     Cor( 2p)     2.00000
    55   Br    2  px     Cor( 3p)     1.99994
    56   Br    2  px     Val( 4p)     1.87500
    57   Br    2  px     Ryd( 5p)     0.00972
    58   Br    2  px     Ryd( 6p)     0.00076
    59   Br    2  px     Ryd( 7p)     0.00012
    60   Br    2  py     Cor( 3p)     2.00000
    61   Br    2  py     Cor( 2p)     2.00001
    62   Br    2  py     Val( 4p)     1.95341
    63   Br    2  py     Ryd( 5p)     0.01134
    64   Br    2  py     Ryd( 6p)     0.00082
    65   Br    2  py     Ryd( 7p)     0.00008
    66   Br    2  pz     Cor( 3p)     2.00000
    67   Br    2  pz     Cor( 2p)     2.00001
    68   Br    2  pz     Val( 4p)     1.94926
    69   Br    2  pz     Ryd( 5p)     0.01131
    70   Br    2  pz     Ryd( 6p)     0.00081
    71   Br    2  pz     Ryd( 7p)     0.00009
    72   Br    2  dxy    Cor( 3d)     1.99766
    73   Br    2  dxy    Ryd( 4d)     0.01892
    74   Br    2  dxy    Ryd( 5d)     0.00145
    75   Br    2  dxy    Ryd( 6d)     0.00023
    76   Br    2  dxz    Cor( 3d)     1.99766
    77   Br    2  dxz    Ryd( 4d)     0.01901
    78   Br    2  dxz    Ryd( 5d)     0.00151
    79   Br    2  dxz    Ryd( 6d)     0.00022
    80   Br    2  dyz    Cor( 3d)     1.99769
    81   Br    2  dyz    Ryd( 4d)     0.01867
    82   Br    2  dyz    Ryd( 5d)     0.00176
    83   Br    2  dyz    Ryd( 6d)     0.00024
    84   Br    2  dx2y2  Cor( 3d)     1.99764
    85   Br    2  dx2y2  Ryd( 4d)     0.01846
    86   Br    2  dx2y2  Ryd( 5d)     0.00164
    87   Br    2  dx2y2  Ryd( 6d)     0.00024
    88   Br    2  dz2    Cor( 3d)     1.99767
    89   Br    2  dz2    Ryd( 4d)     0.01859
    90   Br    2  dz2    Ryd( 5d)     0.00170
    91   Br    2  dz2    Ryd( 6d)     0.00022
    92   Br    2  f(0)   Ryd( 4f)     0.00174
    93   Br    2  f(0)   Ryd( 5f)     0.00025
    94   Br    2  f(C1)  Ryd( 4f)     0.00174
    95   Br    2  f(C1)  Ryd( 5f)     0.00027
    96   Br    2  f(S1)  Ryd( 4f)     0.00175
    97   Br    2  f(S1)  Ryd( 5f)     0.00024
    98   Br    2  f(C2)  Ryd( 4f)     0.00173
    99   Br    2  f(C2)  Ryd( 5f)     0.00026
   100   Br    2  f(S2)  Ryd( 4f)     0.00177
   101   Br    2  f(S2)  Ryd( 5f)     0.00025
   102   Br    2  f(C3)  Ryd( 4f)     0.00175
   103   Br    2  f(C3)  Ryd( 5f)     0.00028
   104   Br    2  f(S3)  Ryd( 4f)     0.00170
   105   Br    2  f(S3)  Ryd( 5f)     0.00026

   106   Cl    3  S      Cor( 1S)     2.00000
   107   Cl    3  S      Cor( 2S)     1.99979
   108   Cl    3  S      Val( 3S)     1.88213
   109   Cl    3  S      Ryd( 4S)     0.00791
   110   Cl    3  S      Ryd( 5S)     0.00053
   111   Cl    3  S      Ryd( 6S)     0.00017
   112   Cl    3  px     Cor( 2p)     2.00003
   113   Cl    3  px     Val( 3p)     1.89118
   114   Cl    3  px     Ryd( 4p)     0.00956
   115   Cl    3  px     Ryd( 5p)     0.00054
   116   Cl    3  px     Ryd( 6p)     0.00008
   117   Cl    3  py     Cor( 2p)     1.99996
   118   Cl    3  py     Val( 3p)     0.96818
   119   Cl    3  py     Ryd( 4p)     0.00694
   120   Cl    3  py     Ryd( 5p)     0.00052
   121   Cl    3  py     Ryd( 6p)     0.00023
   122   Cl    3  pz     Cor( 2p)     2.00003
   123   Cl    3  pz     Val( 3p)     1.95442
   124   Cl    3  pz     Ryd( 4p)     0.01052
   125   Cl    3  pz     Ryd( 5p)     0.00065
   126   Cl    3  pz     Ryd( 6p)     0.00003
   127   Cl    3  dxy    Ryd( 3d)     0.01762
   128   Cl    3  dxy    Ryd( 4d)     0.00070
   129   Cl    3  dxy    Ryd( 5d)     0.00026
   130   Cl    3  dxz    Ryd( 3d)     0.01717
   131   Cl    3  dxz    Ryd( 4d)     0.00076
   132   Cl    3  dxz    Ryd( 5d)     0.00019
   133   Cl    3  dyz    Ryd( 3d)     0.02041
   134   Cl    3  dyz    Ryd( 4d)     0.00101
   135   Cl    3  dyz    Ryd( 5d)     0.00036
   136   Cl    3  dx2y2  Ryd( 3d)     0.01823
   137   Cl    3  dx2y2  Ryd( 4d)     0.00065
   138   Cl    3  dx2y2  Ryd( 5d)     0.00025
   139   Cl    3  dz2    Ryd( 3d)     0.01748
   140   Cl    3  dz2    Ryd( 4d)     0.00061
   141   Cl    3  dz2    Ryd( 5d)     0.00017
   142   Cl    3  f(0)   Ryd( 4f)     0.00130
   143   Cl    3  f(0)   Ryd( 5f)     0.00013
   144   Cl    3  f(C1)  Ryd( 4f)     0.00128
   145   Cl    3  f(C1)  Ryd( 5f)     0.00013
   146   Cl    3  f(S1)  Ryd( 4f)     0.00143
   147   Cl    3  f(S1)  Ryd( 5f)     0.00014
   148   Cl    3  f(C2)  Ryd( 4f)     0.00129
   149   Cl    3  f(C2)  Ryd( 5f)     0.00013
   150   Cl    3  f(S2)  Ryd( 4f)     0.00123
   151   Cl    3  f(S2)  Ryd( 5f)     0.00013
   152   Cl    3  f(C3)  Ryd( 4f)     0.00141
   153   Cl    3  f(C3)  Ryd( 5f)     0.00013
   154   Cl    3  f(S3)  Ryd( 4f)     0.00144
   155   Cl    3  f(S3)  Ryd( 5f)     0.00014

   156    H    4  S      Val( 1S)     0.48876
   157    H    4  S      Ryd( 2S)     0.00814
   158    H    4  S      Ryd( 3S)     0.00031
   159    H    4  S      Ryd( 4S)     0.00015
   160    H    4  px     Ryd( 2p)     0.00557
   161    H    4  px     Ryd( 3p)     0.00094
   162    H    4  px     Ryd( 4p)     0.00033
   163    H    4  py     Ryd( 2p)     0.00359
   164    H    4  py     Ryd( 3p)     0.00043
   165    H    4  py     Ryd( 4p)     0.00012
   166    H    4  pz     Ryd( 2p)     0.00474
   167    H    4  pz     Ryd( 3p)     0.00045
   168    H    4  pz     Ryd( 4p)     0.00022
   169    H    4  dxy    Ryd( 3d)     0.00028
   170    H    4  dxy    Ryd( 4d)     0.00009
   171    H    4  dxz    Ryd( 3d)     0.00037
   172    H    4  dxz    Ryd( 4d)     0.00011
   173    H    4  dyz    Ryd( 3d)     0.00022
   174    H    4  dyz    Ryd( 4d)     0.00006
   175    H    4  dx2y2  Ryd( 3d)     0.00024
   176    H    4  dx2y2  Ryd( 4d)     0.00012
   177    H    4  dz2    Ryd( 3d)     0.00027
   178    H    4  dz2    Ryd( 4d)     0.00009

 WARNING:  5 low occupancy (<1.9990e) core orbitals found on Br    2


 Summary of Natural Population Analysis:                  
                                                          
                                       Natural Population 
                Natural  -----------------------------------------------
    Atom  No    Charge         Core      Valence    Rydberg      Total
 -----------------------------------------------------------------------
      O    1   -0.75320      1.99970     6.64311    0.11039     8.75320
     Br    2   -0.89159     27.98818     7.74866    0.15475    35.89159
     Cl    3    0.16040      9.99981     6.69593    0.14386    16.83960
      H    4    0.48439      0.00000     0.48876    0.02685     0.51561
 =======================================================================
   * Total *   -1.00000     39.98769    21.57645    0.43586    62.00000

                                 Natural Population      
 --------------------------------------------------------
   Core                      39.98769 ( 99.9692% of  40)
   Valence                   21.57645 ( 98.0748% of  22)
   Natural Minimal Basis     61.56414 ( 99.2970% of  62)
   Natural Rydberg Basis      0.43586 (  0.7030% of  62)
 --------------------------------------------------------

    Atom  No          Natural Electron Configuration
 ----------------------------------------------------------------------------
      O    1      [core]2S( 1.79)2p( 4.85)3S( 0.01)3p( 0.04)3d( 0.05)
     Br    2      [core]4S( 1.97)4p( 5.78)4d( 0.09)5p( 0.03)4f( 0.01)5d( 0.01)
     Cl    3      [core]3S( 1.88)3p( 4.81)4S( 0.01)3d( 0.09)4p( 0.03)4f( 0.01)
      H    4            1S( 0.49)2S( 0.01)2p( 0.01)


 NATURAL BOND ORBITAL ANALYSIS:

                       Occupancies       Lewis Structure    Low   High
           Occ.    -------------------  -----------------   occ   occ
  Cycle   Thresh.   Lewis   Non-Lewis     CR  BD  3C  LP    (L)   (NL)   Dev
 =============================================================================
   1(1)    1.90    61.44609   0.55391     20   2   0   9     1      1    0.13
   2(2)    1.90    61.44609   0.55391     20   2   0   9     1      1    0.13
   3(1)    1.80    61.44609   0.55391     20   2   0   9     0      1    0.13
   4(2)    1.80    61.44609   0.55391     20   2   0   9     0      1    0.13
   5(1)    1.70    61.44609   0.55391     20   2   0   9     0      1    0.13
   6(2)    1.70    61.44609   0.55391     20   2   0   9     0      1    0.13
   7(1)    1.60    61.44609   0.55391     20   2   0   9     0      1    0.13
   8(2)    1.60    61.44609   0.55391     20   2   0   9     0      1    0.13
   9(1)    1.50    61.06441   0.93559     20   1   0  10     0      1    0.57
  10(2)    1.50    61.06441   0.93559     20   1   0  10     0      1    0.57
  11(1)    1.90    61.44609   0.55391     20   2   0   9     1      1    0.13
 -----------------------------------------------------------------------------

 Structure accepted: RESONANCE keyword permits strongly delocalized structure

 WARNING:  5 low occupancy (<1.9990e) core orbitals found on Br    2

 --------------------------------------------------------
   Core                     39.98769 ( 99.969% of  40)
   Valence Lewis            21.45839 ( 97.538% of  22)
  ==================       ============================
   Total Lewis              61.44609 ( 99.107% of  62)
  -----------------------------------------------------
   Valence non-Lewis         0.16458 (  0.265% of  62)
   Rydberg non-Lewis         0.38934 (  0.628% of  62)
  ==================       ============================
   Total non-Lewis           0.55391 (  0.893% of  62)
 --------------------------------------------------------


       (Occupancy)   Bond orbital/ Coefficients/ Hybrids
 ---------------------------------------------------------------------------------
     1. (1.93954) BD ( 1) O   1 -Cl   3  
                ( 58.99%)   0.7680* O   1 s( 10.41%)p 8.56( 89.06%)d 0.05(  0.52%)
                                                  f 0.00(  0.02%)
                                            0.0003  0.3196 -0.0414 -0.0142 -0.0010
                                           -0.1994  0.0330  0.0070  0.0023  0.9211
                                           -0.0228 -0.0088 -0.0103  0.0201  0.0106
                                            0.0019 -0.0003 -0.0068 -0.0008 -0.0029
                                            0.0052  0.0005 -0.0010  0.0116  0.0016
                                           -0.0004 -0.0576 -0.0045 -0.0007 -0.0404
                                           -0.0033  0.0003 -0.0000 -0.0000  0.0025
                                           -0.0001 -0.0099  0.0008 -0.0021  0.0012
                                            0.0035 -0.0008  0.0039  0.0018 -0.0054
                                            0.0007
                ( 41.01%)   0.6404*Cl   3 s(  8.52%)p10.58( 90.20%)d 0.14(  1.16%)
                                                  f 0.01(  0.11%)
                                           -0.0000  0.0005  0.2863 -0.0559 -0.0100
                                           -0.0026  0.0001  0.2295 -0.0135 -0.0054
                                            0.0018 -0.0004 -0.9191  0.0644  0.0129
                                           -0.0039  0.0000  0.0041  0.0000 -0.0014
                                            0.0006 -0.0507  0.0050 -0.0003  0.0049
                                            0.0000 -0.0007 -0.0064 -0.0008 -0.0006
                                           -0.0756  0.0094  0.0007 -0.0559  0.0059
                                            0.0007 -0.0006  0.0001 -0.0052  0.0009
                                            0.0202 -0.0029  0.0000 -0.0004 -0.0012
                                            0.0007 -0.0176  0.0021  0.0189 -0.0021
     2. (1.96423) BD ( 1) O   1 - H   4  
                ( 79.43%)   0.8912* O   1 s( 27.69%)p 2.59( 71.80%)d 0.02(  0.50%)
                                                  f 0.00(  0.01%)
                                            0.0003  0.5261 -0.0071 -0.0084  0.0022
                                            0.7858 -0.0099 -0.0070 -0.0043 -0.0173
                                            0.0158  0.0015  0.0021  0.3159 -0.0011
                                           -0.0029 -0.0029  0.0246  0.0046  0.0011
                                            0.0422  0.0028 -0.0010  0.0109  0.0019
                                            0.0002  0.0444  0.0033  0.0017 -0.0216
                                           -0.0006  0.0023 -0.0069  0.0001 -0.0045
                                            0.0002  0.0002  0.0002  0.0043  0.0015
                                            0.0003 -0.0007  0.0000  0.0027 -0.0018
                                           -0.0003
                ( 20.57%)   0.4536* H   4 s( 99.82%)p 0.00(  0.18%)d 0.00(  0.00%)
                                            0.9983  0.0399  0.0023 -0.0011  0.0093
                                           -0.0310 -0.0095  0.0138  0.0015 -0.0040
                                            0.0179 -0.0127 -0.0011  0.0012  0.0018
                                           -0.0006 -0.0007  0.0011  0.0009  0.0022
                                           -0.0008 -0.0019 -0.0022
     3. (1.99970) CR ( 1) O   1           s(100.00%)p 0.00(  0.00%)
                                            1.0000 -0.0004  0.0000  0.0000 -0.0000
                                           -0.0001 -0.0000  0.0000  0.0000 -0.0002
                                            0.0000  0.0000  0.0000 -0.0000 -0.0000
                                            0.0000  0.0000 -0.0000 -0.0000 -0.0000
                                           -0.0000 -0.0000  0.0000 -0.0000 -0.0000
                                           -0.0000  0.0000  0.0000 -0.0000  0.0000
                                            0.0000 -0.0000  0.0000  0.0000  0.0000
                                            0.0000  0.0000 -0.0000 -0.0000 -0.0000
                                           -0.0000  0.0000 -0.0000 -0.0000  0.0000
                                           -0.0000
     4. (2.00000) CR ( 1)Br   2           s(100.00%)
                                            1.0000 -0.0000  0.0000  0.0000 -0.0000
                                            0.0000  0.0000 -0.0000  0.0000  0.0000
                                           -0.0000  0.0000 -0.0000  0.0000 -0.0000
                                           -0.0000 -0.0000 -0.0000 -0.0000  0.0000
                                           -0.0000 -0.0000  0.0000  0.0000  0.0000
                                           -0.0000  0.0000 -0.0000  0.0000  0.0000
                                            0.0000  0.0000  0.0000  0.0000 -0.0000
                                            0.0000 -0.0000 -0.0000 -0.0000 -0.0000
                                           -0.0000  0.0000  0.0000  0.0000  0.0000
                                           -0.0000 -0.0000  0.0000  0.0000  0.0000
                                            0.0000  0.0000  0.0000  0.0000  0.0000
                                           -0.0000 -0.0000 -0.0000 -0.0000
     5. (2.00000) CR ( 2)Br   2           s(100.00%)
                                           -0.0000  1.0000  0.0000  0.0000 -0.0000
                                            0.0000  0.0000 -0.0000  0.0000  0.0000
                                           -0.0000  0.0000 -0.0000 -0.0000  0.0000
                                            0.0000 -0.0000 -0.0000 -0.0000  0.0000
                                           -0.0000 -0.0000  0.0000  0.0000  0.0000
                                           -0.0000 -0.0000 -0.0000  0.0000  0.0000
                                            0.0000  0.0000  0.0000  0.0000  0.0000
                                            0.0000 -0.0000 -0.0000 -0.0000 -0.0000
                                           -0.0000  0.0000  0.0000  0.0000  0.0000
                                           -0.0000 -0.0000  0.0000  0.0000  0.0000
                                            0.0000  0.0000  0.0000  0.0000  0.0000
                                           -0.0000 -0.0000  0.0000 -0.0000
     6. (1.99990) CR ( 3)Br   2           s(100.00%)
                                            0.0000  0.0000  1.0000 -0.0002  0.0000
                                           -0.0000 -0.0000  0.0000 -0.0000 -0.0000
                                            0.0000 -0.0000  0.0000 -0.0000  0.0000
                                            0.0000  0.0000  0.0000  0.0000 -0.0000
                                            0.0000  0.0000 -0.0000  0.0000 -0.0000
                                            0.0000 -0.0000  0.0000 -0.0000 -0.0000
                                           -0.0000 -0.0000 -0.0000 -0.0000  0.0000
                                           -0.0000  0.0000  0.0000 -0.0000  0.0000
                                            0.0000 -0.0000  0.0000 -0.0000 -0.0000
                                           -0.0000  0.0000 -0.0000 -0.0000 -0.0000
                                           -0.0000  0.0000 -0.0000 -0.0000 -0.0000
                                            0.0000  0.0000  0.0000  0.0000
     7. (2.00000) CR ( 4)Br   2           s(  0.00%)p 1.00(100.00%)
                                           -0.0000 -0.0000  0.0000  0.0000 -0.0000
                                            0.0000  0.0000  1.0000  0.0000  0.0000
                                           -0.0000  0.0000  0.0000  0.0000  0.0000
                                            0.0000 -0.0000 -0.0000 -0.0000 -0.0000
                                            0.0000  0.0000  0.0000  0.0000 -0.0000
                                           -0.0000 -0.0000 -0.0000  0.0000  0.0000
                                           -0.0000  0.0000  0.0000  0.0000 -0.0000
                                            0.0000 -0.0000 -0.0000 -0.0000 -0.0000
                                            0.0000  0.0000  0.0000 -0.0000  0.0000
                                           -0.0000 -0.0000 -0.0000 -0.0000 -0.0000
                                            0.0000  0.0000  0.0000 -0.0000 -0.0000
                                           -0.0000 -0.0000  0.0000 -0.0000
     8. (1.99994) CR ( 5)Br   2           s(  0.00%)p 1.00(100.00%)
                                            0.0000  0.0000 -0.0000 -0.0001  0.0000
                                           -0.0000 -0.0000  0.0000  1.0000 -0.0000
                                            0.0000 -0.0000 -0.0000  0.0000 -0.0000
                                           -0.0000  0.0000  0.0000  0.0000  0.0000
                                           -0.0000 -0.0000 -0.0000 -0.0000  0.0000
                                            0.0000  0.0000  0.0000 -0.0000 -0.0000
                                            0.0000 -0.0000 -0.0000 -0.0000  0.0000
                                           -0.0000  0.0000  0.0000  0.0000  0.0000
                                           -0.0000 -0.0000 -0.0000  0.0000 -0.0000
                                            0.0000  0.0000  0.0000  0.0000  0.0000
                                           -0.0000 -0.0000 -0.0000  0.0000  0.0000
                                            0.0000  0.0000 -0.0000  0.0000
     9. (2.00000) CR ( 6)Br   2           s(  0.00%)p 1.00(100.00%)
                                            0.0000 -0.0000 -0.0000 -0.0000  0.0000
                                           -0.0000 -0.0000  0.0000  0.0000 -0.0000
                                           -0.0000  0.0000  0.0000  1.0000  0.0000
                                            0.0000  0.0000  0.0000 -0.0000  0.0000
                                           -0.0000 -0.0000  0.0000  0.0000  0.0000
                                            0.0000 -0.0000  0.0000  0.0000  0.0000
                                           -0.0000  0.0000 -0.0000 -0.0000  0.0000
                                           -0.0000  0.0000 -0.0000  0.0000 -0.0000
                                            0.0000  0.0000  0.0000 -0.0000  0.0000
                                           -0.0000 -0.0000  0.0000  0.0000 -0.0000
                                           -0.0000  0.0000  0.0000 -0.0000 -0.0000
                                           -0.0000 -0.0000  0.0000  0.0000
    10. (2.00001) CR ( 7)Br   2           s(  0.00%)p 1.00(100.00%)
                                           -0.0000  0.0000  0.0000 -0.0000 -0.0000
                                            0.0000  0.0000  0.0000 -0.0000  0.0000
                                            0.0000 -0.0000 -0.0000  0.0000  1.0000
                                           -0.0002 -0.0000 -0.0000  0.0000 -0.0000
                                            0.0000 -0.0000 -0.0000 -0.0000 -0.0000
                                           -0.0000  0.0000 -0.0000 -0.0000 -0.0000
                                            0.0000 -0.0000  0.0000  0.0000 -0.0000
                                            0.0000 -0.0000  0.0000 -0.0000  0.0000
                                           -0.0000 -0.0000 -0.0000  0.0000 -0.0000
                                            0.0000  0.0000 -0.0000 -0.0000  0.0000
                                            0.0000 -0.0000 -0.0000  0.0000  0.0000
                                            0.0000  0.0000 -0.0000 -0.0000
    11. (2.00000) CR ( 8)Br   2           s(  0.00%)p 1.00(100.00%)
                                            0.0000  0.0000 -0.0000 -0.0000 -0.0000
                                            0.0000  0.0000 -0.0000  0.0000  0.0000
                                            0.0000 -0.0000  0.0000  0.0000 -0.0000
                                           -0.0000 -0.0000 -0.0000 -0.0000  1.0000
                                            0.0000  0.0000  0.0000  0.0000 -0.0000
                                           -0.0000  0.0000 -0.0000  0.0000  0.0000
                                           -0.0000  0.0000  0.0000  0.0000 -0.0000
                                            0.0000 -0.0000  0.0000 -0.0000  0.0000
                                            0.0000 -0.0000  0.0000 -0.0000  0.0000
                                           -0.0000 -0.0000 -0.0000 -0.0000 -0.0000
                                            0.0000  0.0000  0.0000 -0.0000 -0.0000
                                            0.0000  0.0000 -0.0000 -0.0000
    12. (2.00001) CR ( 9)Br   2           s(  0.00%)p 1.00(100.00%)
                                           -0.0000 -0.0000  0.0000  0.0000  0.0000
                                           -0.0000 -0.0000  0.0000 -0.0000 -0.0000
                                           -0.0000  0.0000 -0.0000 -0.0000  0.0000
                                            0.0000  0.0000  0.0000  0.0000  0.0000
                                            1.0000 -0.0002 -0.0000 -0.0000  0.0000
                                            0.0000 -0.0000  0.0000 -0.0000 -0.0000
                                            0.0000 -0.0000 -0.0000 -0.0000  0.0000
                                           -0.0000  0.0000 -0.0000  0.0000 -0.0000
                                           -0.0000  0.0000 -0.0000  0.0000 -0.0000
                                            0.0000  0.0000  0.0000  0.0000  0.0000
                                           -0.0000 -0.0000 -0.0000  0.0000  0.0000
                                           -0.0000 -0.0000  0.0000  0.0000
    13. (1.99766) CR (10)Br   2           s(  0.00%)p 0.00(  0.00%)d 1.00(100.00%)
                                           -0.0000 -0.0000  0.0000  0.0000 -0.0000
                                            0.0000  0.0000 -0.0000  0.0000  0.0000
                                            0.0000 -0.0000 -0.0000  0.0000 -0.0000
                                           -0.0000 -0.0000 -0.0000  0.0000 -0.0000
                                            0.0000  0.0000 -0.0000  0.0000 -0.0000
                                            1.0000  0.0000 -0.0000 -0.0000 -0.0000
                                           -0.0000 -0.0000  0.0000  0.0000 -0.0000
                                            0.0000 -0.0000  0.0000 -0.0000  0.0000
                                           -0.0000 -0.0000 -0.0000  0.0000 -0.0000
                                            0.0000  0.0000 -0.0000 -0.0000  0.0000
                                            0.0000 -0.0000 -0.0000  0.0000  0.0000
                                            0.0000  0.0000 -0.0000 -0.0000
    14. (1.99766) CR (11)Br   2           s(  0.00%)p 0.00(  0.00%)d 1.00(100.00%)
                                            0.0000  0.0000 -0.0000 -0.0000  0.0000
                                           -0.0000 -0.0000  0.0000 -0.0000 -0.0000
                                            0.0000 -0.0000 -0.0000  0.0000 -0.0000
                                           -0.0000 -0.0000 -0.0000  0.0000  0.0000
                                           -0.0000 -0.0000 -0.0000 -0.0000  0.0000
                                           -0.0000  0.0000 -0.0000 -0.0000  1.0000
                                            0.0000 -0.0000 -0.0000  0.0000 -0.0000
                                           -0.0000 -0.0000  0.0000  0.0000  0.0000
                                           -0.0000 -0.0000 -0.0000  0.0000 -0.0000
                                            0.0000  0.0000  0.0000  0.0000  0.0000
                                           -0.0000 -0.0000 -0.0000  0.0000  0.0000
                                           -0.0000  0.0000 -0.0000 -0.0000
    15. (1.99769) CR (12)Br   2           s(  0.00%)p 0.00(  0.00%)d 1.00(100.00%)
                                            0.0000  0.0000 -0.0000 -0.0000  0.0000
                                           -0.0000 -0.0000  0.0000 -0.0000 -0.0000
                                           -0.0000  0.0000  0.0000 -0.0000  0.0000
                                            0.0000  0.0000  0.0000 -0.0000  0.0000
                                           -0.0000 -0.0000 -0.0000 -0.0000  0.0000
                                            0.0000 -0.0000  0.0000  0.0000  0.0000
                                            0.0000  0.0000 -0.0000  1.0000  0.0000
                                           -0.0000  0.0000 -0.0000  0.0000 -0.0000
                                            0.0000  0.0000 -0.0000  0.0000  0.0000
                                            0.0000 -0.0000  0.0000  0.0000 -0.0000
                                           -0.0000 -0.0000  0.0000 -0.0000 -0.0000
                                           -0.0000 -0.0000  0.0000  0.0000
    16. (1.99764) CR (13)Br   2           s(  0.00%)p 0.00(  0.00%)d 1.00(100.00%)
                                           -0.0000 -0.0000  0.0000  0.0000 -0.0000
                                            0.0000  0.0000 -0.0000  0.0000  0.0000
                                           -0.0000  0.0000 -0.0000 -0.0000  0.0000
                                            0.0000  0.0000  0.0000 -0.0000  0.0000
                                           -0.0000 -0.0000  0.0000 -0.0000  0.0000
                                            0.0000 -0.0000 -0.0000  0.0000  0.0000
                                            0.0000  0.0000  0.0000 -0.0000  0.0000
                                           -0.0000 -0.0000  1.0000  0.0000 -0.0000
                                           -0.0000  0.0000 -0.0000  0.0000  0.0000
                                           -0.0000 -0.0000  0.0000  0.0000 -0.0000
                                            0.0000  0.0000  0.0000 -0.0000  0.0000
                                           -0.0000 -0.0000  0.0000  0.0000
    17. (1.99767) CR (14)Br   2           s(  0.00%)p 0.00(  0.00%)d 1.00(100.00%)
                                            0.0000  0.0000 -0.0000 -0.0000 -0.0000
                                           -0.0000  0.0000  0.0000 -0.0000 -0.0000
                                            0.0000 -0.0000  0.0000  0.0000 -0.0000
                                           -0.0000 -0.0000 -0.0000  0.0000 -0.0000
                                            0.0000  0.0000  0.0000  0.0000 -0.0000
                                           -0.0000  0.0000  0.0000 -0.0000 -0.0000
                                           -0.0000  0.0000  0.0000  0.0000 -0.0000
                                            0.0000  0.0000  0.0000 -0.0000  0.0000
                                            0.0000  1.0000  0.0000 -0.0000 -0.0000
                                           -0.0000 -0.0000 -0.0000 -0.0000  0.0000
                                           -0.0000  0.0000  0.0000  0.0000 -0.0000
                                            0.0000  0.0000 -0.0000 -0.0000
    18. (2.00000) CR ( 1)Cl   3           s(100.00%)
                                            1.0000  0.0000  0.0000 -0.0000 -0.0000
                                           -0.0000  0.0000  0.0000 -0.0000 -0.0000
                                            0.0000 -0.0000 -0.0000  0.0000  0.0000
                                           -0.0000 -0.0000  0.0000  0.0000 -0.0000
                                            0.0000 -0.0000  0.0000 -0.0000  0.0000
                                           -0.0000 -0.0000 -0.0000 -0.0000 -0.0000
                                           -0.0000  0.0000  0.0000 -0.0000  0.0000
                                            0.0000 -0.0000  0.0000 -0.0000  0.0000
                                            0.0000 -0.0000 -0.0000 -0.0000 -0.0000
                                            0.0000 -0.0000  0.0000  0.0000 -0.0000
    19. (1.99979) CR ( 2)Cl   3           s(100.00%)p 0.00(  0.00%)
                                            0.0000  1.0000 -0.0004  0.0000  0.0000
                                            0.0000 -0.0000 -0.0001  0.0000  0.0000
                                           -0.0000  0.0000  0.0004 -0.0000 -0.0000
                                            0.0000 -0.0000 -0.0000 -0.0000  0.0000
                                           -0.0000  0.0000 -0.0000 -0.0000 -0.0000
                                           -0.0000  0.0000  0.0000  0.0000  0.0000
                                            0.0000 -0.0000 -0.0000  0.0000 -0.0000
                                           -0.0000  0.0000 -0.0000  0.0000 -0.0000
                                           -0.0000  0.0000 -0.0000  0.0000  0.0000
                                           -0.0000  0.0000 -0.0000 -0.0000  0.0000
    20. (2.00003) CR ( 3)Cl   3           s(  0.00%)p 1.00(100.00%)
                                            0.0000 -0.0000 -0.0000  0.0000  0.0000
                                            0.0000  1.0000  0.0001  0.0000  0.0000
                                           -0.0000  0.0000  0.0001 -0.0000 -0.0000
                                            0.0000 -0.0000 -0.0000  0.0000  0.0000
                                            0.0000  0.0000  0.0000  0.0000 -0.0000
                                            0.0000  0.0000  0.0000 -0.0000  0.0000
                                            0.0000 -0.0000 -0.0000  0.0000 -0.0000
                                           -0.0000 -0.0000  0.0000  0.0000 -0.0000
                                           -0.0000  0.0000  0.0000 -0.0000  0.0000
                                           -0.0000  0.0000 -0.0000 -0.0000  0.0000
    21. (1.99996) CR ( 4)Cl   3           s(  0.00%)p 1.00(100.00%)
                                           -0.0000  0.0000  0.0001 -0.0000 -0.0000
                                           -0.0000  0.0000  0.0001 -0.0000 -0.0000
                                            0.0000  1.0000 -0.0003  0.0000  0.0000
                                           -0.0000 -0.0000  0.0000  0.0000 -0.0000
                                            0.0000 -0.0000  0.0000  0.0000  0.0000
                                           -0.0000 -0.0000 -0.0000 -0.0000 -0.0000
                                           -0.0000  0.0000 -0.0000 -0.0000  0.0000
                                            0.0000 -0.0000  0.0000 -0.0000  0.0000
                                            0.0000 -0.0000 -0.0000 -0.0000 -0.0000
                                            0.0000 -0.0000  0.0000  0.0000 -0.0000
    22. (2.00003) CR ( 5)Cl   3           s(  0.00%)p 1.00(100.00%)
                                           -0.0000 -0.0000 -0.0000  0.0000  0.0000
                                           -0.0000 -0.0000  0.0000  0.0000 -0.0000
                                            0.0000 -0.0000  0.0000 -0.0000  0.0000
                                            0.0000  1.0000  0.0002  0.0000  0.0000
                                           -0.0000 -0.0000 -0.0000 -0.0000 -0.0000
                                           -0.0000 -0.0000  0.0000  0.0000  0.0000
                                            0.0000 -0.0000 -0.0000  0.0000  0.0000
                                            0.0000 -0.0000  0.0000  0.0000 -0.0000
                                           -0.0000  0.0000 -0.0000  0.0000 -0.0000
                                            0.0000 -0.0000  0.0000 -0.0000 -0.0000
    23. (1.96712) LP ( 1) O   1           s( 62.02%)p 0.61( 37.89%)d 0.00(  0.09%)
                                                  f 0.00(  0.00%)
                                            0.0002  0.7874  0.0120  0.0081 -0.0013
                                           -0.4387 -0.0067 -0.0043 -0.0013 -0.3620
                                           -0.0049 -0.0055 -0.0024 -0.2349 -0.0035
                                           -0.0022 -0.0005 -0.0242 -0.0018  0.0043
                                           -0.0108 -0.0003  0.0008 -0.0130 -0.0016
                                            0.0009 -0.0017  0.0007  0.0017  0.0062
                                            0.0004  0.0010  0.0026 -0.0003  0.0014
                                           -0.0004 -0.0001  0.0006  0.0009 -0.0008
                                           -0.0013  0.0005  0.0048 -0.0024 -0.0002
                                            0.0007
    24. (1.95253) LP ( 2) O   1           s(  0.02%)p99.99( 99.78%)d 9.05(  0.19%)
                                                  f 0.67(  0.01%)
                                           -0.0000  0.0132  0.0053  0.0027 -0.0004
                                           -0.3796 -0.0077 -0.0019 -0.0019 -0.1064
                                           -0.0022 -0.0006 -0.0014  0.9175  0.0177
                                            0.0059  0.0067 -0.0151 -0.0008  0.0025
                                            0.0092 -0.0045 -0.0085  0.0317  0.0038
                                           -0.0026 -0.0035  0.0023  0.0037  0.0200
                                           -0.0006 -0.0049 -0.0071  0.0007  0.0061
                                            0.0001  0.0008 -0.0003 -0.0052  0.0019
                                           -0.0033 -0.0001  0.0019 -0.0014  0.0021
                                           -0.0004
    25. (1.97867) LP ( 1)Br   2           s( 93.35%)p 0.07(  6.65%)d 0.00(  0.00%)
                                                  f 0.00(  0.00%)
                                           -0.0000 -0.0000  0.0002  0.9662 -0.0001
                                            0.0006  0.0004 -0.0000  0.0001  0.2508
                                           -0.0012  0.0006 -0.0000  0.0000 -0.0000
                                           -0.0061 -0.0001 -0.0001 -0.0002  0.0000
                                           -0.0000 -0.0592  0.0002 -0.0001  0.0001
                                           -0.0000  0.0000 -0.0001  0.0000  0.0000
                                            0.0007  0.0001  0.0002  0.0000 -0.0000
                                            0.0000 -0.0000 -0.0000  0.0001 -0.0003
                                           -0.0003  0.0000 -0.0001  0.0001  0.0002
                                           -0.0001 -0.0001  0.0003  0.0001  0.0000
                                            0.0000  0.0001  0.0002  0.0000  0.0000
                                           -0.0003 -0.0002 -0.0000 -0.0000
    26. (1.95378) LP ( 2)Br   2           s(  0.00%)p 1.00( 99.99%)d 0.00(  0.01%)
                                                  f 0.00(  0.00%)
                                            0.0000  0.0000  0.0000  0.0025  0.0009
                                           -0.0006 -0.0021  0.0000 -0.0000 -0.2051
                                           -0.0001  0.0003 -0.0001 -0.0000  0.0001
                                            0.4401  0.0012  0.0006 -0.0000  0.0000
                                           -0.0002 -0.8742 -0.0019 -0.0013  0.0003
                                            0.0000 -0.0041  0.0007  0.0004 -0.0000
                                            0.0061 -0.0009 -0.0014 -0.0000  0.0013
                                           -0.0005  0.0004 -0.0000  0.0022 -0.0004
                                           -0.0004  0.0000 -0.0039  0.0013 -0.0006
                                            0.0012  0.0006  0.0021  0.0012 -0.0003
                                           -0.0002 -0.0016 -0.0007 -0.0006 -0.0003
                                           -0.0007 -0.0001  0.0013  0.0007
    27. (1.95362) LP ( 3)Br   2           s(  0.00%)p 1.00( 99.99%)d 0.00(  0.01%)
                                                  f 0.00(  0.00%)
                                           -0.0000 -0.0000 -0.0000  0.0062 -0.0001
                                            0.0002  0.0004 -0.0000  0.0000  0.0994
                                           -0.0000 -0.0001  0.0001 -0.0000  0.0002
                                            0.8979  0.0024  0.0012 -0.0002 -0.0000
                                            0.0001  0.4287  0.0010  0.0007 -0.0000
                                            0.0000 -0.0082  0.0014  0.0012  0.0000
                                           -0.0031  0.0007  0.0005 -0.0000  0.0025
                                           -0.0009  0.0007 -0.0000 -0.0000 -0.0004
                                            0.0009 -0.0000  0.0020 -0.0007  0.0004
                                           -0.0006 -0.0004 -0.0010 -0.0006 -0.0006
                                           -0.0003  0.0009  0.0005 -0.0013 -0.0008
                                            0.0002  0.0000  0.0026  0.0013
    28. (1.86418) LP ( 4)Br   2           s(  6.64%)p14.06( 93.30%)d 0.01(  0.05%)
                                                  f 0.00(  0.01%)
                                           -0.0000 -0.0000  0.0000  0.2576  0.0002
                                           -0.0023 -0.0015 -0.0000  0.0000 -0.9405
                                            0.0051  0.0031 -0.0003 -0.0000 -0.0000
                                           -0.0028  0.0002  0.0003  0.0004  0.0000
                                           -0.0000  0.2200  0.0008 -0.0006  0.0006
                                           -0.0000 -0.0000  0.0002 -0.0005 -0.0000
                                           -0.0113  0.0029 -0.0010  0.0000 -0.0001
                                            0.0000 -0.0000 -0.0000  0.0169 -0.0034
                                           -0.0007 -0.0000 -0.0090  0.0020 -0.0001
                                           -0.0023 -0.0011  0.0031  0.0018 -0.0000
                                           -0.0001  0.0031  0.0015  0.0000  0.0000
                                           -0.0047 -0.0022  0.0000  0.0003
    29. (1.97386) LP ( 1)Cl   3           s( 91.60%)p 0.09(  8.37%)d 0.00(  0.02%)
                                                  f 0.00(  0.00%)
                                            0.0000  0.0003  0.9571  0.0065  0.0011
                                            0.0003 -0.0000 -0.0370  0.0001  0.0005
                                            0.0002  0.0000  0.2863 -0.0064 -0.0030
                                            0.0013 -0.0000  0.0187  0.0005  0.0002
                                            0.0000  0.0054  0.0002  0.0004  0.0004
                                            0.0001 -0.0002  0.0004  0.0004  0.0003
                                            0.0108 -0.0006 -0.0003  0.0079  0.0006
                                            0.0003 -0.0002  0.0001  0.0005  0.0001
                                           -0.0021 -0.0003  0.0001 -0.0001 -0.0003
                                            0.0002  0.0018  0.0002 -0.0029  0.0001
    30. (1.95610) LP ( 2)Cl   3           s(  0.01%)p 1.00( 99.93%)d 0.00(  0.05%)
                                                  f 0.00(  0.01%)
                                            0.0000  0.0000  0.0092 -0.0033 -0.0015
                                            0.0010 -0.0000  0.2749  0.0036  0.0014
                                           -0.0001 -0.0000  0.0676  0.0010 -0.0001
                                            0.0003  0.0002 -0.9586 -0.0147 -0.0047
                                            0.0021  0.0022  0.0044  0.0020  0.0054
                                            0.0074  0.0030 -0.0059 -0.0156 -0.0078
                                           -0.0020 -0.0028 -0.0016 -0.0004 -0.0002
                                           -0.0001  0.0049 -0.0006 -0.0014  0.0007
                                            0.0002 -0.0002  0.0057 -0.0009  0.0036
                                           -0.0009 -0.0014  0.0000 -0.0018  0.0006
    31. (1.95476) LP ( 3)Cl   3           s(  0.14%)p99.99( 99.82%)d 0.29(  0.04%)
                                                  f 0.06(  0.01%)
                                            0.0000 -0.0000  0.0362  0.0057  0.0038
                                           -0.0017  0.0002 -0.9317 -0.0122 -0.0014
                                            0.0001  0.0001 -0.2236 -0.0032 -0.0006
                                           -0.0008  0.0000 -0.2826 -0.0045 -0.0007
                                            0.0002  0.0045 -0.0107 -0.0055 -0.0004
                                            0.0014  0.0009  0.0013 -0.0036 -0.0021
                                            0.0064  0.0108  0.0061 -0.0011 -0.0029
                                           -0.0004  0.0020 -0.0004  0.0018  0.0001
                                            0.0007  0.0002  0.0011  0.0002  0.0012
                                           -0.0003  0.0057 -0.0010  0.0063 -0.0010
    32. (0.01967) RY*( 1) O   1           s(  0.11%)p99.99( 98.49%)d11.78(  1.35%)
                                                  f 0.47(  0.05%)
                                           -0.0000 -0.0001  0.0336  0.0031  0.0006
                                            0.0086 -0.3722  0.0140  0.0078  0.0044
                                           -0.1041  0.0035 -0.0011 -0.0224  0.9128
                                           -0.0367 -0.0078 -0.0403 -0.0082  0.0004
                                            0.0262 -0.0071 -0.0140  0.0856  0.0247
                                            0.0064 -0.0070  0.0051  0.0054  0.0521
                                            0.0039 -0.0042 -0.0102  0.0087  0.0052
                                           -0.0053  0.0019 -0.0010 -0.0106  0.0090
                                           -0.0031  0.0034  0.0063 -0.0047  0.0028
                                           -0.0032
    33. (0.01602) RY*( 2) O   1           s( 29.63%)p 2.29( 67.98%)d 0.07(  2.17%)
                                                  f 0.01(  0.22%)
                                           -0.0000  0.0028  0.5427 -0.0415 -0.0065
                                            0.0092 -0.5734  0.0038  0.0440  0.0405
                                           -0.4992 -0.0035  0.0341  0.0055 -0.3106
                                            0.0056  0.0196 -0.1128 -0.0237 -0.0092
                                           -0.0250  0.0032  0.0086 -0.0676 -0.0137
                                           -0.0057  0.0328  0.0055 -0.0009  0.0410
                                            0.0046 -0.0015 -0.0032 -0.0004  0.0065
                                           -0.0058 -0.0075  0.0020  0.0202 -0.0098
                                           -0.0052  0.0034  0.0341 -0.0160 -0.0103
                                            0.0036
    34. (0.00801) RY*( 3) O   1           s( 16.70%)p 0.57(  9.48%)d 4.34( 72.51%)
                                                  f 0.08(  1.31%)
                                           -0.0000  0.0159  0.4031 -0.0631  0.0153
                                            0.0134  0.2691 -0.0201  0.0676 -0.0158
                                           -0.0882  0.0022  0.0488  0.0006  0.0820
                                           -0.0068  0.0067  0.6204  0.0034  0.0047
                                           -0.0528  0.0044 -0.0034  0.1525  0.0079
                                            0.0065 -0.5031 -0.0112 -0.0349  0.2438
                                           -0.0072  0.0067 -0.0063  0.0032  0.0104
                                           -0.0105 -0.0130  0.0089 -0.0245  0.0098
                                            0.0223 -0.0107 -0.0934  0.0382 -0.0300
                                            0.0151
    35. (0.00707) RY*( 4) O   1           s(  0.35%)p 0.94(  0.33%)d99.99( 97.60%)
                                                  f 4.98(  1.73%)
                                            0.0000  0.0036  0.0585 -0.0062 -0.0016
                                            0.0052  0.0126  0.0044  0.0020 -0.0015
                                            0.0001  0.0036  0.0052 -0.0171 -0.0514
                                           -0.0098 -0.0002 -0.0481  0.0081 -0.0004
                                           -0.4860  0.0246 -0.0080  0.8134 -0.0342
                                            0.0122  0.1892 -0.0143  0.0006 -0.1940
                                            0.0091 -0.0075 -0.0525  0.0228 -0.0311
                                            0.0145  0.0041 -0.0017 -0.0965  0.0420
                                           -0.0220  0.0091  0.0189 -0.0107  0.0250
                                           -0.0096
    36. (0.00637) RY*( 5) O   1           s(  0.68%)p18.00( 12.25%)d99.99( 85.46%)
                                                  f 2.37(  1.61%)
                                           -0.0000  0.0031  0.0764 -0.0308 -0.0039
                                            0.0503  0.3133 -0.0210  0.0043 -0.0048
                                           -0.1384 -0.0031  0.0370 -0.0104  0.0246
                                           -0.0043  0.0046 -0.6768  0.0222 -0.0289
                                            0.1220 -0.0071  0.0038  0.2077 -0.0265
                                           -0.0067 -0.2730  0.0134 -0.0135  0.5098
[...]
                                           -0.0508  0.1513  0.0382
   162. (0.00033) RY*( 8) H   4           s(  9.08%)p 6.97( 63.31%)d 3.04( 27.61%)
                                            0.0025 -0.0170  0.3008  0.0035 -0.0324
                                           -0.0363 -0.2820 -0.0532  0.5194 -0.1400
                                           -0.0622  0.3984 -0.3104  0.2524 -0.1363
                                            0.3155  0.0729 -0.1044 -0.0453 -0.2005
                                            0.1525  0.0544 -0.0981
   163. (0.00029) RY*( 9) H   4           s( 16.98%)p 3.29( 55.86%)d 1.60( 27.16%)
                                           -0.0001 -0.0335  0.4000  0.0934 -0.0721
                                            0.1924  0.1565 -0.0409  0.2430 -0.0927
                                            0.0861 -0.6393 -0.0802  0.0442 -0.0417
                                           -0.1743  0.1868  0.1637 -0.0738 -0.3732
                                           -0.0636  0.1134  0.1193
   164. (0.00026) RY*(10) H   4           s(  2.60%)p 6.62( 17.23%)d30.83( 80.17%)
                                            0.0075  0.0209  0.1205  0.1048  0.0153
                                            0.1578 -0.0224  0.0962  0.0799  0.1270
                                           -0.0259  0.3378 -0.0100 -0.5637 -0.0414
                                           -0.1196  0.0042  0.6519 -0.0728 -0.0767
                                            0.0734  0.1003 -0.1278
   165. (0.00023) RY*(11) H   4           s(  3.06%)p14.30( 43.77%)d17.38( 53.17%)
                                            0.0169  0.0692 -0.1040  0.1212  0.0696
                                            0.2948  0.4323 -0.0724 -0.0558 -0.0374
                                           -0.0397  0.3456  0.1683  0.1416 -0.0184
                                           -0.0207 -0.1231 -0.0752  0.0124 -0.5682
                                           -0.1127 -0.3865  0.0707
   166. (0.00021) RY*(12) H   4           s(  0.62%)p45.31( 28.13%)d99.99( 71.25%)
                                            0.0152  0.0148 -0.0283  0.0704 -0.0017
                                            0.3311  0.2923  0.0425  0.0562  0.1332
                                            0.0719  0.2094 -0.1204 -0.0514  0.0159
                                           -0.1638 -0.0452 -0.3808  0.0624  0.0661
                                           -0.0886  0.7208  0.0098
   167. (0.00015) RY*(13) H   4           s(  6.34%)p 1.20(  7.64%)d13.56( 86.02%)
                                           -0.0019 -0.0243  0.2488  0.0308 -0.0204
                                           -0.0545 -0.1601  0.0394 -0.1080  0.1699
                                           -0.0007 -0.0639 -0.0342 -0.6115 -0.0243
                                            0.0022  0.1147 -0.5790  0.1014 -0.2253
                                            0.1074 -0.2298 -0.1090
   168. (0.00014) RY*(14) H   4           s( 33.32%)p 0.75( 25.12%)d 1.25( 41.56%)
                                           -0.0042 -0.0131  0.1747  0.5499  0.0239
                                           -0.0794 -0.0018  0.0136  0.0928 -0.1732
                                           -0.0291 -0.1281  0.4340 -0.0579  0.1593
                                            0.3310 -0.4696 -0.0339  0.0473  0.0472
                                            0.0289  0.1450 -0.1712
   169. (0.00011) RY*(15) H   4           s( 36.16%)p 0.43( 15.50%)d 1.34( 48.34%)
                                            0.0014  0.0042  0.1745  0.5755 -0.0261
                                           -0.0398  0.1944  0.0157  0.1072  0.0533
                                           -0.0317  0.1206 -0.2912  0.0053 -0.0103
                                           -0.1421  0.1857 -0.0511 -0.0217  0.4587
                                           -0.2226 -0.3275  0.2415
   170. (0.00010) RY*(16) H   4           s(  2.65%)p14.67( 38.80%)d22.13( 58.55%)
   171. (0.00007) RY*(17) H   4           s( 39.17%)p 0.73( 28.72%)d 0.82( 32.11%)
   172. (0.00006) RY*(18) H   4           s(  0.00%)p 1.00(  1.48%)d66.51( 98.52%)
   173. (0.00005) RY*(19) H   4           s(  2.89%)p 7.44( 21.49%)d26.18( 75.62%)
   174. (0.00005) RY*(20) H   4           s(  8.66%)p 2.63( 22.77%)d 7.92( 68.57%)
   175. (0.00005) RY*(21) H   4           s(  4.09%)p 2.97( 12.13%)d20.48( 83.78%)
   176. (0.00004) RY*(22) H   4           s(  2.20%)p19.56( 43.03%)d24.90( 54.77%)
   177. (0.05821) BD*( 1) O   1 -Cl   3  
                ( 41.01%)   0.6404* O   1 s( 10.41%)p 8.56( 89.06%)d 0.05(  0.52%)
                                                  f 0.00(  0.02%)
                                           -0.0003 -0.3196  0.0414  0.0142  0.0010
                                            0.1994 -0.0330 -0.0070 -0.0023 -0.9211
                                            0.0228  0.0088  0.0103 -0.0201 -0.0106
                                           -0.0019  0.0003  0.0068  0.0008  0.0029
                                           -0.0052 -0.0005  0.0010 -0.0116 -0.0016
                                            0.0004  0.0576  0.0045  0.0007  0.0404
                                            0.0033 -0.0003  0.0000  0.0000 -0.0025
                                            0.0001  0.0099 -0.0008  0.0021 -0.0012
                                           -0.0035  0.0008 -0.0039 -0.0018  0.0054
                                           -0.0007
                ( 58.99%)  -0.7680*Cl   3 s(  8.52%)p10.58( 90.20%)d 0.14(  1.16%)
                                                  f 0.01(  0.11%)
                                            0.0000 -0.0005 -0.2863  0.0559  0.0100
                                            0.0026 -0.0001 -0.2295  0.0135  0.0054
                                           -0.0018  0.0004  0.9191 -0.0644 -0.0129
                                            0.0039 -0.0000 -0.0041 -0.0000  0.0014
                                           -0.0006  0.0507 -0.0050  0.0003 -0.0049
                                           -0.0000  0.0007  0.0064  0.0008  0.0006
                                            0.0756 -0.0094 -0.0007  0.0559 -0.0059
                                           -0.0007  0.0006 -0.0001  0.0052 -0.0009
                                           -0.0202  0.0029 -0.0000  0.0004  0.0012
                                           -0.0007  0.0176 -0.0021 -0.0189  0.0021
   178. (0.10637) BD*( 1) O   1 - H   4  
                ( 20.57%)   0.4536* O   1 s( 27.69%)p 2.59( 71.80%)d 0.02(  0.50%)
                                                  f 0.00(  0.01%)
                                           -0.0003 -0.5261  0.0071  0.0084 -0.0022
                                           -0.7858  0.0099  0.0070  0.0043  0.0173
                                           -0.0158 -0.0015 -0.0021 -0.3159  0.0011
                                            0.0029  0.0029 -0.0246 -0.0046 -0.0011
                                           -0.0422 -0.0028  0.0010 -0.0109 -0.0019
                                           -0.0002 -0.0444 -0.0033 -0.0017  0.0216
                                            0.0006 -0.0023  0.0069 -0.0001  0.0045
                                           -0.0002 -0.0002 -0.0002 -0.0043 -0.0015
                                           -0.0003  0.0007 -0.0000 -0.0027  0.0018
                                            0.0003
                ( 79.43%)  -0.8912* H   4 s( 99.82%)p 0.00(  0.18%)d 0.00(  0.00%)
                                           -0.9983 -0.0399 -0.0023  0.0011 -0.0093
                                            0.0310  0.0095 -0.0138 -0.0015  0.0040
                                           -0.0179  0.0127  0.0011 -0.0012 -0.0018
                                            0.0006  0.0007 -0.0011 -0.0009 -0.0022
                                            0.0008  0.0019  0.0022


 NHO Directionality and "Bond Bending" (deviations from line of nuclear centers)

         [Thresholds for printing:  angular deviation  >  1.0 degree]
                                    hybrid p-character > 25.0%
                                    orbital occupancy  >  0.10e

                                Line of Centers        Hybrid 1              Hybrid 2
                                ---------------  -------------------   ------------------
                NBO               Theta   Phi    Theta   Phi    Dev    Theta   Phi    Dev
 ========================================================================================
     1. BD (   1) O   1 -Cl   3    90.0  103.4    87.9  100.1   3.9      --     --    --
     2. BD (   1) O   1 - H   4    70.0    0.0    68.0    0.2   2.0      --     --    --
    23. LP (   1) O   1             --     --    112.3  219.7   --       --     --    --
    24. LP (   2) O   1             --     --     23.2  195.8   --       --     --    --
    26. LP (   2)Br   2             --     --    150.9  114.9   --       --     --    --
    27. LP (   3)Br   2             --     --     64.6   83.7   --       --     --    --
    28. LP (   4)Br   2             --     --     76.7  180.1   --       --     --    --
    30. LP (   2)Cl   3             --     --    163.5   13.8   --       --     --    --
    31. LP (   3)Cl   3             --     --    106.5  193.6   --       --     --    --
   178. BD*(   1) O   1 - H   4    70.0    0.0    68.0    0.2   2.0      --     --    --


 Natural Bond Orbitals (Summary):

           NBO                  Occupancy  
 -----------------------------------------------
 Molecular unit  1  (HOCl)
     1. BD (   1) O   1 -Cl   3          1.93954
     2. BD (   1) O   1 - H   4          1.96423
     3. CR (   1) O   1                  1.99970
    18. CR (   1)Cl   3                  2.00000
    19. CR (   2)Cl   3                  1.99979
    20. CR (   3)Cl   3                  2.00003
    21. CR (   4)Cl   3                  1.99996
    22. CR (   5)Cl   3                  2.00003
    23. LP (   1) O   1                  1.96712
    24. LP (   2) O   1                  1.95253
    29. LP (   1)Cl   3                  1.97386
    30. LP (   2)Cl   3                  1.95610
    31. LP (   3)Cl   3                  1.95476
    32. RY*(   1) O   1                  0.01967
    33. RY*(   2) O   1                  0.01602
    34. RY*(   3) O   1                  0.00801
    35. RY*(   4) O   1                  0.00707
    36. RY*(   5) O   1                  0.00637
    37. RY*(   6) O   1                  0.00611
    38. RY*(   7) O   1                  0.00574
    39. RY*(   8) O   1                  0.00328
    40. RY*(   9) O   1                  0.00250
    41. RY*(  10) O   1                  0.00080
    42. RY*(  11) O   1                  0.00065
    43. RY*(  12) O   1                  0.00060
    44. RY*(  13) O   1                  0.00061
    45. RY*(  14) O   1                  0.00051
    46. RY*(  15) O   1                  0.00049
    47. RY*(  16) O   1                  0.00048
    48. RY*(  17) O   1                  0.00049
    49. RY*(  18) O   1                  0.00046
    50. RY*(  19) O   1                  0.00046
    51. RY*(  20) O   1                  0.00044
    52. RY*(  21) O   1                  0.00045
    53. RY*(  22) O   1                  0.00042
    54. RY*(  23) O   1                  0.00035
    55. RY*(  24) O   1                  0.00030
    56. RY*(  25) O   1                  0.00025
    57. RY*(  26) O   1                  0.00019
    58. RY*(  27) O   1                  0.00015
    59. RY*(  28) O   1                  0.00013
    60. RY*(  29) O   1                  0.00013
    61. RY*(  30) O   1                  0.00008
    62. RY*(  31) O   1                  0.00009
    63. RY*(  32) O   1                  0.00008
    64. RY*(  33) O   1                  0.00009
    65. RY*(  34) O   1                  0.00008
    66. RY*(  35) O   1                  0.00006
    67. RY*(  36) O   1                  0.00006
    68. RY*(  37) O   1                  0.00006
    69. RY*(  38) O   1                  0.00006
    70. RY*(  39) O   1                  0.00004
    71. RY*(  40) O   1                  0.00002
    72. RY*(  41) O   1                  0.00002
   114. RY*(   1)Cl   3                  0.02257
   115. RY*(   2)Cl   3                  0.01749
   116. RY*(   3)Cl   3                  0.01680
   117. RY*(   4)Cl   3                  0.01655
   118. RY*(   5)Cl   3                  0.01164
   119. RY*(   6)Cl   3                  0.00924
   120. RY*(   7)Cl   3                  0.00905
   121. RY*(   8)Cl   3                  0.00629
   122. RY*(   9)Cl   3                  0.00168
   123. RY*(  10)Cl   3                  0.00127
   124. RY*(  11)Cl   3                  0.00127
   125. RY*(  12)Cl   3                  0.00119
   126. RY*(  13)Cl   3                  0.00119
   127. RY*(  14)Cl   3                  0.00116
   128. RY*(  15)Cl   3                  0.00111
   129. RY*(  16)Cl   3                  0.00094
   130. RY*(  17)Cl   3                  0.00076
   131. RY*(  18)Cl   3                  0.00076
   132. RY*(  19)Cl   3                  0.00063
   133. RY*(  20)Cl   3                  0.00055
   134. RY*(  21)Cl   3                  0.00043
   135. RY*(  22)Cl   3                  0.00038
   136. RY*(  23)Cl   3                  0.00034
   137. RY*(  24)Cl   3                  0.00031
   138. RY*(  25)Cl   3                  0.00019
   139. RY*(  26)Cl   3                  0.00016
   140. RY*(  27)Cl   3                  0.00015
   141. RY*(  28)Cl   3                  0.00013
   142. RY*(  29)Cl   3                  0.00013
   143. RY*(  30)Cl   3                  0.00012
   144. RY*(  31)Cl   3                  0.00011
   145. RY*(  32)Cl   3                  0.00009
   146. RY*(  33)Cl   3                  0.00010
   147. RY*(  34)Cl   3                  0.00010
   148. RY*(  35)Cl   3                  0.00010
   149. RY*(  36)Cl   3                  0.00010
   150. RY*(  37)Cl   3                  0.00007
   151. RY*(  38)Cl   3                  0.00004
   152. RY*(  39)Cl   3                  0.00004
   153. RY*(  40)Cl   3                  0.00003
   154. RY*(  41)Cl   3                  0.00000
   155. RY*(   1) H   4                  0.01015
   156. RY*(   2) H   4                  0.00531
   157. RY*(   3) H   4                  0.00447
   158. RY*(   4) H   4                  0.00341
   159. RY*(   5) H   4                  0.00061
   160. RY*(   6) H   4                  0.00049
   161. RY*(   7) H   4                  0.00045
   162. RY*(   8) H   4                  0.00033
   163. RY*(   9) H   4                  0.00029
   164. RY*(  10) H   4                  0.00026
   165. RY*(  11) H   4                  0.00023
   166. RY*(  12) H   4                  0.00021
   167. RY*(  13) H   4                  0.00015
   168. RY*(  14) H   4                  0.00014
   169. RY*(  15) H   4                  0.00011
   170. RY*(  16) H   4                  0.00010
   171. RY*(  17) H   4                  0.00007
   172. RY*(  18) H   4                  0.00006
   173. RY*(  19) H   4                  0.00005
   174. RY*(  20) H   4                  0.00005
   175. RY*(  21) H   4                  0.00005
   176. RY*(  22) H   4                  0.00004
   177. BD*(   1) O   1 -Cl   3          0.05821
   178. BD*(   1) O   1 - H   4          0.10637
       -------------------------------
              Total Lewis   25.70765  ( 98.4650%)
        Valence non-Lewis    0.16458  (  0.6304%)
        Rydberg non-Lewis    0.23618  (  0.9046%)
       -------------------------------
            Total unit  1   26.10841  (100.0000%)
           Charge unit  1   -0.10841

 Molecular unit  2  (Br)
     4. CR (   1)Br   2                  2.00000
     5. CR (   2)Br   2                  2.00000
     6. CR (   3)Br   2                  1.99990
     7. CR (   4)Br   2                  2.00000
     8. CR (   5)Br   2                  1.99994
     9. CR (   6)Br   2                  2.00000
    10. CR (   7)Br   2                  2.00001
    11. CR (   8)Br   2                  2.00000
    12. CR (   9)Br   2                  2.00001
    13. CR (  10)Br   2                  1.99766
    14. CR (  11)Br   2                  1.99766
    15. CR (  12)Br   2                  1.99769
    16. CR (  13)Br   2                  1.99764
    17. CR (  14)Br   2                  1.99767
    25. LP (   1)Br   2                  1.97867
    26. LP (   2)Br   2                  1.95378
    27. LP (   3)Br   2                  1.95362
    28. LP (   4)Br   2                  1.86418
    73. RY*(   1)Br   2                  0.01882
    74. RY*(   2)Br   2                  0.01877
    75. RY*(   3)Br   2                  0.01865
    76. RY*(   4)Br   2                  0.01865
    77. RY*(   5)Br   2                  0.01793
    78. RY*(   6)Br   2                  0.01138
    79. RY*(   7)Br   2                  0.01132
    80. RY*(   8)Br   2                  0.00941
    81. RY*(   9)Br   2                  0.00252
    82. RY*(  10)Br   2                  0.00180
    83. RY*(  11)Br   2                  0.00179
    84. RY*(  12)Br   2                  0.00175
    85. RY*(  13)Br   2                  0.00175
    86. RY*(  14)Br   2                  0.00175
    87. RY*(  15)Br   2                  0.00175
    88. RY*(  16)Br   2                  0.00175
    89. RY*(  17)Br   2                  0.00175
    90. RY*(  18)Br   2                  0.00175
    91. RY*(  19)Br   2                  0.00142
    92. RY*(  20)Br   2                  0.00143
    93. RY*(  21)Br   2                  0.00123
    94. RY*(  22)Br   2                  0.00080
    95. RY*(  23)Br   2                  0.00080
    96. RY*(  24)Br   2                  0.00075
    97. RY*(  25)Br   2                  0.00042
    98. RY*(  26)Br   2                  0.00028
    99. RY*(  27)Br   2                  0.00025
   100. RY*(  28)Br   2                  0.00026
   101. RY*(  29)Br   2                  0.00026
   102. RY*(  30)Br   2                  0.00024
   103. RY*(  31)Br   2                  0.00025
   104. RY*(  32)Br   2                  0.00024
   105. RY*(  33)Br   2                  0.00022
   106. RY*(  34)Br   2                  0.00022
   107. RY*(  35)Br   2                  0.00019
   108. RY*(  36)Br   2                  0.00016
   109. RY*(  37)Br   2                  0.00014
   110. RY*(  38)Br   2                  0.00012
   111. RY*(  39)Br   2                  0.00007
   112. RY*(  40)Br   2                  0.00007
   113. RY*(  41)Br   2                  0.00004
       -------------------------------
              Total Lewis   35.73844  ( 99.5733%)
        Valence non-Lewis    0.00000  (  0.0000%)
        Rydberg non-Lewis    0.15316  (  0.4267%)
       -------------------------------
            Total unit  2   35.89159  (100.0000%)
           Charge unit  2   -0.89159
 Leave Link  607 at Thu Sep 23 16:34:00 2021, MaxMem= 16106127360 cpu:              78.4 elap:               2.8
 (Enter /sw/contrib/gaussian/g16/B01/g16/l9999.exe)
 1\1\GINC-N2112\SP\RMP2-FC\Aug-CC-pVTZ\Br1Cl1H1O1(1-)\CGAVINH\23-Sep-20
 21\0\\#p pop=NBO SP NoSymm mp2/aug-cc-pvtz density=current\\title\\-1,
 1\O,0,0.,0.,0.\Br,0,3.07381747,0.,0.\Cl,0,-0.390920758,1.638332522,0.\
 H,0,0.94488912,0.,0.34391151\\Version=ES64L-G16RevB.01\HF=-3107.475275
 7\MP2=-3108.1780732\RMSD=7.194e-09\Dipole=-1.1378819,0.6205605,0.10703
 27\Quadrupole=-18.599658,9.1837826,9.4158754,0.322414,0.0628086,-0.080
 8785\PG=C01 [X(Br1Cl1H1O1)]\\@


 NOTHING MAKES A PERSON MORE PRODUCTIVE THAN THE LAST MINUTE.
 Job cpu time:       0 days  0 hours  6 minutes 10.2 seconds.
 Elapsed time:       0 days  0 hours  0 minutes 19.9 seconds.
 File lengths (MBytes):  RWF=     15 Int=      0 D2E=      0 Chk=      8 Scr=      1
 Normal termination of Gaussian 16 at Thu Sep 23 16:34:00 2021.
