 Entering Gaussian System, Link 0=g16
 Input=brhocl_10_sp.gjf
 Output=brhocl_10_sp.log
 Initial command:
 /sw/contrib/gaussian/g16/B01/g16/l1.exe "/scr/Gau-23305.inp" -scrdir="/scr/"
 Entering Link 1 = /sw/contrib/gaussian/g16/B01/g16/l1.exe PID=     23306.
  
 Copyright (c) 1988-2017, Gaussian, Inc.  All Rights Reserved.
  
 This is part of the Gaussian(R) 16 program.  It is based on
 the Gaussian(R) 09 system (copyright 2009, Gaussian, Inc.),
 the Gaussian(R) 03 system (copyright 2003, Gaussian, Inc.),
 the Gaussian(R) 98 system (copyright 1998, Gaussian, Inc.),
 the Gaussian(R) 94 system (copyright 1995, Gaussian, Inc.),
 the Gaussian 92(TM) system (copyright 1992, Gaussian, Inc.),
 the Gaussian 90(TM) system (copyright 1990, Gaussian, Inc.),
 the Gaussian 88(TM) system (copyright 1988, Gaussian, Inc.),
 the Gaussian 86(TM) system (copyright 1986, Carnegie Mellon
 University), and the Gaussian 82(TM) system (copyright 1983,
 Carnegie Mellon University). Gaussian is a federally registered
 trademark of Gaussian, Inc.
  
 This software contains proprietary and confidential information,
 including trade secrets, belonging to Gaussian, Inc.
  
 This software is provided under written license and may be
 used, copied, transmitted, or stored only in accord with that
 written license.
  
 The following legend is applicable only to US Government
 contracts under FAR:
  
                    RESTRICTED RIGHTS LEGEND
  
 Use, reproduction and disclosure by the US Government is
 subject to restrictions as set forth in subparagraphs (a)
 and (c) of the Commercial Computer Software - Restricted
 Rights clause in FAR 52.227-19.
  
 Gaussian, Inc.
 340 Quinnipiac St., Bldg. 40, Wallingford CT 06492
  
  
 ---------------------------------------------------------------
 Warning -- This program may not be used in any manner that
 competes with the business of Gaussian, Inc. or will provide
 assistance to any competitor of Gaussian, Inc.  The licensee
 of this program is prohibited from giving any competitor of
 Gaussian, Inc. access to this program.  By using this program,
 the user acknowledges that Gaussian, Inc. is engaged in the
 business of creating and licensing software in the field of
 computational chemistry and represents and warrants to the
 licensee that it is not a competitor of Gaussian, Inc. and that
 it will not use this program in any manner prohibited above.
 ---------------------------------------------------------------
  

 Cite this work as:
 Gaussian 16, Revision B.01,
 M. J. Frisch, G. W. Trucks, H. B. Schlegel, G. E. Scuseria, 
 M. A. Robb, J. R. Cheeseman, G. Scalmani, V. Barone, 
 G. A. Petersson, H. Nakatsuji, X. Li, M. Caricato, A. V. Marenich, 
 J. Bloino, B. G. Janesko, R. Gomperts, B. Mennucci, H. P. Hratchian, 
 J. V. Ortiz, A. F. Izmaylov, J. L. Sonnenberg, D. Williams-Young, 
 F. Ding, F. Lipparini, F. Egidi, J. Goings, B. Peng, A. Petrone, 
 T. Henderson, D. Ranasinghe, V. G. Zakrzewski, J. Gao, N. Rega, 
 G. Zheng, W. Liang, M. Hada, M. Ehara, K. Toyota, R. Fukuda, 
 J. Hasegawa, M. Ishida, T. Nakajima, Y. Honda, O. Kitao, H. Nakai, 
 T. Vreven, K. Throssell, J. A. Montgomery, Jr., J. E. Peralta, 
 F. Ogliaro, M. J. Bearpark, J. J. Heyd, E. N. Brothers, K. N. Kudin, 
 V. N. Staroverov, T. A. Keith, R. Kobayashi, J. Normand, 
 K. Raghavachari, A. P. Rendell, J. C. Burant, S. S. Iyengar, 
 J. Tomasi, M. Cossi, J. M. Millam, M. Klene, C. Adamo, R. Cammi, 
 J. W. Ochterski, R. L. Martin, K. Morokuma, O. Farkas, 
 J. B. Foresman, and D. J. Fox, Gaussian, Inc., Wallingford CT, 2016.
 
 ******************************************
 Gaussian 16:  ES64L-G16RevB.01 20-Dec-2017
                23-Sep-2021 
 ******************************************
 %nproc=28
 Will use up to   28 processors via shared memory.
 %mem=120GB
 %chk=/gscratch/ilahie/mccoygrp/coire_hocl/brhocl/brhocl_10_sp.chk
 ----------------------------------------------------
 #p pop=NBO SP NoSymm mp2/aug-cc-pvtz density=current
 ----------------------------------------------------
 1/30=1,38=1,172=1/1;
 2/12=2,15=1,17=6,18=5,40=1/2;
 3/5=16,6=1,7=10,11=9,25=1,30=1,71=1/1,2,3;
 4//1;
 5/5=2,38=5/2;
 8/6=4,10=1/1;
 9/15=1,16=-3/6;
 10/5=1,13=10,31=1/2;
 6/7=2,8=2,9=2,10=2,22=-1,40=1/1,7;
 99/5=1,9=1/99;
 Leave Link    1 at Thu Sep 23 16:33:00 2021, MaxMem= 16106127360 cpu:               2.7 elap:               0.1
 (Enter /sw/contrib/gaussian/g16/B01/g16/l101.exe)
 -----
 title
 -----
 Symbolic Z-matrix:
 Charge = -1 Multiplicity = 1
 O                     0.        0.        0. 
 Br                    3.07382   0.        0. 
 Cl                   -0.39092   1.63833   0. 
 H                     0.99892   0.        0.17614 
 
 ITRead=  0  0  0  0
 MicOpt= -1 -1 -1 -1
 NAtoms=      4 NQM=        4 NQMF=       0 NMMI=      0 NMMIF=      0
                NMic=       0 NMicF=      0.
                    Isotopes and Nuclear Properties:
 (Nuclear quadrupole moments (NQMom) in fm**2, nuclear magnetic moments (NMagM)
  in nuclear magnetons)

  Atom         1           2           3           4
 IAtWgt=          16          79          35           1
 AtmWgt=  15.9949146  78.9183361  34.9688527   1.0078250
 NucSpn=           0           3           3           1
 AtZEff=  -0.0000000  -0.0000000  -0.0000000  -0.0000000
 NQMom=    0.0000000  31.3000000  -8.1650000   0.0000000
 NMagM=    0.0000000   2.1063990   0.8218740   2.7928460
 AtZNuc=   8.0000000  35.0000000  17.0000000   1.0000000
 Leave Link  101 at Thu Sep 23 16:33:00 2021, MaxMem= 16106127360 cpu:               2.0 elap:               0.1
 (Enter /sw/contrib/gaussian/g16/B01/g16/l202.exe)
                          Input orientation:                          
 ---------------------------------------------------------------------
 Center     Atomic      Atomic             Coordinates (Angstroms)
 Number     Number       Type             X           Y           Z
 ---------------------------------------------------------------------
      1          8           0        0.000000    0.000000    0.000000
      2         35           0        3.073817    0.000000    0.000000
      3         17           0       -0.390921    1.638333    0.000000
      4          1           0        0.998920    0.000000    0.176137
 ---------------------------------------------------------------------
                    Distance matrix (angstroms):
                    1          2          3          4
     1  O    0.000000
     2  Br   3.073817   0.000000
     3  Cl   1.684326   3.832564   0.000000
     4  H    1.014330   2.082360   2.155647   0.000000
 Symmetry turned off by external request.
 Stoichiometry    BrClHO(1-)
 Framework group  C1[X(BrClHO)]
 Deg. of freedom     6
 Full point group                 C1      NOp   1
 Rotational constants (GHZ):          22.6050066           1.2806671           1.2121787
 Leave Link  202 at Thu Sep 23 16:33:00 2021, MaxMem= 16106127360 cpu:               0.2 elap:               0.0
 (Enter /sw/contrib/gaussian/g16/B01/g16/l301.exe)
 Standard basis: Aug-CC-pVTZ (5D, 7F)
 Ernie: Thresh=  0.10000D-02 Tol=  0.10000D-05 Strict=F.
 Ernie:  48 primitive shells out of 228 were deleted.
   178 basis functions,   430 primitive gaussians,   208 cartesian basis functions
    31 alpha electrons       31 beta electrons
       nuclear repulsion energy       190.3270948924 Hartrees.
 IExCor=    0 DFT=F Ex=HF Corr=None ExCW=0 ScaHFX=  1.000000
 ScaDFX=  1.000000  1.000000  1.000000  1.000000 ScalE2=  1.000000  1.000000
 IRadAn=      5 IRanWt=     -1 IRanGd=            0 ICorTp=0 IEmpDi=  4
 NAtoms=    4 NActive=    4 NUniq=    4 SFac= 1.00D+00 NAtFMM=   60 NAOKFM=F Big=F
 Integral buffers will be    131072 words long.
 Raffenetti 1 integral format.
 Two-electron integral symmetry is turned off.
 Leave Link  301 at Thu Sep 23 16:33:00 2021, MaxMem= 16106127360 cpu:               1.3 elap:               0.1
 (Enter /sw/contrib/gaussian/g16/B01/g16/l302.exe)
 NPDir=0 NMtPBC=     1 NCelOv=     1 NCel=       1 NClECP=     1 NCelD=      1
         NCelK=      1 NCelE2=     1 NClLst=     1 CellRange=     0.0.
 One-electron integrals computed using PRISM.
 NBasis=   178 RedAO= T EigKep=  2.47D-04  NBF=   178
 NBsUse=   178 1.00D-06 EigRej= -1.00D+00 NBFU=   178
 Leave Link  302 at Thu Sep 23 16:33:00 2021, MaxMem= 16106127360 cpu:               4.5 elap:               0.2
 (Enter /sw/contrib/gaussian/g16/B01/g16/l303.exe)
 DipDrv:  MaxL=1.
 Leave Link  303 at Thu Sep 23 16:33:00 2021, MaxMem= 16106127360 cpu:               0.7 elap:               0.1
 (Enter /sw/contrib/gaussian/g16/B01/g16/l401.exe)
 ExpMin= 2.53D-02 ExpMax= 1.06D+07 ExpMxC= 1.21D+04 IAcc=3 IRadAn=         5 AccDes= 0.00D+00
 Harris functional with IExCor=  205 and IRadAn=       5 diagonalized for initial guess.
 HarFok:  IExCor=  205 AccDes= 0.00D+00 IRadAn=         5 IDoV= 1 UseB2=F ITyADJ=14
 ICtDFT=  3500011 ScaDFX=  1.000000  1.000000  1.000000  1.000000
 FoFCou: FMM=F IPFlag=           0 FMFlag=      100000 FMFlg1=           0
         NFxFlg=           0 DoJE=T BraDBF=F KetDBF=T FulRan=T
         wScrn=  0.000000 ICntrl=       500 IOpCl=  0 I1Cent=   200000004 NGrid=           0
         NMat0=    1 NMatS0=      1 NMatT0=    0 NMatD0=    1 NMtDS0=    0 NMtDT0=    0
 Symmetry not used in FoFCou.
 Harris En= -3106.38953214553    
 JPrj=0 DoOrth=F DoCkMO=F.
 Leave Link  401 at Thu Sep 23 16:33:00 2021, MaxMem= 16106127360 cpu:               7.5 elap:               0.3
 (Enter /sw/contrib/gaussian/g16/B01/g16/l502.exe)
 Keep R1 ints in memory in canonical form, NReq=149454866.
 FoFCou: FMM=F IPFlag=           0 FMFlag=           0 FMFlg1=           0
         NFxFlg=           0 DoJE=F BraDBF=F KetDBF=F FulRan=T
         wScrn=  0.000000 ICntrl=       600 IOpCl=  0 I1Cent=           0 NGrid=           0
         NMat0=    1 NMatS0=  15931 NMatT0=    0 NMatD0=    1 NMtDS0=    0 NMtDT0=    0
 Symmetry not used in FoFCou.
 Two-electron integral symmetry not used.
 Closed shell SCF:
 Using DIIS extrapolation, IDIIS=  1040.
 NGot= 16106127360 LenX= 15979127348 LenY= 15979083643
 Requested convergence on RMS density matrix=1.00D-08 within 128 cycles.
 Requested convergence on MAX density matrix=1.00D-06.
 Requested convergence on             energy=1.00D-06.
 No special actions if energy rises.

 Cycle   1  Pass 1  IDiag  1:
 E= -3107.31584000250    
 DIIS: error= 6.49D-02 at cycle   1 NSaved=   1.
 NSaved= 1 IEnMin= 1 EnMin= -3107.31584000250     IErMin= 1 ErrMin= 6.49D-02
 ErrMax= 6.49D-02  0.00D+00 EMaxC= 1.00D-01 BMatC= 6.33D-01 BMatP= 6.33D-01
 IDIUse=3 WtCom= 3.51D-01 WtEn= 6.49D-01
 Coeff-Com:  0.100D+01
 Coeff-En:   0.100D+01
 Coeff:      0.100D+01
 Gap=     0.557 Goal=   None    Shift=    0.000
 GapD=    0.557 DampG=2.000 DampE=0.500 DampFc=1.0000 IDamp=-1.
 RMSDP=2.98D-03 MaxDP=9.88D-02              OVMax= 1.16D-01

 Cycle   2  Pass 1  IDiag  1:
 E= -3107.45053596934     Delta-E=       -0.134695966842 Rises=F Damp=F
 DIIS: error= 1.44D-02 at cycle   2 NSaved=   2.
 NSaved= 2 IEnMin= 2 EnMin= -3107.45053596934     IErMin= 2 ErrMin= 1.44D-02
 ErrMax= 1.44D-02  0.00D+00 EMaxC= 1.00D-01 BMatC= 4.17D-02 BMatP= 6.33D-01
 IDIUse=3 WtCom= 8.56D-01 WtEn= 1.44D-01
 Coeff-Com:  0.132D+00 0.868D+00
 Coeff-En:   0.000D+00 0.100D+01
 Coeff:      0.113D+00 0.887D+00
 Gap=     0.333 Goal=   None    Shift=    0.000
 RMSDP=1.09D-03 MaxDP=3.77D-02 DE=-1.35D-01 OVMax= 7.15D-02

 Cycle   3  Pass 1  IDiag  1:
 E= -3107.46834255458     Delta-E=       -0.017806585239 Rises=F Damp=F
 DIIS: error= 7.29D-03 at cycle   3 NSaved=   3.
 NSaved= 3 IEnMin= 3 EnMin= -3107.46834255458     IErMin= 3 ErrMin= 7.29D-03
 ErrMax= 7.29D-03  0.00D+00 EMaxC= 1.00D-01 BMatC= 1.32D-02 BMatP= 4.17D-02
 IDIUse=3 WtCom= 9.27D-01 WtEn= 7.29D-02
 Coeff-Com:  0.691D-02 0.357D+00 0.636D+00
 Coeff-En:   0.000D+00 0.175D+00 0.825D+00
 Coeff:      0.641D-02 0.344D+00 0.650D+00
 Gap=     0.332 Goal=   None    Shift=    0.000
 RMSDP=3.40D-04 MaxDP=1.31D-02 DE=-1.78D-02 OVMax= 3.46D-02

 Cycle   4  Pass 1  IDiag  1:
 E= -3107.47739431815     Delta-E=       -0.009051763570 Rises=F Damp=F
 DIIS: error= 1.13D-03 at cycle   4 NSaved=   4.
 NSaved= 4 IEnMin= 4 EnMin= -3107.47739431815     IErMin= 4 ErrMin= 1.13D-03
 ErrMax= 1.13D-03  0.00D+00 EMaxC= 1.00D-01 BMatC= 1.57D-04 BMatP= 1.32D-02
 IDIUse=3 WtCom= 9.89D-01 WtEn= 1.13D-02
 Coeff-Com: -0.510D-02-0.284D-01 0.448D-01 0.989D+00
 Coeff-En:   0.000D+00 0.000D+00 0.000D+00 0.100D+01
 Coeff:     -0.504D-02-0.281D-01 0.443D-01 0.989D+00
 Gap=     0.330 Goal=   None    Shift=    0.000
 RMSDP=5.96D-05 MaxDP=1.33D-03 DE=-9.05D-03 OVMax= 3.58D-03

 Cycle   5  Pass 1  IDiag  1:
 E= -3107.47758203478     Delta-E=       -0.000187716635 Rises=F Damp=F
 DIIS: error= 1.95D-04 at cycle   5 NSaved=   5.
 NSaved= 5 IEnMin= 5 EnMin= -3107.47758203478     IErMin= 5 ErrMin= 1.95D-04
 ErrMax= 1.95D-04  0.00D+00 EMaxC= 1.00D-01 BMatC= 1.18D-05 BMatP= 1.57D-04
 IDIUse=3 WtCom= 9.98D-01 WtEn= 1.95D-03
 Coeff-Com:  0.794D-03-0.171D-01-0.383D-01-0.171D+00 0.123D+01
 Coeff-En:   0.000D+00 0.000D+00 0.000D+00 0.000D+00 0.100D+01
 Coeff:      0.792D-03-0.171D-01-0.382D-01-0.171D+00 0.123D+01
 Gap=     0.331 Goal=   None    Shift=    0.000
 RMSDP=3.02D-05 MaxDP=1.03D-03 DE=-1.88D-04 OVMax= 2.83D-03

 Cycle   6  Pass 1  IDiag  1:
 E= -3107.47761486370     Delta-E=       -0.000032828917 Rises=F Damp=F
 DIIS: error= 1.11D-04 at cycle   6 NSaved=   6.
 NSaved= 6 IEnMin= 6 EnMin= -3107.47761486370     IErMin= 6 ErrMin= 1.11D-04
 ErrMax= 1.11D-04  0.00D+00 EMaxC= 1.00D-01 BMatC= 1.66D-06 BMatP= 1.18D-05
 IDIUse=3 WtCom= 9.99D-01 WtEn= 1.11D-03
 Coeff-Com:  0.477D-03 0.391D-02-0.126D-02-0.124D+00-0.486D-01 0.117D+01
 Coeff-En:   0.000D+00 0.000D+00 0.000D+00 0.000D+00 0.000D+00 0.100D+01
 Coeff:      0.476D-03 0.391D-02-0.126D-02-0.124D+00-0.485D-01 0.117D+01
 Gap=     0.331 Goal=   None    Shift=    0.000
 RMSDP=1.28D-05 MaxDP=5.23D-04 DE=-3.28D-05 OVMax= 1.42D-03

 Cycle   7  Pass 1  IDiag  1:
 E= -3107.47762045346     Delta-E=       -0.000005589765 Rises=F Damp=F
 DIIS: error= 4.04D-05 at cycle   7 NSaved=   7.
 NSaved= 7 IEnMin= 7 EnMin= -3107.47762045346     IErMin= 7 ErrMin= 4.04D-05
 ErrMax= 4.04D-05  0.00D+00 EMaxC= 1.00D-01 BMatC= 1.76D-07 BMatP= 1.66D-06
 IDIUse=1 WtCom= 1.00D+00 WtEn= 0.00D+00
 Coeff-Com: -0.228D-03 0.931D-03 0.639D-02 0.544D-01-0.155D+00-0.271D+00
 Coeff-Com:  0.136D+01
 Coeff:     -0.228D-03 0.931D-03 0.639D-02 0.544D-01-0.155D+00-0.271D+00
 Coeff:      0.136D+01
 Gap=     0.331 Goal=   None    Shift=    0.000
 RMSDP=5.25D-06 MaxDP=1.96D-04 DE=-5.59D-06 OVMax= 5.52D-04

 Cycle   8  Pass 1  IDiag  1:
 E= -3107.47762113341     Delta-E=       -0.000000679942 Rises=F Damp=F
 DIIS: error= 7.23D-06 at cycle   8 NSaved=   8.
 NSaved= 8 IEnMin= 8 EnMin= -3107.47762113341     IErMin= 8 ErrMin= 7.23D-06
 ErrMax= 7.23D-06  0.00D+00 EMaxC= 1.00D-01 BMatC= 8.64D-09 BMatP= 1.76D-07
 IDIUse=1 WtCom= 1.00D+00 WtEn= 0.00D+00
 Coeff-Com:  0.154D-04-0.512D-03-0.110D-02-0.402D-02 0.282D-01 0.111D-01
 Coeff-Com: -0.318D+00 0.128D+01
 Coeff:      0.154D-04-0.512D-03-0.110D-02-0.402D-02 0.282D-01 0.111D-01
 Coeff:     -0.318D+00 0.128D+01
 Gap=     0.331 Goal=   None    Shift=    0.000
 RMSDP=1.18D-06 MaxDP=2.90D-05 DE=-6.80D-07 OVMax= 1.28D-04

 Cycle   9  Pass 1  IDiag  1:
 E= -3107.47762116808     Delta-E=       -0.000000034671 Rises=F Damp=F
 DIIS: error= 3.20D-06 at cycle   9 NSaved=   9.
 NSaved= 9 IEnMin= 9 EnMin= -3107.47762116808     IErMin= 9 ErrMin= 3.20D-06
 ErrMax= 3.20D-06  0.00D+00 EMaxC= 1.00D-01 BMatC= 1.08D-09 BMatP= 8.64D-09
 IDIUse=1 WtCom= 1.00D+00 WtEn= 0.00D+00
 Coeff-Com:  0.117D-04-0.927D-05-0.242D-03-0.262D-02 0.562D-02 0.166D-01
 Coeff-Com: -0.391D-01-0.255D+00 0.127D+01
 Coeff:      0.117D-04-0.927D-05-0.242D-03-0.262D-02 0.562D-02 0.166D-01
 Coeff:     -0.391D-01-0.255D+00 0.127D+01
 Gap=     0.331 Goal=   None    Shift=    0.000
 RMSDP=4.44D-07 MaxDP=9.49D-06 DE=-3.47D-08 OVMax= 5.46D-05

 Cycle  10  Pass 1  IDiag  1:
 E= -3107.47762117314     Delta-E=       -0.000000005067 Rises=F Damp=F
 DIIS: error= 1.61D-06 at cycle  10 NSaved=  10.
 NSaved=10 IEnMin=10 EnMin= -3107.47762117314     IErMin=10 ErrMin= 1.61D-06
 ErrMax= 1.61D-06  0.00D+00 EMaxC= 1.00D-01 BMatC= 2.17D-10 BMatP= 1.08D-09
 IDIUse=1 WtCom= 1.00D+00 WtEn= 0.00D+00
 Coeff-Com: -0.375D-05 0.124D-03 0.238D-03 0.582D-03-0.593D-02-0.314D-03
 Coeff-Com:  0.587D-01-0.219D+00-0.145D+00 0.131D+01
 Coeff:     -0.375D-05 0.124D-03 0.238D-03 0.582D-03-0.593D-02-0.314D-03
 Coeff:      0.587D-01-0.219D+00-0.145D+00 0.131D+01
 Gap=     0.331 Goal=   None    Shift=    0.000
 RMSDP=2.51D-07 MaxDP=6.03D-06 DE=-5.07D-09 OVMax= 3.02D-05

 Cycle  11  Pass 1  IDiag  1:
 E= -3107.47762117424     Delta-E=       -0.000000001099 Rises=F Damp=F
 DIIS: error= 5.11D-07 at cycle  11 NSaved=  11.
 NSaved=11 IEnMin=11 EnMin= -3107.47762117424     IErMin=11 ErrMin= 5.11D-07
 ErrMax= 5.11D-07  0.00D+00 EMaxC= 1.00D-01 BMatC= 2.02D-11 BMatP= 2.17D-10
 IDIUse=1 WtCom= 1.00D+00 WtEn= 0.00D+00
 Coeff-Com: -0.119D-05-0.280D-04-0.904D-05 0.518D-03-0.136D-03-0.301D-02
 Coeff-Com: -0.160D-02 0.678D-01-0.140D+00-0.246D+00 0.132D+01
 Coeff:     -0.119D-05-0.280D-04-0.904D-05 0.518D-03-0.136D-03-0.301D-02
 Coeff:     -0.160D-02 0.678D-01-0.140D+00-0.246D+00 0.132D+01
 Gap=     0.331 Goal=   None    Shift=    0.000
 RMSDP=8.07D-08 MaxDP=2.09D-06 DE=-1.10D-09 OVMax= 9.42D-06

 Cycle  12  Pass 1  IDiag  1:
 E= -3107.47762117433     Delta-E=       -0.000000000092 Rises=F Damp=F
 DIIS: error= 1.01D-07 at cycle  12 NSaved=  12.
 NSaved=12 IEnMin=12 EnMin= -3107.47762117433     IErMin=12 ErrMin= 1.01D-07
 ErrMax= 1.01D-07  0.00D+00 EMaxC= 1.00D-01 BMatC= 1.37D-12 BMatP= 2.02D-11
 IDIUse=1 WtCom= 1.00D+00 WtEn= 0.00D+00
 Coeff-Com:  0.158D-06-0.963D-05-0.203D-04-0.513D-04 0.513D-03 0.799D-04
 Coeff-Com: -0.576D-02 0.237D-01 0.360D-02-0.134D+00 0.136D+00 0.976D+00
 Coeff:      0.158D-06-0.963D-05-0.203D-04-0.513D-04 0.513D-03 0.799D-04
 Coeff:     -0.576D-02 0.237D-01 0.360D-02-0.134D+00 0.136D+00 0.976D+00
 Gap=     0.331 Goal=   None    Shift=    0.000
 RMSDP=1.37D-08 MaxDP=2.99D-07 DE=-9.19D-11 OVMax= 1.29D-06

 Cycle  13  Pass 1  IDiag  1:
 E= -3107.47762117435     Delta-E=       -0.000000000010 Rises=F Damp=F
 DIIS: error= 1.86D-08 at cycle  13 NSaved=  13.
 NSaved=13 IEnMin=13 EnMin= -3107.47762117435     IErMin=13 ErrMin= 1.86D-08
 ErrMax= 1.86D-08  0.00D+00 EMaxC= 1.00D-01 BMatC= 1.24D-13 BMatP= 1.37D-12
 IDIUse=1 WtCom= 1.00D+00 WtEn= 0.00D+00
 Coeff-Com:  0.842D-07 0.272D-05 0.266D-05-0.255D-04-0.481D-04 0.121D-03
 Coeff-Com:  0.107D-02-0.857D-02 0.110D-01 0.378D-01-0.139D+00-0.856D-01
 Coeff-Com:  0.118D+01
 Coeff:      0.842D-07 0.272D-05 0.266D-05-0.255D-04-0.481D-04 0.121D-03
 Coeff:      0.107D-02-0.857D-02 0.110D-01 0.378D-01-0.139D+00-0.856D-01
 Coeff:      0.118D+01
 Gap=     0.331 Goal=   None    Shift=    0.000
 RMSDP=5.10D-09 MaxDP=1.16D-07 DE=-1.05D-11 OVMax= 3.44D-07

 SCF Done:  E(RHF) =  -3107.47762117     A.U. after   13 cycles
            NFock= 13  Conv=0.51D-08     -V/T= 2.0000
 KE= 3.107330885290D+03 PE=-7.823195830915D+03 EE= 1.418060229558D+03
 Leave Link  502 at Thu Sep 23 16:33:04 2021, MaxMem= 16106127360 cpu:              39.7 elap:               4.0
 (Enter /sw/contrib/gaussian/g16/B01/g16/l801.exe)
 ExpMin= 2.53D-02 ExpMax= 1.06D+07 ExpMxC= 1.21D+04 IAcc=3 IRadAn=         5 AccDes= 0.00D+00
 HarFok:  IExCor=  205 AccDes= 0.00D+00 IRadAn=         5 IDoV=-2 UseB2=F ITyADJ=14
 ICtDFT= 12500011 ScaDFX=  1.000000  1.000000  1.000000  1.000000
 Largest valence mixing into a core orbital is  4.47D-04
 Largest core mixing into a valence orbital is  1.58D-04
 Range of M.O.s used for correlation:    16   178
 NBasis=   178 NAE=    31 NBE=    31 NFC=    15 NFV=     0
 NROrb=    163 NOA=    16 NOB=    16 NVA=   147 NVB=   147

 **** Warning!!: The largest alpha MO coefficient is  0.14297313D+02

 Leave Link  801 at Thu Sep 23 16:33:05 2021, MaxMem= 16106127360 cpu:               2.8 elap:               0.1
 (Enter /sw/contrib/gaussian/g16/B01/g16/l906.exe)
 Frozen-core derivative calculation, NFC=  15 NFV=   0.
 FulOut=F Deriv=T AODrv=F NAtomX=     4
   MMem=         124  MDisk=          16 MDiskD=          16
  W3Min=     1147744 MinDsk=     1765480 NBas6D=         208
 NBas2D=       22240    NTT=       21736    LW2=     9911920
    MDV= 16105652725 MDiskM=      387107 NBas2p=       22041
 Fully in-core method, ICMem=   527338992.
 IMap=   1   2   3   4   5   6   7   8   9  10  11  12  13  14  15  16  17  18  19  20
 IMap=  21  22  23  24  25  26  27  28  29  30  31
 JobTyp=1 Pass  1 fully in-core, NPsUse= 28.
 Compute canonical integrals.
 FoFCou: FMM=F IPFlag=           0 FMFlag=           0 FMFlg1=           0
         NFxFlg=           0 DoJE=F BraDBF=F KetDBF=F FulRan=T
         wScrn=  0.000000 ICntrl=       600 IOpCl=  1 I1Cent=           0 NGrid=           0
         NMat0=    1 NMatS0=  22240 NMatT0=    0 NMatD0=    1 NMtDS0=    0 NMtDT0=    0
 Symmetry not used in FoFCou.
 Spin components of T(2) and E(2):
     alpha-alpha T2 =       0.3033639344D-01 E2=     -0.9418421008D-01
     alpha-beta  T2 =       0.1614953390D+00 E2=     -0.5155381681D+00
     beta-beta   T2 =       0.3033639344D-01 E2=     -0.9418421008D-01
 The integrals were generated   1 times.
 ANorm=    0.1105517131D+01
 E2 =    -0.7039065883D+00 EUMP2 =    -0.31081815277626D+04
 Leave Link  906 at Thu Sep 23 16:33:11 2021, MaxMem= 16106127360 cpu:             173.2 elap:               6.2
 (Enter /sw/contrib/gaussian/g16/B01/g16/l1002.exe)
 Minotr:  Closed shell wavefunction.
          Computing MP2/KS-MP2 derivatives.
          Using Z-Vector for PSCF gradient.
          Skipping F1 and S1 gradient terms here.
          Frozen-core window.
          Direct CPHF calculation.
          Differentiating once with respect to electric field.
                with respect to dipole field.
          Electric field/nuclear overlap derivatives assumed to be zero.
          Requested convergence is 1.0D-10 RMS, and 1.0D-09 maximum.
          NewPWx=F KeepS1=T KeepF1=T KeepIn=T MapXYZ=F SortEE=F KeepMc=T.
 Keep R1 ints in memory in canonical form, NReq=149459410.
 FoFCou: FMM=F IPFlag=           0 FMFlag=           0 FMFlg1=           0
         NFxFlg=           0 DoJE=F BraDBF=F KetDBF=F FulRan=T
         wScrn=  0.000000 ICntrl=       600 IOpCl=  0 I1Cent=           0 NGrid=           0
         NMat0=    1 NMatS0=  15931 NMatT0=    0 NMatD0=    1 NMtDS0=    0 NMtDT0=    0
 Symmetry not used in FoFCou.
 Two-electron integral symmetry not used.
          MDV=   16106127360 using IRadAn=       5.
          Solving linear equations separately, MaxMat=       0.
          There are     1 degrees of freedom in the 1st order CPHF.  IDoFFX=0 NUNeed=     1.
 LinEq1:  Iter=  0 NonCon=     1 RMS=2.65D-03 Max=4.29D-02 NDo=     1
 AX will form     1 AO Fock derivatives at one time.
 LinEq1:  Iter=  1 NonCon=     1 RMS=4.17D-04 Max=4.44D-03 NDo=     1
 LinEq1:  Iter=  2 NonCon=     1 RMS=1.96D-04 Max=4.05D-03 NDo=     1
 LinEq1:  Iter=  3 NonCon=     1 RMS=6.37D-05 Max=1.01D-03 NDo=     1
 LinEq1:  Iter=  4 NonCon=     1 RMS=2.70D-05 Max=9.07D-04 NDo=     1
 LinEq1:  Iter=  5 NonCon=     1 RMS=9.91D-06 Max=1.56D-04 NDo=     1
 LinEq1:  Iter=  6 NonCon=     1 RMS=2.26D-06 Max=4.49D-05 NDo=     1
 LinEq1:  Iter=  7 NonCon=     1 RMS=6.48D-07 Max=1.67D-05 NDo=     1
 LinEq1:  Iter=  8 NonCon=     1 RMS=2.21D-07 Max=5.44D-06 NDo=     1
 LinEq1:  Iter=  9 NonCon=     1 RMS=6.31D-08 Max=1.03D-06 NDo=     1
 LinEq1:  Iter= 10 NonCon=     1 RMS=1.54D-08 Max=1.94D-07 NDo=     1
 LinEq1:  Iter= 11 NonCon=     1 RMS=3.46D-09 Max=6.55D-08 NDo=     1
 LinEq1:  Iter= 12 NonCon=     1 RMS=6.92D-10 Max=2.00D-08 NDo=     1
 LinEq1:  Iter= 13 NonCon=     1 RMS=2.15D-10 Max=4.32D-09 NDo=     1
 LinEq1:  Iter= 14 NonCon=     1 RMS=6.60D-11 Max=1.09D-09 NDo=     1
 LinEq1:  Iter= 15 NonCon=     0 RMS=1.21D-11 Max=2.01D-10 NDo=     1
 Linear equations converged to 1.000D-10 1.000D-09 after    15 iterations.
 End of Minotr F.D. properties file   721 does not exist.
 End of Minotr F.D. properties file   722 does not exist.
 End of Minotr F.D. properties file   788 does not exist.
 Leave Link 1002 at Thu Sep 23 16:33:16 2021, MaxMem= 16106127360 cpu:              46.4 elap:               5.6
 (Enter /sw/contrib/gaussian/g16/B01/g16/l601.exe)
 Copying SCF densities to generalized density rwf, IOpCl= 0 IROHF=0.

 **********************************************************************

            Population analysis using the MP2 Density.

 **********************************************************************

 Alpha  occ. eigenvalues -- -489.75509-104.73167 -64.89545 -58.24996 -58.24991
 Alpha  occ. eigenvalues --  -58.24990 -20.46247 -10.45117  -9.56799  -7.91834
 Alpha  occ. eigenvalues --   -7.91570  -7.91559  -7.17581  -7.17524  -7.17523
 Alpha  occ. eigenvalues --   -2.91752  -2.91725  -2.91724  -2.91660  -2.91659
 Alpha  occ. eigenvalues --   -1.22938  -0.89582  -0.73037  -0.53948  -0.44275
 Alpha  occ. eigenvalues --   -0.43450  -0.30837  -0.28112  -0.18499  -0.17545
 Alpha  occ. eigenvalues --   -0.17530
 Alpha virt. eigenvalues --    0.15587   0.18087   0.21592   0.22761   0.24129
 Alpha virt. eigenvalues --    0.24662   0.25006   0.28673   0.30447   0.30745
 Alpha virt. eigenvalues --    0.32503   0.33246   0.36074   0.42799   0.44042
 Alpha virt. eigenvalues --    0.46685   0.48329   0.48680   0.50555   0.54077
 Alpha virt. eigenvalues --    0.54387   0.56829   0.59390   0.59685   0.60116
 Alpha virt. eigenvalues --    0.61252   0.65526   0.69801   0.73557   0.74087
 Alpha virt. eigenvalues --    0.75555   0.77969   0.78651   0.85152   0.88752
 Alpha virt. eigenvalues --    0.89387   0.91216   0.94397   0.99395   1.00131
 Alpha virt. eigenvalues --    1.00382   1.00912   1.01972   1.03306   1.07007
 Alpha virt. eigenvalues --    1.07734   1.09167   1.10234   1.11089   1.13519
 Alpha virt. eigenvalues --    1.15924   1.17823   1.18042   1.20571   1.21781
 Alpha virt. eigenvalues --    1.22723   1.26825   1.29934   1.32007   1.34841
 Alpha virt. eigenvalues --    1.37718   1.38898   1.47642   1.50591   1.52738
 Alpha virt. eigenvalues --    1.53698   1.58143   1.62544   1.66278   1.70016
 Alpha virt. eigenvalues --    1.70802   1.76160   1.79000   1.79692   1.89207
 Alpha virt. eigenvalues --    1.97347   2.14414   2.37191   2.38482   2.41823
 Alpha virt. eigenvalues --    2.44771   2.46481   2.49008   2.50845   2.52990
 Alpha virt. eigenvalues --    2.53605   2.55045   2.55298   2.55756   2.57017
 Alpha virt. eigenvalues --    2.57854   2.59934   2.62534   2.63495   2.65361
 Alpha virt. eigenvalues --    2.67571   2.69008   2.70369   2.71954   2.73046
 Alpha virt. eigenvalues --    2.75594   2.76297   2.77934   2.79460   2.81154
 Alpha virt. eigenvalues --    2.87870   2.98043   3.07317   3.09448   3.17358
 Alpha virt. eigenvalues --    3.19699   3.21781   3.25533   3.28724   3.30806
 Alpha virt. eigenvalues --    3.34504   3.52789   3.54817   3.57393   3.92941
 Alpha virt. eigenvalues --    4.17523   4.31095   4.45471   4.53105   4.55417
 Alpha virt. eigenvalues --    4.76999   4.94678   4.99841   5.14918   5.32605
 Alpha virt. eigenvalues --    5.40585   5.66162   6.42614   6.58461   6.85846
 Alpha virt. eigenvalues --    6.90229   6.91785   6.99669   7.28816   7.33355
 Alpha virt. eigenvalues --    7.34797   7.44521   7.54976   7.74402   7.80375
 Alpha virt. eigenvalues --    8.34874  14.52208
          Condensed to atoms (all electrons):
               1          2          3          4
     1  O    8.658048  -0.089760  -0.116499   0.031828
     2  Br  -0.089760  35.889115   0.004299   0.048786
     3  Cl  -0.116499   0.004299  17.067004  -0.004858
     4  H    0.031828   0.048786  -0.004858   0.638241
 Mulliken charges:
               1
     1  O   -0.483618
     2  Br  -0.852440
     3  Cl   0.050055
     4  H    0.286003
 Sum of Mulliken charges =  -1.00000
 Mulliken charges with hydrogens summed into heavy atoms:
               1
     1  O   -0.197615
     2  Br  -0.852440
     3  Cl   0.050055
 Electronic spatial extent (au):  <R**2>=           1480.2094
 Charge=             -1.0000 electrons
 Dipole moment (field-independent basis, Debye):
    X=            -10.5959    Y=             -0.6560    Z=              0.1161  Tot=             10.6168
 Quadrupole moment (field-independent basis, Debye-Ang):
   XX=            -79.4891   YY=            -43.3373   ZZ=            -43.1311
   XY=              0.4375   XZ=              0.0340   YZ=             -0.0548
 Traceless Quadrupole moment (field-independent basis, Debye-Ang):
   XX=            -24.1699   YY=             11.9819   ZZ=             12.1880
   XY=              0.4375   XZ=              0.0340   YZ=             -0.0548
 Octapole moment (field-independent basis, Debye-Ang**2):
  XXX=           -309.9724  YYY=            -63.0651  ZZZ=             -0.6924  XYY=            -66.3750
  XXY=            -21.7403  XXZ=             -1.1497  XZZ=            -65.8460  YZZ=            -22.3033
  YYZ=             -0.3297  XYZ=              0.0336
 Hexadecapole moment (field-independent basis, Debye-Ang**3):
 XXXX=          -1714.6154 YYYY=           -258.7252 ZZZZ=            -62.1179 XXXY=             28.2252
 XXXZ=             -4.8238 YYYX=             22.0020 YYYZ=             -0.2756 ZZZX=             -1.0741
 ZZZY=             -0.0886 XXYY=           -276.2884 XXZZ=           -240.8917 YYZZ=            -57.9512
 XXYZ=             -0.0667 YYXZ=             -0.2508 ZZXY=              9.2614
 N-N= 1.903270948924D+02 E-N=-7.821765055462D+03  KE= 3.107357375049D+03
 No NMR shielding tensors so no spin-rotation constants.
 Leave Link  601 at Thu Sep 23 16:33:17 2021, MaxMem= 16106127360 cpu:               4.3 elap:               0.2
 (Enter /sw/contrib/gaussian/g16/B01/g16/l607.exe)
 ******************************Gaussian NBO Version 3.1******************************
             N A T U R A L   A T O M I C   O R B I T A L   A N D
          N A T U R A L   B O N D   O R B I T A L   A N A L Y S I S
 ******************************Gaussian NBO Version 3.1******************************
       /RESON  / : Allow strongly delocalized NBO set

 Analyzing the MP2 density

 Job title: title                                                           

 Storage needed:     95974 in NPA,    127345 in NBO (********** available)
 GSVD:  LWork=        4314 too small for GESVD, short by       49391 words or       49391 for optimal perf.


 NATURAL POPULATIONS:  Natural atomic orbital occupancies 
                                                          
   NAO  Atom  No  lang   Type(AO)    Occupancy
 --------------------------------------------
     1    O    1  S      Cor( 1S)     1.99970
     2    O    1  S      Val( 2S)     1.79080
     3    O    1  S      Ryd( 3S)     0.00978
     4    O    1  S      Ryd( 4S)     0.00113
     5    O    1  S      Ryd( 5S)     0.00019
     6    O    1  px     Val( 2p)     1.65990
     7    O    1  px     Ryd( 3p)     0.01147
     8    O    1  px     Ryd( 4p)     0.00076
     9    O    1  px     Ryd( 5p)     0.00047
    10    O    1  py     Val( 2p)     1.26541
    11    O    1  py     Ryd( 3p)     0.00782
    12    O    1  py     Ryd( 4p)     0.00063
    13    O    1  py     Ryd( 5p)     0.00039
    14    O    1  pz     Val( 2p)     1.93828
    15    O    1  pz     Ryd( 3p)     0.01992
    16    O    1  pz     Ryd( 4p)     0.00067
    17    O    1  pz     Ryd( 5p)     0.00016
    18    O    1  dxy    Ryd( 3d)     0.00941
    19    O    1  dxy    Ryd( 4d)     0.00046
    20    O    1  dxy    Ryd( 5d)     0.00017
    21    O    1  dxz    Ryd( 3d)     0.00765
    22    O    1  dxz    Ryd( 4d)     0.00061
    23    O    1  dxz    Ryd( 5d)     0.00031
    24    O    1  dyz    Ryd( 3d)     0.00931
    25    O    1  dyz    Ryd( 4d)     0.00057
    26    O    1  dyz    Ryd( 5d)     0.00011
    27    O    1  dx2y2  Ryd( 3d)     0.01259
    28    O    1  dx2y2  Ryd( 4d)     0.00037
    29    O    1  dx2y2  Ryd( 5d)     0.00015
    30    O    1  dz2    Ryd( 3d)     0.00953
    31    O    1  dz2    Ryd( 4d)     0.00057
    32    O    1  dz2    Ryd( 5d)     0.00017
    33    O    1  f(0)   Ryd( 4f)     0.00070
    34    O    1  f(0)   Ryd( 5f)     0.00011
    35    O    1  f(C1)  Ryd( 4f)     0.00059
    36    O    1  f(C1)  Ryd( 5f)     0.00011
    37    O    1  f(S1)  Ryd( 4f)     0.00066
    38    O    1  f(S1)  Ryd( 5f)     0.00012
    39    O    1  f(C2)  Ryd( 4f)     0.00058
    40    O    1  f(C2)  Ryd( 5f)     0.00013
    41    O    1  f(S2)  Ryd( 4f)     0.00056
    42    O    1  f(S2)  Ryd( 5f)     0.00012
    43    O    1  f(C3)  Ryd( 4f)     0.00056
    44    O    1  f(C3)  Ryd( 5f)     0.00015
    45    O    1  f(S3)  Ryd( 4f)     0.00057
    46    O    1  f(S3)  Ryd( 5f)     0.00012

    47   Br    2  S      Cor( 1S)     2.00000
    48   Br    2  S      Cor( 2S)     2.00000
    49   Br    2  S      Cor( 3S)     1.99984
    50   Br    2  S      Val( 4S)     1.96666
    51   Br    2  S      Ryd( 5S)     0.00189
    52   Br    2  S      Ryd( 6S)     0.00046
    53   Br    2  S      Ryd( 7S)     0.00016
    54   Br    2  px     Cor( 2p)     2.00000
    55   Br    2  px     Cor( 3p)     1.99992
    56   Br    2  px     Val( 4p)     1.85422
    57   Br    2  px     Ryd( 5p)     0.00945
    58   Br    2  px     Ryd( 6p)     0.00076
    59   Br    2  px     Ryd( 7p)     0.00012
    60   Br    2  py     Cor( 3p)     2.00000
    61   Br    2  py     Cor( 2p)     2.00000
    62   Br    2  py     Val( 4p)     1.95343
    63   Br    2  py     Ryd( 5p)     0.01114
    64   Br    2  py     Ryd( 6p)     0.00081
    65   Br    2  py     Ryd( 7p)     0.00008
    66   Br    2  pz     Cor( 3p)     2.00000
    67   Br    2  pz     Cor( 2p)     2.00000
    68   Br    2  pz     Val( 4p)     1.95230
    69   Br    2  pz     Ryd( 5p)     0.01118
    70   Br    2  pz     Ryd( 6p)     0.00081
    71   Br    2  pz     Ryd( 7p)     0.00009
    72   Br    2  dxy    Cor( 3d)     1.99766
    73   Br    2  dxy    Ryd( 4d)     0.01886
    74   Br    2  dxy    Ryd( 5d)     0.00139
    75   Br    2  dxy    Ryd( 6d)     0.00023
    76   Br    2  dxz    Cor( 3d)     1.99766
    77   Br    2  dxz    Ryd( 4d)     0.01893
    78   Br    2  dxz    Ryd( 5d)     0.00145
    79   Br    2  dxz    Ryd( 6d)     0.00021
    80   Br    2  dyz    Cor( 3d)     1.99769
    81   Br    2  dyz    Ryd( 4d)     0.01862
    82   Br    2  dyz    Ryd( 5d)     0.00175
    83   Br    2  dyz    Ryd( 6d)     0.00024
    84   Br    2  dx2y2  Cor( 3d)     1.99762
    85   Br    2  dx2y2  Ryd( 4d)     0.01844
    86   Br    2  dx2y2  Ryd( 5d)     0.00162
    87   Br    2  dx2y2  Ryd( 6d)     0.00023
    88   Br    2  dz2    Cor( 3d)     1.99766
    89   Br    2  dz2    Ryd( 4d)     0.01856
    90   Br    2  dz2    Ryd( 5d)     0.00170
    91   Br    2  dz2    Ryd( 6d)     0.00022
    92   Br    2  f(0)   Ryd( 4f)     0.00173
    93   Br    2  f(0)   Ryd( 5f)     0.00025
    94   Br    2  f(C1)  Ryd( 4f)     0.00175
    95   Br    2  f(C1)  Ryd( 5f)     0.00028
    96   Br    2  f(S1)  Ryd( 4f)     0.00175
    97   Br    2  f(S1)  Ryd( 5f)     0.00024
    98   Br    2  f(C2)  Ryd( 4f)     0.00171
    99   Br    2  f(C2)  Ryd( 5f)     0.00026
   100   Br    2  f(S2)  Ryd( 4f)     0.00176
   101   Br    2  f(S2)  Ryd( 5f)     0.00025
   102   Br    2  f(C3)  Ryd( 4f)     0.00176
   103   Br    2  f(C3)  Ryd( 5f)     0.00028
   104   Br    2  f(S3)  Ryd( 4f)     0.00168
   105   Br    2  f(S3)  Ryd( 5f)     0.00026

   106   Cl    3  S      Cor( 1S)     2.00000
   107   Cl    3  S      Cor( 2S)     1.99978
   108   Cl    3  S      Val( 3S)     1.88163
   109   Cl    3  S      Ryd( 4S)     0.00784
   110   Cl    3  S      Ryd( 5S)     0.00053
   111   Cl    3  S      Ryd( 6S)     0.00017
   112   Cl    3  px     Cor( 2p)     2.00003
   113   Cl    3  px     Val( 3p)     1.89064
   114   Cl    3  px     Ryd( 4p)     0.00949
   115   Cl    3  px     Ryd( 5p)     0.00053
   116   Cl    3  px     Ryd( 6p)     0.00008
   117   Cl    3  py     Cor( 2p)     1.99996
   118   Cl    3  py     Val( 3p)     0.97109
   119   Cl    3  py     Ryd( 4p)     0.00694
   120   Cl    3  py     Ryd( 5p)     0.00052
   121   Cl    3  py     Ryd( 6p)     0.00023
   122   Cl    3  pz     Cor( 2p)     2.00003
   123   Cl    3  pz     Val( 3p)     1.95446
   124   Cl    3  pz     Ryd( 4p)     0.01061
   125   Cl    3  pz     Ryd( 5p)     0.00067
   126   Cl    3  pz     Ryd( 6p)     0.00003
   127   Cl    3  dxy    Ryd( 3d)     0.01738
   128   Cl    3  dxy    Ryd( 4d)     0.00070
   129   Cl    3  dxy    Ryd( 5d)     0.00026
   130   Cl    3  dxz    Ryd( 3d)     0.01718
   131   Cl    3  dxz    Ryd( 4d)     0.00076
   132   Cl    3  dxz    Ryd( 5d)     0.00019
   133   Cl    3  dyz    Ryd( 3d)     0.02093
   134   Cl    3  dyz    Ryd( 4d)     0.00106
   135   Cl    3  dyz    Ryd( 5d)     0.00037
   136   Cl    3  dx2y2  Ryd( 3d)     0.01810
   137   Cl    3  dx2y2  Ryd( 4d)     0.00063
   138   Cl    3  dx2y2  Ryd( 5d)     0.00025
   139   Cl    3  dz2    Ryd( 3d)     0.01752
   140   Cl    3  dz2    Ryd( 4d)     0.00060
   141   Cl    3  dz2    Ryd( 5d)     0.00017
   142   Cl    3  f(0)   Ryd( 4f)     0.00131
   143   Cl    3  f(0)   Ryd( 5f)     0.00013
   144   Cl    3  f(C1)  Ryd( 4f)     0.00128
   145   Cl    3  f(C1)  Ryd( 5f)     0.00013
   146   Cl    3  f(S1)  Ryd( 4f)     0.00143
   147   Cl    3  f(S1)  Ryd( 5f)     0.00014
   148   Cl    3  f(C2)  Ryd( 4f)     0.00130
   149   Cl    3  f(C2)  Ryd( 5f)     0.00013
   150   Cl    3  f(S2)  Ryd( 4f)     0.00123
   151   Cl    3  f(S2)  Ryd( 5f)     0.00014
   152   Cl    3  f(C3)  Ryd( 4f)     0.00140
   153   Cl    3  f(C3)  Ryd( 5f)     0.00013
   154   Cl    3  f(S3)  Ryd( 4f)     0.00143
   155   Cl    3  f(S3)  Ryd( 5f)     0.00014

   156    H    4  S      Val( 1S)     0.49759
   157    H    4  S      Ryd( 2S)     0.00859
   158    H    4  S      Ryd( 3S)     0.00031
   159    H    4  S      Ryd( 4S)     0.00017
   160    H    4  px     Ryd( 2p)     0.00535
   161    H    4  px     Ryd( 3p)     0.00107
   162    H    4  px     Ryd( 4p)     0.00033
   163    H    4  py     Ryd( 2p)     0.00390
   164    H    4  py     Ryd( 3p)     0.00044
   165    H    4  py     Ryd( 4p)     0.00013
   166    H    4  pz     Ryd( 2p)     0.00530
   167    H    4  pz     Ryd( 3p)     0.00039
   168    H    4  pz     Ryd( 4p)     0.00025
   169    H    4  dxy    Ryd( 3d)     0.00028
   170    H    4  dxy    Ryd( 4d)     0.00009
   171    H    4  dxz    Ryd( 3d)     0.00042
   172    H    4  dxz    Ryd( 4d)     0.00012
   173    H    4  dyz    Ryd( 3d)     0.00024
   174    H    4  dyz    Ryd( 4d)     0.00006
   175    H    4  dx2y2  Ryd( 3d)     0.00023
   176    H    4  dx2y2  Ryd( 4d)     0.00013
   177    H    4  dz2    Ryd( 3d)     0.00027
   178    H    4  dz2    Ryd( 4d)     0.00009

 WARNING:  5 low occupancy (<1.9990e) core orbitals found on Br    2


 Summary of Natural Population Analysis:                  
                                                          
                                       Natural Population 
                Natural  -----------------------------------------------
    Atom  No    Charge         Core      Valence    Rydberg      Total
 -----------------------------------------------------------------------
      O    1   -0.76452      1.99970     6.65438    0.11044     8.76452
     Br    2   -0.86806     27.98806     7.72661    0.15339    35.86806
     Cl    3    0.15833      9.99980     6.69782    0.14405    16.84167
      H    4    0.47425      0.00000     0.49759    0.02816     0.52575
 =======================================================================
   * Total *   -1.00000     39.98756    21.57641    0.43604    62.00000

                                 Natural Population      
 --------------------------------------------------------
   Core                      39.98756 ( 99.9689% of  40)
   Valence                   21.57641 ( 98.0746% of  22)
   Natural Minimal Basis     61.56396 ( 99.2967% of  62)
   Natural Rydberg Basis      0.43604 (  0.7033% of  62)
 --------------------------------------------------------

    Atom  No          Natural Electron Configuration
 ----------------------------------------------------------------------------
      O    1      [core]2S( 1.79)2p( 4.86)3S( 0.01)3p( 0.04)3d( 0.05)
     Br    2      [core]4S( 1.97)4p( 5.76)4d( 0.09)5p( 0.03)4f( 0.01)5d( 0.01)
     Cl    3      [core]3S( 1.88)3p( 4.82)4S( 0.01)3d( 0.09)4p( 0.03)4f( 0.01)
      H    4            1S( 0.50)2S( 0.01)2p( 0.01)


 NATURAL BOND ORBITAL ANALYSIS:

                       Occupancies       Lewis Structure    Low   High
           Occ.    -------------------  -----------------   occ   occ
  Cycle   Thresh.   Lewis   Non-Lewis     CR  BD  3C  LP    (L)   (NL)   Dev
 =============================================================================
   1(1)    1.90    61.42287   0.57713     20   2   0   9     1      1    0.16
   2(2)    1.90    61.15809   0.84191     20   2   0   9     1      1    0.55
   3(3)    1.90    61.42287   0.57713     20   2   0   9     1      1    0.16
   4(1)    1.80    61.42287   0.57713     20   2   0   9     0      1    0.16
   5(2)    1.80    61.42287   0.57713     20   2   0   9     0      1    0.16
   6(1)    1.70    61.42287   0.57713     20   2   0   9     0      1    0.16
   7(2)    1.70    61.42287   0.57713     20   2   0   9     0      1    0.16
   8(1)    1.60    61.42287   0.57713     20   2   0   9     0      1    0.16
   9(2)    1.60    61.42287   0.57713     20   2   0   9     0      1    0.16
  10(1)    1.50    61.05525   0.94475     20   1   0  10     0      1    0.55
  11(2)    1.50    61.05525   0.94475     20   1   0  10     0      1    0.55
  12(1)    1.90    61.42287   0.57713     20   2   0   9     1      1    0.16
 -----------------------------------------------------------------------------

 Structure accepted: RESONANCE keyword permits strongly delocalized structure

 WARNING:  5 low occupancy (<1.9990e) core orbitals found on Br    2

 --------------------------------------------------------
   Core                     39.98756 ( 99.969% of  40)
   Valence Lewis            21.43531 ( 97.433% of  22)
  ==================       ============================
   Total Lewis              61.42287 ( 99.069% of  62)
  -----------------------------------------------------
   Valence non-Lewis         0.18695 (  0.302% of  62)
   Rydberg non-Lewis         0.39018 (  0.629% of  62)
  ==================       ============================
   Total non-Lewis           0.57713 (  0.931% of  62)
 --------------------------------------------------------


       (Occupancy)   Bond orbital/ Coefficients/ Hybrids
 ---------------------------------------------------------------------------------
     1. (1.93937) BD ( 1) O   1 -Cl   3  
                ( 58.88%)   0.7673* O   1 s( 10.48%)p 8.49( 88.98%)d 0.05(  0.51%)
                                                  f 0.00(  0.02%)
                                            0.0003  0.3207 -0.0423 -0.0146 -0.0007
                                           -0.1928  0.0346  0.0072  0.0025  0.9222
                                           -0.0244 -0.0089 -0.0110  0.0111  0.0054
                                            0.0010 -0.0002 -0.0053 -0.0006 -0.0031
                                            0.0026  0.0002 -0.0006  0.0059  0.0008
                                           -0.0003 -0.0574 -0.0046 -0.0010 -0.0417
                                           -0.0034  0.0006 -0.0000 -0.0000  0.0028
                                           -0.0004 -0.0107  0.0010 -0.0011  0.0007
                                            0.0018 -0.0004  0.0036  0.0020 -0.0050
                                            0.0006
                ( 41.12%)   0.6413*Cl   3 s(  8.56%)p10.53( 90.17%)d 0.14(  1.16%)
                                                  f 0.01(  0.11%)
                                           -0.0000  0.0005  0.2872 -0.0551 -0.0100
                                            0.0026  0.0001  0.2307 -0.0133 -0.0058
                                            0.0019 -0.0004 -0.9187  0.0639  0.0129
                                           -0.0040  0.0000  0.0023  0.0000 -0.0007
                                            0.0003 -0.0516  0.0049 -0.0004  0.0026
                                           -0.0000 -0.0004 -0.0033 -0.0004 -0.0003
                                           -0.0744  0.0095  0.0007 -0.0566  0.0061
                                            0.0010 -0.0003  0.0000 -0.0054  0.0009
                                            0.0204 -0.0030  0.0000 -0.0002 -0.0006
                                            0.0004 -0.0177  0.0020  0.0187 -0.0020
     2. (1.96422) BD ( 1) O   1 - H   4  
                ( 79.93%)   0.8940* O   1 s( 28.68%)p 2.47( 70.83%)d 0.02(  0.48%)
                                                  f 0.00(  0.01%)
                                            0.0003  0.5355 -0.0065 -0.0084  0.0022
                                            0.8254 -0.0082 -0.0069 -0.0048 -0.0135
                                            0.0153  0.0014  0.0023  0.1625 -0.0002
                                           -0.0014 -0.0017  0.0262  0.0048  0.0010
                                            0.0226  0.0015 -0.0008  0.0056  0.0010
                                            0.0001  0.0499  0.0039  0.0015 -0.0322
                                           -0.0014  0.0029 -0.0039 -0.0000 -0.0078
                                           -0.0001 -0.0002  0.0005  0.0024  0.0008
                                            0.0002 -0.0004  0.0008  0.0029 -0.0018
                                           -0.0005
                ( 20.07%)   0.4480* H   4 s( 99.82%)p 0.00(  0.18%)d 0.00(  0.00%)
                                            0.9981  0.0447  0.0037 -0.0018  0.0136
                                           -0.0332  0.0108  0.0141  0.0017  0.0042
                                            0.0106 -0.0070  0.0003  0.0013  0.0019
                                           -0.0009 -0.0004  0.0006  0.0004  0.0024
                                           -0.0001 -0.0009 -0.0031
     3. (1.99970) CR ( 1) O   1           s(100.00%)p 0.00(  0.00%)
                                            1.0000 -0.0004  0.0000  0.0000 -0.0000
                                           -0.0001 -0.0000  0.0000  0.0000 -0.0002
                                            0.0000  0.0000  0.0000 -0.0000 -0.0000
                                            0.0000  0.0000 -0.0000 -0.0000 -0.0000
                                           -0.0000 -0.0000  0.0000 -0.0000 -0.0000
                                           -0.0000  0.0000  0.0000 -0.0000  0.0000
                                            0.0000 -0.0000  0.0000  0.0000  0.0000
                                            0.0000  0.0000 -0.0000 -0.0000 -0.0000
                                           -0.0000  0.0000 -0.0000 -0.0000  0.0000
                                           -0.0000
     4. (2.00000) CR ( 1)Br   2           s(100.00%)
                                            1.0000 -0.0000  0.0000  0.0000 -0.0000
                                            0.0000  0.0000 -0.0000  0.0000  0.0000
                                           -0.0000  0.0000 -0.0000  0.0000 -0.0000
                                           -0.0000 -0.0000 -0.0000 -0.0000  0.0000
                                           -0.0000  0.0000  0.0000  0.0000  0.0000
                                           -0.0000  0.0000 -0.0000  0.0000  0.0000
                                            0.0000  0.0000  0.0000  0.0000 -0.0000
                                            0.0000 -0.0000 -0.0000 -0.0000 -0.0000
                                           -0.0000  0.0000  0.0000 -0.0000  0.0000
                                           -0.0000 -0.0000  0.0000  0.0000  0.0000
                                            0.0000  0.0000  0.0000  0.0000  0.0000
                                           -0.0000 -0.0000 -0.0000 -0.0000
     5. (2.00000) CR ( 2)Br   2           s(100.00%)
                                           -0.0000  1.0000  0.0000  0.0000 -0.0000
                                            0.0000  0.0000 -0.0000  0.0000  0.0000
                                           -0.0000  0.0000 -0.0000 -0.0000  0.0000
                                            0.0000  0.0000  0.0000 -0.0000  0.0000
                                           -0.0000 -0.0000  0.0000  0.0000  0.0000
                                            0.0000 -0.0000  0.0000  0.0000  0.0000
                                            0.0000  0.0000  0.0000 -0.0000  0.0000
                                           -0.0000  0.0000 -0.0000 -0.0000 -0.0000
                                           -0.0000  0.0000  0.0000 -0.0000  0.0000
                                           -0.0000 -0.0000  0.0000  0.0000 -0.0000
                                           -0.0000  0.0000  0.0000 -0.0000 -0.0000
                                           -0.0000 -0.0000  0.0000  0.0000
     6. (1.99984) CR ( 3)Br   2           s(100.00%)
                                            0.0000  0.0000  1.0000 -0.0002  0.0000
                                           -0.0000 -0.0000  0.0000 -0.0000 -0.0001
                                            0.0000 -0.0000  0.0000 -0.0000  0.0000
                                            0.0000  0.0000  0.0000  0.0000 -0.0000
                                            0.0000  0.0000 -0.0000  0.0000 -0.0000
                                            0.0000 -0.0000  0.0000 -0.0000 -0.0000
                                           -0.0000  0.0000 -0.0000 -0.0000  0.0000
                                           -0.0000  0.0000  0.0000  0.0000  0.0000
                                            0.0000 -0.0000 -0.0000 -0.0000 -0.0000
                                           -0.0000  0.0000 -0.0000 -0.0000 -0.0000
                                           -0.0000  0.0000 -0.0000 -0.0000 -0.0000
                                            0.0000  0.0000  0.0000  0.0000
     7. (2.00000) CR ( 4)Br   2           s(  0.00%)p 1.00(100.00%)
                                           -0.0000 -0.0000  0.0000  0.0000 -0.0000
                                            0.0000  0.0000  1.0000  0.0000  0.0000
                                           -0.0000  0.0000  0.0000  0.0000  0.0000
                                            0.0000 -0.0000 -0.0000 -0.0000 -0.0000
                                            0.0000  0.0000  0.0000  0.0000 -0.0000
                                           -0.0000 -0.0000 -0.0000  0.0000  0.0000
                                           -0.0000  0.0000  0.0000  0.0000 -0.0000
                                            0.0000 -0.0000 -0.0000 -0.0000 -0.0000
                                           -0.0000  0.0000  0.0000 -0.0000  0.0000
                                           -0.0000 -0.0000 -0.0000 -0.0000  0.0000
                                            0.0000  0.0000  0.0000  0.0000 -0.0000
                                           -0.0000 -0.0000  0.0000 -0.0000
     8. (1.99992) CR ( 5)Br   2           s(  0.00%)p 1.00(100.00%)
                                           -0.0000 -0.0000  0.0000  0.0001 -0.0000
                                            0.0000  0.0000 -0.0000 -1.0000  0.0000
                                           -0.0000  0.0000  0.0000 -0.0000  0.0000
                                            0.0000 -0.0000 -0.0000 -0.0000 -0.0000
                                            0.0000  0.0000  0.0000  0.0000 -0.0000
                                            0.0000 -0.0000 -0.0000  0.0000  0.0000
                                           -0.0000  0.0000  0.0000  0.0000 -0.0000
                                            0.0000 -0.0000 -0.0000 -0.0000 -0.0000
                                           -0.0000  0.0000  0.0000 -0.0000  0.0000
                                           -0.0000 -0.0000 -0.0000 -0.0000 -0.0000
                                            0.0000  0.0000  0.0000 -0.0000 -0.0000
                                           -0.0000 -0.0000  0.0000 -0.0000
     9. (2.00000) CR ( 6)Br   2           s(  0.00%)p 1.00(100.00%)
                                            0.0000 -0.0000 -0.0000 -0.0000  0.0000
                                           -0.0000 -0.0000  0.0000  0.0000 -0.0000
                                           -0.0000  0.0000 -0.0000  1.0000  0.0000
                                            0.0000  0.0000  0.0000 -0.0000  0.0000
                                           -0.0000 -0.0000  0.0000 -0.0000  0.0000
                                            0.0000 -0.0000  0.0000  0.0000  0.0000
                                           -0.0000  0.0000 -0.0000 -0.0000  0.0000
                                           -0.0000  0.0000 -0.0000  0.0000 -0.0000
                                            0.0000  0.0000  0.0000 -0.0000  0.0000
                                           -0.0000 -0.0000  0.0000  0.0000 -0.0000
                                           -0.0000  0.0000  0.0000 -0.0000 -0.0000
                                           -0.0000 -0.0000  0.0000  0.0000
    10. (2.00000) CR ( 7)Br   2           s(  0.00%)p 1.00(100.00%)
                                           -0.0000  0.0000  0.0000 -0.0000 -0.0000
                                            0.0000  0.0000  0.0000 -0.0000  0.0000
                                            0.0000 -0.0000  0.0000  0.0000  1.0000
                                           -0.0002 -0.0000 -0.0000  0.0000 -0.0000
                                            0.0000 -0.0000 -0.0000 -0.0000 -0.0000
                                           -0.0000  0.0000 -0.0000 -0.0000 -0.0000
                                            0.0000 -0.0000  0.0000  0.0000 -0.0000
                                            0.0000 -0.0000  0.0000 -0.0000  0.0000
                                           -0.0000 -0.0000 -0.0000  0.0000 -0.0000
                                            0.0000  0.0000 -0.0000 -0.0000  0.0000
                                            0.0000 -0.0000 -0.0000  0.0000  0.0000
                                            0.0000  0.0000 -0.0000 -0.0000
    11. (2.00000) CR ( 8)Br   2           s(  0.00%)p 1.00(100.00%)
                                            0.0000  0.0000 -0.0000 -0.0000 -0.0000
                                            0.0000  0.0000 -0.0000  0.0000  0.0000
                                            0.0000 -0.0000  0.0000  0.0000 -0.0000
                                           -0.0000 -0.0000 -0.0000 -0.0000  1.0000
                                            0.0000  0.0000  0.0000  0.0000 -0.0000
                                           -0.0000  0.0000  0.0000  0.0000  0.0000
                                           -0.0000  0.0000  0.0000  0.0000 -0.0000
                                            0.0000 -0.0000  0.0000 -0.0000  0.0000
                                            0.0000 -0.0000  0.0000 -0.0000  0.0000
                                           -0.0000 -0.0000 -0.0000 -0.0000 -0.0000
                                            0.0000  0.0000  0.0000 -0.0000 -0.0000
                                            0.0000  0.0000 -0.0000 -0.0000
    12. (2.00000) CR ( 9)Br   2           s(  0.00%)p 1.00(100.00%)
                                           -0.0000 -0.0000  0.0000  0.0000  0.0000
                                           -0.0000 -0.0000  0.0000 -0.0000 -0.0000
                                           -0.0000  0.0000 -0.0000 -0.0000  0.0000
                                            0.0000  0.0000  0.0000  0.0000  0.0000
                                            1.0000 -0.0002 -0.0000 -0.0000  0.0000
                                            0.0000 -0.0000 -0.0000 -0.0000 -0.0000
                                            0.0000 -0.0000 -0.0000 -0.0000  0.0000
                                           -0.0000  0.0000 -0.0000  0.0000 -0.0000
                                           -0.0000  0.0000 -0.0000  0.0000 -0.0000
                                            0.0000  0.0000  0.0000  0.0000  0.0000
                                           -0.0000 -0.0000 -0.0000  0.0000  0.0000
                                           -0.0000 -0.0000  0.0000  0.0000
    13. (1.99766) CR (10)Br   2           s(  0.00%)p 0.00(  0.00%)d 1.00(100.00%)
                                           -0.0000  0.0000  0.0000  0.0000 -0.0000
                                            0.0000  0.0000 -0.0000 -0.0000  0.0000
                                            0.0000 -0.0000  0.0000  0.0000 -0.0000
                                           -0.0000 -0.0000 -0.0000  0.0000 -0.0000
                                            0.0000  0.0000 -0.0000  0.0000 -0.0000
                                            1.0000  0.0000 -0.0000 -0.0000 -0.0000
                                            0.0000 -0.0000  0.0000  0.0000 -0.0000
                                            0.0000 -0.0000  0.0000 -0.0000  0.0000
                                           -0.0000 -0.0000 -0.0000  0.0000 -0.0000
                                            0.0000  0.0000 -0.0000 -0.0000  0.0000
                                            0.0000 -0.0000 -0.0000  0.0000  0.0000
                                            0.0000  0.0000 -0.0000 -0.0000
    14. (1.99766) CR (11)Br   2           s(  0.00%)p 0.00(  0.00%)d 1.00(100.00%)
                                            0.0000  0.0000 -0.0000 -0.0000  0.0000
                                           -0.0000 -0.0000  0.0000 -0.0000 -0.0000
                                            0.0000 -0.0000 -0.0000  0.0000 -0.0000
                                           -0.0000 -0.0000  0.0000  0.0000  0.0000
                                           -0.0000 -0.0000 -0.0000 -0.0000  0.0000
                                           -0.0000  0.0000 -0.0000 -0.0000  1.0000
                                            0.0000 -0.0000 -0.0000 -0.0000  0.0000
                                           -0.0000  0.0000  0.0000  0.0000 -0.0000
                                           -0.0000 -0.0000 -0.0000  0.0000 -0.0000
                                            0.0000  0.0000  0.0000  0.0000  0.0000
                                           -0.0000 -0.0000 -0.0000  0.0000  0.0000
                                           -0.0000  0.0000 -0.0000 -0.0000
    15. (1.99769) CR (12)Br   2           s(  0.00%)p 0.00(  0.00%)d 1.00(100.00%)
                                            0.0000 -0.0000 -0.0000 -0.0000  0.0000
                                           -0.0000 -0.0000  0.0000 -0.0000 -0.0000
                                           -0.0000  0.0000 -0.0000 -0.0000  0.0000
                                            0.0000  0.0000  0.0000 -0.0000  0.0000
                                           -0.0000 -0.0000 -0.0000 -0.0000  0.0000
                                            0.0000 -0.0000  0.0000  0.0000 -0.0000
                                            0.0000 -0.0000 -0.0000  1.0000  0.0000
                                           -0.0000  0.0000 -0.0000  0.0000 -0.0000
                                            0.0000  0.0000 -0.0000  0.0000  0.0000
                                            0.0000  0.0000  0.0000  0.0000 -0.0000
                                           -0.0000 -0.0000 -0.0000 -0.0000 -0.0000
                                           -0.0000 -0.0000  0.0000  0.0000
    16. (1.99762) CR (13)Br   2           s(  0.00%)p 0.00(  0.00%)d 1.00(100.00%)
                                           -0.0000 -0.0000  0.0000  0.0000 -0.0000
                                            0.0000  0.0000 -0.0000  0.0000  0.0000
                                           -0.0000  0.0000 -0.0000 -0.0000  0.0000
                                            0.0000 -0.0000 -0.0000 -0.0000  0.0000
                                           -0.0000 -0.0000  0.0000 -0.0000  0.0000
                                            0.0000 -0.0000 -0.0000  0.0000  0.0000
                                            0.0000 -0.0000  0.0000 -0.0000  0.0000
                                           -0.0000 -0.0000  1.0000 -0.0000 -0.0000
                                           -0.0000  0.0000  0.0000  0.0000  0.0000
                                            0.0000 -0.0000  0.0000  0.0000 -0.0000
                                            0.0000 -0.0000  0.0000 -0.0000  0.0000
                                           -0.0000 -0.0000  0.0000  0.0000
    17. (1.99766) CR (14)Br   2           s(  0.00%)p 0.00(  0.00%)d 1.00(100.00%)
                                            0.0000  0.0000 -0.0000 -0.0000  0.0000
                                           -0.0000 -0.0000  0.0000 -0.0000 -0.0000
                                            0.0000 -0.0000  0.0000  0.0000 -0.0000
                                           -0.0000  0.0000  0.0000  0.0000 -0.0000
                                            0.0000  0.0000  0.0000  0.0000 -0.0000
                                           -0.0000  0.0000  0.0000 -0.0000 -0.0000
                                           -0.0000  0.0000  0.0000  0.0000 -0.0000
                                            0.0000 -0.0000  0.0000  0.0000  0.0000
                                            0.0000  1.0000 -0.0000 -0.0000 -0.0000
                                           -0.0000 -0.0000 -0.0000 -0.0000  0.0000
                                           -0.0000  0.0000  0.0000  0.0000 -0.0000
                                            0.0000  0.0000 -0.0000 -0.0000
    18. (2.00000) CR ( 1)Cl   3           s(100.00%)
                                            1.0000  0.0000 -0.0000 -0.0000 -0.0000
                                            0.0000  0.0000  0.0000 -0.0000 -0.0000
                                            0.0000 -0.0000 -0.0000  0.0000  0.0000
                                           -0.0000 -0.0000  0.0000  0.0000 -0.0000
                                            0.0000 -0.0000  0.0000 -0.0000  0.0000
                                           -0.0000 -0.0000 -0.0000 -0.0000 -0.0000
                                           -0.0000  0.0000  0.0000 -0.0000  0.0000
                                            0.0000 -0.0000  0.0000 -0.0000  0.0000
                                            0.0000 -0.0000 -0.0000 -0.0000 -0.0000
                                            0.0000 -0.0000  0.0000  0.0000 -0.0000
    19. (1.99979) CR ( 2)Cl   3           s(100.00%)p 0.00(  0.00%)
                                            0.0000  1.0000 -0.0004  0.0000  0.0000
                                           -0.0000 -0.0000 -0.0001  0.0000  0.0000
                                           -0.0000  0.0000  0.0004 -0.0000 -0.0000
                                            0.0000 -0.0000 -0.0000 -0.0000  0.0000
                                           -0.0000  0.0000 -0.0000 -0.0000 -0.0000
                                            0.0000  0.0000  0.0000  0.0000  0.0000
                                            0.0000 -0.0000 -0.0000  0.0000 -0.0000
                                           -0.0000  0.0000 -0.0000  0.0000 -0.0000
                                           -0.0000  0.0000 -0.0000  0.0000  0.0000
                                           -0.0000  0.0000 -0.0000 -0.0000  0.0000
    20. (2.00003) CR ( 3)Cl   3           s(  0.00%)p 1.00(100.00%)
                                            0.0000 -0.0000 -0.0000  0.0000  0.0000
                                           -0.0000  1.0000  0.0001  0.0000  0.0000
                                           -0.0000  0.0000  0.0001 -0.0000 -0.0000
                                            0.0000 -0.0000 -0.0000  0.0000  0.0000
                                            0.0000  0.0000  0.0000  0.0000 -0.0000
                                            0.0000  0.0000  0.0000 -0.0000  0.0000
                                            0.0000 -0.0000 -0.0000  0.0000 -0.0000
                                           -0.0000 -0.0000  0.0000  0.0000 -0.0000
                                           -0.0000  0.0000  0.0000 -0.0000  0.0000
                                           -0.0000  0.0000 -0.0000 -0.0000  0.0000
    21. (1.99996) CR ( 4)Cl   3           s(  0.00%)p 1.00(100.00%)
                                           -0.0000  0.0000  0.0001 -0.0000 -0.0000
                                            0.0000  0.0000  0.0002 -0.0000 -0.0000
                                            0.0000  1.0000 -0.0003  0.0000  0.0000
                                           -0.0000 -0.0000  0.0000  0.0000 -0.0000
                                            0.0000 -0.0000  0.0000  0.0000  0.0000
                                           -0.0000 -0.0000 -0.0000 -0.0000 -0.0000
                                           -0.0000  0.0000 -0.0000 -0.0000  0.0000
                                            0.0000 -0.0000  0.0000 -0.0000  0.0000
                                            0.0000 -0.0000 -0.0000 -0.0000 -0.0000
                                            0.0000 -0.0000  0.0000  0.0000 -0.0000
    22. (2.00003) CR ( 5)Cl   3           s(  0.00%)p 1.00(100.00%)
                                           -0.0000 -0.0000 -0.0000  0.0000  0.0000
                                            0.0000 -0.0000  0.0000  0.0000 -0.0000
                                            0.0000 -0.0000  0.0000 -0.0000  0.0000
                                            0.0000  1.0000  0.0002  0.0000  0.0000
                                           -0.0000 -0.0000 -0.0000 -0.0000 -0.0000
                                           -0.0000 -0.0000  0.0000  0.0000  0.0000
                                            0.0000 -0.0000 -0.0000  0.0000  0.0000
                                            0.0000 -0.0000  0.0000  0.0000 -0.0000
                                           -0.0000  0.0000 -0.0000  0.0000 -0.0000
                                            0.0000 -0.0000  0.0000 -0.0000 -0.0000
    23. (1.96642) LP ( 1) O   1           s( 60.96%)p 0.64( 38.94%)d 0.00(  0.09%)
                                                  f 0.00(  0.00%)
                                            0.0002  0.7807  0.0119  0.0084 -0.0015
                                           -0.4854 -0.0073 -0.0045 -0.0011 -0.3704
                                           -0.0047 -0.0055 -0.0025 -0.1281 -0.0020
                                           -0.0011 -0.0002 -0.0265 -0.0021  0.0047
                                           -0.0064 -0.0002  0.0005 -0.0069 -0.0008
                                            0.0005 -0.0034  0.0007  0.0019  0.0104
                                            0.0006  0.0009  0.0015 -0.0001  0.0023
                                           -0.0003  0.0004  0.0005  0.0005 -0.0005
                                           -0.0007  0.0003  0.0051 -0.0027 -0.0002
                                            0.0007
    24. (1.95229) LP ( 2) O   1           s(  0.01%)p 1.00( 99.79%)d 0.00(  0.18%)
                                                  f 0.00(  0.01%)
                                           -0.0000  0.0095  0.0025  0.0014 -0.0002
                                           -0.1993 -0.0041 -0.0010 -0.0012 -0.0566
                                           -0.0010 -0.0003 -0.0008  0.9770  0.0186
                                            0.0060  0.0072 -0.0080 -0.0003  0.0015
                                            0.0158 -0.0048 -0.0105  0.0347  0.0039
                                           -0.0032 -0.0022  0.0012  0.0021  0.0109
                                           -0.0004 -0.0027 -0.0094  0.0007  0.0035
                                            0.0001  0.0005 -0.0002 -0.0042  0.0023
                                           -0.0031 -0.0001  0.0010 -0.0008  0.0011
                                           -0.0002
    25. (1.97811) LP ( 1)Br   2           s( 91.61%)p 0.09(  8.39%)d 0.00(  0.00%)
                                                  f 0.00(  0.00%)
                                           -0.0000 -0.0000  0.0002  0.9571 -0.0001
                                            0.0009  0.0005 -0.0000  0.0001  0.2874
                                           -0.0015  0.0007 -0.0000  0.0000 -0.0000
                                           -0.0072 -0.0002 -0.0001 -0.0001  0.0000
                                           -0.0000 -0.0355  0.0001 -0.0000  0.0000
                                           -0.0000  0.0000 -0.0001  0.0001  0.0000
                                            0.0006  0.0000  0.0001  0.0000 -0.0000
                                            0.0000 -0.0000 -0.0000 -0.0006 -0.0002
                                           -0.0003  0.0000  0.0004  0.0000  0.0003
                                           -0.0000 -0.0000  0.0002  0.0001  0.0000
                                            0.0000  0.0000  0.0001  0.0000  0.0000
                                           -0.0002 -0.0002 -0.0000 -0.0001
    26. (1.95398) LP ( 2)Br   2           s(  0.00%)p 1.00( 99.99%)d 0.00(  0.01%)
                                                  f 0.00(  0.00%)
                                           -0.0000 -0.0000 -0.0000  0.0000 -0.0006
                                            0.0003  0.0012 -0.0000  0.0000  0.1190
                                            0.0002 -0.0002  0.0001  0.0000 -0.0000
                                           -0.1075 -0.0004 -0.0002  0.0000 -0.0000
                                            0.0002  0.9870  0.0032  0.0018 -0.0003
                                           -0.0000  0.0011 -0.0002 -0.0001  0.0000
                                           -0.0087  0.0016  0.0015  0.0000 -0.0003
                                            0.0002 -0.0001  0.0000 -0.0014  0.0002
                                            0.0004 -0.0000  0.0026 -0.0008  0.0004
                                           -0.0020 -0.0011 -0.0014 -0.0008  0.0001
                                            0.0001  0.0026  0.0013  0.0000 -0.0001
                                            0.0005  0.0001 -0.0004 -0.0002
    27. (1.95369) LP ( 3)Br   2           s(  0.01%)p 1.00( 99.98%)d 0.00(  0.01%)
                                                  f 0.00(  0.00%)
                                           -0.0000 -0.0000 -0.0000  0.0073  0.0003
                                           -0.0001 -0.0005 -0.0000  0.0000  0.0135
                                           -0.0000  0.0001 -0.0000 -0.0000  0.0002
                                            0.9941  0.0033  0.0016 -0.0003 -0.0000
                                            0.0000  0.1067  0.0004  0.0002  0.0000
                                            0.0000 -0.0098  0.0015  0.0017  0.0000
                                           -0.0010  0.0003  0.0000 -0.0000  0.0016
                                           -0.0005  0.0004 -0.0000  0.0008 -0.0005
                                            0.0007  0.0000  0.0004 -0.0001  0.0001
                                           -0.0003 -0.0002 -0.0001 -0.0000 -0.0009
                                           -0.0005  0.0003  0.0002 -0.0008 -0.0005
                                           -0.0001 -0.0001  0.0033  0.0015
    28. (1.84271) LP ( 4)Br   2           s(  8.38%)p10.93( 91.55%)d 0.01(  0.06%)
                                                  f 0.00(  0.01%)
                                           -0.0000  0.0000  0.0000  0.2895  0.0005
                                           -0.0031 -0.0018  0.0000  0.0000 -0.9499
                                            0.0068  0.0039 -0.0006  0.0000  0.0000
                                           -0.0015  0.0002  0.0004  0.0002 -0.0000
                                            0.0000  0.1144  0.0003 -0.0004  0.0004
                                            0.0000 -0.0000  0.0002 -0.0005  0.0000
                                           -0.0066  0.0017 -0.0005 -0.0000 -0.0000
                                            0.0000 -0.0000  0.0000  0.0198 -0.0038
                                           -0.0011 -0.0000 -0.0119  0.0025 -0.0002
                                           -0.0015 -0.0007  0.0045  0.0023 -0.0000
                                           -0.0001  0.0019  0.0008  0.0000  0.0000
                                           -0.0057 -0.0024 -0.0000  0.0002
    29. (1.97374) LP ( 1)Cl   3           s( 91.56%)p 0.09(  8.41%)d 0.00(  0.02%)
                                                  f 0.00(  0.00%)
                                            0.0000  0.0003  0.9569  0.0064  0.0011
                                           -0.0003 -0.0000 -0.0347  0.0002  0.0006
                                            0.0002  0.0000  0.2877 -0.0064 -0.0030
                                            0.0013 -0.0000  0.0097  0.0003  0.0001
                                            0.0000  0.0055  0.0002  0.0004  0.0002
                                            0.0000 -0.0001  0.0002  0.0002  0.0001
                                            0.0108 -0.0006 -0.0003  0.0078  0.0005
                                            0.0004 -0.0001  0.0001  0.0004  0.0001
                                           -0.0021 -0.0004  0.0000 -0.0001 -0.0002
                                            0.0001  0.0018  0.0002 -0.0030  0.0002
    30. (1.95606) LP ( 2)Cl   3           s(  0.00%)p 1.00( 99.94%)d 0.00(  0.05%)
                                                  f 0.00(  0.01%)
                                            0.0000  0.0000  0.0051 -0.0016 -0.0007
                                           -0.0005 -0.0000  0.1332  0.0018  0.0008
                                           -0.0000 -0.0000  0.0327  0.0005 -0.0000
                                            0.0001  0.0002 -0.9901 -0.0151 -0.0050
                                            0.0023  0.0012  0.0022  0.0010  0.0052
                                            0.0070  0.0027 -0.0068 -0.0163 -0.0079
                                           -0.0010 -0.0013 -0.0007 -0.0002 -0.0002
                                           -0.0001  0.0054 -0.0009 -0.0008  0.0004
                                            0.0001 -0.0001  0.0055 -0.0007  0.0037
                                           -0.0010 -0.0006 -0.0000 -0.0008  0.0003
    31. (1.95470) LP ( 3)Cl   3           s(  0.13%)p99.99( 99.82%)d 0.29(  0.04%)
                                                  f 0.06(  0.01%)
                                            0.0000 -0.0000  0.0360  0.0058  0.0039
                                            0.0018  0.0002 -0.9621 -0.0125 -0.0014
                                           -0.0000  0.0001 -0.2317 -0.0033 -0.0006
                                           -0.0007  0.0000 -0.1369 -0.0022 -0.0003
                                            0.0001  0.0043 -0.0113 -0.0057 -0.0003
                                            0.0006  0.0004  0.0006 -0.0017 -0.0010
                                            0.0063  0.0109  0.0061 -0.0007 -0.0027
                                           -0.0003  0.0010 -0.0002  0.0022 -0.0002
                                            0.0007  0.0002  0.0005  0.0001  0.0006
                                           -0.0002  0.0058 -0.0009  0.0065 -0.0010
    32. (0.01974) RY*( 1) O   1           s(  0.03%)p99.99( 98.68%)d36.89(  1.24%)
                                                  f 1.54(  0.05%)
                                           -0.0000  0.0000  0.0182  0.0017  0.0001
                                            0.0043 -0.1931  0.0067  0.0044  0.0023
                                           -0.0539  0.0019 -0.0005 -0.0230  0.9718
                                           -0.0376 -0.0115 -0.0206 -0.0040  0.0006
                                            0.0395 -0.0074 -0.0167  0.0924  0.0261
                                            0.0058 -0.0039  0.0030  0.0032  0.0271
                                            0.0018 -0.0023 -0.0118  0.0103  0.0026
                                           -0.0027  0.0010 -0.0005 -0.0112  0.0094
                                           -0.0028  0.0034  0.0034 -0.0026  0.0016
                                           -0.0017
    33. (0.01624) RY*( 2) O   1           s( 30.19%)p 2.24( 67.66%)d 0.06(  1.95%)
                                                  f 0.01(  0.20%)
                                           -0.0000  0.0033  0.5482 -0.0360 -0.0071
                                            0.0098 -0.6255  0.0032  0.0509  0.0402
                                           -0.5033 -0.0043  0.0350  0.0029 -0.1624
                                            0.0029  0.0113 -0.1181 -0.0254 -0.0096
                                           -0.0126  0.0023  0.0050 -0.0337 -0.0071
                                           -0.0029  0.0302  0.0071 -0.0005  0.0497
                                            0.0041 -0.0034 -0.0030  0.0003 -0.0003
                                           -0.0033 -0.0052  0.0005  0.0114 -0.0056
                                           -0.0026  0.0018  0.0367 -0.0174 -0.0101
                                            0.0034
    34. (0.00807) RY*( 3) O   1           s( 18.02%)p 0.61( 11.08%)d 3.87( 69.70%)
                                                  f 0.07(  1.20%)
                                           -0.0000  0.0164  0.4184 -0.0683  0.0166
                                            0.0151  0.3029 -0.0270  0.0693 -0.0157
                                           -0.0886  0.0018  0.0549  0.0006  0.0461
                                           -0.0041  0.0037  0.6252  0.0072  0.0074
                                           -0.0147  0.0033 -0.0012  0.0757  0.0043
                                            0.0037 -0.4978 -0.0112 -0.0370  0.2247
                                           -0.0091  0.0062 -0.0060  0.0030  0.0054
                                           -0.0078 -0.0201  0.0124 -0.0095  0.0038
                                            0.0124 -0.0062 -0.0927  0.0395 -0.0264
                                            0.0130
    35. (0.00706) RY*( 4) O   1           s(  0.09%)p 3.80(  0.35%)d99.99( 97.83%)
                                                  f18.96(  1.73%)
                                            0.0000  0.0018  0.0299 -0.0034 -0.0007
                                            0.0024  0.0051  0.0024  0.0010 -0.0008
                                            0.0003  0.0018  0.0028 -0.0181 -0.0543
                                           -0.0105 -0.0052 -0.0149  0.0040  0.0000
                                           -0.5435  0.0272 -0.0108  0.8125 -0.0337
                                            0.0142  0.0965 -0.0074  0.0005 -0.1048
                                            0.0047 -0.0046 -0.0415  0.0180 -0.0186
                                            0.0089  0.0006 -0.0002 -0.1061  0.0477
                                           -0.0283  0.0118  0.0091 -0.0054  0.0136
                                           -0.0054
    36. (0.00637) RY*( 5) O   1           s(  1.15%)p15.65( 18.03%)d68.63( 79.11%)
                                                  f 1.48(  1.70%)
                                           -0.0000  0.0041  0.0990 -0.0409 -0.0051
                                            0.0577  0.3765 -0.0275  0.0018 -0.0078
                                           -0.1794 -0.0047  0.0438 -0.0069  0.0147
[...]
   162. (0.00035) RY*( 8) H   4           s( 16.19%)p 3.78( 61.24%)d 1.39( 22.57%)
                                           -0.0020 -0.0093  0.3961  0.0700 -0.0598
                                            0.0003  0.3409 -0.0651  0.5901  0.1959
                                           -0.0486  0.2909  0.1214  0.3118 -0.1236
                                            0.1013  0.0187 -0.0695 -0.0180 -0.1938
                                            0.1906  0.0958 -0.1200
   163. (0.00031) RY*( 9) H   4           s(  5.11%)p16.28( 83.13%)d 2.30( 11.76%)
                                           -0.0033 -0.0233  0.2153  0.0644 -0.0455
                                            0.0710 -0.0212 -0.0340  0.1419  0.0859
                                            0.1129 -0.8805  0.0842  0.1214 -0.0173
                                           -0.0733  0.2226  0.0463 -0.0424 -0.1721
                                           -0.0240  0.0911  0.0720
   164. (0.00026) RY*(10) H   4           s(  2.82%)p 9.46( 26.69%)d24.99( 70.49%)
                                            0.0132  0.0515  0.0203  0.1580  0.0351
                                            0.2294 -0.4196 -0.0800 -0.0005  0.0659
                                           -0.0260  0.1472 -0.0623  0.1054 -0.0350
                                           -0.0121 -0.0357  0.1179 -0.0242 -0.6462
                                           -0.0932 -0.4805  0.1398
   165. (0.00025) RY*(11) H   4           s(  4.42%)p 1.16(  5.10%)d20.49( 90.48%)
                                            0.0031 -0.0021  0.1710  0.1221 -0.0111
                                            0.1028  0.0149  0.0779  0.1065 -0.1154
                                           -0.0051  0.0958  0.0129 -0.4239 -0.0414
                                           -0.1571  0.0226  0.7884 -0.1222 -0.0476
                                            0.0380  0.2252 -0.0852
   166. (0.00022) RY*(12) H   4           s(  4.30%)p 7.20( 30.93%)d15.08( 64.77%)
                                            0.0161  0.0253  0.0915  0.1836  0.0075
                                            0.3522 -0.3797  0.0441  0.0687 -0.1143
                                            0.0316  0.1321  0.0543 -0.1489  0.0114
                                           -0.0811 -0.0236 -0.3991  0.0691 -0.1198
                                           -0.1538  0.6445  0.0289
   167. (0.00018) RY*(13) H   4           s(  8.60%)p 1.35( 11.60%)d 9.28( 79.80%)
                                           -0.0042 -0.0269  0.2809  0.0798 -0.0223
                                           -0.0908  0.2449  0.0571 -0.0749 -0.1844
                                           -0.0013 -0.0609  0.0253 -0.6702 -0.0728
                                            0.0264  0.0825 -0.3896  0.0672 -0.2371
                                            0.1649 -0.2799 -0.1338
   168. (0.00012) RY*(14) H   4           s( 67.59%)p 0.15( 10.27%)d 0.33( 22.13%)
                                           -0.0046 -0.0319  0.0367  0.8207 -0.0151
                                           -0.2035 -0.1177  0.0133  0.1440  0.1589
                                           -0.0204 -0.0030  0.0254 -0.0513  0.2135
                                            0.0274 -0.0106 -0.0282  0.0169  0.3512
                                           -0.1105 -0.1796  0.0580
   169. (0.00013) RY*(15) H   4           s(  0.78%)p48.41( 37.84%)d78.51( 61.38%)
                                           -0.0021 -0.0061  0.0388  0.0792  0.0178
                                           -0.0102  0.0504  0.0012  0.0015  0.0613
                                           -0.0191 -0.2053 -0.5737 -0.0356  0.0358
                                            0.4172 -0.6114  0.0407  0.0188 -0.1254
                                            0.0567  0.1503 -0.1409
   170. (0.00010) RY*(16) H   4           s(  6.75%)p 4.56( 30.81%)d 9.25( 62.43%)
   171. (0.00006) RY*(17) H   4           s(  0.06%)p 5.81(  0.37%)d99.99( 99.57%)
   172. (0.00007) RY*(18) H   4           s( 25.57%)p 1.36( 34.70%)d 1.55( 39.73%)
   173. (0.00005) RY*(19) H   4           s(  1.78%)p18.65( 33.17%)d36.58( 65.05%)
   174. (0.00004) RY*(20) H   4           s( 12.01%)p 0.92( 11.00%)d 6.41( 76.99%)
   175. (0.00005) RY*(21) H   4           s(  2.38%)p 3.49(  8.30%)d37.53( 89.32%)
   176. (0.00004) RY*(22) H   4           s(  8.06%)p 5.60( 45.14%)d 5.81( 46.80%)
   177. (0.05817) BD*( 1) O   1 -Cl   3  
                ( 41.12%)   0.6413* O   1 s( 10.48%)p 8.49( 88.98%)d 0.05(  0.51%)
                                                  f 0.00(  0.02%)
                                           -0.0003 -0.3207  0.0423  0.0146  0.0007
                                            0.1928 -0.0346 -0.0072 -0.0025 -0.9222
                                            0.0244  0.0089  0.0110 -0.0111 -0.0054
                                           -0.0010  0.0002  0.0053  0.0006  0.0031
                                           -0.0026 -0.0002  0.0006 -0.0059 -0.0008
                                            0.0003  0.0574  0.0046  0.0010  0.0417
                                            0.0034 -0.0006  0.0000  0.0000 -0.0028
                                            0.0004  0.0107 -0.0010  0.0011 -0.0007
                                           -0.0018  0.0004 -0.0036 -0.0020  0.0050
                                           -0.0006
                ( 58.88%)  -0.7673*Cl   3 s(  8.56%)p10.53( 90.17%)d 0.14(  1.16%)
                                                  f 0.01(  0.11%)
                                            0.0000 -0.0005 -0.2872  0.0551  0.0100
                                           -0.0026 -0.0001 -0.2307  0.0133  0.0058
                                           -0.0019  0.0004  0.9187 -0.0639 -0.0129
                                            0.0040 -0.0000 -0.0023 -0.0000  0.0007
                                           -0.0003  0.0516 -0.0049  0.0004 -0.0026
                                            0.0000  0.0004  0.0033  0.0004  0.0003
                                            0.0744 -0.0095 -0.0007  0.0566 -0.0061
                                           -0.0010  0.0003 -0.0000  0.0054 -0.0009
                                           -0.0204  0.0030 -0.0000  0.0002  0.0006
                                           -0.0004  0.0177 -0.0020 -0.0187  0.0020
   178. (0.12878) BD*( 1) O   1 - H   4  
                ( 20.07%)   0.4480* O   1 s( 28.68%)p 2.47( 70.83%)d 0.02(  0.48%)
                                                  f 0.00(  0.01%)
                                           -0.0003 -0.5355  0.0065  0.0084 -0.0022
                                           -0.8254  0.0082  0.0069  0.0048  0.0135
                                           -0.0153 -0.0014 -0.0023 -0.1625  0.0002
                                            0.0014  0.0017 -0.0262 -0.0048 -0.0010
                                           -0.0226 -0.0015  0.0008 -0.0056 -0.0010
                                           -0.0001 -0.0499 -0.0039 -0.0015  0.0322
                                            0.0014 -0.0029  0.0039  0.0000  0.0078
                                            0.0001  0.0002 -0.0005 -0.0024 -0.0008
                                           -0.0002  0.0004 -0.0008 -0.0029  0.0018
                                            0.0005
                ( 79.93%)  -0.8940* H   4 s( 99.82%)p 0.00(  0.18%)d 0.00(  0.00%)
                                           -0.9981 -0.0447 -0.0037  0.0018 -0.0136
                                            0.0332 -0.0108 -0.0141 -0.0017 -0.0042
                                           -0.0106  0.0070 -0.0003 -0.0013 -0.0019
                                            0.0009  0.0004 -0.0006 -0.0004 -0.0024
                                            0.0001  0.0009  0.0031


 NHO Directionality and "Bond Bending" (deviations from line of nuclear centers)

         [Thresholds for printing:  angular deviation  >  1.0 degree]
                                    hybrid p-character > 25.0%
                                    orbital occupancy  >  0.10e

                                Line of Centers        Hybrid 1              Hybrid 2
                                ---------------  -------------------   ------------------
                NBO               Theta   Phi    Theta   Phi    Dev    Theta   Phi    Dev
 ========================================================================================
     1. BD (   1) O   1 -Cl   3    90.0  103.4    88.9   99.6   4.0      --     --    --
     2. BD (   1) O   1 - H   4    80.0    0.0    78.8    0.4   1.2      --     --    --
    23. LP (   1) O   1             --     --    101.8  217.5   --       --     --    --
    24. LP (   2) O   1             --     --     12.0  195.9   --       --     --    --
    26. LP (   2)Br   2             --     --      9.2  317.8   --       --     --    --
    27. LP (   3)Br   2             --     --     83.9   89.2   --       --     --    --
    28. LP (   4)Br   2             --     --     83.0  180.0   --       --     --    --
    30. LP (   2)Cl   3             --     --    172.1   13.8   --       --     --    --
    31. LP (   3)Cl   3             --     --     97.9  193.6   --       --     --    --
   178. BD*(   1) O   1 - H   4    80.0    0.0    78.8    0.4   1.2      --     --    --


 Natural Bond Orbitals (Summary):

           NBO                  Occupancy  
 -----------------------------------------------
 Molecular unit  1  (HOCl)
     1. BD (   1) O   1 -Cl   3          1.93937
     2. BD (   1) O   1 - H   4          1.96422
     3. CR (   1) O   1                  1.99970
    18. CR (   1)Cl   3                  2.00000
    19. CR (   2)Cl   3                  1.99979
    20. CR (   3)Cl   3                  2.00003
    21. CR (   4)Cl   3                  1.99996
    22. CR (   5)Cl   3                  2.00003
    23. LP (   1) O   1                  1.96642
    24. LP (   2) O   1                  1.95229
    29. LP (   1)Cl   3                  1.97374
    30. LP (   2)Cl   3                  1.95606
    31. LP (   3)Cl   3                  1.95470
    32. RY*(   1) O   1                  0.01974
    33. RY*(   2) O   1                  0.01624
    34. RY*(   3) O   1                  0.00807
    35. RY*(   4) O   1                  0.00706
    36. RY*(   5) O   1                  0.00637
    37. RY*(   6) O   1                  0.00617
    38. RY*(   7) O   1                  0.00574
    39. RY*(   8) O   1                  0.00346
    40. RY*(   9) O   1                  0.00248
    41. RY*(  10) O   1                  0.00081
    42. RY*(  11) O   1                  0.00065
    43. RY*(  12) O   1                  0.00061
    44. RY*(  13) O   1                  0.00059
    45. RY*(  14) O   1                  0.00051
    46. RY*(  15) O   1                  0.00049
    47. RY*(  16) O   1                  0.00049
    48. RY*(  17) O   1                  0.00049
    49. RY*(  18) O   1                  0.00047
    50. RY*(  19) O   1                  0.00045
    51. RY*(  20) O   1                  0.00044
    52. RY*(  21) O   1                  0.00045
    53. RY*(  22) O   1                  0.00042
    54. RY*(  23) O   1                  0.00036
    55. RY*(  24) O   1                  0.00031
    56. RY*(  25) O   1                  0.00025
    57. RY*(  26) O   1                  0.00019
    58. RY*(  27) O   1                  0.00014
    59. RY*(  28) O   1                  0.00013
    60. RY*(  29) O   1                  0.00012
    61. RY*(  30) O   1                  0.00009
    62. RY*(  31) O   1                  0.00009
    63. RY*(  32) O   1                  0.00008
    64. RY*(  33) O   1                  0.00008
    65. RY*(  34) O   1                  0.00008
    66. RY*(  35) O   1                  0.00006
    67. RY*(  36) O   1                  0.00006
    68. RY*(  37) O   1                  0.00006
    69. RY*(  38) O   1                  0.00007
    70. RY*(  39) O   1                  0.00004
    71. RY*(  40) O   1                  0.00002
    72. RY*(  41) O   1                  0.00000
   114. RY*(   1)Cl   3                  0.02267
   115. RY*(   2)Cl   3                  0.01756
   116. RY*(   3)Cl   3                  0.01678
   117. RY*(   4)Cl   3                  0.01664
   118. RY*(   5)Cl   3                  0.01165
   119. RY*(   6)Cl   3                  0.00928
   120. RY*(   7)Cl   3                  0.00907
   121. RY*(   8)Cl   3                  0.00631
   122. RY*(   9)Cl   3                  0.00168
   123. RY*(  10)Cl   3                  0.00127
   124. RY*(  11)Cl   3                  0.00127
   125. RY*(  12)Cl   3                  0.00119
   126. RY*(  13)Cl   3                  0.00120
   127. RY*(  14)Cl   3                  0.00116
   128. RY*(  15)Cl   3                  0.00111
   129. RY*(  16)Cl   3                  0.00095
   130. RY*(  17)Cl   3                  0.00076
   131. RY*(  18)Cl   3                  0.00077
   132. RY*(  19)Cl   3                  0.00064
   133. RY*(  20)Cl   3                  0.00056
   134. RY*(  21)Cl   3                  0.00044
   135. RY*(  22)Cl   3                  0.00036
   136. RY*(  23)Cl   3                  0.00036
   137. RY*(  24)Cl   3                  0.00031
   138. RY*(  25)Cl   3                  0.00018
   139. RY*(  26)Cl   3                  0.00016
   140. RY*(  27)Cl   3                  0.00015
   141. RY*(  28)Cl   3                  0.00013
   142. RY*(  29)Cl   3                  0.00013
   143. RY*(  30)Cl   3                  0.00011
   144. RY*(  31)Cl   3                  0.00011
   145. RY*(  32)Cl   3                  0.00011
   146. RY*(  33)Cl   3                  0.00011
   147. RY*(  34)Cl   3                  0.00009
   148. RY*(  35)Cl   3                  0.00010
   149. RY*(  36)Cl   3                  0.00009
   150. RY*(  37)Cl   3                  0.00007
   151. RY*(  38)Cl   3                  0.00004
   152. RY*(  39)Cl   3                  0.00004
   153. RY*(  40)Cl   3                  0.00002
   154. RY*(  41)Cl   3                  0.00000
   155. RY*(   1) H   4                  0.01061
   156. RY*(   2) H   4                  0.00552
   157. RY*(   3) H   4                  0.00482
   158. RY*(   4) H   4                  0.00374
   159. RY*(   5) H   4                  0.00071
   160. RY*(   6) H   4                  0.00055
   161. RY*(   7) H   4                  0.00046
   162. RY*(   8) H   4                  0.00035
   163. RY*(   9) H   4                  0.00031
   164. RY*(  10) H   4                  0.00026
   165. RY*(  11) H   4                  0.00025
   166. RY*(  12) H   4                  0.00022
   167. RY*(  13) H   4                  0.00018
   168. RY*(  14) H   4                  0.00012
   169. RY*(  15) H   4                  0.00013
   170. RY*(  16) H   4                  0.00010
   171. RY*(  17) H   4                  0.00006
   172. RY*(  18) H   4                  0.00007
   173. RY*(  19) H   4                  0.00005
   174. RY*(  20) H   4                  0.00004
   175. RY*(  21) H   4                  0.00005
   176. RY*(  22) H   4                  0.00004
   177. BD*(   1) O   1 -Cl   3          0.05817
   178. BD*(   1) O   1 - H   4          0.12878
       -------------------------------
              Total Lewis   25.70632  ( 98.3712%)
        Valence non-Lewis    0.18695  (  0.7154%)
        Rydberg non-Lewis    0.23868  (  0.9134%)
       -------------------------------
            Total unit  1   26.13194  (100.0000%)
           Charge unit  1   -0.13194

 Molecular unit  2  (Br)
     4. CR (   1)Br   2                  2.00000
     5. CR (   2)Br   2                  2.00000
     6. CR (   3)Br   2                  1.99984
     7. CR (   4)Br   2                  2.00000
     8. CR (   5)Br   2                  1.99992
     9. CR (   6)Br   2                  2.00000
    10. CR (   7)Br   2                  2.00000
    11. CR (   8)Br   2                  2.00000
    12. CR (   9)Br   2                  2.00000
    13. CR (  10)Br   2                  1.99766
    14. CR (  11)Br   2                  1.99766
    15. CR (  12)Br   2                  1.99769
    16. CR (  13)Br   2                  1.99762
    17. CR (  14)Br   2                  1.99766
    25. LP (   1)Br   2                  1.97811
    26. LP (   2)Br   2                  1.95398
    27. LP (   3)Br   2                  1.95369
    28. LP (   4)Br   2                  1.84271
    73. RY*(   1)Br   2                  0.01876
    74. RY*(   2)Br   2                  0.01869
    75. RY*(   3)Br   2                  0.01862
    76. RY*(   4)Br   2                  0.01861
    77. RY*(   5)Br   2                  0.01780
    78. RY*(   6)Br   2                  0.01118
    79. RY*(   7)Br   2                  0.01111
    80. RY*(   8)Br   2                  0.00908
    81. RY*(   9)Br   2                  0.00223
    82. RY*(  10)Br   2                  0.00179
    83. RY*(  11)Br   2                  0.00178
    84. RY*(  12)Br   2                  0.00175
    85. RY*(  13)Br   2                  0.00174
    86. RY*(  14)Br   2                  0.00175
    87. RY*(  15)Br   2                  0.00175
    88. RY*(  16)Br   2                  0.00174
    89. RY*(  17)Br   2                  0.00174
    90. RY*(  18)Br   2                  0.00175
    91. RY*(  19)Br   2                  0.00140
    92. RY*(  20)Br   2                  0.00137
    93. RY*(  21)Br   2                  0.00117
    94. RY*(  22)Br   2                  0.00079
    95. RY*(  23)Br   2                  0.00079
    96. RY*(  24)Br   2                  0.00072
    97. RY*(  25)Br   2                  0.00038
    98. RY*(  26)Br   2                  0.00028
    99. RY*(  27)Br   2                  0.00025
   100. RY*(  28)Br   2                  0.00025
   101. RY*(  29)Br   2                  0.00025
   102. RY*(  30)Br   2                  0.00025
   103. RY*(  31)Br   2                  0.00025
   104. RY*(  32)Br   2                  0.00024
   105. RY*(  33)Br   2                  0.00022
   106. RY*(  34)Br   2                  0.00022
   107. RY*(  35)Br   2                  0.00018
   108. RY*(  36)Br   2                  0.00015
   109. RY*(  37)Br   2                  0.00015
   110. RY*(  38)Br   2                  0.00011
   111. RY*(  39)Br   2                  0.00007
   112. RY*(  40)Br   2                  0.00007
   113. RY*(  41)Br   2                  0.00004
       -------------------------------
              Total Lewis   35.71655  ( 99.5776%)
        Valence non-Lewis    0.00000  (  0.0000%)
        Rydberg non-Lewis    0.15150  (  0.4224%)
       -------------------------------
            Total unit  2   35.86806  (100.0000%)
           Charge unit  2   -0.86806
 Leave Link  607 at Thu Sep 23 16:33:20 2021, MaxMem= 16106127360 cpu:              80.2 elap:               2.9
 (Enter /sw/contrib/gaussian/g16/B01/g16/l9999.exe)
 1\1\GINC-N2112\SP\RMP2-FC\Aug-CC-pVTZ\Br1Cl1H1O1(1-)\CGAVINH\23-Sep-20
 21\0\\#p pop=NBO SP NoSymm mp2/aug-cc-pvtz density=current\\title\\-1,
 1\O,0,0.,0.,0.\Br,0,3.07381747,0.,0.\Cl,0,-0.390920758,1.638332522,0.\
 H,0,0.99892005,0.,0.17613656\\Version=ES64L-G16RevB.01\HF=-3107.477621
 2\MP2=-3108.1815278\RMSD=5.101e-09\Dipole=-1.0108236,0.6047489,0.05113
 03\Quadrupole=-17.9697445,8.9082319,9.0615126,0.325253,0.025293,-0.040
 7237\PG=C01 [X(Br1Cl1H1O1)]\\@


 You don't have to suffer to be a poet.
 Adolescence is enough suffering for anyone.
                             -- John Ciardi
 Job cpu time:       0 days  0 hours  6 minutes  7.6 seconds.
 Elapsed time:       0 days  0 hours  0 minutes 20.1 seconds.
 File lengths (MBytes):  RWF=     15 Int=      0 D2E=      0 Chk=      8 Scr=      1
 Normal termination of Gaussian 16 at Thu Sep 23 16:33:20 2021.
