 Entering Gaussian System, Link 0=g16
 Input=brhocl_0_sp.gjf
 Output=brhocl_0_sp.log
 Initial command:
 /sw/contrib/gaussian/g16/B01/g16/l1.exe "/scr/Gau-22194.inp" -scrdir="/scr/"
 Entering Link 1 = /sw/contrib/gaussian/g16/B01/g16/l1.exe PID=     22242.
  
 Copyright (c) 1988-2017, Gaussian, Inc.  All Rights Reserved.
  
 This is part of the Gaussian(R) 16 program.  It is based on
 the Gaussian(R) 09 system (copyright 2009, Gaussian, Inc.),
 the Gaussian(R) 03 system (copyright 2003, Gaussian, Inc.),
 the Gaussian(R) 98 system (copyright 1998, Gaussian, Inc.),
 the Gaussian(R) 94 system (copyright 1995, Gaussian, Inc.),
 the Gaussian 92(TM) system (copyright 1992, Gaussian, Inc.),
 the Gaussian 90(TM) system (copyright 1990, Gaussian, Inc.),
 the Gaussian 88(TM) system (copyright 1988, Gaussian, Inc.),
 the Gaussian 86(TM) system (copyright 1986, Carnegie Mellon
 University), and the Gaussian 82(TM) system (copyright 1983,
 Carnegie Mellon University). Gaussian is a federally registered
 trademark of Gaussian, Inc.
  
 This software contains proprietary and confidential information,
 including trade secrets, belonging to Gaussian, Inc.
  
 This software is provided under written license and may be
 used, copied, transmitted, or stored only in accord with that
 written license.
  
 The following legend is applicable only to US Government
 contracts under FAR:
  
                    RESTRICTED RIGHTS LEGEND
  
 Use, reproduction and disclosure by the US Government is
 subject to restrictions as set forth in subparagraphs (a)
 and (c) of the Commercial Computer Software - Restricted
 Rights clause in FAR 52.227-19.
  
 Gaussian, Inc.
 340 Quinnipiac St., Bldg. 40, Wallingford CT 06492
  
  
 ---------------------------------------------------------------
 Warning -- This program may not be used in any manner that
 competes with the business of Gaussian, Inc. or will provide
 assistance to any competitor of Gaussian, Inc.  The licensee
 of this program is prohibited from giving any competitor of
 Gaussian, Inc. access to this program.  By using this program,
 the user acknowledges that Gaussian, Inc. is engaged in the
 business of creating and licensing software in the field of
 computational chemistry and represents and warrants to the
 licensee that it is not a competitor of Gaussian, Inc. and that
 it will not use this program in any manner prohibited above.
 ---------------------------------------------------------------
  

 Cite this work as:
 Gaussian 16, Revision B.01,
 M. J. Frisch, G. W. Trucks, H. B. Schlegel, G. E. Scuseria, 
 M. A. Robb, J. R. Cheeseman, G. Scalmani, V. Barone, 
 G. A. Petersson, H. Nakatsuji, X. Li, M. Caricato, A. V. Marenich, 
 J. Bloino, B. G. Janesko, R. Gomperts, B. Mennucci, H. P. Hratchian, 
 J. V. Ortiz, A. F. Izmaylov, J. L. Sonnenberg, D. Williams-Young, 
 F. Ding, F. Lipparini, F. Egidi, J. Goings, B. Peng, A. Petrone, 
 T. Henderson, D. Ranasinghe, V. G. Zakrzewski, J. Gao, N. Rega, 
 G. Zheng, W. Liang, M. Hada, M. Ehara, K. Toyota, R. Fukuda, 
 J. Hasegawa, M. Ishida, T. Nakajima, Y. Honda, O. Kitao, H. Nakai, 
 T. Vreven, K. Throssell, J. A. Montgomery, Jr., J. E. Peralta, 
 F. Ogliaro, M. J. Bearpark, J. J. Heyd, E. N. Brothers, K. N. Kudin, 
 V. N. Staroverov, T. A. Keith, R. Kobayashi, J. Normand, 
 K. Raghavachari, A. P. Rendell, J. C. Burant, S. S. Iyengar, 
 J. Tomasi, M. Cossi, J. M. Millam, M. Klene, C. Adamo, R. Cammi, 
 J. W. Ochterski, R. L. Martin, K. Morokuma, O. Farkas, 
 J. B. Foresman, and D. J. Fox, Gaussian, Inc., Wallingford CT, 2016.
 
 ******************************************
 Gaussian 16:  ES64L-G16RevB.01 20-Dec-2017
                23-Sep-2021 
 ******************************************
 %nproc=28
 Will use up to   28 processors via shared memory.
 %mem=120GB
 %chk=/gscratch/ilahie/mccoygrp/coire_hocl/brhocl/brhocl_0_sp.chk
 ----------------------------------------------------
 #p pop=NBO SP NoSymm mp2/aug-cc-pvtz density=current
 ----------------------------------------------------
 1/30=1,38=1,172=1/1;
 2/12=2,15=1,17=6,18=5,40=1/2;
 3/5=16,6=1,7=10,11=9,25=1,30=1,71=1/1,2,3;
 4//1;
 5/5=2,38=5/2;
 8/6=4,10=1/1;
 9/15=1,16=-3/6;
 10/5=1,13=10,31=1/2;
 6/7=2,8=2,9=2,10=2,22=-1,40=1/1,7;
 99/5=1,9=1/99;
 Leave Link    1 at Thu Sep 23 16:32:14 2021, MaxMem= 16106127360 cpu:               3.3 elap:               0.1
 (Enter /sw/contrib/gaussian/g16/B01/g16/l101.exe)
 -----
 title
 -----
 Symbolic Z-matrix:
 Charge = -1 Multiplicity = 1
 O                     0.        0.        0. 
 Br                    3.07382   0.        0. 
 Cl                   -0.39092   1.63833   0. 
 H                     1.01774   0.        0. 
 
 ITRead=  0  0  0  0
 MicOpt= -1 -1 -1 -1
 NAtoms=      4 NQM=        4 NQMF=       0 NMMI=      0 NMMIF=      0
                NMic=       0 NMicF=      0.
                    Isotopes and Nuclear Properties:
 (Nuclear quadrupole moments (NQMom) in fm**2, nuclear magnetic moments (NMagM)
  in nuclear magnetons)

  Atom         1           2           3           4
 IAtWgt=          16          79          35           1
 AtmWgt=  15.9949146  78.9183361  34.9688527   1.0078250
 NucSpn=           0           3           3           1
 AtZEff=  -0.0000000  -0.0000000  -0.0000000  -0.0000000
 NQMom=    0.0000000  31.3000000  -8.1650000   0.0000000
 NMagM=    0.0000000   2.1063990   0.8218740   2.7928460
 AtZNuc=   8.0000000  35.0000000  17.0000000   1.0000000
 Leave Link  101 at Thu Sep 23 16:32:15 2021, MaxMem= 16106127360 cpu:               4.5 elap:               0.2
 (Enter /sw/contrib/gaussian/g16/B01/g16/l202.exe)
                          Input orientation:                          
 ---------------------------------------------------------------------
 Center     Atomic      Atomic             Coordinates (Angstroms)
 Number     Number       Type             X           Y           Z
 ---------------------------------------------------------------------
      1          8           0        0.000000    0.000000    0.000000
      2         35           0        3.073817    0.000000    0.000000
      3         17           0       -0.390921    1.638333    0.000000
      4          1           0        1.017740    0.000000    0.000000
 ---------------------------------------------------------------------
                    Distance matrix (angstroms):
                    1          2          3          4
     1  O    0.000000
     2  Br   3.073817   0.000000
     3  Cl   1.684326   3.832564   0.000000
     4  H    1.017740   2.056077   2.160662   0.000000
 Symmetry turned off by external request.
 Stoichiometry    BrClHO(1-)
 Framework group  CS[SG(BrClHO)]
 Deg. of freedom     5
 Full point group                 CS      NOp   2
 Rotational constants (GHZ):          22.6455558           1.2808286           1.2122632
 Leave Link  202 at Thu Sep 23 16:32:15 2021, MaxMem= 16106127360 cpu:               1.5 elap:               0.1
 (Enter /sw/contrib/gaussian/g16/B01/g16/l301.exe)
 Standard basis: Aug-CC-pVTZ (5D, 7F)
 Ernie: Thresh=  0.10000D-02 Tol=  0.10000D-05 Strict=F.
 Ernie:  48 primitive shells out of 228 were deleted.
   178 basis functions,   430 primitive gaussians,   208 cartesian basis functions
    31 alpha electrons       31 beta electrons
       nuclear repulsion energy       190.4171210616 Hartrees.
 IExCor=    0 DFT=F Ex=HF Corr=None ExCW=0 ScaHFX=  1.000000
 ScaDFX=  1.000000  1.000000  1.000000  1.000000 ScalE2=  1.000000  1.000000
 IRadAn=      5 IRanWt=     -1 IRanGd=            0 ICorTp=0 IEmpDi=  4
 NAtoms=    4 NActive=    4 NUniq=    4 SFac= 1.00D+00 NAtFMM=   60 NAOKFM=F Big=F
 Integral buffers will be    131072 words long.
 Raffenetti 1 integral format.
 Two-electron integral symmetry is turned off.
 Leave Link  301 at Thu Sep 23 16:32:15 2021, MaxMem= 16106127360 cpu:               2.8 elap:               0.2
 (Enter /sw/contrib/gaussian/g16/B01/g16/l302.exe)
 NPDir=0 NMtPBC=     1 NCelOv=     1 NCel=       1 NClECP=     1 NCelD=      1
         NCelK=      1 NCelE2=     1 NClLst=     1 CellRange=     0.0.
 One-electron integrals computed using PRISM.
 NBasis=   178 RedAO= T EigKep=  2.39D-04  NBF=   178
 NBsUse=   178 1.00D-06 EigRej= -1.00D+00 NBFU=   178
 Leave Link  302 at Thu Sep 23 16:32:16 2021, MaxMem= 16106127360 cpu:               9.7 elap:               0.5
 (Enter /sw/contrib/gaussian/g16/B01/g16/l303.exe)
 DipDrv:  MaxL=1.
 Leave Link  303 at Thu Sep 23 16:32:17 2021, MaxMem= 16106127360 cpu:               3.1 elap:               0.2
 (Enter /sw/contrib/gaussian/g16/B01/g16/l401.exe)
 ExpMin= 2.53D-02 ExpMax= 1.06D+07 ExpMxC= 1.21D+04 IAcc=3 IRadAn=         5 AccDes= 0.00D+00
 Harris functional with IExCor=  205 and IRadAn=       5 diagonalized for initial guess.
 HarFok:  IExCor=  205 AccDes= 0.00D+00 IRadAn=         5 IDoV= 1 UseB2=F ITyADJ=14
 ICtDFT=  3500011 ScaDFX=  1.000000  1.000000  1.000000  1.000000
 FoFCou: FMM=F IPFlag=           0 FMFlag=      100000 FMFlg1=           0
         NFxFlg=           0 DoJE=T BraDBF=F KetDBF=T FulRan=T
         wScrn=  0.000000 ICntrl=       500 IOpCl=  0 I1Cent=   200000004 NGrid=           0
         NMat0=    1 NMatS0=      1 NMatT0=    0 NMatD0=    1 NMtDS0=    0 NMtDT0=    0
 Symmetry not used in FoFCou.
 Harris En= -3106.38947074127    
 JPrj=0 DoOrth=F DoCkMO=F.
 Leave Link  401 at Thu Sep 23 16:32:17 2021, MaxMem= 16106127360 cpu:              13.3 elap:               0.6
 (Enter /sw/contrib/gaussian/g16/B01/g16/l502.exe)
 Keep R1 ints in memory in canonical form, NReq=149454866.
 FoFCou: FMM=F IPFlag=           0 FMFlag=           0 FMFlg1=           0
         NFxFlg=           0 DoJE=F BraDBF=F KetDBF=F FulRan=T
         wScrn=  0.000000 ICntrl=       600 IOpCl=  0 I1Cent=           0 NGrid=           0
         NMat0=    1 NMatS0=  15931 NMatT0=    0 NMatD0=    1 NMtDS0=    0 NMtDT0=    0
 Symmetry not used in FoFCou.
 Two-electron integral symmetry not used.
 Closed shell SCF:
 Using DIIS extrapolation, IDIIS=  1040.
 NGot= 16106127360 LenX= 15979127348 LenY= 15979083643
 Requested convergence on RMS density matrix=1.00D-08 within 128 cycles.
 Requested convergence on MAX density matrix=1.00D-06.
 Requested convergence on             energy=1.00D-06.
 No special actions if energy rises.

 Cycle   1  Pass 1  IDiag  1:
 E= -3107.31704207052    
 DIIS: error= 6.15D-02 at cycle   1 NSaved=   1.
 NSaved= 1 IEnMin= 1 EnMin= -3107.31704207052     IErMin= 1 ErrMin= 6.15D-02
 ErrMax= 6.15D-02  0.00D+00 EMaxC= 1.00D-01 BMatC= 6.37D-01 BMatP= 6.37D-01
 IDIUse=3 WtCom= 3.85D-01 WtEn= 6.15D-01
 Coeff-Com:  0.100D+01
 Coeff-En:   0.100D+01
 Coeff:      0.100D+01
 Gap=     0.558 Goal=   None    Shift=    0.000
 GapD=    0.558 DampG=2.000 DampE=0.500 DampFc=1.0000 IDamp=-1.
 RMSDP=3.08D-03 MaxDP=1.01D-01              OVMax= 1.16D-01

 Cycle   2  Pass 1  IDiag  1:
 E= -3107.45124811348     Delta-E=       -0.134206042963 Rises=F Damp=F
 DIIS: error= 1.72D-02 at cycle   2 NSaved=   2.
 NSaved= 2 IEnMin= 2 EnMin= -3107.45124811348     IErMin= 2 ErrMin= 1.72D-02
 ErrMax= 1.72D-02  0.00D+00 EMaxC= 1.00D-01 BMatC= 4.19D-02 BMatP= 6.37D-01
 IDIUse=3 WtCom= 8.28D-01 WtEn= 1.72D-01
 Coeff-Com:  0.132D+00 0.868D+00
 Coeff-En:   0.000D+00 0.100D+01
 Coeff:      0.110D+00 0.890D+00
 Gap=     0.335 Goal=   None    Shift=    0.000
 RMSDP=1.13D-03 MaxDP=3.78D-02 DE=-1.34D-01 OVMax= 7.18D-02

 Cycle   3  Pass 1  IDiag  1:
 E= -3107.46888715535     Delta-E=       -0.017639041872 Rises=F Damp=F
 DIIS: error= 8.83D-03 at cycle   3 NSaved=   3.
 NSaved= 3 IEnMin= 3 EnMin= -3107.46888715535     IErMin= 3 ErrMin= 8.83D-03
 ErrMax= 8.83D-03  0.00D+00 EMaxC= 1.00D-01 BMatC= 1.36D-02 BMatP= 4.19D-02
 IDIUse=3 WtCom= 9.12D-01 WtEn= 8.83D-02
 Coeff-Com:  0.688D-02 0.360D+00 0.633D+00
 Coeff-En:   0.000D+00 0.183D+00 0.817D+00
 Coeff:      0.627D-02 0.345D+00 0.649D+00
 Gap=     0.333 Goal=   None    Shift=    0.000
 RMSDP=3.46D-04 MaxDP=1.34D-02 DE=-1.76D-02 OVMax= 3.52D-02

 Cycle   4  Pass 1  IDiag  1:
 E= -3107.47819132295     Delta-E=       -0.009304167597 Rises=F Damp=F
 DIIS: error= 1.40D-03 at cycle   4 NSaved=   4.
 NSaved= 4 IEnMin= 4 EnMin= -3107.47819132295     IErMin= 4 ErrMin= 1.40D-03
 ErrMax= 1.40D-03  0.00D+00 EMaxC= 1.00D-01 BMatC= 1.71D-04 BMatP= 1.36D-02
 IDIUse=3 WtCom= 9.86D-01 WtEn= 1.40D-02
 Coeff-Com: -0.513D-02-0.282D-01 0.495D-01 0.984D+00
 Coeff-En:   0.000D+00 0.000D+00 0.000D+00 0.100D+01
 Coeff:     -0.506D-02-0.278D-01 0.489D-01 0.984D+00
 Gap=     0.332 Goal=   None    Shift=    0.000
 RMSDP=6.04D-05 MaxDP=1.38D-03 DE=-9.30D-03 OVMax= 3.50D-03

 Cycle   5  Pass 1  IDiag  1:
 E= -3107.47838829554     Delta-E=       -0.000196972591 Rises=F Damp=F
 DIIS: error= 2.16D-04 at cycle   5 NSaved=   5.
 NSaved= 5 IEnMin= 5 EnMin= -3107.47838829554     IErMin= 5 ErrMin= 2.16D-04
 ErrMax= 2.16D-04  0.00D+00 EMaxC= 1.00D-01 BMatC= 1.20D-05 BMatP= 1.71D-04
 IDIUse=3 WtCom= 9.98D-01 WtEn= 2.16D-03
 Coeff-Com:  0.812D-03-0.175D-01-0.397D-01-0.169D+00 0.123D+01
 Coeff-En:   0.000D+00 0.000D+00 0.000D+00 0.000D+00 0.100D+01
 Coeff:      0.811D-03-0.175D-01-0.397D-01-0.169D+00 0.122D+01
 Gap=     0.333 Goal=   None    Shift=    0.000
 RMSDP=3.03D-05 MaxDP=1.04D-03 DE=-1.97D-04 OVMax= 2.87D-03

 Cycle   6  Pass 1  IDiag  1:
 E= -3107.47842167733     Delta-E=       -0.000033381789 Rises=F Damp=F
 DIIS: error= 1.21D-04 at cycle   6 NSaved=   6.
 NSaved= 6 IEnMin= 6 EnMin= -3107.47842167733     IErMin= 6 ErrMin= 1.21D-04
 ErrMax= 1.21D-04  0.00D+00 EMaxC= 1.00D-01 BMatC= 1.69D-06 BMatP= 1.20D-05
 IDIUse=3 WtCom= 9.99D-01 WtEn= 1.21D-03
 Coeff-Com:  0.466D-03 0.413D-02-0.147D-02-0.123D+00-0.539D-01 0.117D+01
 Coeff-En:   0.000D+00 0.000D+00 0.000D+00 0.000D+00 0.000D+00 0.100D+01
 Coeff:      0.465D-03 0.412D-02-0.147D-02-0.123D+00-0.538D-01 0.117D+01
 Gap=     0.333 Goal=   None    Shift=    0.000
 RMSDP=1.29D-05 MaxDP=5.29D-04 DE=-3.34D-05 OVMax= 1.43D-03

 Cycle   7  Pass 1  IDiag  1:
 E= -3107.47842736637     Delta-E=       -0.000005689039 Rises=F Damp=F
 DIIS: error= 4.52D-05 at cycle   7 NSaved=   7.
 NSaved= 7 IEnMin= 7 EnMin= -3107.47842736637     IErMin= 7 ErrMin= 4.52D-05
 ErrMax= 4.52D-05  0.00D+00 EMaxC= 1.00D-01 BMatC= 1.78D-07 BMatP= 1.69D-06
 IDIUse=1 WtCom= 1.00D+00 WtEn= 0.00D+00
 Coeff-Com: -0.227D-03 0.864D-03 0.659D-02 0.546D-01-0.154D+00-0.275D+00
 Coeff-Com:  0.137D+01
 Coeff:     -0.227D-03 0.864D-03 0.659D-02 0.546D-01-0.154D+00-0.275D+00
 Coeff:      0.137D+01
 Gap=     0.333 Goal=   None    Shift=    0.000
 RMSDP=5.24D-06 MaxDP=1.97D-04 DE=-5.69D-06 OVMax= 5.56D-04

 Cycle   8  Pass 1  IDiag  1:
 E= -3107.47842805384     Delta-E=       -0.000000687467 Rises=F Damp=F
 DIIS: error= 8.42D-06 at cycle   8 NSaved=   8.
 NSaved= 8 IEnMin= 8 EnMin= -3107.47842805384     IErMin= 8 ErrMin= 8.42D-06
 ErrMax= 8.42D-06  0.00D+00 EMaxC= 1.00D-01 BMatC= 8.67D-09 BMatP= 1.78D-07
 IDIUse=1 WtCom= 1.00D+00 WtEn= 0.00D+00
 Coeff-Com:  0.148D-04-0.465D-03-0.109D-02-0.451D-02 0.279D-01 0.133D-01
 Coeff-Com: -0.317D+00 0.128D+01
 Coeff:      0.148D-04-0.465D-03-0.109D-02-0.451D-02 0.279D-01 0.133D-01
 Coeff:     -0.317D+00 0.128D+01
 Gap=     0.333 Goal=   None    Shift=    0.000
 RMSDP=1.18D-06 MaxDP=2.90D-05 DE=-6.87D-07 OVMax= 1.28D-04

 Cycle   9  Pass 1  IDiag  1:
 E= -3107.47842808856     Delta-E=       -0.000000034719 Rises=F Damp=F
 DIIS: error= 3.52D-06 at cycle   9 NSaved=   9.
 NSaved= 9 IEnMin= 9 EnMin= -3107.47842808856     IErMin= 9 ErrMin= 3.52D-06
 ErrMax= 3.52D-06  0.00D+00 EMaxC= 1.00D-01 BMatC= 1.14D-09 BMatP= 8.67D-09
 IDIUse=1 WtCom= 1.00D+00 WtEn= 0.00D+00
 Coeff-Com:  0.126D-04-0.662D-04-0.333D-03-0.244D-02 0.715D-02 0.149D-01
 Coeff-Com: -0.541D-01-0.177D+00 0.121D+01
 Coeff:      0.126D-04-0.662D-04-0.333D-03-0.244D-02 0.715D-02 0.149D-01
 Coeff:     -0.541D-01-0.177D+00 0.121D+01
 Gap=     0.333 Goal=   None    Shift=    0.000
 RMSDP=4.31D-07 MaxDP=9.39D-06 DE=-3.47D-08 OVMax= 5.27D-05

 Cycle  10  Pass 1  IDiag  1:
 E= -3107.47842809357     Delta-E=       -0.000000005019 Rises=F Damp=F
 DIIS: error= 1.80D-06 at cycle  10 NSaved=  10.
 NSaved=10 IEnMin=10 EnMin= -3107.47842809357     IErMin=10 ErrMin= 1.80D-06
 ErrMax= 1.80D-06  0.00D+00 EMaxC= 1.00D-01 BMatC= 2.58D-10 BMatP= 1.14D-09
 IDIUse=1 WtCom= 1.00D+00 WtEn= 0.00D+00
 Coeff-Com: -0.335D-05 0.139D-03 0.248D-03 0.364D-03-0.601D-02 0.153D-02
 Coeff-Com:  0.588D-01-0.255D+00-0.826D-01 0.128D+01
 Coeff:     -0.335D-05 0.139D-03 0.248D-03 0.364D-03-0.601D-02 0.153D-02
 Coeff:      0.588D-01-0.255D+00-0.826D-01 0.128D+01
 Gap=     0.333 Goal=   None    Shift=    0.000
 RMSDP=2.65D-07 MaxDP=6.48D-06 DE=-5.02D-09 OVMax= 3.19D-05

 Cycle  11  Pass 1  IDiag  1:
 E= -3107.47842809484     Delta-E=       -0.000000001265 Rises=F Damp=F
 DIIS: error= 5.79D-07 at cycle  11 NSaved=  11.
 NSaved=11 IEnMin=11 EnMin= -3107.47842809484     IErMin=11 ErrMin= 5.79D-07
 ErrMax= 5.79D-07  0.00D+00 EMaxC= 1.00D-01 BMatC= 2.52D-11 BMatP= 2.58D-10
 IDIUse=1 WtCom= 1.00D+00 WtEn= 0.00D+00
 Coeff-Com: -0.161D-05-0.201D-04 0.148D-04 0.627D-03-0.693D-03-0.350D-02
 Coeff-Com:  0.424D-02 0.533D-01-0.150D+00-0.203D+00 0.130D+01
 Coeff:     -0.161D-05-0.201D-04 0.148D-04 0.627D-03-0.693D-03-0.350D-02
 Coeff:      0.424D-02 0.533D-01-0.150D+00-0.203D+00 0.130D+01
 Gap=     0.333 Goal=   None    Shift=    0.000
 RMSDP=8.79D-08 MaxDP=2.36D-06 DE=-1.26D-09 OVMax= 1.04D-05

 Cycle  12  Pass 1  IDiag  1:
 E= -3107.47842809496     Delta-E=       -0.000000000123 Rises=F Damp=F
 DIIS: error= 1.29D-07 at cycle  12 NSaved=  12.
 NSaved=12 IEnMin=12 EnMin= -3107.47842809496     IErMin=12 ErrMin= 1.29D-07
 ErrMax= 1.29D-07  0.00D+00 EMaxC= 1.00D-01 BMatC= 1.66D-12 BMatP= 2.52D-11
 IDIUse=1 WtCom= 1.00D+00 WtEn= 0.00D+00
 Coeff-Com:  0.113D-06-0.116D-04-0.219D-04-0.258D-04 0.531D-03-0.928D-04
 Coeff-Com: -0.590D-02 0.270D-01 0.397D-02-0.143D+00 0.116D+00 0.100D+01
 Coeff:      0.113D-06-0.116D-04-0.219D-04-0.258D-04 0.531D-03-0.928D-04
 Coeff:     -0.590D-02 0.270D-01 0.397D-02-0.143D+00 0.116D+00 0.100D+01
 Gap=     0.333 Goal=   None    Shift=    0.000
 RMSDP=1.60D-08 MaxDP=3.95D-07 DE=-1.23D-10 OVMax= 1.62D-06

 Cycle  13  Pass 1  IDiag  1:
 E= -3107.47842809496     Delta-E=        0.000000000007 Rises=F Damp=F
 DIIS: error= 2.37D-08 at cycle  13 NSaved=  13.
 NSaved=13 IEnMin=12 EnMin= -3107.47842809496     IErMin=13 ErrMin= 2.37D-08
 ErrMax= 2.37D-08  0.00D+00 EMaxC= 1.00D-01 BMatC= 9.44D-14 BMatP= 1.66D-12
 IDIUse=1 WtCom= 1.00D+00 WtEn= 0.00D+00
 Coeff-Com:  0.819D-07 0.258D-05 0.223D-05-0.267D-04-0.410D-04 0.138D-03
 Coeff-Com:  0.899D-03-0.789D-02 0.912D-02 0.362D-01-0.110D+00-0.142D+00
 Coeff-Com:  0.121D+01
 Coeff:      0.819D-07 0.258D-05 0.223D-05-0.267D-04-0.410D-04 0.138D-03
 Coeff:      0.899D-03-0.789D-02 0.912D-02 0.362D-01-0.110D+00-0.142D+00
 Coeff:      0.121D+01
 Gap=     0.333 Goal=   None    Shift=    0.000
 RMSDP=4.84D-09 MaxDP=1.28D-07 DE= 6.82D-12 OVMax= 3.90D-07

 SCF Done:  E(RHF) =  -3107.47842809     A.U. after   13 cycles
            NFock= 13  Conv=0.48D-08     -V/T= 2.0000
 KE= 3.107330301832D+03 PE=-7.823358899010D+03 EE= 1.418133048022D+03
 Leave Link  502 at Thu Sep 23 16:32:22 2021, MaxMem= 16106127360 cpu:              41.4 elap:               4.3
 (Enter /sw/contrib/gaussian/g16/B01/g16/l801.exe)
 ExpMin= 2.53D-02 ExpMax= 1.06D+07 ExpMxC= 1.21D+04 IAcc=3 IRadAn=         5 AccDes= 0.00D+00
 HarFok:  IExCor=  205 AccDes= 0.00D+00 IRadAn=         5 IDoV=-2 UseB2=F ITyADJ=14
 ICtDFT= 12500011 ScaDFX=  1.000000  1.000000  1.000000  1.000000
 Largest valence mixing into a core orbital is  4.47D-04
 Largest core mixing into a valence orbital is  1.58D-04
 Range of M.O.s used for correlation:    16   178
 NBasis=   178 NAE=    31 NBE=    31 NFC=    15 NFV=     0
 NROrb=    163 NOA=    16 NOB=    16 NVA=   147 NVB=   147

 **** Warning!!: The largest alpha MO coefficient is  0.20106014D+02

 Leave Link  801 at Thu Sep 23 16:32:22 2021, MaxMem= 16106127360 cpu:               8.8 elap:               0.4
 (Enter /sw/contrib/gaussian/g16/B01/g16/l906.exe)
 Frozen-core derivative calculation, NFC=  15 NFV=   0.
 FulOut=F Deriv=T AODrv=F NAtomX=     4
   MMem=         124  MDisk=          16 MDiskD=          16
  W3Min=     1147744 MinDsk=     1765480 NBas6D=         208
 NBas2D=       22240    NTT=       21736    LW2=     9911920
    MDV= 16105652711 MDiskM=      387107 NBas2p=       22041
 Fully in-core method, ICMem=   527338992.
 IMap=   1   2   3   4   5   6   7   8   9  10  11  12  13  14  15  16  17  18  19  20
 IMap=  21  22  23  24  25  26  27  28  29  30  31
 JobTyp=1 Pass  1 fully in-core, NPsUse= 28.
 Compute canonical integrals.
 FoFCou: FMM=F IPFlag=           0 FMFlag=           0 FMFlg1=           0
         NFxFlg=           0 DoJE=F BraDBF=F KetDBF=F FulRan=T
         wScrn=  0.000000 ICntrl=       600 IOpCl=  1 I1Cent=           0 NGrid=           0
         NMat0=    1 NMatS0=  22240 NMatT0=    0 NMatD0=    1 NMtDS0=    0 NMtDT0=    0
 Symmetry not used in FoFCou.
 Spin components of T(2) and E(2):
     alpha-alpha T2 =       0.3036508711D-01 E2=     -0.9427691420D-01
     alpha-beta  T2 =       0.1615404985D+00 E2=     -0.5157844546D+00
     beta-beta   T2 =       0.3036508711D-01 E2=     -0.9427691420D-01
 The integrals were generated   1 times.
 ANorm=    0.1105563509D+01
 E2 =    -0.7043382830D+00 EUMP2 =    -0.31081827663780D+04
 Leave Link  906 at Thu Sep 23 16:32:29 2021, MaxMem= 16106127360 cpu:             176.2 elap:               6.3
 (Enter /sw/contrib/gaussian/g16/B01/g16/l1002.exe)
 Minotr:  Closed shell wavefunction.
          Computing MP2/KS-MP2 derivatives.
          Using Z-Vector for PSCF gradient.
          Skipping F1 and S1 gradient terms here.
          Frozen-core window.
          Direct CPHF calculation.
          Differentiating once with respect to electric field.
                with respect to dipole field.
          Electric field/nuclear overlap derivatives assumed to be zero.
          Requested convergence is 1.0D-10 RMS, and 1.0D-09 maximum.
          NewPWx=F KeepS1=T KeepF1=T KeepIn=T MapXYZ=F SortEE=F KeepMc=T.
 Keep R1 ints in memory in canonical form, NReq=149459410.
 FoFCou: FMM=F IPFlag=           0 FMFlag=           0 FMFlg1=           0
         NFxFlg=           0 DoJE=F BraDBF=F KetDBF=F FulRan=T
         wScrn=  0.000000 ICntrl=       600 IOpCl=  0 I1Cent=           0 NGrid=           0
         NMat0=    1 NMatS0=  15931 NMatT0=    0 NMatD0=    1 NMtDS0=    0 NMtDT0=    0
 Symmetry not used in FoFCou.
 Two-electron integral symmetry not used.
          MDV=   16106127360 using IRadAn=       5.
          Solving linear equations separately, MaxMat=       0.
          There are     1 degrees of freedom in the 1st order CPHF.  IDoFFX=0 NUNeed=     1.
 LinEq1:  Iter=  0 NonCon=     1 RMS=2.65D-03 Max=4.58D-02 NDo=     1
 AX will form     1 AO Fock derivatives at one time.
 LinEq1:  Iter=  1 NonCon=     1 RMS=4.17D-04 Max=5.02D-03 NDo=     1
 LinEq1:  Iter=  2 NonCon=     1 RMS=1.96D-04 Max=4.07D-03 NDo=     1
 LinEq1:  Iter=  3 NonCon=     1 RMS=6.38D-05 Max=1.05D-03 NDo=     1
 LinEq1:  Iter=  4 NonCon=     1 RMS=2.71D-05 Max=9.12D-04 NDo=     1
 LinEq1:  Iter=  5 NonCon=     1 RMS=9.74D-06 Max=1.61D-04 NDo=     1
 LinEq1:  Iter=  6 NonCon=     1 RMS=2.03D-06 Max=2.43D-05 NDo=     1
 LinEq1:  Iter=  7 NonCon=     1 RMS=4.95D-07 Max=8.66D-06 NDo=     1
 LinEq1:  Iter=  8 NonCon=     1 RMS=1.38D-07 Max=2.20D-06 NDo=     1
 LinEq1:  Iter=  9 NonCon=     1 RMS=3.35D-08 Max=8.28D-07 NDo=     1
 LinEq1:  Iter= 10 NonCon=     1 RMS=9.51D-09 Max=2.46D-07 NDo=     1
 LinEq1:  Iter= 11 NonCon=     1 RMS=2.37D-09 Max=4.00D-08 NDo=     1
 LinEq1:  Iter= 12 NonCon=     1 RMS=4.55D-10 Max=6.75D-09 NDo=     1
 LinEq1:  Iter= 13 NonCon=     1 RMS=1.27D-10 Max=1.73D-09 NDo=     1
 LinEq1:  Iter= 14 NonCon=     0 RMS=2.77D-11 Max=4.07D-10 NDo=     1
 Linear equations converged to 1.000D-10 1.000D-09 after    14 iterations.
 End of Minotr F.D. properties file   721 does not exist.
 End of Minotr F.D. properties file   722 does not exist.
 End of Minotr F.D. properties file   788 does not exist.
 Leave Link 1002 at Thu Sep 23 16:32:34 2021, MaxMem= 16106127360 cpu:              48.7 elap:               4.9
 (Enter /sw/contrib/gaussian/g16/B01/g16/l601.exe)
 Copying SCF densities to generalized density rwf, IOpCl= 0 IROHF=0.

 **********************************************************************

            Population analysis using the MP2 Density.

 **********************************************************************

 Alpha  occ. eigenvalues -- -489.75651-104.73061 -64.89689 -58.25139 -58.25134
 Alpha  occ. eigenvalues --  -58.25134 -20.46061 -10.45011  -9.56944  -7.91727
 Alpha  occ. eigenvalues --   -7.91464  -7.91454  -7.17727  -7.17668  -7.17667
 Alpha  occ. eigenvalues --   -2.91898  -2.91870  -2.91868  -2.91804  -2.91804
 Alpha  occ. eigenvalues --   -1.22717  -0.89453  -0.73230  -0.53756  -0.44120
 Alpha  occ. eigenvalues --   -0.43303  -0.30733  -0.27986  -0.18681  -0.17688
 Alpha  occ. eigenvalues --   -0.17683
 Alpha virt. eigenvalues --    0.15620   0.18126   0.21571   0.22800   0.24121
 Alpha virt. eigenvalues --    0.24627   0.25007   0.28728   0.30364   0.31823
 Alpha virt. eigenvalues --    0.32360   0.32491   0.35887   0.43610   0.43706
 Alpha virt. eigenvalues --    0.46922   0.48193   0.48577   0.50234   0.54236
 Alpha virt. eigenvalues --    0.54273   0.57090   0.59365   0.60132   0.60396
 Alpha virt. eigenvalues --    0.60909   0.65638   0.69974   0.73750   0.74481
 Alpha virt. eigenvalues --    0.75324   0.77670   0.78764   0.84688   0.89038
 Alpha virt. eigenvalues --    0.89654   0.92001   0.94390   0.99835   0.99886
 Alpha virt. eigenvalues --    1.00345   1.00865   1.01870   1.03254   1.06846
 Alpha virt. eigenvalues --    1.08159   1.09378   1.10321   1.11069   1.13329
 Alpha virt. eigenvalues --    1.15320   1.17672   1.18180   1.20870   1.22165
 Alpha virt. eigenvalues --    1.24113   1.28395   1.29499   1.33324   1.33525
 Alpha virt. eigenvalues --    1.37458   1.38885   1.47604   1.50602   1.51939
 Alpha virt. eigenvalues --    1.56912   1.59068   1.63298   1.66703   1.70118
 Alpha virt. eigenvalues --    1.70630   1.77177   1.79085   1.79935   1.89903
 Alpha virt. eigenvalues --    1.97532   2.15202   2.37834   2.41049   2.41726
 Alpha virt. eigenvalues --    2.42247   2.46604   2.50275   2.50599   2.52789
 Alpha virt. eigenvalues --    2.53517   2.54931   2.55085   2.55327   2.56244
 Alpha virt. eigenvalues --    2.58234   2.60219   2.63161   2.64742   2.65854
 Alpha virt. eigenvalues --    2.68018   2.68115   2.70053   2.72016   2.72612
 Alpha virt. eigenvalues --    2.73976   2.75706   2.78309   2.80846   2.81045
 Alpha virt. eigenvalues --    2.88347   3.03278   3.07443   3.09697   3.17740
 Alpha virt. eigenvalues --    3.20098   3.21751   3.25689   3.29138   3.31213
 Alpha virt. eigenvalues --    3.33996   3.53144   3.54848   3.57377   3.93455
 Alpha virt. eigenvalues --    4.18736   4.30652   4.44962   4.53643   4.58991
 Alpha virt. eigenvalues --    4.77660   4.97065   5.03347   5.25296   5.33135
 Alpha virt. eigenvalues --    5.37033   5.65902   6.43311   6.59525   6.84916
 Alpha virt. eigenvalues --    6.90278   6.91676   6.99928   7.27097   7.33089
 Alpha virt. eigenvalues --    7.34682   7.45082   7.55659   7.74303   7.81847
 Alpha virt. eigenvalues --    8.35131  14.56532
          Condensed to atoms (all electrons):
               1          2          3          4
     1  O    8.670643  -0.093929  -0.115202   0.032717
     2  Br  -0.093929  35.892741   0.004300   0.042846
     3  Cl  -0.115202   0.004300  17.069668  -0.006867
     4  H    0.032717   0.042846  -0.006867   0.639219
 Mulliken charges:
               1
     1  O   -0.494229
     2  Br  -0.845958
     3  Cl   0.048102
     4  H    0.292085
 Sum of Mulliken charges =  -1.00000
 Mulliken charges with hydrogens summed into heavy atoms:
               1
     1  O   -0.202143
     2  Br  -0.845958
     3  Cl   0.048102
 Electronic spatial extent (au):  <R**2>=           1479.9349
 Charge=             -1.0000 electrons
 Dipole moment (field-independent basis, Debye):
    X=            -10.4777    Y=             -0.6715    Z=             -0.0000  Tot=             10.4992
 Quadrupole moment (field-independent basis, Debye-Ang):
   XX=            -79.0411   YY=            -43.3430   ZZ=            -43.1709
   XY=              0.4395   XZ=             -0.0000   YZ=              0.0000
 Traceless Quadrupole moment (field-independent basis, Debye-Ang):
   XX=            -23.8561   YY=             11.8420   ZZ=             12.0141
   XY=              0.4395   XZ=             -0.0000   YZ=              0.0000
 Octapole moment (field-independent basis, Debye-Ang**2):
  XXX=           -308.1787  YYY=            -63.2046  ZZZ=             -0.0000  XYY=            -66.2246
  XXY=            -21.7450  XXZ=             -0.0000  XZZ=            -65.7607  YZZ=            -22.3202
  YYZ=              0.0000  XYZ=              0.0000
 Hexadecapole moment (field-independent basis, Debye-Ang**3):
 XXXX=          -1706.4822 YYYY=           -258.9058 ZZZZ=            -61.8399 XXXY=             28.2426
 XXXZ=              0.0000 YYYX=             22.0176 YYYZ=              0.0000 ZZZX=              0.0000
 ZZZY=             -0.0000 XXYY=           -275.7522 XXZZ=           -240.4297 YYZZ=            -57.9192
 XXYZ=             -0.0000 YYXZ=              0.0000 ZZXY=              9.2678
 N-N= 1.904171210616D+02 E-N=-7.821930283020D+03  KE= 3.107357094052D+03
 No NMR shielding tensors so no spin-rotation constants.
 Leave Link  601 at Thu Sep 23 16:32:35 2021, MaxMem= 16106127360 cpu:               5.7 elap:               0.3
 (Enter /sw/contrib/gaussian/g16/B01/g16/l607.exe)
 ******************************Gaussian NBO Version 3.1******************************
             N A T U R A L   A T O M I C   O R B I T A L   A N D
          N A T U R A L   B O N D   O R B I T A L   A N A L Y S I S
 ******************************Gaussian NBO Version 3.1******************************
       /RESON  / : Allow strongly delocalized NBO set

 Analyzing the MP2 density

 Job title: title                                                           

 Storage needed:     95974 in NPA,    127345 in NBO (********** available)
 GSVD:  LWork=        4314 too small for GESVD, short by       49391 words or       49391 for optimal perf.


 NATURAL POPULATIONS:  Natural atomic orbital occupancies 
                                                          
   NAO  Atom  No  lang   Type(AO)    Occupancy
 --------------------------------------------
     1    O    1  S      Cor( 1S)     1.99969
     2    O    1  S      Val( 2S)     1.79073
     3    O    1  S      Ryd( 3S)     0.00986
     4    O    1  S      Ryd( 4S)     0.00113
     5    O    1  S      Ryd( 5S)     0.00019
     6    O    1  px     Val( 2p)     1.65570
     7    O    1  px     Ryd( 3p)     0.01124
     8    O    1  px     Ryd( 4p)     0.00077
     9    O    1  px     Ryd( 5p)     0.00047
    10    O    1  py     Val( 2p)     1.26414
    11    O    1  py     Ryd( 3p)     0.00782
    12    O    1  py     Ryd( 4p)     0.00063
    13    O    1  py     Ryd( 5p)     0.00040
    14    O    1  pz     Val( 2p)     1.94758
    15    O    1  pz     Ryd( 3p)     0.02025
    16    O    1  pz     Ryd( 4p)     0.00067
    17    O    1  pz     Ryd( 5p)     0.00015
    18    O    1  dxy    Ryd( 3d)     0.00943
    19    O    1  dxy    Ryd( 4d)     0.00046
    20    O    1  dxy    Ryd( 5d)     0.00017
    21    O    1  dxz    Ryd( 3d)     0.00704
    22    O    1  dxz    Ryd( 4d)     0.00061
    23    O    1  dxz    Ryd( 5d)     0.00034
    24    O    1  dyz    Ryd( 3d)     0.00926
    25    O    1  dyz    Ryd( 4d)     0.00057
    26    O    1  dyz    Ryd( 5d)     0.00012
    27    O    1  dx2y2  Ryd( 3d)     0.01282
    28    O    1  dx2y2  Ryd( 4d)     0.00037
    29    O    1  dx2y2  Ryd( 5d)     0.00014
    30    O    1  dz2    Ryd( 3d)     0.00972
    31    O    1  dz2    Ryd( 4d)     0.00057
    32    O    1  dz2    Ryd( 5d)     0.00016
    33    O    1  f(0)   Ryd( 4f)     0.00071
    34    O    1  f(0)   Ryd( 5f)     0.00010
    35    O    1  f(C1)  Ryd( 4f)     0.00058
    36    O    1  f(C1)  Ryd( 5f)     0.00011
    37    O    1  f(S1)  Ryd( 4f)     0.00067
    38    O    1  f(S1)  Ryd( 5f)     0.00012
    39    O    1  f(C2)  Ryd( 4f)     0.00058
    40    O    1  f(C2)  Ryd( 5f)     0.00013
    41    O    1  f(S2)  Ryd( 4f)     0.00055
    42    O    1  f(S2)  Ryd( 5f)     0.00011
    43    O    1  f(C3)  Ryd( 4f)     0.00056
    44    O    1  f(C3)  Ryd( 5f)     0.00015
    45    O    1  f(S3)  Ryd( 4f)     0.00057
    46    O    1  f(S3)  Ryd( 5f)     0.00012

    47   Br    2  S      Cor( 1S)     2.00000
    48   Br    2  S      Cor( 2S)     2.00000
    49   Br    2  S      Cor( 3S)     1.99982
    50   Br    2  S      Val( 4S)     1.96486
    51   Br    2  S      Ryd( 5S)     0.00179
    52   Br    2  S      Ryd( 6S)     0.00046
    53   Br    2  S      Ryd( 7S)     0.00015
    54   Br    2  px     Cor( 2p)     2.00000
    55   Br    2  px     Cor( 3p)     1.99991
    56   Br    2  px     Val( 4p)     1.84601
    57   Br    2  px     Ryd( 5p)     0.00936
    58   Br    2  px     Ryd( 6p)     0.00075
    59   Br    2  px     Ryd( 7p)     0.00012
    60   Br    2  py     Cor( 3p)     2.00000
    61   Br    2  py     Cor( 2p)     2.00000
    62   Br    2  py     Val( 4p)     1.95343
    63   Br    2  py     Ryd( 5p)     0.01107
    64   Br    2  py     Ryd( 6p)     0.00081
    65   Br    2  py     Ryd( 7p)     0.00008
    66   Br    2  pz     Cor( 3p)     2.00000
    67   Br    2  pz     Cor( 2p)     2.00000
    68   Br    2  pz     Val( 4p)     1.95381
    69   Br    2  pz     Ryd( 5p)     0.01114
    70   Br    2  pz     Ryd( 6p)     0.00081
    71   Br    2  pz     Ryd( 7p)     0.00009
    72   Br    2  dxy    Cor( 3d)     1.99766
    73   Br    2  dxy    Ryd( 4d)     0.01883
    74   Br    2  dxy    Ryd( 5d)     0.00137
    75   Br    2  dxy    Ryd( 6d)     0.00023
    76   Br    2  dxz    Cor( 3d)     1.99766
    77   Br    2  dxz    Ryd( 4d)     0.01889
    78   Br    2  dxz    Ryd( 5d)     0.00142
    79   Br    2  dxz    Ryd( 6d)     0.00021
    80   Br    2  dyz    Cor( 3d)     1.99769
    81   Br    2  dyz    Ryd( 4d)     0.01860
    82   Br    2  dyz    Ryd( 5d)     0.00175
    83   Br    2  dyz    Ryd( 6d)     0.00025
    84   Br    2  dx2y2  Cor( 3d)     1.99761
    85   Br    2  dx2y2  Ryd( 4d)     0.01844
    86   Br    2  dx2y2  Ryd( 5d)     0.00161
    87   Br    2  dx2y2  Ryd( 6d)     0.00022
    88   Br    2  dz2    Cor( 3d)     1.99766
    89   Br    2  dz2    Ryd( 4d)     0.01855
    90   Br    2  dz2    Ryd( 5d)     0.00170
    91   Br    2  dz2    Ryd( 6d)     0.00022
    92   Br    2  f(0)   Ryd( 4f)     0.00173
    93   Br    2  f(0)   Ryd( 5f)     0.00026
    94   Br    2  f(C1)  Ryd( 4f)     0.00176
    95   Br    2  f(C1)  Ryd( 5f)     0.00028
    96   Br    2  f(S1)  Ryd( 4f)     0.00175
    97   Br    2  f(S1)  Ryd( 5f)     0.00024
    98   Br    2  f(C2)  Ryd( 4f)     0.00171
    99   Br    2  f(C2)  Ryd( 5f)     0.00026
   100   Br    2  f(S2)  Ryd( 4f)     0.00176
   101   Br    2  f(S2)  Ryd( 5f)     0.00025
   102   Br    2  f(C3)  Ryd( 4f)     0.00176
   103   Br    2  f(C3)  Ryd( 5f)     0.00028
   104   Br    2  f(S3)  Ryd( 4f)     0.00167
   105   Br    2  f(S3)  Ryd( 5f)     0.00026

   106   Cl    3  S      Cor( 1S)     2.00000
   107   Cl    3  S      Cor( 2S)     1.99978
   108   Cl    3  S      Val( 3S)     1.88147
   109   Cl    3  S      Ryd( 4S)     0.00782
   110   Cl    3  S      Ryd( 5S)     0.00053
   111   Cl    3  S      Ryd( 6S)     0.00017
   112   Cl    3  px     Cor( 2p)     2.00003
   113   Cl    3  px     Val( 3p)     1.89046
   114   Cl    3  px     Ryd( 4p)     0.00947
   115   Cl    3  px     Ryd( 5p)     0.00052
   116   Cl    3  px     Ryd( 6p)     0.00008
   117   Cl    3  py     Cor( 2p)     1.99996
   118   Cl    3  py     Val( 3p)     0.97218
   119   Cl    3  py     Ryd( 4p)     0.00694
   120   Cl    3  py     Ryd( 5p)     0.00052
   121   Cl    3  py     Ryd( 6p)     0.00023
   122   Cl    3  pz     Cor( 2p)     2.00003
   123   Cl    3  pz     Val( 3p)     1.95446
   124   Cl    3  pz     Ryd( 4p)     0.01065
   125   Cl    3  pz     Ryd( 5p)     0.00068
   126   Cl    3  pz     Ryd( 6p)     0.00003
   127   Cl    3  dxy    Ryd( 3d)     0.01730
   128   Cl    3  dxy    Ryd( 4d)     0.00070
   129   Cl    3  dxy    Ryd( 5d)     0.00026
   130   Cl    3  dxz    Ryd( 3d)     0.01718
   131   Cl    3  dxz    Ryd( 4d)     0.00076
   132   Cl    3  dxz    Ryd( 5d)     0.00019
   133   Cl    3  dyz    Ryd( 3d)     0.02112
   134   Cl    3  dyz    Ryd( 4d)     0.00108
   135   Cl    3  dyz    Ryd( 5d)     0.00037
   136   Cl    3  dx2y2  Ryd( 3d)     0.01806
   137   Cl    3  dx2y2  Ryd( 4d)     0.00063
   138   Cl    3  dx2y2  Ryd( 5d)     0.00025
   139   Cl    3  dz2    Ryd( 3d)     0.01753
   140   Cl    3  dz2    Ryd( 4d)     0.00059
   141   Cl    3  dz2    Ryd( 5d)     0.00016
   142   Cl    3  f(0)   Ryd( 4f)     0.00131
   143   Cl    3  f(0)   Ryd( 5f)     0.00014
   144   Cl    3  f(C1)  Ryd( 4f)     0.00128
   145   Cl    3  f(C1)  Ryd( 5f)     0.00013
   146   Cl    3  f(S1)  Ryd( 4f)     0.00144
   147   Cl    3  f(S1)  Ryd( 5f)     0.00014
   148   Cl    3  f(C2)  Ryd( 4f)     0.00131
   149   Cl    3  f(C2)  Ryd( 5f)     0.00013
   150   Cl    3  f(S2)  Ryd( 4f)     0.00124
   151   Cl    3  f(S2)  Ryd( 5f)     0.00014
   152   Cl    3  f(C3)  Ryd( 4f)     0.00140
   153   Cl    3  f(C3)  Ryd( 5f)     0.00013
   154   Cl    3  f(S3)  Ryd( 4f)     0.00143
   155   Cl    3  f(S3)  Ryd( 5f)     0.00014

   156    H    4  S      Val( 1S)     0.50162
   157    H    4  S      Ryd( 2S)     0.00869
   158    H    4  S      Ryd( 3S)     0.00031
   159    H    4  S      Ryd( 4S)     0.00018
   160    H    4  px     Ryd( 2p)     0.00528
   161    H    4  px     Ryd( 3p)     0.00112
   162    H    4  px     Ryd( 4p)     0.00033
   163    H    4  py     Ryd( 2p)     0.00401
   164    H    4  py     Ryd( 3p)     0.00044
   165    H    4  py     Ryd( 4p)     0.00014
   166    H    4  pz     Ryd( 2p)     0.00551
   167    H    4  pz     Ryd( 3p)     0.00037
   168    H    4  pz     Ryd( 4p)     0.00027
   169    H    4  dxy    Ryd( 3d)     0.00028
   170    H    4  dxy    Ryd( 4d)     0.00009
   171    H    4  dxz    Ryd( 3d)     0.00045
   172    H    4  dxz    Ryd( 4d)     0.00012
   173    H    4  dyz    Ryd( 3d)     0.00024
   174    H    4  dyz    Ryd( 4d)     0.00006
   175    H    4  dx2y2  Ryd( 3d)     0.00023
   176    H    4  dx2y2  Ryd( 4d)     0.00014
   177    H    4  dz2    Ryd( 3d)     0.00026
   178    H    4  dz2    Ryd( 4d)     0.00009

 WARNING:  5 low occupancy (<1.9990e) core orbitals found on Br    2


 Summary of Natural Population Analysis:                  
                                                          
                                       Natural Population 
                Natural  -----------------------------------------------
    Atom  No    Charge         Core      Valence    Rydberg      Total
 -----------------------------------------------------------------------
      O    1   -0.76825      1.99969     6.65815    0.11041     8.76825
     Br    2   -0.85902     27.98801     7.71811    0.15290    35.85902
     Cl    3    0.15748      9.99980     6.69856    0.14415    16.84252
      H    4    0.46979      0.00000     0.50162    0.02859     0.53021
 =======================================================================
   * Total *   -1.00000     39.98751    21.57644    0.43606    62.00000

                                 Natural Population      
 --------------------------------------------------------
   Core                      39.98751 ( 99.9688% of  40)
   Valence                   21.57644 ( 98.0747% of  22)
   Natural Minimal Basis     61.56394 ( 99.2967% of  62)
   Natural Rydberg Basis      0.43606 (  0.7033% of  62)
 --------------------------------------------------------

    Atom  No          Natural Electron Configuration
 ----------------------------------------------------------------------------
      O    1      [core]2S( 1.79)2p( 4.87)3S( 0.01)3p( 0.04)3d( 0.05)
     Br    2      [core]4S( 1.96)4p( 5.75)4d( 0.09)5p( 0.03)4f( 0.01)5d( 0.01)
     Cl    3      [core]3S( 1.88)3p( 4.82)4S( 0.01)3d( 0.09)4p( 0.03)4f( 0.01)
      H    4            1S( 0.50)2S( 0.01)2p( 0.01)


 NATURAL BOND ORBITAL ANALYSIS:
 Warning:  a bond orbital has occupanc of -0.00001
 Warning:  a bond orbital has occupanc of -0.00000

                       Occupancies       Lewis Structure    Low   High
           Occ.    -------------------  -----------------   occ   occ
  Cycle   Thresh.   Lewis   Non-Lewis     CR  BD  3C  LP    (L)   (NL)   Dev
 =============================================================================
   1(1)    1.90    61.41393   0.58607     20   2   0   9     1      1    0.17
 Warning:  a bond orbital has occupanc of -0.00001
 Warning:  a bond orbital has occupanc of -0.00000
   2(2)    1.90    61.16234   0.83766     20   2   0   9     1      1    0.54
 Warning:  a bond orbital has occupanc of -0.00001
 Warning:  a bond orbital has occupanc of -0.00000
   3(3)    1.90    61.41393   0.58607     20   2   0   9     1      1    0.17
 Warning:  a bond orbital has occupanc of -0.00001
 Warning:  a bond orbital has occupanc of -0.00000
   4(1)    1.80    61.41393   0.58607     20   2   0   9     0      1    0.17
 Warning:  a bond orbital has occupanc of -0.00001
 Warning:  a bond orbital has occupanc of -0.00000
   5(2)    1.80    61.41393   0.58607     20   2   0   9     0      1    0.17
 Warning:  a bond orbital has occupanc of -0.00001
 Warning:  a bond orbital has occupanc of -0.00000
   6(1)    1.70    61.41393   0.58607     20   2   0   9     0      1    0.17
 Warning:  a bond orbital has occupanc of -0.00001
 Warning:  a bond orbital has occupanc of -0.00000
   7(2)    1.70    61.41393   0.58607     20   2   0   9     0      1    0.17
 Warning:  a bond orbital has occupanc of -0.00001
 Warning:  a bond orbital has occupanc of -0.00000
   8(1)    1.60    61.05115   0.94885     20   1   0  10     0      1    0.54
 Warning:  a bond orbital has occupanc of -0.00001
 Warning:  a bond orbital has occupanc of -0.00000
   9(2)    1.60    61.05115   0.94885     20   1   0  10     0      1    0.54
 Warning:  a bond orbital has occupanc of -0.00001
 Warning:  a bond orbital has occupanc of -0.00000
  10(1)    1.50    61.05115   0.94885     20   1   0  10     0      1    0.54
 Warning:  a bond orbital has occupanc of -0.00001
 Warning:  a bond orbital has occupanc of -0.00000
  11(2)    1.50    61.05115   0.94885     20   1   0  10     0      1    0.54
 Warning:  a bond orbital has occupanc of -0.00001
 Warning:  a bond orbital has occupanc of -0.00000
  12(1)    1.90    61.41393   0.58607     20   2   0   9     1      1    0.17
 -----------------------------------------------------------------------------

 Structure accepted: RESONANCE keyword permits strongly delocalized structure

 WARNING:  5 low occupancy (<1.9990e) core orbitals found on Br    2

 --------------------------------------------------------
   Core                     39.98751 ( 99.969% of  40)
   Valence Lewis            21.42642 ( 97.393% of  22)
  ==================       ============================
   Total Lewis              61.41393 ( 99.055% of  62)
  -----------------------------------------------------
   Valence non-Lewis         0.19562 (  0.316% of  62)
   Rydberg non-Lewis         0.39045 (  0.630% of  62)
  ==================       ============================
   Total non-Lewis           0.58607 (  0.945% of  62)
 --------------------------------------------------------


       (Occupancy)   Bond orbital/ Coefficients/ Hybrids
 ---------------------------------------------------------------------------------
     1. (1.93932) BD ( 1) O   1 -Cl   3  
                ( 58.84%)   0.7670* O   1 s( 10.51%)p 8.46( 88.96%)d 0.05(  0.51%)
                                                  f 0.00(  0.02%)
                                            0.0003  0.3211 -0.0427 -0.0148 -0.0005
                                           -0.1904  0.0351  0.0073  0.0026  0.9226
                                           -0.0250 -0.0089 -0.0113  0.0000  0.0000
                                            0.0000  0.0000 -0.0048 -0.0005 -0.0032
                                            0.0000  0.0000  0.0000  0.0000  0.0000
                                            0.0000 -0.0573 -0.0047 -0.0011 -0.0421
                                           -0.0034  0.0007  0.0000  0.0000  0.0028
                                           -0.0005 -0.0109  0.0011  0.0000  0.0000
                                            0.0000  0.0000  0.0034  0.0021 -0.0049
                                            0.0006
                ( 41.16%)   0.6416*Cl   3 s(  8.58%)p10.51( 90.16%)d 0.13(  1.16%)
                                                  f 0.01(  0.11%)
                                           -0.0000  0.0005  0.2875 -0.0548 -0.0100
                                            0.0026  0.0001  0.2311 -0.0132 -0.0059
                                            0.0020 -0.0004 -0.9185  0.0637  0.0129
                                           -0.0040  0.0000  0.0000  0.0000  0.0000
                                            0.0000 -0.0520  0.0048 -0.0004  0.0000
                                            0.0000  0.0000  0.0000  0.0000  0.0000
                                           -0.0740  0.0095  0.0007 -0.0568  0.0061
                                            0.0011  0.0000  0.0000 -0.0054  0.0009
                                            0.0204 -0.0030  0.0000  0.0000  0.0000
                                            0.0000 -0.0177  0.0020  0.0186 -0.0020
     2. (1.96421) BD ( 1) O   1 - H   4  
                ( 80.10%)   0.8950* O   1 s( 29.03%)p 2.43( 70.49%)d 0.02(  0.47%)
                                                  f 0.00(  0.01%)
                                            0.0003  0.5387 -0.0062 -0.0083  0.0022
                                            0.8393 -0.0076 -0.0068 -0.0050 -0.0122
                                            0.0151  0.0013  0.0024  0.0000  0.0000
                                            0.0000  0.0000  0.0267  0.0049  0.0009
                                            0.0000  0.0000  0.0000  0.0000  0.0000
                                            0.0000  0.0517  0.0041  0.0013 -0.0358
                                           -0.0016  0.0032  0.0000  0.0000 -0.0089
                                           -0.0003 -0.0003  0.0006  0.0000  0.0000
                                            0.0000  0.0000  0.0011  0.0029 -0.0018
                                           -0.0006
                ( 19.90%)   0.4461* H   4 s( 99.82%)p 0.00(  0.17%)d 0.00(  0.00%)
                                            0.9980  0.0462  0.0044 -0.0019  0.0152
                                           -0.0340  0.0113  0.0141  0.0019  0.0043
                                            0.0000  0.0000  0.0000  0.0013  0.0019
                                            0.0000  0.0000  0.0000  0.0000  0.0024
                                            0.0002 -0.0002 -0.0035
     3. (1.99969) CR ( 1) O   1           s(100.00%)p 0.00(  0.00%)
                                            1.0000 -0.0004  0.0000  0.0000 -0.0000
                                           -0.0001 -0.0000  0.0000  0.0000 -0.0002
                                            0.0000  0.0000  0.0000  0.0000  0.0000
                                            0.0000  0.0000 -0.0000 -0.0000 -0.0000
                                            0.0000  0.0000  0.0000  0.0000  0.0000
                                            0.0000  0.0000  0.0000 -0.0000  0.0000
                                            0.0000 -0.0000  0.0000  0.0000  0.0000
                                            0.0000  0.0000 -0.0000  0.0000  0.0000
                                            0.0000  0.0000 -0.0000 -0.0000  0.0000
                                           -0.0000
     4. (2.00000) CR ( 1)Br   2           s(100.00%)
                                            1.0000 -0.0000  0.0000  0.0000 -0.0000
                                            0.0000  0.0000 -0.0000  0.0000  0.0000
                                           -0.0000  0.0000  0.0000  0.0000 -0.0000
                                           -0.0000 -0.0000 -0.0000 -0.0000  0.0000
                                            0.0000  0.0000  0.0000  0.0000  0.0000
                                           -0.0000  0.0000 -0.0000  0.0000  0.0000
                                            0.0000  0.0000  0.0000  0.0000  0.0000
                                            0.0000  0.0000 -0.0000 -0.0000 -0.0000
                                           -0.0000  0.0000  0.0000 -0.0000  0.0000
                                            0.0000  0.0000  0.0000  0.0000  0.0000
                                            0.0000  0.0000  0.0000  0.0000  0.0000
                                           -0.0000 -0.0000 -0.0000 -0.0000
     5. (2.00000) CR ( 2)Br   2           s(100.00%)
                                           -0.0000  1.0000  0.0000  0.0000 -0.0000
                                            0.0000  0.0000 -0.0000  0.0000  0.0000
                                           -0.0000  0.0000  0.0000 -0.0000  0.0000
                                            0.0000  0.0000  0.0000 -0.0000  0.0000
                                            0.0000  0.0000  0.0000  0.0000  0.0000
                                            0.0000 -0.0000  0.0000  0.0000  0.0000
                                            0.0000  0.0000  0.0000  0.0000  0.0000
                                            0.0000  0.0000 -0.0000 -0.0000 -0.0000
                                           -0.0000  0.0000  0.0000 -0.0000  0.0000
                                            0.0000  0.0000  0.0000  0.0000 -0.0000
                                           -0.0000  0.0000  0.0000  0.0000  0.0000
                                           -0.0000 -0.0000  0.0000  0.0000
     6. (1.99982) CR ( 3)Br   2           s(100.00%)
                                            0.0000  0.0000  1.0000 -0.0002  0.0000
                                           -0.0000 -0.0000  0.0000 -0.0000 -0.0001
                                            0.0000 -0.0000 -0.0000 -0.0000  0.0000
                                            0.0000  0.0000  0.0000  0.0000  0.0000
                                            0.0000  0.0000  0.0000  0.0000  0.0000
                                            0.0000 -0.0000  0.0000 -0.0000  0.0000
                                            0.0000  0.0000  0.0000  0.0000  0.0000
                                            0.0000  0.0000  0.0000  0.0000  0.0000
                                            0.0000 -0.0000 -0.0000  0.0000 -0.0000
                                            0.0000  0.0000 -0.0000 -0.0000 -0.0000
                                           -0.0000  0.0000  0.0000  0.0000  0.0000
                                            0.0000  0.0000  0.0000  0.0000
     7. (2.00000) CR ( 4)Br   2           s(  0.00%)p 1.00(100.00%)
                                           -0.0000 -0.0000  0.0000  0.0000 -0.0000
                                            0.0000  0.0000  1.0000  0.0000  0.0000
                                           -0.0000  0.0000  0.0000  0.0000  0.0000
                                            0.0000 -0.0000 -0.0000 -0.0000  0.0000
                                            0.0000  0.0000  0.0000  0.0000  0.0000
                                           -0.0000 -0.0000 -0.0000  0.0000  0.0000
                                            0.0000  0.0000  0.0000  0.0000  0.0000
                                            0.0000  0.0000 -0.0000 -0.0000 -0.0000
                                           -0.0000  0.0000  0.0000 -0.0000  0.0000
                                            0.0000  0.0000  0.0000  0.0000  0.0000
                                            0.0000  0.0000  0.0000  0.0000  0.0000
                                           -0.0000 -0.0000  0.0000 -0.0000
     8. (1.99991) CR ( 5)Br   2           s(  0.00%)p 1.00(100.00%)
                                           -0.0000 -0.0000  0.0000  0.0001 -0.0000
                                            0.0000  0.0000 -0.0000 -1.0000  0.0000
                                           -0.0000  0.0000  0.0000 -0.0000  0.0000
                                            0.0000 -0.0000 -0.0000 -0.0000 -0.0000
                                           -0.0000 -0.0000 -0.0000 -0.0000 -0.0000
                                            0.0000 -0.0000 -0.0000  0.0000 -0.0000
                                           -0.0000 -0.0000 -0.0000 -0.0000 -0.0000
                                           -0.0000 -0.0000 -0.0000 -0.0000 -0.0000
                                           -0.0000  0.0000  0.0000 -0.0000  0.0000
                                           -0.0000 -0.0000  0.0000  0.0000 -0.0000
                                            0.0000 -0.0000 -0.0000 -0.0000 -0.0000
                                           -0.0000 -0.0000  0.0000 -0.0000
     9. (2.00000) CR ( 6)Br   2           s(  0.00%)p 1.00(100.00%)
                                            0.0000 -0.0000 -0.0000 -0.0000  0.0000
                                           -0.0000 -0.0000  0.0000  0.0000 -0.0000
                                           -0.0000  0.0000 -0.0000  1.0000  0.0000
                                            0.0000  0.0000  0.0000 -0.0000  0.0000
                                            0.0000  0.0000  0.0000  0.0000  0.0000
                                            0.0000 -0.0000  0.0000  0.0000  0.0000
                                            0.0000  0.0000  0.0000  0.0000  0.0000
                                            0.0000  0.0000 -0.0000  0.0000 -0.0000
                                            0.0000  0.0000  0.0000 -0.0000  0.0000
                                            0.0000  0.0000  0.0000  0.0000 -0.0000
                                           -0.0000  0.0000  0.0000  0.0000  0.0000
                                           -0.0000 -0.0000  0.0000  0.0000
    10. (2.00000) CR ( 7)Br   2           s(  0.00%)p 1.00(100.00%)
                                           -0.0000  0.0000  0.0000 -0.0000 -0.0000
                                            0.0000  0.0000  0.0000 -0.0000  0.0000
                                            0.0000 -0.0000  0.0000  0.0000  1.0000
                                           -0.0002 -0.0000 -0.0000  0.0000  0.0000
                                            0.0000  0.0000  0.0000  0.0000  0.0000
                                           -0.0000  0.0000 -0.0000 -0.0000  0.0000
                                            0.0000  0.0000  0.0000  0.0000  0.0000
                                            0.0000  0.0000  0.0000 -0.0000  0.0000
                                           -0.0000 -0.0000 -0.0000  0.0000 -0.0000
                                            0.0000  0.0000 -0.0000 -0.0000  0.0000
                                            0.0000  0.0000  0.0000  0.0000  0.0000
                                            0.0000  0.0000 -0.0000 -0.0000
    11. (2.00000) CR ( 8)Br   2           s(  0.00%)p 1.00(100.00%)
                                            0.0000  0.0000  0.0000  0.0000  0.0000
                                            0.0000  0.0000  0.0000  0.0000  0.0000
                                            0.0000  0.0000  0.0000  0.0000  0.0000
                                            0.0000  0.0000  0.0000  0.0000  1.0000
                                            0.0000  0.0000  0.0000  0.0000 -0.0000
                                            0.0000  0.0000  0.0000  0.0000  0.0000
                                           -0.0000  0.0000  0.0000  0.0000 -0.0000
                                            0.0000 -0.0000  0.0000  0.0000  0.0000
                                            0.0000  0.0000  0.0000  0.0000  0.0000
                                           -0.0000 -0.0000  0.0000  0.0000  0.0000
                                            0.0000  0.0000  0.0000 -0.0000 -0.0000
                                            0.0000  0.0000  0.0000  0.0000
    12. (2.00000) CR ( 9)Br   2           s(  0.00%)p 1.00(100.00%)
                                            0.0000  0.0000  0.0000  0.0000  0.0000
                                            0.0000  0.0000  0.0000  0.0000  0.0000
                                            0.0000  0.0000  0.0000  0.0000  0.0000
                                            0.0000  0.0000  0.0000  0.0000  0.0000
                                            1.0000 -0.0002 -0.0000 -0.0000  0.0000
                                            0.0000  0.0000  0.0000  0.0000 -0.0000
                                            0.0000 -0.0000 -0.0000 -0.0000  0.0000
                                           -0.0000  0.0000  0.0000  0.0000  0.0000
                                            0.0000  0.0000  0.0000  0.0000  0.0000
                                            0.0000  0.0000  0.0000  0.0000  0.0000
                                            0.0000 -0.0000 -0.0000  0.0000  0.0000
                                            0.0000  0.0000  0.0000  0.0000
    13. (1.99766) CR (10)Br   2           s(  0.00%)p 0.00(  0.00%)d 1.00(100.00%)
                                           -0.0000  0.0000  0.0000  0.0000 -0.0000
                                            0.0000  0.0000 -0.0000 -0.0000  0.0000
                                            0.0000 -0.0000  0.0000  0.0000 -0.0000
                                           -0.0000 -0.0000 -0.0000  0.0000  0.0000
                                            0.0000  0.0000  0.0000  0.0000  0.0000
                                            1.0000  0.0000 -0.0000 -0.0000  0.0000
                                            0.0000  0.0000  0.0000  0.0000  0.0000
                                            0.0000  0.0000  0.0000 -0.0000  0.0000
                                           -0.0000 -0.0000 -0.0000  0.0000 -0.0000
                                            0.0000  0.0000 -0.0000 -0.0000  0.0000
                                            0.0000  0.0000  0.0000  0.0000  0.0000
                                            0.0000  0.0000 -0.0000 -0.0000
    14. (1.99766) CR (11)Br   2           s(  0.00%)p 0.00(  0.00%)d 1.00(100.00%)
                                            0.0000  0.0000  0.0000  0.0000  0.0000
                                            0.0000  0.0000  0.0000  0.0000  0.0000
                                            0.0000  0.0000  0.0000  0.0000  0.0000
                                            0.0000  0.0000  0.0000  0.0000  0.0000
                                           -0.0000 -0.0000 -0.0000 -0.0000  0.0000
                                            0.0000  0.0000  0.0000  0.0000  1.0000
                                            0.0000 -0.0000 -0.0000 -0.0000  0.0000
                                           -0.0000  0.0000  0.0000  0.0000  0.0000
                                            0.0000  0.0000  0.0000  0.0000  0.0000
                                            0.0000  0.0000  0.0000  0.0000  0.0000
                                            0.0000 -0.0000 -0.0000  0.0000  0.0000
                                            0.0000  0.0000  0.0000  0.0000
    15. (1.99769) CR (12)Br   2           s(  0.00%)p 0.00(  0.00%)d 1.00(100.00%)
                                            0.0000  0.0000  0.0000  0.0000  0.0000
                                            0.0000  0.0000  0.0000  0.0000  0.0000
                                            0.0000  0.0000  0.0000  0.0000  0.0000
                                            0.0000  0.0000  0.0000  0.0000  0.0000
                                           -0.0000 -0.0000 -0.0000 -0.0000  0.0000
                                            0.0000  0.0000  0.0000  0.0000 -0.0000
                                            0.0000 -0.0000 -0.0000  1.0000  0.0000
                                           -0.0000  0.0000  0.0000  0.0000  0.0000
                                            0.0000  0.0000  0.0000  0.0000  0.0000
                                            0.0000  0.0000  0.0000  0.0000  0.0000
                                            0.0000 -0.0000 -0.0000  0.0000  0.0000
                                            0.0000  0.0000  0.0000  0.0000
    16. (1.99761) CR (13)Br   2           s(  0.00%)p 0.00(  0.00%)d 1.00(100.00%)
                                           -0.0000 -0.0000  0.0000  0.0000 -0.0000
                                            0.0000  0.0000 -0.0000  0.0000  0.0000
                                           -0.0000  0.0000  0.0000 -0.0000  0.0000
                                            0.0000 -0.0000 -0.0000 -0.0000  0.0000
                                            0.0000  0.0000  0.0000  0.0000  0.0000
                                            0.0000 -0.0000 -0.0000  0.0000  0.0000
                                            0.0000  0.0000  0.0000  0.0000  0.0000
                                            0.0000  0.0000  1.0000 -0.0000 -0.0000
                                           -0.0000  0.0000  0.0000 -0.0000  0.0000
                                            0.0000  0.0000  0.0000  0.0000 -0.0000
                                            0.0000  0.0000  0.0000  0.0000  0.0000
                                           -0.0000 -0.0000  0.0000  0.0000
    17. (1.99766) CR (14)Br   2           s(  0.00%)p 0.00(  0.00%)d 1.00(100.00%)
                                            0.0000  0.0000 -0.0000 -0.0000  0.0000
                                           -0.0000 -0.0000  0.0000 -0.0000 -0.0000
                                            0.0000 -0.0000 -0.0000  0.0000 -0.0000
                                           -0.0000  0.0000  0.0000  0.0000  0.0000
                                            0.0000  0.0000  0.0000  0.0000  0.0000
                                           -0.0000  0.0000  0.0000 -0.0000  0.0000
                                            0.0000  0.0000  0.0000  0.0000  0.0000
                                            0.0000  0.0000  0.0000  0.0000  0.0000
                                            0.0000  1.0000 -0.0000  0.0000 -0.0000
                                            0.0000  0.0000 -0.0000 -0.0000  0.0000
                                           -0.0000  0.0000  0.0000  0.0000  0.0000
                                            0.0000  0.0000 -0.0000 -0.0000
    18. (2.00000) CR ( 1)Cl   3           s(100.00%)
                                            1.0000  0.0000 -0.0000 -0.0000 -0.0000
                                            0.0000  0.0000  0.0000 -0.0000 -0.0000
                                            0.0000 -0.0000 -0.0000  0.0000  0.0000
                                           -0.0000  0.0000  0.0000  0.0000  0.0000
                                            0.0000 -0.0000  0.0000 -0.0000  0.0000
                                            0.0000  0.0000  0.0000  0.0000  0.0000
                                           -0.0000  0.0000  0.0000 -0.0000  0.0000
                                            0.0000  0.0000  0.0000 -0.0000  0.0000
                                            0.0000 -0.0000  0.0000  0.0000  0.0000
                                            0.0000 -0.0000  0.0000  0.0000 -0.0000
    19. (1.99979) CR ( 2)Cl   3           s(100.00%)p 0.00(  0.00%)
                                            0.0000  1.0000 -0.0004  0.0000  0.0000
                                           -0.0000 -0.0000 -0.0001  0.0000  0.0000
                                           -0.0000  0.0000  0.0004 -0.0000 -0.0000
                                            0.0000  0.0000  0.0000  0.0000  0.0000
                                            0.0000  0.0000 -0.0000 -0.0000  0.0000
                                            0.0000  0.0000  0.0000  0.0000  0.0000
                                            0.0000 -0.0000 -0.0000  0.0000 -0.0000
                                           -0.0000  0.0000  0.0000  0.0000 -0.0000
                                           -0.0000  0.0000  0.0000  0.0000  0.0000
                                            0.0000  0.0000 -0.0000 -0.0000  0.0000
    20. (2.00003) CR ( 3)Cl   3           s(  0.00%)p 1.00(100.00%)
                                            0.0000 -0.0000 -0.0000  0.0000  0.0000
                                           -0.0000  1.0000  0.0001  0.0000  0.0000
                                           -0.0000  0.0000  0.0001 -0.0000 -0.0000
                                            0.0000  0.0000  0.0000  0.0000  0.0000
                                            0.0000  0.0000  0.0000  0.0000  0.0000
                                            0.0000  0.0000  0.0000  0.0000  0.0000
                                            0.0000 -0.0000 -0.0000  0.0000 -0.0000
                                           -0.0000  0.0000  0.0000  0.0000 -0.0000
                                           -0.0000  0.0000  0.0000  0.0000  0.0000
                                            0.0000  0.0000 -0.0000 -0.0000  0.0000
    21. (1.99996) CR ( 4)Cl   3           s(  0.00%)p 1.00(100.00%)
                                           -0.0000  0.0000  0.0001 -0.0000 -0.0000
                                            0.0000  0.0000  0.0002 -0.0000 -0.0000
                                            0.0000  1.0000 -0.0003  0.0000  0.0000
                                           -0.0000  0.0000  0.0000  0.0000  0.0000
                                            0.0000 -0.0000  0.0000  0.0000  0.0000
                                            0.0000  0.0000  0.0000  0.0000  0.0000
                                           -0.0000  0.0000 -0.0000 -0.0000  0.0000
                                            0.0000  0.0000  0.0000 -0.0000  0.0000
                                            0.0000 -0.0000  0.0000  0.0000  0.0000
                                            0.0000 -0.0000  0.0000  0.0000 -0.0000
    22. (2.00003) CR ( 5)Cl   3           s(  0.00%)p 1.00(100.00%)
                                            0.0000  0.0000  0.0000  0.0000  0.0000
                                            0.0000  0.0000  0.0000  0.0000  0.0000
                                            0.0000  0.0000  0.0000  0.0000  0.0000
                                            0.0000  1.0000  0.0002  0.0000  0.0000
                                           -0.0000  0.0000  0.0000  0.0000 -0.0000
                                           -0.0000 -0.0000  0.0000  0.0000  0.0000
                                            0.0000  0.0000  0.0000  0.0000  0.0000
                                            0.0000 -0.0000  0.0000  0.0000  0.0000
                                            0.0000  0.0000 -0.0000  0.0000 -0.0000
                                            0.0000  0.0000  0.0000  0.0000  0.0000
    23. (1.96615) LP ( 1) O   1           s( 60.60%)p 0.65( 39.30%)d 0.00(  0.09%)
                                                  f 0.00(  0.00%)
                                            0.0002  0.7783  0.0118  0.0085 -0.0015
                                           -0.5032 -0.0076 -0.0046 -0.0011 -0.3738
                                           -0.0046 -0.0054 -0.0025  0.0000  0.0000
                                            0.0000  0.0000 -0.0273 -0.0021  0.0048
                                            0.0000  0.0000  0.0000  0.0000  0.0000
                                            0.0000 -0.0041  0.0008  0.0020  0.0119
                                            0.0007  0.0007  0.0000  0.0000  0.0027
                                           -0.0003  0.0006  0.0005  0.0000  0.0000
                                            0.0000  0.0000  0.0052 -0.0028 -0.0002
                                            0.0007
    24. (1.95220) LP ( 2) O   1           s(  0.00%)p 1.00( 99.81%)d 0.00(  0.18%)
                                                  f 0.00(  0.01%)
                                            0.0000  0.0000  0.0000  0.0000  0.0000
                                            0.0000  0.0000  0.0000  0.0000  0.0000
                                            0.0000  0.0000  0.0000  0.9988  0.0190
                                            0.0060  0.0073  0.0000  0.0000  0.0000
                                            0.0182 -0.0050 -0.0113  0.0358  0.0040
                                           -0.0034  0.0000  0.0000  0.0000  0.0000
                                            0.0000  0.0000 -0.0102  0.0007  0.0000
                                            0.0000  0.0000  0.0000 -0.0039  0.0025
                                           -0.0030 -0.0001  0.0000  0.0000  0.0000
                                            0.0000
    25. (1.97790) LP ( 1)Br   2           s( 90.97%)p 0.10(  9.03%)d 0.00(  0.00%)
                                                  f 0.00(  0.00%)
                                           -0.0000 -0.0000  0.0002  0.9538 -0.0002
                                            0.0010  0.0006 -0.0000  0.0001  0.3003
                                           -0.0017  0.0006  0.0000  0.0000 -0.0000
                                           -0.0075 -0.0002 -0.0001 -0.0001  0.0000
                                            0.0000  0.0000  0.0000  0.0000  0.0000
                                           -0.0000  0.0001 -0.0001  0.0001  0.0000
                                            0.0000  0.0000  0.0000  0.0000  0.0000
                                            0.0000  0.0000 -0.0000 -0.0009 -0.0001
                                           -0.0003  0.0000  0.0007 -0.0000  0.0003
                                            0.0000  0.0000  0.0001  0.0001  0.0000
                                            0.0000  0.0000  0.0000  0.0000  0.0000
                                           -0.0001 -0.0001 -0.0000 -0.0001
    26. (1.95406) LP ( 2)Br   2           s(  0.00%)p 1.00( 99.99%)d 0.00(  0.01%)
                                                  f 0.00(  0.00%)
                                            0.0000  0.0000  0.0000  0.0000  0.0000
                                            0.0000  0.0000  0.0000  0.0000  0.0000
                                            0.0000  0.0000  0.0000  0.0000  0.0000
                                            0.0000  0.0000  0.0000  0.0000 -0.0000
                                            0.0002  0.9999  0.0036  0.0019 -0.0003
                                            0.0000  0.0000  0.0000  0.0000  0.0000
                                           -0.0096  0.0019  0.0015  0.0000 -0.0002
                                            0.0001 -0.0001  0.0000  0.0000  0.0000
                                            0.0000  0.0000  0.0000  0.0000  0.0000
                                           -0.0024 -0.0013  0.0000  0.0000  0.0000
                                            0.0000  0.0030  0.0015 -0.0000 -0.0001
                                            0.0000  0.0000  0.0000  0.0000
    27. (1.95371) LP ( 3)Br   2           s(  0.01%)p 1.00( 99.98%)d 0.00(  0.01%)
                                                  f 0.00(  0.00%)
                                           -0.0000 -0.0000 -0.0000  0.0075  0.0004
                                           -0.0001 -0.0007 -0.0000  0.0000  0.0012
                                           -0.0000  0.0002 -0.0001 -0.0000  0.0002
                                            0.9999  0.0036  0.0017 -0.0004  0.0000
                                            0.0000  0.0000  0.0000  0.0000  0.0000
                                            0.0000 -0.0102  0.0015  0.0018  0.0000
                                            0.0000  0.0000  0.0000  0.0000  0.0000
                                            0.0000  0.0000 -0.0000  0.0009 -0.0006
                                            0.0006  0.0000  0.0001 -0.0001  0.0001
                                            0.0000  0.0000  0.0001  0.0001 -0.0010
                                           -0.0005  0.0000  0.0000  0.0000  0.0000
                                           -0.0002 -0.0001  0.0035  0.0016
    28. (1.83443) LP ( 4)Br   2           s(  9.02%)p10.08( 90.91%)d 0.01(  0.06%)
                                                  f 0.00(  0.01%)
                                            0.0000 -0.0000  0.0000  0.3003  0.0007
                                           -0.0033 -0.0019 -0.0000 -0.0000 -0.9534
                                            0.0075  0.0042 -0.0008  0.0000  0.0000
                                           -0.0011  0.0003  0.0004  0.0002 -0.0000
                                           -0.0000 -0.0000 -0.0000 -0.0000 -0.0000
                                            0.0000  0.0000  0.0001 -0.0005 -0.0000
                                           -0.0000 -0.0000 -0.0000 -0.0000 -0.0000
                                           -0.0000 -0.0000  0.0000  0.0210 -0.0040
                                           -0.0012 -0.0000 -0.0131  0.0028 -0.0003
                                           -0.0000 -0.0000  0.0051  0.0025 -0.0000
                                           -0.0001 -0.0000 -0.0000 -0.0000 -0.0000
                                           -0.0061 -0.0025 -0.0000  0.0002
    29. (1.97371) LP ( 1)Cl   3           s( 91.55%)p 0.09(  8.43%)d 0.00(  0.02%)
                                                  f 0.00(  0.00%)
                                            0.0000  0.0003  0.9568  0.0064  0.0011
                                           -0.0003 -0.0000 -0.0341  0.0003  0.0006
                                            0.0002  0.0000  0.2882 -0.0064 -0.0031
                                            0.0014  0.0000  0.0000  0.0000  0.0000
                                            0.0000  0.0056  0.0002  0.0004  0.0000
                                            0.0000  0.0000  0.0000  0.0000  0.0000
                                            0.0109 -0.0006 -0.0003  0.0077  0.0005
                                            0.0004  0.0000  0.0000  0.0004  0.0001
                                           -0.0021 -0.0004  0.0000  0.0000  0.0000
                                            0.0000  0.0018  0.0001 -0.0030  0.0002
    30. (1.95604) LP ( 2)Cl   3           s(  0.00%)p 1.00( 99.95%)d 0.00(  0.05%)
                                                  f 0.00(  0.01%)
                                            0.0000  0.0000  0.0000  0.0000  0.0000
                                            0.0000  0.0000  0.0000  0.0000  0.0000
                                            0.0000  0.0000  0.0000  0.0000  0.0000
                                            0.0000 -0.0002  0.9996  0.0153  0.0052
                                           -0.0023  0.0000  0.0000  0.0000 -0.0051
                                           -0.0069 -0.0026  0.0071  0.0166  0.0080
                                            0.0000  0.0000  0.0000  0.0000  0.0000
                                            0.0000 -0.0055  0.0010  0.0000  0.0000
                                            0.0000  0.0000 -0.0054  0.0005 -0.0037
                                            0.0011  0.0000  0.0000  0.0000  0.0000
    31. (1.95468) LP ( 3)Cl   3           s(  0.13%)p99.99( 99.82%)d 0.29(  0.04%)
                                                  f 0.06(  0.01%)
                                            0.0000 -0.0000  0.0358  0.0058  0.0039
                                            0.0018  0.0002 -0.9712 -0.0126 -0.0013
                                           -0.0000  0.0001 -0.2342 -0.0034 -0.0006
                                           -0.0007 -0.0000 -0.0000 -0.0000 -0.0000
                                           -0.0000  0.0042 -0.0115 -0.0058 -0.0000
                                           -0.0000 -0.0000 -0.0000 -0.0000 -0.0000
                                            0.0063  0.0110  0.0061 -0.0006 -0.0026
                                           -0.0003 -0.0000 -0.0000  0.0023 -0.0003
                                            0.0007  0.0002 -0.0000 -0.0000 -0.0000
                                           -0.0000  0.0058 -0.0009  0.0065 -0.0011
    32. (0.01977) RY*( 1) O   1           s(  0.00%)p 1.00( 98.75%)d 0.01(  1.20%)
                                                  f 0.00(  0.05%)
                                            0.0000  0.0000  0.0000  0.0000  0.0000
                                            0.0000  0.0000  0.0000  0.0000  0.0000
                                            0.0000  0.0000  0.0000 -0.0233  0.9927
                                           -0.0376 -0.0130  0.0000  0.0000  0.0000
                                            0.0438 -0.0078 -0.0177  0.0946  0.0265
                                            0.0054  0.0000  0.0000  0.0000  0.0000
                                            0.0000  0.0000 -0.0122  0.0107  0.0000
                                            0.0000  0.0000  0.0000 -0.0115  0.0096
                                           -0.0028  0.0034  0.0000  0.0000  0.0000
                                            0.0000
    33. (0.01632) RY*( 2) O   1           s( 30.38%)p 2.22( 67.54%)d 0.06(  1.88%)
                                                  f 0.01(  0.19%)
                                           -0.0000  0.0035  0.5501 -0.0341 -0.0072
                                            0.0099 -0.6441  0.0028  0.0530  0.0402
                                           -0.5048 -0.0046  0.0352 -0.0000 -0.0000
                                           -0.0000 -0.0000 -0.1199 -0.0259 -0.0096
                                           -0.0000 -0.0000 -0.0000 -0.0000 -0.0000
                                           -0.0000  0.0299  0.0078 -0.0002  0.0519
                                            0.0037 -0.0042 -0.0000 -0.0000 -0.0031
                                           -0.0021 -0.0045  0.0001 -0.0000 -0.0000
                                           -0.0000 -0.0000  0.0378 -0.0180 -0.0100
                                            0.0033
    34. (0.00808) RY*( 3) O   1           s( 18.50%)p 0.63( 11.60%)d 3.72( 68.74%)
                                                  f 0.06(  1.16%)
                                           -0.0000  0.0166  0.4236 -0.0703  0.0171
                                            0.0155  0.3140 -0.0300  0.0693 -0.0157
                                           -0.0892  0.0015  0.0570  0.0000  0.0000
                                            0.0000  0.0000  0.6281  0.0086  0.0085
                                            0.0000  0.0000  0.0000  0.0000  0.0000
                                            0.0000 -0.4951 -0.0110 -0.0377  0.2144
                                           -0.0102  0.0057  0.0000  0.0000  0.0021
                                           -0.0060 -0.0228  0.0138  0.0000  0.0000
                                            0.0000  0.0000 -0.0922  0.0397 -0.0250
                                            0.0122
    35. (0.00706) RY*( 4) O   1           s(  0.00%)p 1.00(  0.35%)d99.99( 97.92%)
                                                  f 4.89(  1.73%)
                                            0.0000  0.0000  0.0000  0.0000  0.0000
[...]
                                            0.0913  0.1663 -0.0869
   162. (0.00036) RY*( 8) H   4           s( 20.48%)p 2.68( 54.85%)d 1.20( 24.67%)
                                           -0.0046 -0.0117  0.4323  0.1333 -0.0686
                                            0.0204  0.3591 -0.0738  0.5966  0.2302
                                           -0.0000 -0.0000 -0.0000  0.3499 -0.1129
                                           -0.0000 -0.0000 -0.0000 -0.0000 -0.2141
                                            0.1953  0.1212 -0.1135
   163. (0.00032) RY*( 9) H   4           s(  0.00%)p 1.00( 94.16%)d 0.06(  5.84%)
                                            0.0000  0.0000  0.0000  0.0000  0.0000
                                            0.0000  0.0000  0.0000  0.0000  0.0000
                                           -0.1240  0.9595 -0.0748  0.0000  0.0000
                                            0.0410 -0.2289 -0.0554  0.0354  0.0000
                                            0.0000  0.0000  0.0000
   164. (0.00026) RY*(10) H   4           s(  2.41%)p 9.56( 23.00%)d31.01( 74.60%)
                                            0.0119  0.0482  0.0092  0.1466  0.0263
                                            0.1962 -0.4173 -0.0938 -0.0083  0.0881
                                           -0.0000 -0.0000 -0.0000  0.1715 -0.0294
                                           -0.0000 -0.0000 -0.0000 -0.0000 -0.6447
                                           -0.0891 -0.5133  0.1694
   165. (0.00024) RY*(11) H   4           s(  0.00%)p 1.00(  0.47%)d99.99( 99.53%)
                                            0.0000  0.0000  0.0000  0.0000  0.0000
                                            0.0000  0.0000  0.0000  0.0000  0.0000
                                           -0.0140  0.0652 -0.0174  0.0000  0.0000
                                           -0.1372  0.0008  0.9747 -0.1627  0.0000
                                            0.0000  0.0000  0.0000
   166. (0.00022) RY*(12) H   4           s( 12.39%)p 2.24( 27.75%)d 4.83( 59.85%)
                                            0.0151  0.0212  0.1938  0.2927  0.0030
                                            0.3485 -0.3442  0.0716  0.1017 -0.1487
                                            0.0000  0.0000  0.0000 -0.3580 -0.0142
                                            0.0000  0.0000  0.0000  0.0000 -0.2150
                                           -0.1363  0.6367 -0.0016
   167. (0.00019) RY*(13) H   4           s(  8.80%)p 1.85( 16.31%)d 8.51( 74.90%)
                                           -0.0064 -0.0304  0.2787  0.0966 -0.0239
                                           -0.1310  0.3214  0.0640 -0.0552 -0.1868
                                           -0.0000 -0.0000 -0.0000 -0.7002 -0.0989
                                           -0.0000 -0.0000 -0.0000 -0.0000 -0.2311
                                            0.2127 -0.3533 -0.1593
   168. (0.00013) RY*(14) H   4           s(  0.00%)p 1.00( 38.77%)d 1.58( 61.23%)
                                            0.0000  0.0000  0.0000  0.0000  0.0000
                                            0.0000  0.0000  0.0000  0.0000  0.0000
                                            0.0234  0.2175  0.5830  0.0000  0.0000
                                           -0.4376  0.6451 -0.0674 -0.0091  0.0000
                                            0.0000  0.0000  0.0000
   169. (0.00013) RY*(15) H   4           s( 66.98%)p 0.18( 12.04%)d 0.31( 20.98%)
                                           -0.0056 -0.0415 -0.0726  0.8141 -0.0160
                                           -0.2491 -0.0980  0.0103  0.1359  0.1732
                                            0.0000  0.0000  0.0000 -0.0531  0.2397
                                            0.0000  0.0000  0.0000  0.0000  0.3286
                                           -0.0861 -0.1815  0.0338
   170. (0.00010) RY*(16) H   4           s(  7.57%)p 3.73( 28.23%)d 8.48( 64.20%)
   171. (0.00005) RY*(17) H   4           s(  0.00%)p 1.00( 35.24%)d 1.84( 64.76%)
   172. (0.00006) RY*(18) H   4           s( 19.83%)p 1.82( 36.15%)d 2.22( 44.02%)
   173. (0.00006) RY*(19) H   4           s(  0.00%)p 1.00(  0.08%)d99.99( 99.92%)
   174. (0.00004) RY*(20) H   4           s( 20.12%)p 0.45(  8.97%)d 3.52( 70.91%)
   175. (0.00005) RY*(21) H   4           s(  1.91%)p 3.59(  6.87%)d47.64( 91.21%)
   176. (0.00004) RY*(22) H   4           s(  5.87%)p 7.92( 46.44%)d 8.13( 47.69%)
   177. (0.05815) BD*( 1) O   1 -Cl   3  
                ( 41.16%)   0.6416* O   1 s( 10.51%)p 8.46( 88.96%)d 0.05(  0.51%)
                                                  f 0.00(  0.02%)
                                           -0.0003 -0.3211  0.0427  0.0148  0.0005
                                            0.1904 -0.0351 -0.0073 -0.0026 -0.9226
                                            0.0250  0.0089  0.0113 -0.0000 -0.0000
                                           -0.0000 -0.0000  0.0048  0.0005  0.0032
                                           -0.0000 -0.0000 -0.0000 -0.0000 -0.0000
                                           -0.0000  0.0573  0.0047  0.0011  0.0421
                                            0.0034 -0.0007 -0.0000 -0.0000 -0.0028
                                            0.0005  0.0109 -0.0011 -0.0000 -0.0000
                                           -0.0000 -0.0000 -0.0034 -0.0021  0.0049
                                           -0.0006
                ( 58.84%)  -0.7670*Cl   3 s(  8.58%)p10.51( 90.16%)d 0.13(  1.16%)
                                                  f 0.01(  0.11%)
                                            0.0000 -0.0005 -0.2875  0.0548  0.0100
                                           -0.0026 -0.0001 -0.2311  0.0132  0.0059
                                           -0.0020  0.0004  0.9185 -0.0637 -0.0129
                                            0.0040 -0.0000 -0.0000 -0.0000 -0.0000
                                           -0.0000  0.0520 -0.0048  0.0004 -0.0000
                                           -0.0000 -0.0000 -0.0000 -0.0000 -0.0000
                                            0.0740 -0.0095 -0.0007  0.0568 -0.0061
                                           -0.0011 -0.0000 -0.0000  0.0054 -0.0009
                                           -0.0204  0.0030 -0.0000 -0.0000 -0.0000
                                           -0.0000  0.0177 -0.0020 -0.0186  0.0020
   178. (0.13747) BD*( 1) O   1 - H   4  
                ( 19.90%)   0.4461* O   1 s( 29.03%)p 2.43( 70.49%)d 0.02(  0.47%)
                                                  f 0.00(  0.01%)
                                           -0.0003 -0.5387  0.0062  0.0083 -0.0022
                                           -0.8393  0.0076  0.0068  0.0050  0.0122
                                           -0.0151 -0.0013 -0.0024 -0.0000 -0.0000
                                           -0.0000 -0.0000 -0.0267 -0.0049 -0.0009
                                           -0.0000 -0.0000 -0.0000 -0.0000 -0.0000
                                           -0.0000 -0.0517 -0.0041 -0.0013  0.0358
                                            0.0016 -0.0032 -0.0000 -0.0000  0.0089
                                            0.0003  0.0003 -0.0006 -0.0000 -0.0000
                                           -0.0000 -0.0000 -0.0011 -0.0029  0.0018
                                            0.0006
                ( 80.10%)  -0.8950* H   4 s( 99.82%)p 0.00(  0.17%)d 0.00(  0.00%)
                                           -0.9980 -0.0462 -0.0044  0.0019 -0.0152
                                            0.0340 -0.0113 -0.0141 -0.0019 -0.0043
                                           -0.0000 -0.0000 -0.0000 -0.0013 -0.0019
                                           -0.0000 -0.0000 -0.0000 -0.0000 -0.0024
                                           -0.0002  0.0002  0.0035


 NHO Directionality and "Bond Bending" (deviations from line of nuclear centers)

         [Thresholds for printing:  angular deviation  >  1.0 degree]
                                    hybrid p-character > 25.0%
                                    orbital occupancy  >  0.10e

                                Line of Centers        Hybrid 1              Hybrid 2
                                ---------------  -------------------   ------------------
                NBO               Theta   Phi    Theta   Phi    Dev    Theta   Phi    Dev
 ========================================================================================
     1. BD (   1) O   1 -Cl   3    90.0  103.4    90.0   99.4   4.0      --     --    --
    23. LP (   1) O   1             --     --     90.0  216.8   --       --     --    --
    24. LP (   2) O   1             --     --      0.0    0.0   --       --     --    --
    26. LP (   2)Br   2             --     --      0.0    0.0   --       --     --    --
    27. LP (   3)Br   2             --     --     90.0   89.9   --       --     --    --
    28. LP (   4)Br   2             --     --     90.0  180.0   --       --     --    --
    30. LP (   2)Cl   3             --     --      0.0    0.0   --       --     --    --
    31. LP (   3)Cl   3             --     --     90.0  193.6   --       --     --    --


 Natural Bond Orbitals (Summary):

           NBO                  Occupancy  
 -----------------------------------------------
 Molecular unit  1  (HOCl)
     1. BD (   1) O   1 -Cl   3          1.93932
     2. BD (   1) O   1 - H   4          1.96421
     3. CR (   1) O   1                  1.99969
    18. CR (   1)Cl   3                  2.00000
    19. CR (   2)Cl   3                  1.99979
    20. CR (   3)Cl   3                  2.00003
    21. CR (   4)Cl   3                  1.99996
    22. CR (   5)Cl   3                  2.00003
    23. LP (   1) O   1                  1.96615
    24. LP (   2) O   1                  1.95220
    29. LP (   1)Cl   3                  1.97371
    30. LP (   2)Cl   3                  1.95604
    31. LP (   3)Cl   3                  1.95468
    32. RY*(   1) O   1                  0.01977
    33. RY*(   2) O   1                  0.01632
    34. RY*(   3) O   1                  0.00808
    35. RY*(   4) O   1                  0.00706
    36. RY*(   5) O   1                  0.00636
    37. RY*(   6) O   1                  0.00620
    38. RY*(   7) O   1                  0.00574
    39. RY*(   8) O   1                  0.00351
    40. RY*(   9) O   1                  0.00247
    41. RY*(  10) O   1                  0.00081
    42. RY*(  11) O   1                  0.00065
    43. RY*(  12) O   1                  0.00062
    44. RY*(  13) O   1                  0.00059
    45. RY*(  14) O   1                  0.00051
    46. RY*(  15) O   1                  0.00050
    47. RY*(  16) O   1                  0.00047
    48. RY*(  17) O   1                  0.00048
    49. RY*(  18) O   1                  0.00048
    50. RY*(  19) O   1                  0.00044
    51. RY*(  20) O   1                  0.00045
    52. RY*(  21) O   1                  0.00045
    53. RY*(  22) O   1                  0.00042
    54. RY*(  23) O   1                  0.00036
    55. RY*(  24) O   1                  0.00031
    56. RY*(  25) O   1                  0.00025
    57. RY*(  26) O   1                  0.00019
    58. RY*(  27) O   1                  0.00012
    59. RY*(  28) O   1                  0.00013
    60. RY*(  29) O   1                  0.00013
    61. RY*(  30) O   1                  0.00009
    62. RY*(  31) O   1                  0.00009
    63. RY*(  32) O   1                  0.00008
    64. RY*(  33) O   1                  0.00007
    65. RY*(  34) O   1                  0.00008
    66. RY*(  35) O   1                  0.00008
    67. RY*(  36) O   1                  0.00005
    68. RY*(  37) O   1                  0.00006
    69. RY*(  38) O   1                  0.00006
    70. RY*(  39) O   1                  0.00003
    71. RY*(  40) O   1                  0.00003
    72. RY*(  41) O   1                 -0.00001
   114. RY*(   1)Cl   3                  0.02270
   115. RY*(   2)Cl   3                  0.01759
   116. RY*(   3)Cl   3                  0.01677
   117. RY*(   4)Cl   3                  0.01668
   118. RY*(   5)Cl   3                  0.01166
   119. RY*(   6)Cl   3                  0.00929
   120. RY*(   7)Cl   3                  0.00907
   121. RY*(   8)Cl   3                  0.00631
   122. RY*(   9)Cl   3                  0.00169
   123. RY*(  10)Cl   3                  0.00127
   124. RY*(  11)Cl   3                  0.00127
   125. RY*(  12)Cl   3                  0.00119
   126. RY*(  13)Cl   3                  0.00120
   127. RY*(  14)Cl   3                  0.00117
   128. RY*(  15)Cl   3                  0.00111
   129. RY*(  16)Cl   3                  0.00095
   130. RY*(  17)Cl   3                  0.00077
   131. RY*(  18)Cl   3                  0.00076
   132. RY*(  19)Cl   3                  0.00064
   133. RY*(  20)Cl   3                  0.00056
   134. RY*(  21)Cl   3                  0.00044
   135. RY*(  22)Cl   3                  0.00036
   136. RY*(  23)Cl   3                  0.00036
   137. RY*(  24)Cl   3                  0.00031
   138. RY*(  25)Cl   3                  0.00018
   139. RY*(  26)Cl   3                  0.00015
   140. RY*(  27)Cl   3                  0.00016
   141. RY*(  28)Cl   3                  0.00013
   142. RY*(  29)Cl   3                  0.00012
   143. RY*(  30)Cl   3                  0.00013
   144. RY*(  31)Cl   3                  0.00011
   145. RY*(  32)Cl   3                  0.00010
   146. RY*(  33)Cl   3                  0.00010
   147. RY*(  34)Cl   3                  0.00010
   148. RY*(  35)Cl   3                  0.00010
   149. RY*(  36)Cl   3                  0.00008
   150. RY*(  37)Cl   3                  0.00008
   151. RY*(  38)Cl   3                  0.00004
   152. RY*(  39)Cl   3                  0.00004
   153. RY*(  40)Cl   3                  0.00002
   154. RY*(  41)Cl   3                 -0.00000
   155. RY*(   1) H   4                  0.01073
   156. RY*(   2) H   4                  0.00564
   157. RY*(   3) H   4                  0.00490
   158. RY*(   4) H   4                  0.00387
   159. RY*(   5) H   4                  0.00076
   160. RY*(   6) H   4                  0.00058
   161. RY*(   7) H   4                  0.00046
   162. RY*(   8) H   4                  0.00036
   163. RY*(   9) H   4                  0.00032
   164. RY*(  10) H   4                  0.00026
   165. RY*(  11) H   4                  0.00024
   166. RY*(  12) H   4                  0.00022
   167. RY*(  13) H   4                  0.00019
   168. RY*(  14) H   4                  0.00013
   169. RY*(  15) H   4                  0.00013
   170. RY*(  16) H   4                  0.00010
   171. RY*(  17) H   4                  0.00005
   172. RY*(  18) H   4                  0.00006
   173. RY*(  19) H   4                  0.00006
   174. RY*(  20) H   4                  0.00004
   175. RY*(  21) H   4                  0.00005
   176. RY*(  22) H   4                  0.00004
   177. BD*(   1) O   1 -Cl   3          0.05815
   178. BD*(   1) O   1 - H   4          0.13747
       -------------------------------
              Total Lewis   25.70580  ( 98.3353%)
        Valence non-Lewis    0.19562  (  0.7483%)
        Rydberg non-Lewis    0.23955  (  0.9164%)
       -------------------------------
            Total unit  1   26.14098  (100.0000%)
           Charge unit  1   -0.14098

 Molecular unit  2  (Br)
     4. CR (   1)Br   2                  2.00000
     5. CR (   2)Br   2                  2.00000
     6. CR (   3)Br   2                  1.99982
     7. CR (   4)Br   2                  2.00000
     8. CR (   5)Br   2                  1.99991
     9. CR (   6)Br   2                  2.00000
    10. CR (   7)Br   2                  2.00000
    11. CR (   8)Br   2                  2.00000
    12. CR (   9)Br   2                  2.00000
    13. CR (  10)Br   2                  1.99766
    14. CR (  11)Br   2                  1.99766
    15. CR (  12)Br   2                  1.99769
    16. CR (  13)Br   2                  1.99761
    17. CR (  14)Br   2                  1.99766
    25. LP (   1)Br   2                  1.97790
    26. LP (   2)Br   2                  1.95406
    27. LP (   3)Br   2                  1.95371
    28. LP (   4)Br   2                  1.83443
    73. RY*(   1)Br   2                  0.01873
    74. RY*(   2)Br   2                  0.01866
    75. RY*(   3)Br   2                  0.01860
    76. RY*(   4)Br   2                  0.01860
    77. RY*(   5)Br   2                  0.01776
    78. RY*(   6)Br   2                  0.01111
    79. RY*(   7)Br   2                  0.01104
    80. RY*(   8)Br   2                  0.00896
    81. RY*(   9)Br   2                  0.00212
    82. RY*(  10)Br   2                  0.00179
    83. RY*(  11)Br   2                  0.00178
    84. RY*(  12)Br   2                  0.00175
    85. RY*(  13)Br   2                  0.00175
    86. RY*(  14)Br   2                  0.00174
    87. RY*(  15)Br   2                  0.00175
    88. RY*(  16)Br   2                  0.00174
    89. RY*(  17)Br   2                  0.00174
    90. RY*(  18)Br   2                  0.00174
    91. RY*(  19)Br   2                  0.00139
    92. RY*(  20)Br   2                  0.00135
    93. RY*(  21)Br   2                  0.00116
    94. RY*(  22)Br   2                  0.00079
    95. RY*(  23)Br   2                  0.00078
    96. RY*(  24)Br   2                  0.00071
    97. RY*(  25)Br   2                  0.00036
    98. RY*(  26)Br   2                  0.00028
    99. RY*(  27)Br   2                  0.00028
   100. RY*(  28)Br   2                  0.00025
   101. RY*(  29)Br   2                  0.00024
   102. RY*(  30)Br   2                  0.00025
   103. RY*(  31)Br   2                  0.00024
   104. RY*(  32)Br   2                  0.00025
   105. RY*(  33)Br   2                  0.00022
   106. RY*(  34)Br   2                  0.00022
   107. RY*(  35)Br   2                  0.00017
   108. RY*(  36)Br   2                  0.00016
   109. RY*(  37)Br   2                  0.00015
   110. RY*(  38)Br   2                  0.00010
   111. RY*(  39)Br   2                  0.00007
   112. RY*(  40)Br   2                  0.00007
   113. RY*(  41)Br   2                  0.00004
       -------------------------------
              Total Lewis   35.70812  ( 99.5792%)
        Valence non-Lewis    0.00000  (  0.0000%)
        Rydberg non-Lewis    0.15090  (  0.4208%)
       -------------------------------
            Total unit  2   35.85902  (100.0000%)
           Charge unit  2   -0.85902
 Leave Link  607 at Thu Sep 23 16:32:38 2021, MaxMem= 16106127360 cpu:              80.2 elap:               2.9
 (Enter /sw/contrib/gaussian/g16/B01/g16/l9999.exe)
 1\1\GINC-N2112\SP\RMP2-FC\Aug-CC-pVTZ\Br1Cl1H1O1(1-)\CGAVINH\23-Sep-20
 21\0\\#p pop=NBO SP NoSymm mp2/aug-cc-pvtz density=current\\title\\-1,
 1\O,0,0.,0.,0.\Br,0,3.07381747,0.,0.\Cl,0,-0.390920758,1.638332522,0.\
 H,0,1.01774,0.,0.\\Version=ES64L-G16RevB.01\HF=-3107.4784281\MP2=-3108
 .1827664\RMSD=4.836e-09\Dipole=-0.9637542,0.5986123,0.\Quadrupole=-17.
 7364142,8.8042277,8.9321865,0.3267691,0.,0.\PG=CS [SG(Br1Cl1H1O1)]\\@


 ALMOST ALL THE CHEMICAL PROCESSES WHICH OCCUR IN NATURE,
 WHETHER IN ANIMAL OR VEGETABLE ORGANISMS,
 OR IN THE NON-LIVING SURFACE OF THE EARTH ... 
 TAKE PLACE BETWEEN SUBSTANCES IN SOLUTION

                                    -- W. OSTWALD, 1890
 Job cpu time:       0 days  0 hours  6 minutes 42.0 seconds.
 Elapsed time:       0 days  0 hours  0 minutes 21.3 seconds.
 File lengths (MBytes):  RWF=     15 Int=      0 D2E=      0 Chk=      8 Scr=      1
 Normal termination of Gaussian 16 at Thu Sep 23 16:32:39 2021.
