 Entering Gaussian System, Link 0=g16
 Input=brhocl_35_sp.gjf
 Output=brhocl_35_sp.log
 Initial command:
 /sw/contrib/gaussian/g16/B01/g16/l1.exe "/scr/Gau-25545.inp" -scrdir="/scr/"
 Entering Link 1 = /sw/contrib/gaussian/g16/B01/g16/l1.exe PID=     25546.
  
 Copyright (c) 1988-2017, Gaussian, Inc.  All Rights Reserved.
  
 This is part of the Gaussian(R) 16 program.  It is based on
 the Gaussian(R) 09 system (copyright 2009, Gaussian, Inc.),
 the Gaussian(R) 03 system (copyright 2003, Gaussian, Inc.),
 the Gaussian(R) 98 system (copyright 1998, Gaussian, Inc.),
 the Gaussian(R) 94 system (copyright 1995, Gaussian, Inc.),
 the Gaussian 92(TM) system (copyright 1992, Gaussian, Inc.),
 the Gaussian 90(TM) system (copyright 1990, Gaussian, Inc.),
 the Gaussian 88(TM) system (copyright 1988, Gaussian, Inc.),
 the Gaussian 86(TM) system (copyright 1986, Carnegie Mellon
 University), and the Gaussian 82(TM) system (copyright 1983,
 Carnegie Mellon University). Gaussian is a federally registered
 trademark of Gaussian, Inc.
  
 This software contains proprietary and confidential information,
 including trade secrets, belonging to Gaussian, Inc.
  
 This software is provided under written license and may be
 used, copied, transmitted, or stored only in accord with that
 written license.
  
 The following legend is applicable only to US Government
 contracts under FAR:
  
                    RESTRICTED RIGHTS LEGEND
  
 Use, reproduction and disclosure by the US Government is
 subject to restrictions as set forth in subparagraphs (a)
 and (c) of the Commercial Computer Software - Restricted
 Rights clause in FAR 52.227-19.
  
 Gaussian, Inc.
 340 Quinnipiac St., Bldg. 40, Wallingford CT 06492
  
  
 ---------------------------------------------------------------
 Warning -- This program may not be used in any manner that
 competes with the business of Gaussian, Inc. or will provide
 assistance to any competitor of Gaussian, Inc.  The licensee
 of this program is prohibited from giving any competitor of
 Gaussian, Inc. access to this program.  By using this program,
 the user acknowledges that Gaussian, Inc. is engaged in the
 business of creating and licensing software in the field of
 computational chemistry and represents and warrants to the
 licensee that it is not a competitor of Gaussian, Inc. and that
 it will not use this program in any manner prohibited above.
 ---------------------------------------------------------------
  

 Cite this work as:
 Gaussian 16, Revision B.01,
 M. J. Frisch, G. W. Trucks, H. B. Schlegel, G. E. Scuseria, 
 M. A. Robb, J. R. Cheeseman, G. Scalmani, V. Barone, 
 G. A. Petersson, H. Nakatsuji, X. Li, M. Caricato, A. V. Marenich, 
 J. Bloino, B. G. Janesko, R. Gomperts, B. Mennucci, H. P. Hratchian, 
 J. V. Ortiz, A. F. Izmaylov, J. L. Sonnenberg, D. Williams-Young, 
 F. Ding, F. Lipparini, F. Egidi, J. Goings, B. Peng, A. Petrone, 
 T. Henderson, D. Ranasinghe, V. G. Zakrzewski, J. Gao, N. Rega, 
 G. Zheng, W. Liang, M. Hada, M. Ehara, K. Toyota, R. Fukuda, 
 J. Hasegawa, M. Ishida, T. Nakajima, Y. Honda, O. Kitao, H. Nakai, 
 T. Vreven, K. Throssell, J. A. Montgomery, Jr., J. E. Peralta, 
 F. Ogliaro, M. J. Bearpark, J. J. Heyd, E. N. Brothers, K. N. Kudin, 
 V. N. Staroverov, T. A. Keith, R. Kobayashi, J. Normand, 
 K. Raghavachari, A. P. Rendell, J. C. Burant, S. S. Iyengar, 
 J. Tomasi, M. Cossi, J. M. Millam, M. Klene, C. Adamo, R. Cammi, 
 J. W. Ochterski, R. L. Martin, K. Morokuma, O. Farkas, 
 J. B. Foresman, and D. J. Fox, Gaussian, Inc., Wallingford CT, 2016.
 
 ******************************************
 Gaussian 16:  ES64L-G16RevB.01 20-Dec-2017
                23-Sep-2021 
 ******************************************
 %nproc=28
 Will use up to   28 processors via shared memory.
 %mem=120GB
 %chk=/gscratch/ilahie/mccoygrp/coire_hocl/brhocl/brhocl_35_sp.chk
 ----------------------------------------------------
 #p pop=NBO SP NoSymm mp2/aug-cc-pvtz density=current
 ----------------------------------------------------
 1/30=1,38=1,172=1/1;
 2/12=2,15=1,17=6,18=5,40=1/2;
 3/5=16,6=1,7=10,11=9,25=1,30=1,71=1/1,2,3;
 4//1;
 5/5=2,38=5/2;
 8/6=4,10=1/1;
 9/15=1,16=-3/6;
 10/5=1,13=10,31=1/2;
 6/7=2,8=2,9=2,10=2,22=-1,40=1/1,7;
 99/5=1,9=1/99;
 Leave Link    1 at Thu Sep 23 16:34:39 2021, MaxMem= 16106127360 cpu:               3.5 elap:               0.1
 (Enter /sw/contrib/gaussian/g16/B01/g16/l101.exe)
 -----
 title
 -----
 Symbolic Z-matrix:
 Charge = -1 Multiplicity = 1
 O                     0.        0.        0. 
 Br                    3.07382   0.        0. 
 Cl                   -0.39092   1.63833   0. 
 H                     0.81103   0.        0.56789 
 
 ITRead=  0  0  0  0
 MicOpt= -1 -1 -1 -1
 NAtoms=      4 NQM=        4 NQMF=       0 NMMI=      0 NMMIF=      0
                NMic=       0 NMicF=      0.
                    Isotopes and Nuclear Properties:
 (Nuclear quadrupole moments (NQMom) in fm**2, nuclear magnetic moments (NMagM)
  in nuclear magnetons)

  Atom         1           2           3           4
 IAtWgt=          16          79          35           1
 AtmWgt=  15.9949146  78.9183361  34.9688527   1.0078250
 NucSpn=           0           3           3           1
 AtZEff=  -0.0000000  -0.0000000  -0.0000000  -0.0000000
 NQMom=    0.0000000  31.3000000  -8.1650000   0.0000000
 NMagM=    0.0000000   2.1063990   0.8218740   2.7928460
 AtZNuc=   8.0000000  35.0000000  17.0000000   1.0000000
 Leave Link  101 at Thu Sep 23 16:34:40 2021, MaxMem= 16106127360 cpu:               2.5 elap:               0.1
 (Enter /sw/contrib/gaussian/g16/B01/g16/l202.exe)
                          Input orientation:                          
 ---------------------------------------------------------------------
 Center     Atomic      Atomic             Coordinates (Angstroms)
 Number     Number       Type             X           Y           Z
 ---------------------------------------------------------------------
      1          8           0        0.000000    0.000000    0.000000
      2         35           0        3.073817    0.000000    0.000000
      3         17           0       -0.390921    1.638333    0.000000
      4          1           0        0.811026    0.000000    0.567887
 ---------------------------------------------------------------------
                    Distance matrix (angstroms):
                    1          2          3          4
     1  O    0.000000
     2  Br   3.073817   0.000000
     3  Cl   1.684326   3.832564   0.000000
     4  H    0.990080   2.332964   2.109812   0.000000
 Symmetry turned off by external request.
 Stoichiometry    BrClHO(1-)
 Framework group  C1[X(BrClHO)]
 Deg. of freedom     6
 Full point group                 C1      NOp   1
 Rotational constants (GHZ):          22.2213482           1.2790100           1.2112194
 Leave Link  202 at Thu Sep 23 16:34:40 2021, MaxMem= 16106127360 cpu:               0.3 elap:               0.0
 (Enter /sw/contrib/gaussian/g16/B01/g16/l301.exe)
 Standard basis: Aug-CC-pVTZ (5D, 7F)
 Ernie: Thresh=  0.10000D-02 Tol=  0.10000D-05 Strict=F.
 Ernie:  48 primitive shells out of 228 were deleted.
   178 basis functions,   430 primitive gaussians,   208 cartesian basis functions
    31 alpha electrons       31 beta electrons
       nuclear repulsion energy       189.5645655908 Hartrees.
 IExCor=    0 DFT=F Ex=HF Corr=None ExCW=0 ScaHFX=  1.000000
 ScaDFX=  1.000000  1.000000  1.000000  1.000000 ScalE2=  1.000000  1.000000
 IRadAn=      5 IRanWt=     -1 IRanGd=            0 ICorTp=0 IEmpDi=  4
 NAtoms=    4 NActive=    4 NUniq=    4 SFac= 1.00D+00 NAtFMM=   60 NAOKFM=F Big=F
 Integral buffers will be    131072 words long.
 Raffenetti 1 integral format.
 Two-electron integral symmetry is turned off.
 Leave Link  301 at Thu Sep 23 16:34:40 2021, MaxMem= 16106127360 cpu:               1.9 elap:               0.1
 (Enter /sw/contrib/gaussian/g16/B01/g16/l302.exe)
 NPDir=0 NMtPBC=     1 NCelOv=     1 NCel=       1 NClECP=     1 NCelD=      1
         NCelK=      1 NCelE2=     1 NClLst=     1 CellRange=     0.0.
 One-electron integrals computed using PRISM.
 NBasis=   178 RedAO= T EigKep=  2.89D-04  NBF=   178
 NBsUse=   178 1.00D-06 EigRej= -1.00D+00 NBFU=   178
 Leave Link  302 at Thu Sep 23 16:34:40 2021, MaxMem= 16106127360 cpu:               4.3 elap:               0.2
 (Enter /sw/contrib/gaussian/g16/B01/g16/l303.exe)
 DipDrv:  MaxL=1.
 Leave Link  303 at Thu Sep 23 16:34:40 2021, MaxMem= 16106127360 cpu:               0.7 elap:               0.0
 (Enter /sw/contrib/gaussian/g16/B01/g16/l401.exe)
 ExpMin= 2.53D-02 ExpMax= 1.06D+07 ExpMxC= 1.21D+04 IAcc=3 IRadAn=         5 AccDes= 0.00D+00
 Harris functional with IExCor=  205 and IRadAn=       5 diagonalized for initial guess.
 HarFok:  IExCor=  205 AccDes= 0.00D+00 IRadAn=         5 IDoV= 1 UseB2=F ITyADJ=14
 ICtDFT=  3500011 ScaDFX=  1.000000  1.000000  1.000000  1.000000
 FoFCou: FMM=F IPFlag=           0 FMFlag=      100000 FMFlg1=           0
         NFxFlg=           0 DoJE=T BraDBF=F KetDBF=T FulRan=T
         wScrn=  0.000000 ICntrl=       500 IOpCl=  0 I1Cent=   200000004 NGrid=           0
         NMat0=    1 NMatS0=      1 NMatT0=    0 NMatD0=    1 NMtDS0=    0 NMtDT0=    0
 Symmetry not used in FoFCou.
 Harris En= -3106.39012474267    
 JPrj=0 DoOrth=F DoCkMO=F.
 Leave Link  401 at Thu Sep 23 16:34:40 2021, MaxMem= 16106127360 cpu:               7.8 elap:               0.3
 (Enter /sw/contrib/gaussian/g16/B01/g16/l502.exe)
 Keep R1 ints in memory in canonical form, NReq=149454558.
 FoFCou: FMM=F IPFlag=           0 FMFlag=           0 FMFlg1=           0
         NFxFlg=           0 DoJE=F BraDBF=F KetDBF=F FulRan=T
         wScrn=  0.000000 ICntrl=       600 IOpCl=  0 I1Cent=           0 NGrid=           0
         NMat0=    1 NMatS0=  15931 NMatT0=    0 NMatD0=    1 NMtDS0=    0 NMtDT0=    0
 Symmetry not used in FoFCou.
 Two-electron integral symmetry not used.
 Closed shell SCF:
 Using DIIS extrapolation, IDIIS=  1040.
 NGot= 16106127360 LenX= 15979127348 LenY= 15979083643
 Requested convergence on RMS density matrix=1.00D-08 within 128 cycles.
 Requested convergence on MAX density matrix=1.00D-06.
 Requested convergence on             energy=1.00D-06.
 No special actions if energy rises.

 Cycle   1  Pass 1  IDiag  1:
 E= -3107.30272765689    
 DIIS: error= 4.56D-02 at cycle   1 NSaved=   1.
 NSaved= 1 IEnMin= 1 EnMin= -3107.30272765689     IErMin= 1 ErrMin= 4.56D-02
 ErrMax= 4.56D-02  0.00D+00 EMaxC= 1.00D-01 BMatC= 6.19D-01 BMatP= 6.19D-01
 IDIUse=3 WtCom= 5.44D-01 WtEn= 4.56D-01
 Coeff-Com:  0.100D+01
 Coeff-En:   0.100D+01
 Coeff:      0.100D+01
 Gap=     0.555 Goal=   None    Shift=    0.000
 GapD=    0.555 DampG=2.000 DampE=0.500 DampFc=1.0000 IDamp=-1.
 RMSDP=2.75D-03 MaxDP=9.17D-02              OVMax= 1.16D-01

 Cycle   2  Pass 1  IDiag  1:
 E= -3107.44215250346     Delta-E=       -0.139424846570 Rises=F Damp=F
 DIIS: error= 9.44D-03 at cycle   2 NSaved=   2.
 NSaved= 2 IEnMin= 2 EnMin= -3107.44215250346     IErMin= 2 ErrMin= 9.44D-03
 ErrMax= 9.44D-03  0.00D+00 EMaxC= 1.00D-01 BMatC= 4.14D-02 BMatP= 6.19D-01
 IDIUse=3 WtCom= 9.06D-01 WtEn= 9.44D-02
 Coeff-Com:  0.133D+00 0.867D+00
 Coeff-En:   0.000D+00 0.100D+01
 Coeff:      0.120D+00 0.880D+00
 Gap=     0.316 Goal=   None    Shift=    0.000
 RMSDP=9.68D-04 MaxDP=3.83D-02 DE=-1.39D-01 OVMax= 7.17D-02

 Cycle   3  Pass 1  IDiag  1:
 E= -3107.46065538838     Delta-E=       -0.018502884921 Rises=F Damp=F
 DIIS: error= 6.27D-03 at cycle   3 NSaved=   3.
 NSaved= 3 IEnMin= 3 EnMin= -3107.46065538838     IErMin= 3 ErrMin= 6.27D-03
 ErrMax= 6.27D-03  0.00D+00 EMaxC= 1.00D-01 BMatC= 1.25D-02 BMatP= 4.14D-02
 IDIUse=3 WtCom= 9.37D-01 WtEn= 6.27D-02
 Coeff-Com:  0.715D-02 0.352D+00 0.641D+00
 Coeff-En:   0.000D+00 0.155D+00 0.845D+00
 Coeff:      0.671D-02 0.339D+00 0.654D+00
 Gap=     0.315 Goal=   None    Shift=    0.000
 RMSDP=3.26D-04 MaxDP=1.28D-02 DE=-1.85D-02 OVMax= 3.36D-02

 Cycle   4  Pass 1  IDiag  1:
 E= -3107.46921682353     Delta-E=       -0.008561435157 Rises=F Damp=F
 DIIS: error= 5.96D-04 at cycle   4 NSaved=   4.
 NSaved= 4 IEnMin= 4 EnMin= -3107.46921682353     IErMin= 4 ErrMin= 5.96D-04
 ErrMax= 5.96D-04  0.00D+00 EMaxC= 1.00D-01 BMatC= 1.38D-04 BMatP= 1.25D-02
 IDIUse=3 WtCom= 9.94D-01 WtEn= 5.96D-03
 Coeff-Com: -0.489D-02-0.306D-01 0.357D-01 0.100D+01
 Coeff-En:   0.000D+00 0.000D+00 0.000D+00 0.100D+01
 Coeff:     -0.486D-02-0.304D-01 0.355D-01 0.100D+01
 Gap=     0.314 Goal=   None    Shift=    0.000
 RMSDP=5.73D-05 MaxDP=1.20D-03 DE=-8.56D-03 OVMax= 3.56D-03

 Cycle   5  Pass 1  IDiag  1:
 E= -3107.46938604722     Delta-E=       -0.000169223684 Rises=F Damp=F
 DIIS: error= 1.59D-04 at cycle   5 NSaved=   5.
 NSaved= 5 IEnMin= 5 EnMin= -3107.46938604722     IErMin= 5 ErrMin= 1.59D-04
 ErrMax= 1.59D-04  0.00D+00 EMaxC= 1.00D-01 BMatC= 1.06D-05 BMatP= 1.38D-04
 IDIUse=3 WtCom= 9.98D-01 WtEn= 1.59D-03
 Coeff-Com:  0.629D-03-0.144D-01-0.322D-01-0.173D+00 0.122D+01
 Coeff-En:   0.000D+00 0.000D+00 0.000D+00 0.000D+00 0.100D+01
 Coeff:      0.628D-03-0.144D-01-0.321D-01-0.173D+00 0.122D+01
 Gap=     0.314 Goal=   None    Shift=    0.000
 RMSDP=2.89D-05 MaxDP=9.33D-04 DE=-1.69D-04 OVMax= 2.60D-03

 Cycle   6  Pass 1  IDiag  1:
 E= -3107.46941507717     Delta-E=       -0.000029029952 Rises=F Damp=F
 DIIS: error= 7.58D-05 at cycle   6 NSaved=   6.
 NSaved= 6 IEnMin= 6 EnMin= -3107.46941507717     IErMin= 6 ErrMin= 7.58D-05
 ErrMax= 7.58D-05  0.00D+00 EMaxC= 1.00D-01 BMatC= 1.54D-06 BMatP= 1.06D-05
 IDIUse=1 WtCom= 1.00D+00 WtEn= 0.00D+00
 Coeff-Com:  0.544D-03 0.275D-02-0.266D-02-0.127D+00-0.677D-02 0.113D+01
 Coeff:      0.544D-03 0.275D-02-0.266D-02-0.127D+00-0.677D-02 0.113D+01
 Gap=     0.315 Goal=   None    Shift=    0.000
 RMSDP=1.20D-05 MaxDP=4.71D-04 DE=-2.90D-05 OVMax= 1.29D-03

 Cycle   7  Pass 1  IDiag  1:
 E= -3107.46942001173     Delta-E=       -0.000004934557 Rises=F Damp=F
 DIIS: error= 2.53D-05 at cycle   7 NSaved=   7.
 NSaved= 7 IEnMin= 7 EnMin= -3107.46942001173     IErMin= 7 ErrMin= 2.53D-05
 ErrMax= 2.53D-05  0.00D+00 EMaxC= 1.00D-01 BMatC= 1.70D-07 BMatP= 1.54D-06
 IDIUse=1 WtCom= 1.00D+00 WtEn= 0.00D+00
 Coeff-Com: -0.224D-03 0.139D-02 0.629D-02 0.483D-01-0.163D+00-0.232D+00
 Coeff-Com:  0.134D+01
 Coeff:     -0.224D-03 0.139D-02 0.629D-02 0.483D-01-0.163D+00-0.232D+00
 Coeff:      0.134D+01
 Gap=     0.315 Goal=   None    Shift=    0.000
 RMSDP=5.14D-06 MaxDP=1.84D-04 DE=-4.93D-06 OVMax= 5.24D-04

 Cycle   8  Pass 1  IDiag  1:
 E= -3107.46942065394     Delta-E=       -0.000000642214 Rises=F Damp=F
 DIIS: error= 4.98D-06 at cycle   8 NSaved=   8.
 NSaved= 8 IEnMin= 8 EnMin= -3107.46942065394     IErMin= 8 ErrMin= 4.98D-06
 ErrMax= 4.98D-06  0.00D+00 EMaxC= 1.00D-01 BMatC= 1.00D-08 BMatP= 1.70D-07
 IDIUse=1 WtCom= 1.00D+00 WtEn= 0.00D+00
 Coeff-Com: -0.531D-05-0.663D-03-0.686D-03 0.484D-02 0.149D-01-0.345D-01
 Coeff-Com: -0.194D+00 0.121D+01
 Coeff:     -0.531D-05-0.663D-03-0.686D-03 0.484D-02 0.149D-01-0.345D-01
 Coeff:     -0.194D+00 0.121D+01
 Gap=     0.315 Goal=   None    Shift=    0.000
 RMSDP=1.18D-06 MaxDP=2.81D-05 DE=-6.42D-07 OVMax= 1.21D-04

 Cycle   9  Pass 1  IDiag  1:
 E= -3107.46942068984     Delta-E=       -0.000000035899 Rises=F Damp=F
 DIIS: error= 2.92D-06 at cycle   9 NSaved=   9.
 NSaved= 9 IEnMin= 9 EnMin= -3107.46942068984     IErMin= 9 ErrMin= 2.92D-06
 ErrMax= 2.92D-06  0.00D+00 EMaxC= 1.00D-01 BMatC= 1.39D-09 BMatP= 1.00D-08
 IDIUse=1 WtCom= 1.00D+00 WtEn= 0.00D+00
 Coeff-Com:  0.192D-04-0.165D-04-0.461D-03-0.612D-02 0.138D-01 0.354D-01
 Coeff-Com: -0.131D+00-0.798D-01 0.117D+01
 Coeff:      0.192D-04-0.165D-04-0.461D-03-0.612D-02 0.138D-01 0.354D-01
 Coeff:     -0.131D+00-0.798D-01 0.117D+01
 Gap=     0.315 Goal=   None    Shift=    0.000
 RMSDP=4.43D-07 MaxDP=8.36D-06 DE=-3.59D-08 OVMax= 5.13D-05

 Cycle  10  Pass 1  IDiag  1:
 E= -3107.46942069513     Delta-E=       -0.000000005291 Rises=F Damp=F
 DIIS: error= 1.41D-06 at cycle  10 NSaved=  10.
 NSaved=10 IEnMin=10 EnMin= -3107.46942069513     IErMin=10 ErrMin= 1.41D-06
 ErrMax= 1.41D-06  0.00D+00 EMaxC= 1.00D-01 BMatC= 2.64D-10 BMatP= 1.39D-09
 IDIUse=1 WtCom= 1.00D+00 WtEn= 0.00D+00
 Coeff-Com: -0.162D-05 0.951D-04 0.176D-03 0.607D-03-0.486D-02-0.302D-02
 Coeff-Com:  0.632D-01-0.220D+00-0.148D+00 0.131D+01
 Coeff:     -0.162D-05 0.951D-04 0.176D-03 0.607D-03-0.486D-02-0.302D-02
 Coeff:      0.632D-01-0.220D+00-0.148D+00 0.131D+01
 Gap=     0.315 Goal=   None    Shift=    0.000
 RMSDP=2.50D-07 MaxDP=5.38D-06 DE=-5.29D-09 OVMax= 2.95D-05

 Cycle  11  Pass 1  IDiag  1:
 E= -3107.46942069637     Delta-E=       -0.000000001245 Rises=F Damp=F
 DIIS: error= 5.18D-07 at cycle  11 NSaved=  11.
 NSaved=11 IEnMin=11 EnMin= -3107.46942069637     IErMin=11 ErrMin= 5.18D-07
 ErrMax= 5.18D-07  0.00D+00 EMaxC= 1.00D-01 BMatC= 3.02D-11 BMatP= 2.64D-10
 IDIUse=1 WtCom= 1.00D+00 WtEn= 0.00D+00
 Coeff-Com: -0.195D-05 0.463D-06 0.324D-04 0.486D-03-0.104D-02-0.245D-02
 Coeff-Com:  0.580D-02 0.390D-01-0.141D+00-0.180D+00 0.128D+01
 Coeff:     -0.195D-05 0.463D-06 0.324D-04 0.486D-03-0.104D-02-0.245D-02
 Coeff:      0.580D-02 0.390D-01-0.141D+00-0.180D+00 0.128D+01
 Gap=     0.315 Goal=   None    Shift=    0.000
 RMSDP=9.55D-08 MaxDP=2.30D-06 DE=-1.24D-09 OVMax= 1.05D-05

 Cycle  12  Pass 1  IDiag  1:
 E= -3107.46942069653     Delta-E=       -0.000000000156 Rises=F Damp=F
 DIIS: error= 1.17D-07 at cycle  12 NSaved=  12.
 NSaved=12 IEnMin=12 EnMin= -3107.46942069653     IErMin=12 ErrMin= 1.17D-07
 ErrMax= 1.17D-07  0.00D+00 EMaxC= 1.00D-01 BMatC= 3.31D-12 BMatP= 3.02D-11
 IDIUse=1 WtCom= 1.00D+00 WtEn= 0.00D+00
 Coeff-Com:  0.221D-06-0.166D-04-0.282D-04-0.200D-04 0.681D-03 0.132D-04
 Coeff-Com: -0.857D-02 0.330D-01 0.113D-01-0.166D+00 0.403D-02 0.113D+01
 Coeff:      0.221D-06-0.166D-04-0.282D-04-0.200D-04 0.681D-03 0.132D-04
 Coeff:     -0.857D-02 0.330D-01 0.113D-01-0.166D+00 0.403D-02 0.113D+01
 Gap=     0.315 Goal=   None    Shift=    0.000
 RMSDP=2.81D-08 MaxDP=7.04D-07 DE=-1.56D-10 OVMax= 2.50D-06

 Cycle  13  Pass 1  IDiag  1:
 E= -3107.46942069655     Delta-E=       -0.000000000018 Rises=F Damp=F
 DIIS: error= 4.83D-08 at cycle  13 NSaved=  13.
 NSaved=13 IEnMin=13 EnMin= -3107.46942069655     IErMin=13 ErrMin= 4.83D-08
 ErrMax= 4.83D-08  0.00D+00 EMaxC= 1.00D-01 BMatC= 4.42D-13 BMatP= 3.31D-12
 IDIUse=1 WtCom= 1.00D+00 WtEn= 0.00D+00
 Coeff-Com:  0.157D-06 0.516D-05 0.464D-05-0.569D-04-0.557D-04 0.188D-03
 Coeff-Com:  0.198D-02-0.131D-01 0.778D-02 0.669D-01-0.960D-01-0.443D+00
 Coeff-Com:  0.148D+01
 Coeff:      0.157D-06 0.516D-05 0.464D-05-0.569D-04-0.557D-04 0.188D-03
 Coeff:      0.198D-02-0.131D-01 0.778D-02 0.669D-01-0.960D-01-0.443D+00
 Coeff:      0.148D+01
 Gap=     0.315 Goal=   None    Shift=    0.000
 RMSDP=1.14D-08 MaxDP=2.42D-07 DE=-1.82D-11 OVMax= 1.35D-06

 Cycle  14  Pass 1  IDiag  1:
 E= -3107.46942069653     Delta-E=        0.000000000016 Rises=F Damp=F
 DIIS: error= 2.25D-08 at cycle  14 NSaved=  14.
 NSaved=14 IEnMin=13 EnMin= -3107.46942069655     IErMin=14 ErrMin= 2.25D-08
 ErrMax= 2.25D-08  0.00D+00 EMaxC= 1.00D-01 BMatC= 9.01D-14 BMatP= 4.42D-13
 IDIUse=1 WtCom= 1.00D+00 WtEn= 0.00D+00
 Coeff-Com: -0.453D-07 0.676D-06 0.211D-05 0.135D-04-0.616D-04-0.340D-04
 Coeff-Com:  0.433D-03-0.113D-03-0.506D-02 0.650D-03 0.466D-01-0.630D-01
 Coeff-Com: -0.454D+00 0.147D+01
 Coeff:     -0.453D-07 0.676D-06 0.211D-05 0.135D-04-0.616D-04-0.340D-04
 Coeff:      0.433D-03-0.113D-03-0.506D-02 0.650D-03 0.466D-01-0.630D-01
 Coeff:     -0.454D+00 0.147D+01
 Gap=     0.315 Goal=   None    Shift=    0.000
 RMSDP=5.55D-09 MaxDP=1.03D-07 DE= 1.64D-11 OVMax= 7.11D-07

 SCF Done:  E(RHF) =  -3107.46942070     A.U. after   14 cycles
            NFock= 14  Conv=0.56D-08     -V/T= 2.0000
 KE= 3.107342783260D+03 PE=-7.821832457160D+03 EE= 1.417455687612D+03
 Leave Link  502 at Thu Sep 23 16:34:45 2021, MaxMem= 16106127360 cpu:              49.0 elap:               5.1
 (Enter /sw/contrib/gaussian/g16/B01/g16/l801.exe)
 ExpMin= 2.53D-02 ExpMax= 1.06D+07 ExpMxC= 1.21D+04 IAcc=3 IRadAn=         5 AccDes= 0.00D+00
 HarFok:  IExCor=  205 AccDes= 0.00D+00 IRadAn=         5 IDoV=-2 UseB2=F ITyADJ=14
 ICtDFT= 12500011 ScaDFX=  1.000000  1.000000  1.000000  1.000000
 Largest valence mixing into a core orbital is  4.47D-04
 Largest core mixing into a valence orbital is  1.59D-04
 Range of M.O.s used for correlation:    16   178
 NBasis=   178 NAE=    31 NBE=    31 NFC=    15 NFV=     0
 NROrb=    163 NOA=    16 NOB=    16 NVA=   147 NVB=   147

 **** Warning!!: The largest alpha MO coefficient is  0.10485548D+02

 Leave Link  801 at Thu Sep 23 16:34:46 2021, MaxMem= 16106127360 cpu:               2.4 elap:               0.1
 (Enter /sw/contrib/gaussian/g16/B01/g16/l906.exe)
 Frozen-core derivative calculation, NFC=  15 NFV=   0.
 FulOut=F Deriv=T AODrv=F NAtomX=     4
   MMem=         124  MDisk=          16 MDiskD=          16
  W3Min=     1147744 MinDsk=     1765480 NBas6D=         208
 NBas2D=       22240    NTT=       21736    LW2=     9911920
    MDV= 16105653033 MDiskM=      387107 NBas2p=       22041
 Fully in-core method, ICMem=   527338992.
 IMap=   1   2   3   4   5   6   7   8   9  10  11  12  13  14  15  16  17  18  19  20
 IMap=  21  22  23  24  25  26  27  28  29  30  31
 JobTyp=1 Pass  1 fully in-core, NPsUse= 28.
 Compute canonical integrals.
 FoFCou: FMM=F IPFlag=           0 FMFlag=           0 FMFlg1=           0
         NFxFlg=           0 DoJE=F BraDBF=F KetDBF=F FulRan=T
         wScrn=  0.000000 ICntrl=       600 IOpCl=  1 I1Cent=           0 NGrid=           0
         NMat0=    1 NMatS0=  22240 NMatT0=    0 NMatD0=    1 NMtDS0=    0 NMtDT0=    0
 Symmetry not used in FoFCou.
 Spin components of T(2) and E(2):
     alpha-alpha T2 =       0.3011649156D-01 E2=     -0.9350176453D-01
     alpha-beta  T2 =       0.1611545530D+00 E2=     -0.5137551806D+00
     beta-beta   T2 =       0.3011649156D-01 E2=     -0.9350176453D-01
 The integrals were generated   1 times.
 ANorm=    0.1105164031D+01
 E2 =    -0.7007587097D+00 EUMP2 =    -0.31081701794062D+04
 Leave Link  906 at Thu Sep 23 16:34:52 2021, MaxMem= 16106127360 cpu:             174.0 elap:               6.3
 (Enter /sw/contrib/gaussian/g16/B01/g16/l1002.exe)
 Minotr:  Closed shell wavefunction.
          Computing MP2/KS-MP2 derivatives.
          Using Z-Vector for PSCF gradient.
          Skipping F1 and S1 gradient terms here.
          Frozen-core window.
          Direct CPHF calculation.
          Differentiating once with respect to electric field.
                with respect to dipole field.
          Electric field/nuclear overlap derivatives assumed to be zero.
          Requested convergence is 1.0D-10 RMS, and 1.0D-09 maximum.
          NewPWx=F KeepS1=T KeepF1=T KeepIn=T MapXYZ=F SortEE=F KeepMc=T.
 Keep R1 ints in memory in canonical form, NReq=149459454.
 FoFCou: FMM=F IPFlag=           0 FMFlag=           0 FMFlg1=           0
         NFxFlg=           0 DoJE=F BraDBF=F KetDBF=F FulRan=T
         wScrn=  0.000000 ICntrl=       600 IOpCl=  0 I1Cent=           0 NGrid=           0
         NMat0=    1 NMatS0=  15931 NMatT0=    0 NMatD0=    1 NMtDS0=    0 NMtDT0=    0
 Symmetry not used in FoFCou.
 Two-electron integral symmetry not used.
          MDV=   16106127360 using IRadAn=       5.
          Solving linear equations separately, MaxMat=       0.
          There are     1 degrees of freedom in the 1st order CPHF.  IDoFFX=0 NUNeed=     1.
 LinEq1:  Iter=  0 NonCon=     1 RMS=2.62D-03 Max=3.33D-02 NDo=     1
 AX will form     1 AO Fock derivatives at one time.
 LinEq1:  Iter=  1 NonCon=     1 RMS=4.16D-04 Max=4.60D-03 NDo=     1
 LinEq1:  Iter=  2 NonCon=     1 RMS=1.98D-04 Max=3.34D-03 NDo=     1
 LinEq1:  Iter=  3 NonCon=     1 RMS=6.38D-05 Max=8.45D-04 NDo=     1
 LinEq1:  Iter=  4 NonCon=     1 RMS=2.57D-05 Max=7.38D-04 NDo=     1
 LinEq1:  Iter=  5 NonCon=     1 RMS=1.12D-05 Max=2.63D-04 NDo=     1
 LinEq1:  Iter=  6 NonCon=     1 RMS=3.30D-06 Max=8.19D-05 NDo=     1
 LinEq1:  Iter=  7 NonCon=     1 RMS=9.07D-07 Max=1.43D-05 NDo=     1
 LinEq1:  Iter=  8 NonCon=     1 RMS=2.69D-07 Max=3.33D-06 NDo=     1
 LinEq1:  Iter=  9 NonCon=     1 RMS=7.03D-08 Max=1.28D-06 NDo=     1
 LinEq1:  Iter= 10 NonCon=     1 RMS=1.72D-08 Max=3.32D-07 NDo=     1
 LinEq1:  Iter= 11 NonCon=     1 RMS=4.29D-09 Max=1.00D-07 NDo=     1
 LinEq1:  Iter= 12 NonCon=     1 RMS=9.60D-10 Max=2.05D-08 NDo=     1
 LinEq1:  Iter= 13 NonCon=     1 RMS=2.61D-10 Max=2.78D-09 NDo=     1
 LinEq1:  Iter= 14 NonCon=     0 RMS=6.82D-11 Max=6.70D-10 NDo=     1
 Linear equations converged to 1.000D-10 1.000D-09 after    14 iterations.
 End of Minotr F.D. properties file   721 does not exist.
 End of Minotr F.D. properties file   722 does not exist.
 End of Minotr F.D. properties file   788 does not exist.
 Leave Link 1002 at Thu Sep 23 16:34:56 2021, MaxMem= 16106127360 cpu:              41.9 elap:               4.6
 (Enter /sw/contrib/gaussian/g16/B01/g16/l601.exe)
 Copying SCF densities to generalized density rwf, IOpCl= 0 IROHF=0.

 **********************************************************************

            Population analysis using the MP2 Density.

 **********************************************************************

 Alpha  occ. eigenvalues -- -489.74329-104.73961 -64.88358 -58.23810 -58.23804
 Alpha  occ. eigenvalues --  -58.23801 -20.47702 -10.45922  -9.55609  -7.92641
 Alpha  occ. eigenvalues --   -7.92369  -7.92355  -7.16380  -7.16339  -7.16328
 Alpha  occ. eigenvalues --   -2.90551  -2.90539  -2.90523  -2.90472  -2.90471
 Alpha  occ. eigenvalues --   -1.24688  -0.90542  -0.71515  -0.55463  -0.45466
 Alpha  occ. eigenvalues --   -0.44581  -0.31696  -0.29047  -0.16986  -0.16388
 Alpha  occ. eigenvalues --   -0.16278
 Alpha virt. eigenvalues --    0.15177   0.17736   0.21720   0.22543   0.24227
 Alpha virt. eigenvalues --    0.24947   0.25085   0.27988   0.28426   0.30975
 Alpha virt. eigenvalues --    0.32840   0.33251   0.36635   0.40193   0.44234
 Alpha virt. eigenvalues --    0.45843   0.49003   0.49509   0.51397   0.53543
 Alpha virt. eigenvalues --    0.54626   0.55507   0.57142   0.58821   0.59750
 Alpha virt. eigenvalues --    0.60537   0.64665   0.65364   0.73107   0.74298
 Alpha virt. eigenvalues --    0.75558   0.76936   0.81169   0.86567   0.86812
 Alpha virt. eigenvalues --    0.88043   0.89839   0.94459   0.97217   0.98735
 Alpha virt. eigenvalues --    1.00832   1.01686   1.02650   1.04204   1.04881
 Alpha virt. eigenvalues --    1.07403   1.08645   1.09736   1.10727   1.12480
 Alpha virt. eigenvalues --    1.13899   1.17285   1.18459   1.19538   1.20537
 Alpha virt. eigenvalues --    1.21548   1.23857   1.26810   1.28482   1.34075
 Alpha virt. eigenvalues --    1.35257   1.36798   1.40121   1.46298   1.48795
 Alpha virt. eigenvalues --    1.52099   1.56177   1.58102   1.64875   1.68392
 Alpha virt. eigenvalues --    1.69606   1.70719   1.76417   1.78090   1.85995
 Alpha virt. eigenvalues --    1.96723   2.10164   2.31994   2.39743   2.40620
 Alpha virt. eigenvalues --    2.41261   2.46074   2.46725   2.50345   2.51439
 Alpha virt. eigenvalues --    2.53844   2.55240   2.56212   2.56401   2.56887
 Alpha virt. eigenvalues --    2.57392   2.60334   2.61672   2.63162   2.64523
 Alpha virt. eigenvalues --    2.65667   2.67751   2.68569   2.69821   2.70896
 Alpha virt. eigenvalues --    2.72567   2.73970   2.75021   2.78519   2.81168
 Alpha virt. eigenvalues --    2.86227   2.92396   2.97568   3.05263   3.10371
 Alpha virt. eigenvalues --    3.18541   3.21574   3.22940   3.23665   3.29251
 Alpha virt. eigenvalues --    3.34400   3.49680   3.54773   3.56291   3.90788
 Alpha virt. eigenvalues --    4.04715   4.33704   4.39355   4.49302   4.56255
 Alpha virt. eigenvalues --    4.65125   4.72942   4.93512   5.00194   5.35746
 Alpha virt. eigenvalues --    5.43438   5.68357   6.37879   6.61241   6.86411
 Alpha virt. eigenvalues --    6.89521   6.90919   6.97932   7.32075   7.34784
 Alpha virt. eigenvalues --    7.35531   7.44643   7.50406   7.71377   7.73654
 Alpha virt. eigenvalues --    8.37097  14.48473
          Condensed to atoms (all electrons):
               1          2          3          4
     1  O    8.534282  -0.078037  -0.117232   0.064674
     2  Br  -0.078037  35.905929   0.002209   0.071385
     3  Cl  -0.117232   0.002209  17.049127  -0.000853
     4  H    0.064674   0.071385  -0.000853   0.626369
 Mulliken charges:
               1
     1  O   -0.403687
     2  Br  -0.901486
     3  Cl   0.066748
     4  H    0.238425
 Sum of Mulliken charges =  -1.00000
 Mulliken charges with hydrogens summed into heavy atoms:
               1
     1  O   -0.165262
     2  Br  -0.901486
     3  Cl   0.066748
 Electronic spatial extent (au):  <R**2>=           1482.4762
 Charge=             -1.0000 electrons
 Dipole moment (field-independent basis, Debye):
    X=            -11.5896    Y=             -0.5423    Z=              0.4721  Tot=             11.6119
 Quadrupole moment (field-independent basis, Debye-Ang):
   XX=            -83.2246   YY=            -43.3179   ZZ=            -42.6975
   XY=              0.4361   XZ=              0.1757   YZ=             -0.1862
 Traceless Quadrupole moment (field-independent basis, Debye-Ang):
   XX=            -26.8113   YY=             13.0954   ZZ=             13.7159
   XY=              0.4361   XZ=              0.1757   YZ=             -0.1862
 Octapole moment (field-independent basis, Debye-Ang**2):
  XXX=           -324.4713  YYY=            -61.9993  ZZZ=             -1.7864  XYY=            -67.5582
  XXY=            -21.7221  XXZ=             -3.0039  XZZ=            -66.6042  YZZ=            -22.1669
  YYZ=             -1.0174  XYZ=              0.1061
 Hexadecapole moment (field-independent basis, Debye-Ang**3):
 XXXX=          -1780.6545 YYYY=           -257.5256 ZZZZ=            -64.3913 XXXY=             28.1417
 XXXZ=            -11.6421 YYYX=             21.9674 YYYZ=             -0.8690 ZZZX=             -2.6709
 ZZZY=             -0.2768 XXYY=           -280.8336 XXZZ=           -245.1786 YYZZ=            -58.2676
 XXYZ=             -0.1972 YYXZ=             -0.6646 ZZXY=              9.2178
 N-N= 1.895645655908D+02 E-N=-7.820389173723D+03  KE= 3.107370229849D+03
 No NMR shielding tensors so no spin-rotation constants.
 Leave Link  601 at Thu Sep 23 16:34:57 2021, MaxMem= 16106127360 cpu:               4.6 elap:               0.2
 (Enter /sw/contrib/gaussian/g16/B01/g16/l607.exe)
 ******************************Gaussian NBO Version 3.1******************************
             N A T U R A L   A T O M I C   O R B I T A L   A N D
          N A T U R A L   B O N D   O R B I T A L   A N A L Y S I S
 ******************************Gaussian NBO Version 3.1******************************
       /RESON  / : Allow strongly delocalized NBO set

 Analyzing the MP2 density

 Job title: title                                                           

 Storage needed:     95974 in NPA,    127345 in NBO (********** available)
 GSVD:  LWork=        4314 too small for GESVD, short by       49391 words or       49391 for optimal perf.


 NATURAL POPULATIONS:  Natural atomic orbital occupancies 
                                                          
   NAO  Atom  No  lang   Type(AO)    Occupancy
 --------------------------------------------
     1    O    1  S      Cor( 1S)     1.99971
     2    O    1  S      Val( 2S)     1.79244
     3    O    1  S      Ryd( 3S)     0.00909
     4    O    1  S      Ryd( 4S)     0.00110
     5    O    1  S      Ryd( 5S)     0.00017
     6    O    1  px     Val( 2p)     1.70817
     7    O    1  px     Ryd( 3p)     0.01362
     8    O    1  px     Ryd( 4p)     0.00071
     9    O    1  px     Ryd( 5p)     0.00039
    10    O    1  py     Val( 2p)     1.27489
    11    O    1  py     Ryd( 3p)     0.00774
    12    O    1  py     Ryd( 4p)     0.00061
    13    O    1  py     Ryd( 5p)     0.00033
    14    O    1  pz     Val( 2p)     1.83926
    15    O    1  pz     Ryd( 3p)     0.01694
    16    O    1  pz     Ryd( 4p)     0.00070
    17    O    1  pz     Ryd( 5p)     0.00024
    18    O    1  dxy    Ryd( 3d)     0.00922
    19    O    1  dxy    Ryd( 4d)     0.00049
    20    O    1  dxy    Ryd( 5d)     0.00018
    21    O    1  dxz    Ryd( 3d)     0.01108
    22    O    1  dxz    Ryd( 4d)     0.00055
    23    O    1  dxz    Ryd( 5d)     0.00016
    24    O    1  dyz    Ryd( 3d)     0.00974
    25    O    1  dyz    Ryd( 4d)     0.00056
    26    O    1  dyz    Ryd( 5d)     0.00010
    27    O    1  dx2y2  Ryd( 3d)     0.01076
    28    O    1  dx2y2  Ryd( 4d)     0.00045
    29    O    1  dx2y2  Ryd( 5d)     0.00018
    30    O    1  dz2    Ryd( 3d)     0.00902
    31    O    1  dz2    Ryd( 4d)     0.00057
    32    O    1  dz2    Ryd( 5d)     0.00021
    33    O    1  f(0)   Ryd( 4f)     0.00061
    34    O    1  f(0)   Ryd( 5f)     0.00011
    35    O    1  f(C1)  Ryd( 4f)     0.00060
    36    O    1  f(C1)  Ryd( 5f)     0.00012
    37    O    1  f(S1)  Ryd( 4f)     0.00061
    38    O    1  f(S1)  Ryd( 5f)     0.00011
    39    O    1  f(C2)  Ryd( 4f)     0.00063
    40    O    1  f(C2)  Ryd( 5f)     0.00014
    41    O    1  f(S2)  Ryd( 4f)     0.00060
    42    O    1  f(S2)  Ryd( 5f)     0.00012
    43    O    1  f(C3)  Ryd( 4f)     0.00062
    44    O    1  f(C3)  Ryd( 5f)     0.00014
    45    O    1  f(S3)  Ryd( 4f)     0.00060
    46    O    1  f(S3)  Ryd( 5f)     0.00011

    47   Br    2  S      Cor( 1S)     2.00000
    48   Br    2  S      Cor( 2S)     2.00000
    49   Br    2  S      Cor( 3S)     1.99999
    50   Br    2  S      Val( 4S)     1.97739
    51   Br    2  S      Ryd( 5S)     0.00285
    52   Br    2  S      Ryd( 6S)     0.00054
    53   Br    2  S      Ryd( 7S)     0.00019
    54   Br    2  px     Cor( 3p)     1.99999
    55   Br    2  px     Cor( 2p)     2.00000
    56   Br    2  px     Val( 4p)     1.91093
    57   Br    2  px     Ryd( 5p)     0.01035
    58   Br    2  px     Ryd( 6p)     0.00079
    59   Br    2  px     Ryd( 7p)     0.00010
    60   Br    2  py     Cor( 2p)     2.00002
    61   Br    2  py     Cor( 3p)     2.00000
    62   Br    2  py     Val( 4p)     1.95340
    63   Br    2  py     Ryd( 5p)     0.01174
    64   Br    2  py     Ryd( 6p)     0.00083
    65   Br    2  py     Ryd( 7p)     0.00009
    66   Br    2  pz     Cor( 2p)     2.00002
    67   Br    2  pz     Cor( 3p)     2.00000
    68   Br    2  pz     Val( 4p)     1.94703
    69   Br    2  pz     Ryd( 5p)     0.01165
    70   Br    2  pz     Ryd( 6p)     0.00082
    71   Br    2  pz     Ryd( 7p)     0.00008
    72   Br    2  dxy    Cor( 3d)     1.99767
    73   Br    2  dxy    Ryd( 4d)     0.01901
    74   Br    2  dxy    Ryd( 5d)     0.00157
    75   Br    2  dxy    Ryd( 6d)     0.00024
    76   Br    2  dxz    Cor( 3d)     1.99767
    77   Br    2  dxz    Ryd( 4d)     0.01916
    78   Br    2  dxz    Ryd( 5d)     0.00161
    79   Br    2  dxz    Ryd( 6d)     0.00025
    80   Br    2  dyz    Cor( 3d)     1.99769
    81   Br    2  dyz    Ryd( 4d)     0.01876
    82   Br    2  dyz    Ryd( 5d)     0.00177
    83   Br    2  dyz    Ryd( 6d)     0.00023
    84   Br    2  dx2y2  Cor( 3d)     1.99766
    85   Br    2  dx2y2  Ryd( 4d)     0.01863
    86   Br    2  dx2y2  Ryd( 5d)     0.00169
    87   Br    2  dx2y2  Ryd( 6d)     0.00026
    88   Br    2  dz2    Cor( 3d)     1.99768
    89   Br    2  dz2    Ryd( 4d)     0.01871
    90   Br    2  dz2    Ryd( 5d)     0.00172
    91   Br    2  dz2    Ryd( 6d)     0.00022
    92   Br    2  f(0)   Ryd( 4f)     0.00176
    93   Br    2  f(0)   Ryd( 5f)     0.00025
    94   Br    2  f(C1)  Ryd( 4f)     0.00174
    95   Br    2  f(C1)  Ryd( 5f)     0.00027
    96   Br    2  f(S1)  Ryd( 4f)     0.00176
    97   Br    2  f(S1)  Ryd( 5f)     0.00025
    98   Br    2  f(C2)  Ryd( 4f)     0.00175
    99   Br    2  f(C2)  Ryd( 5f)     0.00026
   100   Br    2  f(S2)  Ryd( 4f)     0.00177
   101   Br    2  f(S2)  Ryd( 5f)     0.00026
   102   Br    2  f(C3)  Ryd( 4f)     0.00175
   103   Br    2  f(C3)  Ryd( 5f)     0.00028
   104   Br    2  f(S3)  Ryd( 4f)     0.00173
   105   Br    2  f(S3)  Ryd( 5f)     0.00027

   106   Cl    3  S      Cor( 1S)     2.00000
   107   Cl    3  S      Cor( 2S)     1.99980
   108   Cl    3  S      Val( 3S)     1.88332
   109   Cl    3  S      Ryd( 4S)     0.00819
   110   Cl    3  S      Ryd( 5S)     0.00054
   111   Cl    3  S      Ryd( 6S)     0.00017
   112   Cl    3  px     Cor( 2p)     2.00003
   113   Cl    3  px     Val( 3p)     1.89266
   114   Cl    3  px     Ryd( 4p)     0.00969
   115   Cl    3  px     Ryd( 5p)     0.00057
   116   Cl    3  px     Ryd( 6p)     0.00008
   117   Cl    3  py     Cor( 2p)     1.99997
   118   Cl    3  py     Val( 3p)     0.96234
   119   Cl    3  py     Ryd( 4p)     0.00701
   120   Cl    3  py     Ryd( 5p)     0.00052
   121   Cl    3  py     Ryd( 6p)     0.00022
   122   Cl    3  pz     Cor( 2p)     2.00003
   123   Cl    3  pz     Val( 3p)     1.95425
   124   Cl    3  pz     Ryd( 4p)     0.01032
   125   Cl    3  pz     Ryd( 5p)     0.00062
   126   Cl    3  pz     Ryd( 6p)     0.00003
   127   Cl    3  dxy    Ryd( 3d)     0.01828
   128   Cl    3  dxy    Ryd( 4d)     0.00072
   129   Cl    3  dxy    Ryd( 5d)     0.00026
   130   Cl    3  dxz    Ryd( 3d)     0.01715
   131   Cl    3  dxz    Ryd( 4d)     0.00078
   132   Cl    3  dxz    Ryd( 5d)     0.00020
   133   Cl    3  dyz    Ryd( 3d)     0.01931
   134   Cl    3  dyz    Ryd( 4d)     0.00090
   135   Cl    3  dyz    Ryd( 5d)     0.00034
   136   Cl    3  dx2y2  Ryd( 3d)     0.01857
   137   Cl    3  dx2y2  Ryd( 4d)     0.00068
   138   Cl    3  dx2y2  Ryd( 5d)     0.00025
   139   Cl    3  dz2    Ryd( 3d)     0.01741
   140   Cl    3  dz2    Ryd( 4d)     0.00062
   141   Cl    3  dz2    Ryd( 5d)     0.00017
   142   Cl    3  f(0)   Ryd( 4f)     0.00129
   143   Cl    3  f(0)   Ryd( 5f)     0.00013
   144   Cl    3  f(C1)  Ryd( 4f)     0.00127
   145   Cl    3  f(C1)  Ryd( 5f)     0.00013
   146   Cl    3  f(S1)  Ryd( 4f)     0.00141
   147   Cl    3  f(S1)  Ryd( 5f)     0.00013
   148   Cl    3  f(C2)  Ryd( 4f)     0.00127
   149   Cl    3  f(C2)  Ryd( 5f)     0.00014
   150   Cl    3  f(S2)  Ryd( 4f)     0.00123
   151   Cl    3  f(S2)  Ryd( 5f)     0.00013
   152   Cl    3  f(C3)  Ryd( 4f)     0.00144
   153   Cl    3  f(C3)  Ryd( 5f)     0.00013
   154   Cl    3  f(S3)  Ryd( 4f)     0.00146
   155   Cl    3  f(S3)  Ryd( 5f)     0.00014

   156    H    4  S      Val( 1S)     0.48064
   157    H    4  S      Ryd( 2S)     0.00636
   158    H    4  S      Ryd( 3S)     0.00031
   159    H    4  S      Ryd( 4S)     0.00014
   160    H    4  px     Ryd( 2p)     0.00591
   161    H    4  px     Ryd( 3p)     0.00073
   162    H    4  px     Ryd( 4p)     0.00030
   163    H    4  py     Ryd( 2p)     0.00296
   164    H    4  py     Ryd( 3p)     0.00041
   165    H    4  py     Ryd( 4p)     0.00011
   166    H    4  pz     Ryd( 2p)     0.00376
   167    H    4  pz     Ryd( 3p)     0.00053
   168    H    4  pz     Ryd( 4p)     0.00019
   169    H    4  dxy    Ryd( 3d)     0.00026
   170    H    4  dxy    Ryd( 4d)     0.00008
   171    H    4  dxz    Ryd( 3d)     0.00032
   172    H    4  dxz    Ryd( 4d)     0.00009
   173    H    4  dyz    Ryd( 3d)     0.00018
   174    H    4  dyz    Ryd( 4d)     0.00007
   175    H    4  dx2y2  Ryd( 3d)     0.00026
   176    H    4  dx2y2  Ryd( 4d)     0.00012
   177    H    4  dz2    Ryd( 3d)     0.00025
   178    H    4  dz2    Ryd( 4d)     0.00010

 WARNING:  5 low occupancy (<1.9990e) core orbitals found on Br    2


 Summary of Natural Population Analysis:                  
                                                          
                                       Natural Population 
                Natural  -----------------------------------------------
    Atom  No    Charge         Core      Valence    Rydberg      Total
 -----------------------------------------------------------------------
      O    1   -0.72451      1.99971     6.61476    0.11004     8.72451
     Br    2   -0.93509     27.98838     7.78874    0.15797    35.93509
     Cl    3    0.16370      9.99983     6.69257    0.14391    16.83630
      H    4    0.49590      0.00000     0.48064    0.02346     0.50410
 =======================================================================
   * Total *   -1.00000     39.98792    21.57671    0.43537    62.00000

                                 Natural Population      
 --------------------------------------------------------
   Core                      39.98792 ( 99.9698% of  40)
   Valence                   21.57671 ( 98.0760% of  22)
   Natural Minimal Basis     61.56463 ( 99.2978% of  62)
   Natural Rydberg Basis      0.43537 (  0.7022% of  62)
 --------------------------------------------------------

    Atom  No          Natural Electron Configuration
 ----------------------------------------------------------------------------
      O    1      [core]2S( 1.79)2p( 4.82)3S( 0.01)3p( 0.04)3d( 0.05)
     Br    2      [core]4S( 1.98)4p( 5.81)4d( 0.09)5p( 0.03)4f( 0.01)5d( 0.01)
     Cl    3      [core]3S( 1.88)3p( 4.81)4S( 0.01)3d( 0.09)4p( 0.03)4f( 0.01)
      H    4            1S( 0.48)2S( 0.01)2p( 0.01)


 NATURAL BOND ORBITAL ANALYSIS:

                       Occupancies       Lewis Structure    Low   High
           Occ.    -------------------  -----------------   occ   occ
  Cycle   Thresh.   Lewis   Non-Lewis     CR  BD  3C  LP    (L)   (NL)   Dev
 =============================================================================
   1(1)    1.90    61.48836   0.51164     20   2   0   9     0      0    0.07
 -----------------------------------------------------------------------------

 Structure accepted: No low occupancy Lewis orbitals

 WARNING:  5 low occupancy (<1.9990e) core orbitals found on Br    2

 --------------------------------------------------------
   Core                     39.98792 ( 99.970% of  40)
   Valence Lewis            21.50044 ( 97.729% of  22)
  ==================       ============================
   Total Lewis              61.48836 ( 99.175% of  62)
  -----------------------------------------------------
   Valence non-Lewis         0.12435 (  0.201% of  62)
   Rydberg non-Lewis         0.38729 (  0.625% of  62)
  ==================       ============================
   Total non-Lewis           0.51164 (  0.825% of  62)
 --------------------------------------------------------


       (Occupancy)   Bond orbital/ Coefficients/ Hybrids
 ---------------------------------------------------------------------------------
     1. (1.93990) BD ( 1) O   1 -Cl   3  
                ( 59.18%)   0.7693* O   1 s( 10.23%)p 8.73( 89.22%)d 0.05(  0.54%)
                                                  f 0.00(  0.02%)
                                            0.0003  0.3169 -0.0406 -0.0131 -0.0016
                                           -0.2141  0.0287  0.0063  0.0022  0.9187
                                           -0.0190 -0.0082 -0.0093  0.0268  0.0176
                                            0.0032 -0.0005 -0.0111 -0.0014 -0.0026
                                            0.0082  0.0009 -0.0011  0.0196  0.0026
                                           -0.0005 -0.0584 -0.0045 -0.0002 -0.0368
                                           -0.0030 -0.0003 -0.0001  0.0002  0.0020
                                            0.0004 -0.0079  0.0003 -0.0032  0.0018
                                            0.0052 -0.0010  0.0049  0.0012 -0.0065
                                            0.0009
                ( 40.82%)   0.6389*Cl   3 s(  8.46%)p10.67( 90.26%)d 0.14(  1.17%)
                                                  f 0.01(  0.11%)
                                           -0.0000  0.0005  0.2846 -0.0586 -0.0100
                                           -0.0028  0.0001  0.2263 -0.0141 -0.0047
                                            0.0014 -0.0004 -0.9201  0.0657  0.0129
                                           -0.0036  0.0000  0.0051 -0.0002 -0.0021
                                            0.0010 -0.0482  0.0054 -0.0001  0.0074
                                            0.0003 -0.0009 -0.0101 -0.0013 -0.0009
                                           -0.0785  0.0094  0.0006 -0.0543  0.0058
                                            0.0001 -0.0008  0.0002 -0.0048  0.0007
                                            0.0197 -0.0025  0.0001 -0.0006 -0.0018
                                            0.0012 -0.0176  0.0024  0.0194 -0.0023
     2. (1.96405) BD ( 1) O   1 - H   4  
                ( 78.14%)   0.8839* O   1 s( 25.39%)p 2.92( 74.07%)d 0.02(  0.52%)
                                                  f 0.00(  0.01%)
                                            0.0002  0.5038 -0.0062 -0.0077  0.0022
                                            0.6864 -0.0128 -0.0066 -0.0024 -0.0269
                                            0.0158  0.0015  0.0018  0.5180 -0.0044
                                           -0.0049 -0.0037  0.0207  0.0040  0.0011
                                            0.0592  0.0036 -0.0007  0.0175  0.0031
                                            0.0003  0.0306  0.0020  0.0019  0.0046
                                            0.0016  0.0019 -0.0080  0.0005  0.0026
                                            0.0007  0.0011 -0.0003  0.0046  0.0022
                                            0.0002 -0.0009 -0.0017  0.0024 -0.0019
                                           -0.0001
                ( 21.86%)   0.4676* H   4 s( 99.82%)p 0.00(  0.18%)d 0.00(  0.00%)
                                            0.9987  0.0265  0.0011  0.0001  0.0017
                                           -0.0259 -0.0069  0.0122  0.0016 -0.0039
                                            0.0238 -0.0190 -0.0033  0.0010  0.0013
                                            0.0011 -0.0007  0.0015  0.0015  0.0009
                                           -0.0015 -0.0017 -0.0016
     3. (1.99971) CR ( 1) O   1           s(100.00%)p 0.00(  0.00%)
                                            1.0000 -0.0004  0.0000  0.0000  0.0000
                                           -0.0000 -0.0000  0.0000  0.0000 -0.0002
                                            0.0000  0.0000  0.0000 -0.0000 -0.0000
                                            0.0000  0.0000  0.0000 -0.0000 -0.0000
                                           -0.0000 -0.0000  0.0000 -0.0000 -0.0000
                                           -0.0000  0.0000  0.0000 -0.0000  0.0000
                                            0.0000 -0.0000  0.0000 -0.0000 -0.0000
                                           -0.0000  0.0000 -0.0000 -0.0000 -0.0000
                                           -0.0000  0.0000 -0.0000 -0.0000  0.0000
                                           -0.0000
     4. (2.00000) CR ( 1)Br   2           s(100.00%)
                                            1.0000 -0.0000 -0.0000  0.0000  0.0000
                                           -0.0000 -0.0000  0.0000  0.0000 -0.0000
                                            0.0000  0.0000  0.0000  0.0000 -0.0000
                                            0.0000 -0.0000  0.0000  0.0000 -0.0000
                                           -0.0000  0.0000  0.0000 -0.0000  0.0000
                                            0.0000 -0.0000  0.0000 -0.0000  0.0000
                                           -0.0000  0.0000 -0.0000 -0.0000 -0.0000
                                           -0.0000  0.0000 -0.0000  0.0000 -0.0000
                                           -0.0000  0.0000 -0.0000  0.0000  0.0000
                                           -0.0000 -0.0000  0.0000  0.0000 -0.0000
                                           -0.0000  0.0000  0.0000 -0.0000 -0.0000
                                           -0.0000 -0.0000  0.0000  0.0000
     5. (2.00000) CR ( 2)Br   2           s(100.00%)
                                           -0.0000  1.0000 -0.0000  0.0000  0.0000
                                           -0.0000 -0.0000  0.0000  0.0000 -0.0000
                                            0.0000  0.0000  0.0000  0.0000 -0.0000
                                            0.0000 -0.0000  0.0000  0.0000 -0.0000
                                           -0.0000  0.0000  0.0000 -0.0000  0.0000
                                            0.0000 -0.0000  0.0000 -0.0000  0.0000
                                           -0.0000  0.0000 -0.0000 -0.0000 -0.0000
                                           -0.0000  0.0000 -0.0000  0.0000 -0.0000
                                           -0.0000  0.0000 -0.0000  0.0000  0.0000
                                           -0.0000 -0.0000  0.0000  0.0000 -0.0000
                                           -0.0000  0.0000  0.0000 -0.0000 -0.0000
                                           -0.0000 -0.0000  0.0000  0.0000
     6. (1.99999) CR ( 3)Br   2           s(100.00%)p 0.00(  0.00%)
                                           -0.0000 -0.0000  1.0000  0.0000  0.0000
                                           -0.0000 -0.0000  0.0000  0.0000 -0.0003
                                            0.0000  0.0000  0.0000 -0.0000 -0.0000
                                            0.0000 -0.0000  0.0000  0.0000 -0.0000
                                           -0.0000  0.0001  0.0000 -0.0000  0.0000
                                            0.0000 -0.0000  0.0000 -0.0000  0.0000
                                           -0.0000  0.0000 -0.0000 -0.0000 -0.0000
                                           -0.0000  0.0000 -0.0000  0.0000 -0.0000
                                           -0.0000  0.0000 -0.0000  0.0000  0.0000
                                           -0.0000 -0.0000  0.0000  0.0000 -0.0000
                                           -0.0000  0.0000  0.0000 -0.0000 -0.0000
                                           -0.0000 -0.0000  0.0000  0.0000
     7. (1.99999) CR ( 4)Br   2           s(  0.00%)p 1.00(100.00%)
                                            0.0000  0.0000  0.0000 -0.0001 -0.0000
                                            0.0000  0.0000  1.0000 -0.0000  0.0002
                                           -0.0000 -0.0000 -0.0000  0.0000  0.0000
                                            0.0000  0.0000 -0.0000 -0.0000  0.0000
                                            0.0000 -0.0001 -0.0000  0.0000 -0.0000
                                           -0.0000  0.0000 -0.0000  0.0000 -0.0000
                                            0.0000 -0.0000  0.0000 -0.0000  0.0000
                                           -0.0000 -0.0000  0.0000 -0.0000  0.0000
                                            0.0000 -0.0000  0.0000 -0.0000 -0.0000
                                            0.0000  0.0000 -0.0000 -0.0000  0.0000
                                            0.0000 -0.0000 -0.0000 -0.0000  0.0000
                                            0.0000  0.0000 -0.0000 -0.0000
     8. (2.00000) CR ( 5)Br   2           s(  0.00%)p 1.00(100.00%)
                                            0.0000  0.0000  0.0000 -0.0000 -0.0000
                                            0.0000  0.0000 -0.0000  1.0000  0.0000
                                           -0.0000 -0.0000 -0.0000  0.0000  0.0000
                                           -0.0000  0.0000 -0.0000 -0.0000  0.0000
                                            0.0000 -0.0000 -0.0000  0.0000 -0.0000
                                           -0.0000  0.0000 -0.0000  0.0000 -0.0000
                                            0.0000 -0.0000  0.0000  0.0000  0.0000
                                           -0.0000 -0.0000  0.0000 -0.0000  0.0000
                                            0.0000 -0.0000  0.0000 -0.0000 -0.0000
                                            0.0000  0.0000 -0.0000 -0.0000  0.0000
                                            0.0000 -0.0000 -0.0000  0.0000  0.0000
                                            0.0000  0.0000 -0.0000 -0.0000
     9. (2.00002) CR ( 6)Br   2           s(  0.00%)p 1.00(100.00%)
                                            0.0000  0.0000 -0.0000  0.0000 -0.0000
                                            0.0000  0.0000  0.0000  0.0000 -0.0000
                                            0.0000  0.0000 -0.0000  1.0000 -0.0000
                                           -0.0001 -0.0000 -0.0000 -0.0000 -0.0000
                                           -0.0000  0.0000  0.0000 -0.0000 -0.0000
                                           -0.0000  0.0000 -0.0000 -0.0000  0.0000
                                           -0.0000 -0.0000  0.0000  0.0000 -0.0000
                                            0.0000 -0.0000 -0.0000 -0.0000  0.0000
                                           -0.0000  0.0000 -0.0000  0.0000 -0.0000
                                            0.0000  0.0000  0.0000  0.0000  0.0000
                                            0.0000 -0.0000 -0.0000  0.0000  0.0000
                                            0.0000  0.0000 -0.0000 -0.0000
    10. (2.00000) CR ( 7)Br   2           s(  0.00%)p 1.00(100.00%)
                                           -0.0000 -0.0000 -0.0000  0.0000 -0.0000
                                           -0.0000  0.0000  0.0000  0.0000 -0.0000
                                            0.0000  0.0000 -0.0000 -0.0000  1.0000
                                           -0.0000 -0.0000 -0.0000 -0.0000 -0.0000
                                           -0.0000  0.0000  0.0000 -0.0000 -0.0000
                                           -0.0000  0.0000 -0.0000 -0.0000  0.0000
                                           -0.0000  0.0000 -0.0000  0.0000 -0.0000
                                            0.0000 -0.0000 -0.0000  0.0000  0.0000
                                           -0.0000  0.0000 -0.0000  0.0000 -0.0000
                                           -0.0000 -0.0000  0.0000  0.0000  0.0000
                                            0.0000  0.0000  0.0000  0.0000  0.0000
                                           -0.0000 -0.0000 -0.0000 -0.0000
    11. (2.00002) CR ( 8)Br   2           s(  0.00%)p 1.00(100.00%)
                                           -0.0000 -0.0000 -0.0000  0.0000  0.0000
                                           -0.0000 -0.0000  0.0000  0.0000 -0.0001
                                            0.0000  0.0000 -0.0000 -0.0000 -0.0000
                                            0.0000  0.0000  0.0000  0.0000  1.0000
                                           -0.0000 -0.0001  0.0000 -0.0000  0.0000
                                            0.0000 -0.0000  0.0000 -0.0000  0.0000
                                           -0.0000  0.0000 -0.0000 -0.0000 -0.0000
                                           -0.0000 -0.0000 -0.0000  0.0000 -0.0000
                                           -0.0000  0.0000 -0.0000  0.0000 -0.0000
                                           -0.0000 -0.0000  0.0000  0.0000 -0.0000
                                           -0.0000  0.0000  0.0000  0.0000  0.0000
                                           -0.0000 -0.0000  0.0000  0.0000
    12. (2.00000) CR ( 9)Br   2           s(  0.00%)p 1.00(100.00%)
                                           -0.0000 -0.0000 -0.0000  0.0000  0.0000
                                           -0.0000 -0.0000  0.0000  0.0000 -0.0000
                                            0.0000  0.0000 -0.0000 -0.0000 -0.0000
                                            0.0000  0.0000  0.0000  0.0000 -0.0000
                                            1.0000 -0.0000  0.0000 -0.0000  0.0000
                                            0.0000 -0.0000  0.0000 -0.0000  0.0000
                                           -0.0000  0.0000 -0.0000 -0.0000 -0.0000
                                           -0.0000 -0.0000 -0.0000  0.0000 -0.0000
                                           -0.0000  0.0000 -0.0000  0.0000 -0.0000
                                           -0.0000 -0.0000  0.0000  0.0000 -0.0000
                                           -0.0000  0.0000  0.0000  0.0000  0.0000
                                           -0.0000 -0.0000  0.0000  0.0000
    13. (1.99767) CR (10)Br   2           s(  0.00%)p 0.00(  0.00%)d 1.00(100.00%)
                                            0.0000  0.0000  0.0000 -0.0000 -0.0000
                                            0.0000  0.0000 -0.0000 -0.0000  0.0000
                                           -0.0000 -0.0000 -0.0000 -0.0000 -0.0000
                                           -0.0000 -0.0000 -0.0000 -0.0000  0.0000
                                            0.0000 -0.0000 -0.0000  0.0000 -0.0000
                                            1.0000  0.0000 -0.0000 -0.0000 -0.0000
                                            0.0000 -0.0000  0.0000  0.0000 -0.0000
                                            0.0000 -0.0000  0.0000 -0.0000  0.0000
                                           -0.0000 -0.0000  0.0000 -0.0000 -0.0000
                                            0.0000  0.0000 -0.0000 -0.0000  0.0000
                                            0.0000 -0.0000 -0.0000  0.0000  0.0000
                                            0.0000  0.0000 -0.0000 -0.0000
    14. (1.99767) CR (11)Br   2           s(  0.00%)p 0.00(  0.00%)d 1.00(100.00%)
                                            0.0000  0.0000  0.0000 -0.0000 -0.0000
                                            0.0000  0.0000 -0.0000 -0.0000  0.0001
                                           -0.0000 -0.0000 -0.0000  0.0000  0.0000
                                           -0.0000  0.0000 -0.0000 -0.0000  0.0000
                                            0.0000 -0.0000 -0.0000  0.0000 -0.0000
                                           -0.0000  0.0000 -0.0000  0.0000  1.0000
                                            0.0000 -0.0000  0.0000  0.0000  0.0000
                                            0.0000 -0.0000  0.0000 -0.0000  0.0000
                                            0.0000 -0.0000  0.0000 -0.0000 -0.0000
                                            0.0000  0.0000 -0.0000 -0.0000  0.0000
                                            0.0000 -0.0000 -0.0000  0.0000  0.0000
                                            0.0000  0.0000 -0.0000 -0.0000
    15. (1.99769) CR (12)Br   2           s(  0.00%)p 0.00(  0.00%)d 1.00(100.00%)
                                           -0.0000 -0.0000 -0.0000 -0.0000  0.0000
                                           -0.0000 -0.0000 -0.0000  0.0000 -0.0000
                                           -0.0000  0.0000  0.0000  0.0000  0.0000
                                            0.0000  0.0000  0.0000  0.0000 -0.0000
                                           -0.0000 -0.0000  0.0000 -0.0000  0.0000
                                            0.0000 -0.0000  0.0000  0.0000  0.0000
                                           -0.0000  0.0000 -0.0000  1.0000  0.0000
                                           -0.0000  0.0000 -0.0000  0.0000 -0.0000
                                            0.0000  0.0000 -0.0000  0.0000  0.0000
                                           -0.0000 -0.0000  0.0000  0.0000 -0.0000
                                           -0.0000  0.0000  0.0000 -0.0000 -0.0000
                                           -0.0000 -0.0000  0.0000  0.0000
    16. (1.99766) CR (13)Br   2           s(  0.00%)p 0.00(  0.00%)d 1.00(100.00%)
                                           -0.0000 -0.0000 -0.0000  0.0000  0.0000
                                           -0.0000 -0.0000  0.0000  0.0000 -0.0001
                                            0.0000  0.0000  0.0000 -0.0000 -0.0000
                                           -0.0000 -0.0000  0.0000  0.0000 -0.0000
                                           -0.0000  0.0000  0.0000 -0.0000  0.0000
                                            0.0000 -0.0000  0.0000 -0.0000  0.0000
                                           -0.0000  0.0000 -0.0000 -0.0000 -0.0000
                                            0.0000  0.0000  1.0000  0.0000 -0.0000
                                           -0.0000  0.0000 -0.0000  0.0000 -0.0000
                                           -0.0000 -0.0000  0.0000  0.0000 -0.0000
                                           -0.0000  0.0000  0.0000  0.0000 -0.0000
                                           -0.0000 -0.0000  0.0000  0.0000
    17. (1.99768) CR (14)Br   2           s(  0.00%)p 0.00(  0.00%)d 1.00(100.00%)
                                            0.0000  0.0000  0.0000 -0.0000 -0.0000
                                            0.0000  0.0000 -0.0000 -0.0000  0.0001
                                           -0.0000 -0.0000 -0.0000  0.0000  0.0000
                                            0.0000  0.0000 -0.0000 -0.0000  0.0000
                                            0.0000 -0.0000 -0.0000  0.0000 -0.0000
                                           -0.0000  0.0000 -0.0000  0.0000 -0.0000
                                            0.0000 -0.0000  0.0000  0.0000  0.0000
                                           -0.0000 -0.0000  0.0000 -0.0000  0.0000
                                            0.0000  1.0000  0.0000 -0.0000  0.0000
                                            0.0000  0.0000 -0.0000 -0.0000  0.0000
                                            0.0000 -0.0000 -0.0000 -0.0000  0.0000
                                            0.0000  0.0000 -0.0000 -0.0000
    18. (2.00000) CR ( 1)Cl   3           s(100.00%)
                                            1.0000  0.0000  0.0000 -0.0000 -0.0000
                                           -0.0000  0.0000  0.0000 -0.0000 -0.0000
                                            0.0000 -0.0000 -0.0000  0.0000  0.0000
                                           -0.0000 -0.0000  0.0000  0.0000 -0.0000
                                            0.0000 -0.0000  0.0000 -0.0000  0.0000
                                            0.0000 -0.0000 -0.0000 -0.0000 -0.0000
                                           -0.0000  0.0000  0.0000 -0.0000  0.0000
                                            0.0000 -0.0000  0.0000 -0.0000  0.0000
                                            0.0000 -0.0000 -0.0000 -0.0000 -0.0000
                                            0.0000 -0.0000  0.0000  0.0000 -0.0000
    19. (1.99981) CR ( 2)Cl   3           s(100.00%)p 0.00(  0.00%)
                                            0.0000  1.0000 -0.0004  0.0000  0.0000
                                            0.0000 -0.0000 -0.0001  0.0000  0.0000
                                           -0.0000  0.0000  0.0004 -0.0000 -0.0000
                                            0.0000 -0.0000 -0.0000 -0.0000  0.0000
                                           -0.0000  0.0000 -0.0000 -0.0000 -0.0000
                                           -0.0000  0.0000  0.0000  0.0000  0.0000
                                            0.0000 -0.0000 -0.0000  0.0000 -0.0000
                                           -0.0000  0.0000 -0.0000  0.0000 -0.0000
                                           -0.0000  0.0000 -0.0000  0.0000  0.0000
                                           -0.0000  0.0000 -0.0000 -0.0000  0.0000
    20. (2.00003) CR ( 3)Cl   3           s(  0.00%)p 1.00(100.00%)
                                            0.0000 -0.0000 -0.0000  0.0000  0.0000
                                            0.0000  1.0000  0.0001  0.0000  0.0000
                                           -0.0000  0.0000  0.0001 -0.0000 -0.0000
                                            0.0000 -0.0000  0.0000  0.0000  0.0000
                                            0.0000  0.0000  0.0000  0.0000 -0.0000
                                            0.0000  0.0000  0.0000 -0.0000  0.0000
                                            0.0000 -0.0000 -0.0000  0.0000 -0.0000
                                            0.0000 -0.0000  0.0000  0.0000 -0.0000
                                           -0.0000  0.0000  0.0000 -0.0000  0.0000
                                           -0.0000  0.0000 -0.0000 -0.0000  0.0000
    21. (1.99997) CR ( 4)Cl   3           s(  0.00%)p 1.00(100.00%)
                                           -0.0000  0.0000  0.0001 -0.0000 -0.0000
                                           -0.0000  0.0000  0.0001 -0.0000 -0.0000
                                            0.0000  1.0000 -0.0003  0.0000  0.0000
                                           -0.0000 -0.0000  0.0000  0.0000 -0.0000
                                            0.0000 -0.0000  0.0000  0.0000  0.0000
                                            0.0000 -0.0000 -0.0000 -0.0000 -0.0000
                                           -0.0000  0.0000 -0.0000 -0.0000  0.0000
                                            0.0000 -0.0000  0.0000 -0.0000  0.0000
                                            0.0000 -0.0000  0.0000 -0.0000 -0.0000
                                            0.0000 -0.0000  0.0000  0.0000 -0.0000
    22. (2.00003) CR ( 5)Cl   3           s(  0.00%)p 1.00(100.00%)
                                           -0.0000 -0.0000 -0.0000  0.0000  0.0000
                                           -0.0000 -0.0000  0.0000  0.0000 -0.0000
                                            0.0000 -0.0000  0.0000 -0.0000  0.0000
                                           -0.0000  1.0000  0.0002  0.0000  0.0000
                                           -0.0000 -0.0000 -0.0000 -0.0000 -0.0000
                                           -0.0000 -0.0000  0.0000  0.0000  0.0000
                                            0.0000 -0.0000 -0.0000  0.0000  0.0000
                                            0.0000 -0.0000  0.0000  0.0000 -0.0000
                                           -0.0000  0.0000 -0.0000  0.0000 -0.0000
                                            0.0000  0.0000  0.0000 -0.0000 -0.0000
    23. (1.96837) LP ( 1) O   1           s( 64.50%)p 0.55( 35.41%)d 0.00(  0.09%)
                                                  f 0.00(  0.00%)
                                            0.0002  0.8030  0.0116  0.0070 -0.0009
                                           -0.3432 -0.0059 -0.0037 -0.0020 -0.3460
                                           -0.0047 -0.0054 -0.0024 -0.3412 -0.0048
                                           -0.0034 -0.0010 -0.0192 -0.0012  0.0038
                                           -0.0119 -0.0002  0.0009 -0.0197 -0.0024
                                            0.0013  0.0016  0.0007  0.0015 -0.0018
                                           -0.0003  0.0011  0.0029 -0.0004 -0.0001
                                           -0.0003 -0.0013  0.0010  0.0019 -0.0010
                                           -0.0018  0.0006  0.0041 -0.0019  0.0000
                                            0.0006
    24. (1.95296) LP ( 2) O   1           s(  0.02%)p99.99( 99.76%)d13.75(  0.21%)
                                                  f 0.97(  0.01%)
                                           -0.0000  0.0052  0.0101  0.0047 -0.0008
                                           -0.5995 -0.0116 -0.0031 -0.0024 -0.1636
                                           -0.0044 -0.0011 -0.0021  0.7816  0.0161
                                            0.0056  0.0054 -0.0231 -0.0015  0.0033
                                           -0.0053 -0.0041 -0.0049  0.0246  0.0033
                                           -0.0016 -0.0019  0.0036  0.0049  0.0279
                                           -0.0008 -0.0065 -0.0024  0.0006  0.0070
                                           -0.0000  0.0009 -0.0005 -0.0070  0.0012
                                           -0.0035  0.0000  0.0036 -0.0019  0.0035
                                           -0.0005
    25. (1.97985) LP ( 1)Br   2           s( 96.85%)p 0.03(  3.15%)d 0.00(  0.00%)
                                                  f 0.00(  0.00%)
                                            0.0000  0.0000  0.0000  0.9841 -0.0001
                                            0.0001  0.0002  0.0000  0.0000  0.1669
                                           -0.0008  0.0005 -0.0001 -0.0000  0.0000
                                           -0.0037 -0.0000 -0.0000 -0.0001 -0.0000
                                           -0.0000 -0.0606  0.0004 -0.0001  0.0002
                                           -0.0000 -0.0000 -0.0000 -0.0000  0.0000
                                           -0.0003  0.0003  0.0001  0.0000 -0.0000
                                            0.0000 -0.0000 -0.0000  0.0010 -0.0005
                                           -0.0001  0.0000 -0.0006  0.0002  0.0001
                                           -0.0003 -0.0002  0.0003  0.0001 -0.0000
                                            0.0000  0.0004  0.0003  0.0000  0.0001
                                           -0.0004 -0.0003  0.0000  0.0000
    26. (1.95362) LP ( 2)Br   2           s(  0.00%)p 1.00( 99.99%)d 0.00(  0.01%)
                                                  f 0.00(  0.00%)
                                           -0.0000  0.0000 -0.0000  0.0055  0.0003
                                           -0.0004 -0.0015 -0.0000 -0.0000 -0.1104
                                            0.0001  0.0000  0.0000  0.0001  0.0000
                                            0.9556  0.0010  0.0010  0.0002 -0.0000
                                           -0.0000 -0.2729  0.0000 -0.0003  0.0002
                                            0.0000 -0.0074  0.0018  0.0002 -0.0000
                                            0.0010  0.0002 -0.0006 -0.0000  0.0037
                                           -0.0015  0.0013 -0.0000  0.0014 -0.0006
                                            0.0004  0.0000 -0.0015  0.0005 -0.0003
                                            0.0000 -0.0001  0.0007  0.0005 -0.0003
                                           -0.0002 -0.0001  0.0001 -0.0016 -0.0011
                                           -0.0003 -0.0001  0.0021  0.0013
    27. (1.95321) LP ( 3)Br   2           s(  0.00%)p 1.00( 99.99%)d 0.00(  0.01%)
                                                  f 0.00(  0.00%)
                                           -0.0000 -0.0000 -0.0000 -0.0009 -0.0005
                                            0.0011  0.0028  0.0000  0.0000  0.3367
                                           -0.0008 -0.0001  0.0002  0.0000  0.0000
                                            0.2943  0.0002  0.0002 -0.0001  0.0001
                                            0.0000  0.8944  0.0000  0.0009 -0.0003
                                            0.0000 -0.0021  0.0004  0.0003  0.0000
                                           -0.0036  0.0002  0.0013 -0.0000  0.0011
                                           -0.0004  0.0004  0.0000 -0.0013  0.0002
                                            0.0009 -0.0000  0.0049 -0.0019  0.0013
                                           -0.0002  0.0000 -0.0024 -0.0016 -0.0001
                                           -0.0000  0.0007  0.0002 -0.0006 -0.0005
                                            0.0006  0.0002  0.0006  0.0003
    28. (1.90325) LP ( 4)Br   2           s(  3.15%)p30.76( 96.81%)d 0.01(  0.04%)
                                                  f 0.00(  0.00%)
                                           -0.0000 -0.0000 -0.0003  0.1774  0.0005
                                           -0.0007 -0.0009  0.0002  0.0000 -0.9199
                                            0.0016  0.0019  0.0001 -0.0000 -0.0000
                                           -0.0077 -0.0001  0.0002  0.0006 -0.0001
                                           -0.0000  0.3490  0.0022 -0.0006  0.0007
                                            0.0000 -0.0001  0.0004 -0.0005  0.0001
                                           -0.0144  0.0037 -0.0015 -0.0000 -0.0001
                                            0.0000  0.0001 -0.0001  0.0122 -0.0027
                                           -0.0004  0.0001 -0.0046  0.0011  0.0000
                                           -0.0025 -0.0014  0.0012  0.0010 -0.0000
                                           -0.0001  0.0034  0.0019  0.0000 -0.0001
                                           -0.0030 -0.0017  0.0001  0.0004
    29. (1.97424) LP ( 1)Cl   3           s( 91.72%)p 0.09(  8.26%)d 0.00(  0.02%)
                                                  f 0.00(  0.00%)
                                            0.0000  0.0003  0.9577  0.0069  0.0012
                                            0.0003 -0.0000 -0.0468 -0.0002  0.0003
                                            0.0002  0.0000  0.2821 -0.0065 -0.0029
                                            0.0012  0.0000  0.0272  0.0008  0.0002
                                            0.0001  0.0050 -0.0000  0.0004  0.0007
                                            0.0001 -0.0003  0.0006  0.0005  0.0005
                                            0.0107 -0.0006 -0.0001  0.0082  0.0007
                                            0.0003 -0.0003  0.0001  0.0006 -0.0000
                                           -0.0023 -0.0003  0.0000 -0.0001 -0.0005
                                            0.0003  0.0017  0.0003 -0.0028  0.0000
    30. (1.95615) LP ( 2)Cl   3           s(  0.02%)p99.99( 99.92%)d 2.43(  0.05%)
                                                  f 0.42(  0.01%)
                                            0.0000  0.0000  0.0124 -0.0061 -0.0028
                                            0.0015 -0.0001  0.5069  0.0068  0.0023
                                           -0.0003 -0.0000  0.1245  0.0018 -0.0002
                                            0.0007  0.0001 -0.8523 -0.0132 -0.0040
                                            0.0018  0.0029  0.0077  0.0035  0.0059
                                            0.0079  0.0031 -0.0041 -0.0134 -0.0070
                                           -0.0038 -0.0057 -0.0032 -0.0004  0.0004
                                            0.0000  0.0038  0.0001 -0.0019  0.0006
                                            0.0003 -0.0003  0.0058 -0.0014  0.0030
                                           -0.0006 -0.0029  0.0003 -0.0034  0.0010
    31. (1.95483) LP ( 3)Cl   3           s(  0.11%)p99.99( 99.84%)d 0.36(  0.04%)
                                                  f 0.08(  0.01%)
                                            0.0000 -0.0000  0.0325  0.0050  0.0036
                                           -0.0015  0.0001 -0.8289 -0.0109 -0.0013
                                            0.0002  0.0001 -0.1978 -0.0028 -0.0006
                                           -0.0008  0.0001 -0.5215 -0.0083 -0.0012
                                            0.0003  0.0049 -0.0091 -0.0048 -0.0002
                                            0.0031  0.0019  0.0023 -0.0066 -0.0039
                                            0.0062  0.0101  0.0057 -0.0020 -0.0031
                                           -0.0003  0.0033 -0.0004  0.0008  0.0006
                                            0.0009  0.0001  0.0026 -0.0000  0.0023
                                           -0.0005  0.0053 -0.0010  0.0057 -0.0008
    32. (0.01959) RY*( 1) O   1           s(  0.21%)p99.99( 98.14%)d 7.55(  1.59%)
                                                  f 0.26(  0.06%)
                                           -0.0000 -0.0005  0.0456  0.0047  0.0013
                                            0.0150 -0.5955  0.0244  0.0094  0.0071
                                           -0.1643  0.0055 -0.0027 -0.0205  0.7730
                                           -0.0311 -0.0026 -0.0648 -0.0142 -0.0010
                                           -0.0088 -0.0092 -0.0095  0.0674  0.0207
                                            0.0062 -0.0071  0.0068  0.0066  0.0777
                                            0.0059 -0.0059 -0.0058  0.0047  0.0067
                                           -0.0068  0.0029 -0.0015 -0.0103  0.0087
                                           -0.0039  0.0033  0.0097 -0.0071  0.0044
                                           -0.0048
    33. (0.01549) RY*( 2) O   1           s( 28.73%)p 2.37( 68.22%)d 0.10(  2.78%)
                                                  f 0.01(  0.27%)
                                           -0.0000  0.0015  0.5332 -0.0542 -0.0042
                                            0.0061 -0.4514  0.0046  0.0281  0.0416
                                           -0.4912 -0.0025  0.0329  0.0075 -0.4826
                                            0.0077  0.0235 -0.0980 -0.0193 -0.0072
                                           -0.0339  0.0013  0.0099 -0.1175 -0.0214
                                           -0.0081  0.0446  0.0025 -0.0017  0.0132
                                            0.0032  0.0008  0.0035 -0.0043  0.0178
                                           -0.0095 -0.0138  0.0058  0.0265 -0.0124
                                           -0.0077  0.0051  0.0289 -0.0136 -0.0102
                                            0.0036
    34. (0.00783) RY*( 3) O   1           s( 14.06%)p 0.46(  6.41%)d 5.55( 78.00%)
                                                  f 0.11(  1.53%)
                                            0.0000  0.0142  0.3707 -0.0531  0.0123
                                            0.0092  0.1956 -0.0116  0.0591 -0.0163
                                           -0.0954  0.0020  0.0368 -0.0016  0.1058
                                           -0.0083  0.0117  0.6101 -0.0052 -0.0003
                                           -0.1736  0.0025 -0.0092  0.2794  0.0098
                                            0.0077 -0.4938 -0.0099 -0.0293  0.2336
                                           -0.0057  0.0056 -0.0010 -0.0001  0.0022
                                           -0.0080  0.0022  0.0021 -0.0553  0.0222
                                            0.0290 -0.0130 -0.0880  0.0334 -0.0379
                                            0.0192
    35. (0.00709) RY*( 4) O   1           s(  0.96%)p 0.33(  0.32%)d99.99( 96.99%)
                                                  f 1.81(  1.74%)
                                           -0.0000  0.0058  0.0974 -0.0080 -0.0028
                                            0.0104  0.0341  0.0070  0.0014 -0.0017
                                           -0.0043  0.0057  0.0081 -0.0140 -0.0370
                                           -0.0089  0.0092 -0.1554  0.0154 -0.0011
                                           -0.3578  0.0184 -0.0048  0.7917 -0.0349
                                            0.0066  0.3240 -0.0218  0.0016 -0.2886
                                            0.0146 -0.0090 -0.0715  0.0304 -0.0314
                                            0.0139  0.0147 -0.0060 -0.0744  0.0304
                                           -0.0146  0.0064  0.0357 -0.0185  0.0374
                                           -0.0138
    36. (0.00633) RY*( 5) O   1           s(  0.25%)p26.51(  6.71%)d99.99( 91.50%)
                                                  f 6.08(  1.54%)
                                           -0.0000  0.0017  0.0460 -0.0201 -0.0027
                                            0.0431  0.2342 -0.0145  0.0040 -0.0026
                                           -0.0929 -0.0018  0.0282 -0.0136  0.0232
                                           -0.0035  0.0040 -0.6648  0.0361 -0.0168
                                           -0.0367  0.0014 -0.0020  0.1675 -0.0263
                                           -0.0086 -0.2744  0.0137 -0.0128  0.6028
[...]
   161. (0.00038) RY*( 7) H   4           s(  3.76%)p17.70( 66.62%)d 7.87( 29.61%)
                                           -0.0035 -0.0465 -0.0433  0.1833  0.0657
                                            0.0206  0.3594 -0.0154 -0.6453  0.0415
                                            0.1330 -0.2535 -0.1789 -0.1245  0.1125
                                            0.3764 -0.0683  0.1299  0.0673 -0.1921
                                           -0.1788  0.1149  0.1348
   162. (0.00027) RY*( 8) H   4           s( 11.62%)p 3.67( 42.69%)d 3.93( 45.69%)
                                            0.0069 -0.0524  0.2830  0.1826  0.0205
                                            0.1106 -0.0254 -0.0460  0.3821 -0.0808
                                           -0.0140  0.2262 -0.4556  0.1057 -0.1349
                                            0.4292  0.1369 -0.0064 -0.1119 -0.4581
                                            0.0127  0.0181  0.0410
   163. (0.00028) RY*( 9) H   4           s( 12.16%)p 1.29( 15.68%)d 5.94( 72.16%)
                                            0.0052  0.0093  0.3473  0.0295 -0.0451
                                            0.3451  0.0552  0.0493  0.0922 -0.0187
                                            0.0359 -0.1332  0.0485 -0.4986 -0.0013
                                           -0.3798  0.1055  0.5341 -0.0517 -0.1685
                                           -0.0150  0.0317  0.0070
   164. (0.00024) RY*(10) H   4           s(  5.49%)p 7.09( 38.92%)d10.12( 55.59%)
                                            0.0012 -0.0142  0.2104 -0.1023 -0.0649
                                            0.1900  0.3518 -0.1188  0.1035 -0.1192
                                            0.0489 -0.3859  0.1864  0.4640  0.0145
                                           -0.3067 -0.0587 -0.3082 -0.0124 -0.3302
                                           -0.1430  0.0113  0.1348
   165. (0.00020) RY*(11) H   4           s( 14.28%)p 4.65( 66.43%)d 1.35( 19.29%)
                                           -0.0228 -0.0869  0.3653 -0.0361 -0.0932
                                           -0.4138 -0.2227  0.0095  0.1162 -0.0730
                                           -0.0284 -0.6151 -0.1918  0.0072  0.0009
                                            0.1438  0.1358  0.0738 -0.0496  0.3227
                                           -0.0420 -0.1145  0.1635
   166. (0.00017) RY*(12) H   4           s(  1.87%)p16.20( 30.25%)d36.36( 67.88%)
                                            0.0050 -0.0369 -0.0027  0.1314 -0.0708
                                            0.1963  0.1573  0.0593  0.1273  0.2061
                                            0.1210  0.0213 -0.3962 -0.0541 -0.0214
                                           -0.2033  0.0370 -0.2520 -0.0018  0.4133
                                           -0.0214  0.6028  0.1857
   167. (0.00013) RY*(13) H   4           s( 25.30%)p 0.87( 22.05%)d 2.08( 52.65%)
                                           -0.0055 -0.0145  0.2424  0.4404  0.0388
                                           -0.0580 -0.1870  0.0306  0.0582 -0.0976
                                            0.0189 -0.1604  0.3751 -0.1074  0.1097
                                            0.1570 -0.2996 -0.1753  0.0771 -0.0880
                                            0.2530  0.4084 -0.3366
   168. (0.00012) RY*(14) H   4           s( 36.80%)p 0.43( 15.67%)d 1.29( 47.53%)
                                            0.0066  0.0579  0.2475  0.5508  0.0160
                                            0.0931  0.2032  0.0198  0.0600  0.2281
                                           -0.0680  0.1676  0.1332  0.0451 -0.1221
                                            0.0093 -0.2556 -0.0294 -0.0571  0.3192
                                           -0.2373 -0.4590  0.1413
   169. (0.00010) RY*(15) H   4           s(  0.19%)p99.99( 49.76%)d99.99( 50.06%)
   170. (0.00010) RY*(16) H   4           s(  1.86%)p 2.77(  5.16%)d49.95( 92.98%)
   171. (0.00007) RY*(17) H   4           s( 39.67%)p 0.44( 17.64%)d 1.08( 42.69%)
   172. (0.00006) RY*(18) H   4           s(  1.10%)p 4.35(  4.77%)d85.81( 94.13%)
   173. (0.00005) RY*(19) H   4           s(  0.07%)p99.99( 20.84%)d99.99( 79.09%)
   174. (0.00004) RY*(20) H   4           s( 15.94%)p 0.90( 14.31%)d 4.37( 69.75%)
   175. (0.00005) RY*(21) H   4           s(  0.97%)p29.27( 28.29%)d73.19( 70.74%)
   176. (0.00003) RY*(22) H   4           s(  1.70%)p19.70( 33.56%)d38.01( 64.74%)
   177. (0.05829) BD*( 1) O   1 -Cl   3  
                ( 40.82%)   0.6389* O   1 s( 10.23%)p 8.73( 89.22%)d 0.05(  0.54%)
                                                  f 0.00(  0.02%)
                                           -0.0003 -0.3169  0.0406  0.0131  0.0016
                                            0.2141 -0.0287 -0.0063 -0.0022 -0.9187
                                            0.0190  0.0082  0.0093 -0.0268 -0.0176
                                           -0.0032  0.0005  0.0111  0.0014  0.0026
                                           -0.0082 -0.0009  0.0011 -0.0196 -0.0026
                                            0.0005  0.0584  0.0045  0.0002  0.0368
                                            0.0030  0.0003  0.0001 -0.0002 -0.0020
                                           -0.0004  0.0079 -0.0003  0.0032 -0.0018
                                           -0.0052  0.0010 -0.0049 -0.0012  0.0065
                                           -0.0009
                ( 59.18%)  -0.7693*Cl   3 s(  8.46%)p10.67( 90.26%)d 0.14(  1.17%)
                                                  f 0.01(  0.11%)
                                            0.0000 -0.0005 -0.2846  0.0586  0.0100
                                            0.0028 -0.0001 -0.2263  0.0141  0.0047
                                           -0.0014  0.0004  0.9201 -0.0657 -0.0129
                                            0.0036 -0.0000 -0.0051  0.0002  0.0021
                                           -0.0010  0.0482 -0.0054  0.0001 -0.0074
                                           -0.0003  0.0009  0.0101  0.0013  0.0009
                                            0.0785 -0.0094 -0.0006  0.0543 -0.0058
                                           -0.0001  0.0008 -0.0002  0.0048 -0.0007
                                           -0.0197  0.0025 -0.0001  0.0006  0.0018
                                           -0.0012  0.0176 -0.0024 -0.0194  0.0023
   178. (0.06606) BD*( 1) O   1 - H   4  
                ( 21.86%)   0.4676* O   1 s( 25.39%)p 2.92( 74.07%)d 0.02(  0.52%)
                                                  f 0.00(  0.01%)
                                           -0.0002 -0.5038  0.0062  0.0077 -0.0022
                                           -0.6864  0.0128  0.0066  0.0024  0.0269
                                           -0.0158 -0.0015 -0.0018 -0.5180  0.0044
                                            0.0049  0.0037 -0.0207 -0.0040 -0.0011
                                           -0.0592 -0.0036  0.0007 -0.0175 -0.0031
                                           -0.0003 -0.0306 -0.0020 -0.0019 -0.0046
                                           -0.0016 -0.0019  0.0080 -0.0005 -0.0026
                                           -0.0007 -0.0011  0.0003 -0.0046 -0.0022
                                           -0.0002  0.0009  0.0017 -0.0024  0.0019
                                            0.0001
                ( 78.14%)  -0.8839* H   4 s( 99.82%)p 0.00(  0.18%)d 0.00(  0.00%)
                                           -0.9987 -0.0265 -0.0011 -0.0001 -0.0017
                                            0.0259  0.0069 -0.0122 -0.0016  0.0039
                                           -0.0238  0.0190  0.0033 -0.0010 -0.0013
                                           -0.0011  0.0007 -0.0015 -0.0015 -0.0009
                                            0.0015  0.0017  0.0016


 NHO Directionality and "Bond Bending" (deviations from line of nuclear centers)

         [Thresholds for printing:  angular deviation  >  1.0 degree]
                                    hybrid p-character > 25.0%
                                    orbital occupancy  >  0.10e

                                Line of Centers        Hybrid 1              Hybrid 2
                                ---------------  -------------------   ------------------
                NBO               Theta   Phi    Theta   Phi    Dev    Theta   Phi    Dev
 ========================================================================================
     1. BD (   1) O   1 -Cl   3    90.0  103.4    87.0  101.3   3.6      --     --    --
     2. BD (   1) O   1 - H   4    55.0    0.0    52.8  359.3   2.3      --     --    --
    23. LP (   1) O   1             --     --    124.8  225.3   --       --     --    --
    24. LP (   2) O   1             --     --     38.4  195.5   --       --     --    --
    26. LP (   2)Br   2             --     --    105.8   96.6   --       --     --    --
    27. LP (   3)Br   2             --     --     26.5   41.3   --       --     --    --
    28. LP (   4)Br   2             --     --     69.0  180.4   --       --     --    --
    30. LP (   2)Cl   3             --     --    148.5   13.8   --       --     --    --
    31. LP (   3)Cl   3             --     --    121.5  193.5   --       --     --    --


 Natural Bond Orbitals (Summary):

           NBO                  Occupancy  
 -----------------------------------------------
 Molecular unit  1  (HOCl)
     1. BD (   1) O   1 -Cl   3          1.93990
     2. BD (   1) O   1 - H   4          1.96405
     3. CR (   1) O   1                  1.99971
    18. CR (   1)Cl   3                  2.00000
    19. CR (   2)Cl   3                  1.99981
    20. CR (   3)Cl   3                  2.00003
    21. CR (   4)Cl   3                  1.99997
    22. CR (   5)Cl   3                  2.00003
    23. LP (   1) O   1                  1.96837
    24. LP (   2) O   1                  1.95296
    29. LP (   1)Cl   3                  1.97424
    30. LP (   2)Cl   3                  1.95615
    31. LP (   3)Cl   3                  1.95483
    32. RY*(   1) O   1                  0.01959
    33. RY*(   2) O   1                  0.01549
    34. RY*(   3) O   1                  0.00783
    35. RY*(   4) O   1                  0.00709
    36. RY*(   5) O   1                  0.00633
    37. RY*(   6) O   1                  0.00608
    38. RY*(   7) O   1                  0.00573
    39. RY*(   8) O   1                  0.00285
    40. RY*(   9) O   1                  0.00252
    41. RY*(  10) O   1                  0.00079
    42. RY*(  11) O   1                  0.00067
    43. RY*(  12) O   1                  0.00063
    44. RY*(  13) O   1                  0.00058
    45. RY*(  14) O   1                  0.00051
    46. RY*(  15) O   1                  0.00050
    47. RY*(  16) O   1                  0.00050
    48. RY*(  17) O   1                  0.00047
    49. RY*(  18) O   1                  0.00048
    50. RY*(  19) O   1                  0.00045
    51. RY*(  20) O   1                  0.00044
    52. RY*(  21) O   1                  0.00045
    53. RY*(  22) O   1                  0.00042
    54. RY*(  23) O   1                  0.00035
    55. RY*(  24) O   1                  0.00030
    56. RY*(  25) O   1                  0.00024
    57. RY*(  26) O   1                  0.00020
    58. RY*(  27) O   1                  0.00015
    59. RY*(  28) O   1                  0.00013
    60. RY*(  29) O   1                  0.00013
    61. RY*(  30) O   1                  0.00011
    62. RY*(  31) O   1                  0.00009
    63. RY*(  32) O   1                  0.00008
    64. RY*(  33) O   1                  0.00007
    65. RY*(  34) O   1                  0.00007
    66. RY*(  35) O   1                  0.00007
    67. RY*(  36) O   1                  0.00008
    68. RY*(  37) O   1                  0.00007
    69. RY*(  38) O   1                  0.00004
    70. RY*(  39) O   1                  0.00004
    71. RY*(  40) O   1                  0.00005
    72. RY*(  41) O   1                  0.00002
   114. RY*(   1)Cl   3                  0.02243
   115. RY*(   2)Cl   3                  0.01747
   116. RY*(   3)Cl   3                  0.01683
   117. RY*(   4)Cl   3                  0.01640
   118. RY*(   5)Cl   3                  0.01164
   119. RY*(   6)Cl   3                  0.00917
   120. RY*(   7)Cl   3                  0.00899
   121. RY*(   8)Cl   3                  0.00627
   122. RY*(   9)Cl   3                  0.00170
   123. RY*(  10)Cl   3                  0.00127
   124. RY*(  11)Cl   3                  0.00127
   125. RY*(  12)Cl   3                  0.00119
   126. RY*(  13)Cl   3                  0.00119
   127. RY*(  14)Cl   3                  0.00116
   128. RY*(  15)Cl   3                  0.00110
   129. RY*(  16)Cl   3                  0.00094
   130. RY*(  17)Cl   3                  0.00077
   131. RY*(  18)Cl   3                  0.00074
   132. RY*(  19)Cl   3                  0.00062
   133. RY*(  20)Cl   3                  0.00055
   134. RY*(  21)Cl   3                  0.00042
   135. RY*(  22)Cl   3                  0.00038
   136. RY*(  23)Cl   3                  0.00033
   137. RY*(  24)Cl   3                  0.00031
   138. RY*(  25)Cl   3                  0.00019
   139. RY*(  26)Cl   3                  0.00016
   140. RY*(  27)Cl   3                  0.00014
   141. RY*(  28)Cl   3                  0.00013
   142. RY*(  29)Cl   3                  0.00012
   143. RY*(  30)Cl   3                  0.00012
   144. RY*(  31)Cl   3                  0.00012
   145. RY*(  32)Cl   3                  0.00010
   146. RY*(  33)Cl   3                  0.00010
   147. RY*(  34)Cl   3                  0.00010
   148. RY*(  35)Cl   3                  0.00010
   149. RY*(  36)Cl   3                  0.00010
   150. RY*(  37)Cl   3                  0.00007
   151. RY*(  38)Cl   3                  0.00005
   152. RY*(  39)Cl   3                  0.00003
   153. RY*(  40)Cl   3                  0.00003
   154. RY*(  41)Cl   3                  0.00001
   155. RY*(   1) H   4                  0.00862
   156. RY*(   2) H   4                  0.00492
   157. RY*(   3) H   4                  0.00344
   158. RY*(   4) H   4                  0.00277
   159. RY*(   5) H   4                  0.00054
   160. RY*(   6) H   4                  0.00048
   161. RY*(   7) H   4                  0.00038
   162. RY*(   8) H   4                  0.00027
   163. RY*(   9) H   4                  0.00028
   164. RY*(  10) H   4                  0.00024
   165. RY*(  11) H   4                  0.00020
   166. RY*(  12) H   4                  0.00017
   167. RY*(  13) H   4                  0.00013
   168. RY*(  14) H   4                  0.00012
   169. RY*(  15) H   4                  0.00010
   170. RY*(  16) H   4                  0.00010
   171. RY*(  17) H   4                  0.00007
   172. RY*(  18) H   4                  0.00006
   173. RY*(  19) H   4                  0.00005
   174. RY*(  20) H   4                  0.00004
   175. RY*(  21) H   4                  0.00005
   176. RY*(  22) H   4                  0.00003
   177. BD*(   1) O   1 -Cl   3          0.05829
   178. BD*(   1) O   1 - H   4          0.06606
       -------------------------------
              Total Lewis   25.71004  ( 98.6385%)
        Valence non-Lewis    0.12435  (  0.4771%)
        Rydberg non-Lewis    0.23052  (  0.8844%)
       -------------------------------
            Total unit  1   26.06491  (100.0000%)
           Charge unit  1   -0.06491

 Molecular unit  2  (Br)
     4. CR (   1)Br   2                  2.00000
     5. CR (   2)Br   2                  2.00000
     6. CR (   3)Br   2                  1.99999
     7. CR (   4)Br   2                  1.99999
     8. CR (   5)Br   2                  2.00000
     9. CR (   6)Br   2                  2.00002
    10. CR (   7)Br   2                  2.00000
    11. CR (   8)Br   2                  2.00002
    12. CR (   9)Br   2                  2.00000
    13. CR (  10)Br   2                  1.99767
    14. CR (  11)Br   2                  1.99767
    15. CR (  12)Br   2                  1.99769
    16. CR (  13)Br   2                  1.99766
    17. CR (  14)Br   2                  1.99768
    25. LP (   1)Br   2                  1.97985
    26. LP (   2)Br   2                  1.95362
    27. LP (   3)Br   2                  1.95321
    28. LP (   4)Br   2                  1.90325
    73. RY*(   1)Br   2                  0.01893
    74. RY*(   2)Br   2                  0.01888
    75. RY*(   3)Br   2                  0.01872
    76. RY*(   4)Br   2                  0.01872
    77. RY*(   5)Br   2                  0.01831
    78. RY*(   6)Br   2                  0.01175
    79. RY*(   7)Br   2                  0.01173
    80. RY*(   8)Br   2                  0.01018
    81. RY*(   9)Br   2                  0.00320
    82. RY*(  10)Br   2                  0.00181
    83. RY*(  11)Br   2                  0.00181
    84. RY*(  12)Br   2                  0.00177
    85. RY*(  13)Br   2                  0.00176
    86. RY*(  14)Br   2                  0.00176
    87. RY*(  15)Br   2                  0.00176
    88. RY*(  16)Br   2                  0.00176
    89. RY*(  17)Br   2                  0.00175
    90. RY*(  18)Br   2                  0.00175
    91. RY*(  19)Br   2                  0.00153
    92. RY*(  20)Br   2                  0.00151
    93. RY*(  21)Br   2                  0.00137
    94. RY*(  22)Br   2                  0.00081
    95. RY*(  23)Br   2                  0.00081
    96. RY*(  24)Br   2                  0.00077
    97. RY*(  25)Br   2                  0.00048
    98. RY*(  26)Br   2                  0.00029
    99. RY*(  27)Br   2                  0.00026
   100. RY*(  28)Br   2                  0.00026
   101. RY*(  29)Br   2                  0.00026
   102. RY*(  30)Br   2                  0.00025
   103. RY*(  31)Br   2                  0.00024
   104. RY*(  32)Br   2                  0.00024
   105. RY*(  33)Br   2                  0.00023
   106. RY*(  34)Br   2                  0.00023
   107. RY*(  35)Br   2                  0.00018
   108. RY*(  36)Br   2                  0.00019
   109. RY*(  37)Br   2                  0.00016
   110. RY*(  38)Br   2                  0.00012
   111. RY*(  39)Br   2                  0.00007
   112. RY*(  40)Br   2                  0.00007
   113. RY*(  41)Br   2                  0.00005
       -------------------------------
              Total Lewis   35.77832  ( 99.5637%)
        Valence non-Lewis    0.00000  (  0.0000%)
        Rydberg non-Lewis    0.15677  (  0.4363%)
       -------------------------------
            Total unit  2   35.93509  (100.0000%)
           Charge unit  2   -0.93509
 Leave Link  607 at Thu Sep 23 16:34:59 2021, MaxMem= 16106127360 cpu:              68.5 elap:               2.5
 (Enter /sw/contrib/gaussian/g16/B01/g16/l9999.exe)
 1\1\GINC-N2112\SP\RMP2-FC\Aug-CC-pVTZ\Br1Cl1H1O1(1-)\CGAVINH\23-Sep-20
 21\0\\#p pop=NBO SP NoSymm mp2/aug-cc-pvtz density=current\\title\\-1,
 1\O,0,0.,0.,0.\Br,0,3.07381747,0.,0.\Cl,0,-0.390920758,1.638332522,0.\
 H,0,0.81102606,0.,0.56788656\\Version=ES64L-G16RevB.01\HF=-3107.469420
 7\MP2=-3108.1701794\RMSD=5.554e-09\Dipole=-1.4076212,0.6494733,0.20334
 64\Quadrupole=-19.9335326,9.7361317,10.1974009,0.3241972,0.1306196,-0.
 138405\PG=C01 [X(Br1Cl1H1O1)]\\@


 SIC AS THE CAWSE OF EWERY THING IS, SIC WILBE THE EFFECT.
 -- PROVERBS AND REASONS OF THE YEAR 1585
           AS REPRINTED IN PAISLEY MAGAZINE 1828.
 Job cpu time:       0 days  0 hours  6 minutes  2.8 seconds.
 Elapsed time:       0 days  0 hours  0 minutes 19.8 seconds.
 File lengths (MBytes):  RWF=     15 Int=      0 D2E=      0 Chk=      8 Scr=      1
 Normal termination of Gaussian 16 at Thu Sep 23 16:35:00 2021.
