title                                                                   
SP        RMP2-FC                                                     Aug-CC-pVTZ         
Number of atoms                            I                4
Info1-9                                    I   N=           9
          40          13           0           0           0         110
           1           2           1
Full Title                                 C   N=           1
title       
Route                                      C   N=           5
#p pop=NBO SP NoSymm mp2/aug-cc-pvtz density=current        
Charge                                     I               -1
Multiplicity                               I                1
Number of electrons                        I               62
Number of alpha electrons                  I               31
Number of beta electrons                   I               31
Number of basis functions                  I              178
Number of independent functions            I              178
Number of point charges in /Mol/           I                0
Number of translation vectors              I                0
Atomic numbers                             I   N=           4
           8          35          17           1
Nuclear charges                            R   N=           4
  8.00000000E+00  3.50000000E+01  1.70000000E+01  1.00000000E+00
Current cartesian coordinates              R   N=          12
  0.00000000E+00  0.00000000E+00  0.00000000E+00  5.80867318E+00  0.00000000E+00
  0.00000000E+00 -7.38733169E-01  3.09599977E+00  0.00000000E+00  1.42678302E+00
  0.00000000E+00  1.19721312E+00
Number of symbols in /Mol/                 I                0
Force Field                                I                0
Atom Types                                 C   N=           4
                                                
Int Atom Types                             I   N=           4
           0           0           0           0
MM charges                                 R   N=           4
  0.00000000E+00  0.00000000E+00  0.00000000E+00  0.00000000E+00
Integer atomic weights                     I   N=           4
          16          79          35           1
Real atomic weights                        R   N=           4
  1.59949146E+01  7.89183361E+01  3.49688527E+01  1.00782504E+00
Atom fragment info                         I   N=           4
           0           0           0           0
Atom residue num                           I   N=           4
           0           0           0           0
Nuclear spins                              I   N=           4
           0           3           3           1
Nuclear ZEff                               R   N=           4
 -5.60000000E+00 -2.45000000E+01 -1.42400000E+01 -1.00000000E+00
Nuclear ZNuc                               R   N=           4
  8.00000000E+00  3.50000000E+01  1.70000000E+01  1.00000000E+00
Nuclear QMom                               R   N=           4
  0.00000000E+00  3.13000000E+01 -8.16500000E+00  0.00000000E+00
Nuclear GFac                               R   N=           4
  0.00000000E+00  2.10639900E+00  8.21874000E-01  2.79284600E+00
MicOpt                                     I   N=           4
          -1          -1          -1          -1
Number of residues                         I                0
Number of secondary structures             I                0
Number of contracted shells                I               58
Number of primitive shells                 I              180
Pure/Cartesian d shells                    I                0
Pure/Cartesian f shells                    I                0
Highest angular momentum                   I                3
Largest degree of contraction              I               15
Shell types                                I   N=          58
           0           0           0           0           0           1
           1           1           1          -2          -2          -2
          -3          -3           0           0           0           0
           0           0           0           1           1           1
           1           1           1          -2          -2          -2
          -2          -3          -3           0           0           0
           0           0           0           1           1           1
           1           1          -2          -2          -2          -3
          -3           0           0           0           0           1
           1           1          -2          -2
Number of primitives per shell             I   N=          58
           7           6           1           1           1           3
           1           1           1           1           1           1
           1           1          15          12          10          10
           1           1           1           9           9           8
           1           1           1           7           1           1
           1           1           1          11           9           8
           1           1           1           6           6           1
           1           1           1           1           1           1
           1           3           1           1           1           1
           1           1           1           1
Shell to atom map                          I   N=          58
           1           1           1           1           1           1
           1           1           1           1           1           1
           1           1           2           2           2           2
           2           2           2           2           2           2
           2           2           2           2           2           2
           2           2           2           3           3           3
           3           3           3           3           3           3
           3           3           3           3           3           3
           3           4           4           4           4           4
           4           4           4           4
Primitive exponents                        R   N=         180
  1.53300000E+04  2.29900000E+03  5.22400000E+02  1.47300000E+02  4.75500000E+01
  1.67600000E+01  6.20700000E+00  5.22400000E+02  1.47300000E+02  4.75500000E+01
  1.67600000E+01  6.20700000E+00  6.88200000E-01  1.75200000E+00  2.38400000E-01
  7.37600000E-02  3.44600000E+01  7.74900000E+00  2.28000000E+00  7.15600000E-01
  2.14000000E-01  5.97400000E-02  2.31400000E+00  6.45000000E-01  2.14000000E-01
  1.42800000E+00  5.00000000E-01  1.06390000E+07  1.59340000E+06  3.62610000E+05
  1.02700000E+05  3.35010000E+04  1.20930000E+04  4.71590000E+03  1.95560000E+03
  8.52610000E+02  3.87670000E+02  1.82680000E+02  8.82450000E+01  3.92630000E+01
  9.40570000E+00  1.89950000E+00  3.35010000E+04  1.20930000E+04  4.71590000E+03
  1.95560000E+03  8.52610000E+02  3.87670000E+02  1.82680000E+02  8.82450000E+01
  3.92630000E+01  1.92340000E+01  9.40570000E+00  1.89950000E+00  4.71590000E+03
  8.52610000E+02  3.87670000E+02  1.82680000E+02  8.82450000E+01  3.92630000E+01
  1.92340000E+01  9.40570000E+00  4.16010000E+00  1.89950000E+00  4.71590000E+03
  8.52610000E+02  3.87670000E+02  8.82450000E+01  3.92630000E+01  1.92340000E+01
  9.40570000E+00  4.16010000E+00  1.89950000E+00  3.01140000E-01  6.04720000E-01
  1.25150000E-01  4.55930000E-02  8.67650000E+03  2.05590000E+03  6.66230000E+02
  2.53100000E+02  1.06120000E+02  4.72420000E+01  2.18250000E+01  9.96840000E+00
  1.99820000E+00  8.67650000E+03  6.66230000E+02  2.53100000E+02  1.06120000E+02
  4.72420000E+01  2.18250000E+01  9.96840000E+00  4.51710000E+00  1.99820000E+00
  6.66230000E+02  1.06120000E+02  4.72420000E+01  2.18250000E+01  9.96840000E+00
  4.51710000E+00  1.99820000E+00  2.81450000E-01  7.09880000E-01  1.02040000E-01
  3.51420000E-02  4.03830000E+02  1.21170000E+02  4.63450000E+01  1.97210000E+01
  8.86240000E+00  3.99620000E+00  1.76360000E+00  7.06190000E-01  2.63900000E-01
  1.04700000E-01  5.51500000E-01  2.58000000E-01  4.56100000E+05  6.83300000E+04
  1.55500000E+04  4.40500000E+03  1.43900000E+03  5.20400000E+02  2.03100000E+02
  8.39600000E+01  3.62000000E+01  1.58300000E+01  6.33400000E+00  4.40500000E+03
  1.43900000E+03  5.20400000E+02  2.03100000E+02  8.39600000E+01  3.62000000E+01
  1.58300000E+01  6.33400000E+00  2.69400000E+00  1.43900000E+03  2.03100000E+02
  8.39600000E+01  3.62000000E+01  1.58300000E+01  6.33400000E+00  2.69400000E+00
  4.31300000E-01  9.76800000E-01  1.62500000E-01  5.91000000E-02  6.63300000E+02
  1.56800000E+02  4.99800000E+01  1.84200000E+01  7.24000000E+00  2.92200000E+00
  1.56800000E+02  4.99800000E+01  1.84200000E+01  7.24000000E+00  2.92200000E+00
  3.81800000E-01  1.02200000E+00  1.30100000E-01  4.19000000E-02  1.04600000E+00
  3.44000000E-01  1.35000000E-01  7.06000000E-01  3.12000000E-01  3.38700000E+01
  5.09500000E+00  1.15900000E+00  3.25800000E-01  1.02700000E-01  2.52600000E-02
  1.40700000E+00  3.88000000E-01  1.02000000E-01  1.05700000E+00  2.47000000E-01
Contraction coefficients                   R   N=         180
  5.19808943E-04  4.02025621E-03  2.07128267E-02  8.10105536E-02  2.35962985E-01
  4.42653446E-01  3.57064423E-01 -4.42115008E-05 -1.22591041E-03 -1.05517725E-02
 -6.74452633E-02 -1.71198607E-01  1.07329856E+00  1.00000000E+00  1.00000000E+00
  1.00000000E+00  4.11634896E-02  2.57762836E-01  8.02419274E-01  1.00000000E+00
  1.00000000E+00  1.00000000E+00  1.00000000E+00  1.00000000E+00  1.00000000E+00
  1.00000000E+00  1.00000000E+00  5.89674518E-06  4.60752740E-05  2.42070343E-04
  1.02205299E-03  3.70930499E-03  1.19720307E-02  3.46735726E-02  8.90729487E-02
  1.93334549E-01  3.20663919E-01  3.29580713E-01  1.49250790E-01  1.55764867E-02
  7.93747636E-04  2.65221775E-04 -5.68536848E-06 -3.52666574E-05 -3.27539377E-04
 -1.87629276E-03 -1.01414527E-02 -3.80702440E-02 -9.57536910E-02 -4.73840598E-02
  3.47577995E-01  5.73945554E-01  2.14222079E-01 -1.02928963E-02  7.18105399E-06
  1.20828593E-04  4.42852463E-04  3.05163083E-03  3.69571776E-03 -4.41792565E-02
 -2.33790718E-01 -4.89037435E-02  6.44374705E-01  5.44424123E-01  2.45813907E-06
  1.21542842E-05 -4.20845287E-05 -2.71411136E-04  1.88335237E-03  1.04009470E-02
  6.18574958E-03 -1.11556547E-01 -4.47970305E-01  1.18314733E+00  1.00000000E+00
  1.00000000E+00  1.00000000E+00  4.37079993E-04  3.79355062E-03  2.05440673E-02
  7.95459389E-02  2.18602295E-01  3.89303910E-01  3.60668111E-01  1.10677963E-01
 -1.34807692E-03  1.00103778E-06 -7.06114784E-05 -1.15560817E-03 -7.09755620E-03
 -2.44937124E-02 -1.01982599E-02  2.19854720E-01  5.15741017E-01  3.67494091E-01
 -2.33484889E-05 -3.27796533E-04  4.19438933E-04 -2.20691716E-03 -6.45224464E-03
 -4.68458724E-02 -4.09196666E-02  1.01815889E+00  1.00000000E+00  1.00000000E+00
  1.00000000E+00  1.51744738E-03  1.30531170E-02  5.97884776E-02  1.75631556E-01
  3.28164786E-01  3.96050780E-01  2.81996460E-01  1.00000000E+00  1.00000000E+00
  1.00000000E+00  1.00000000E+00  1.00000000E+00  4.93229477E-05  3.83207967E-04
  2.00947816E-03  8.38950124E-03  2.94843950E-02  8.78759948E-02  2.11589759E-01
  3.65611554E-01  3.41246350E-01  1.02162570E-01  2.14249949E-03 -2.21747925E-06
 -1.71189708E-04 -1.27922846E-03 -9.32956265E-03 -3.98910062E-02 -1.05536085E-01
  9.36202446E-03  5.10511140E-01  5.73150737E-01  4.03949245E-06  2.12481765E-04
  8.59484452E-04  4.63248159E-03  4.47343490E-04 -7.38438245E-02 -3.62271994E-01
  1.16620337E+00  1.00000000E+00  1.00000000E+00  1.00000000E+00  2.47206402E-03
  1.97550234E-02  9.09917355E-02  2.63187834E-01  4.49078073E-01  3.60183072E-01
  3.03427809E-05 -1.22475826E-03 -6.01429772E-03 -2.76401323E-02  4.35105612E-04
  1.00307272E+00  1.00000000E+00  1.00000000E+00  1.00000000E+00  1.00000000E+00
  1.00000000E+00  1.00000000E+00  1.00000000E+00  1.00000000E+00  2.54948632E-02
  1.90362766E-01  8.52162022E-01  1.00000000E+00  1.00000000E+00  1.00000000E+00
  1.00000000E+00  1.00000000E+00  1.00000000E+00  1.00000000E+00  1.00000000E+00
Coordinates of each shell                  R   N=         174
  0.00000000E+00  0.00000000E+00  0.00000000E+00  0.00000000E+00  0.00000000E+00
  0.00000000E+00  0.00000000E+00  0.00000000E+00  0.00000000E+00  0.00000000E+00
  0.00000000E+00  0.00000000E+00  0.00000000E+00  0.00000000E+00  0.00000000E+00
  0.00000000E+00  0.00000000E+00  0.00000000E+00  0.00000000E+00  0.00000000E+00
  0.00000000E+00  0.00000000E+00  0.00000000E+00  0.00000000E+00  0.00000000E+00
  0.00000000E+00  0.00000000E+00  0.00000000E+00  0.00000000E+00  0.00000000E+00
  0.00000000E+00  0.00000000E+00  0.00000000E+00  0.00000000E+00  0.00000000E+00
  0.00000000E+00  0.00000000E+00  0.00000000E+00  0.00000000E+00  0.00000000E+00
  0.00000000E+00  0.00000000E+00  5.80867318E+00  0.00000000E+00  0.00000000E+00
  5.80867318E+00  0.00000000E+00  0.00000000E+00  5.80867318E+00  0.00000000E+00
  0.00000000E+00  5.80867318E+00  0.00000000E+00  0.00000000E+00  5.80867318E+00
  0.00000000E+00  0.00000000E+00  5.80867318E+00  0.00000000E+00  0.00000000E+00
  5.80867318E+00  0.00000000E+00  0.00000000E+00  5.80867318E+00  0.00000000E+00
  0.00000000E+00  5.80867318E+00  0.00000000E+00  0.00000000E+00  5.80867318E+00
  0.00000000E+00  0.00000000E+00  5.80867318E+00  0.00000000E+00  0.00000000E+00
  5.80867318E+00  0.00000000E+00  0.00000000E+00  5.80867318E+00  0.00000000E+00
  0.00000000E+00  5.80867318E+00  0.00000000E+00  0.00000000E+00  5.80867318E+00
  0.00000000E+00  0.00000000E+00  5.80867318E+00  0.00000000E+00  0.00000000E+00
  5.80867318E+00  0.00000000E+00  0.00000000E+00  5.80867318E+00  0.00000000E+00
  0.00000000E+00  5.80867318E+00  0.00000000E+00  0.00000000E+00 -7.38733169E-01
  3.09599977E+00  0.00000000E+00 -7.38733169E-01  3.09599977E+00  0.00000000E+00
 -7.38733169E-01  3.09599977E+00  0.00000000E+00 -7.38733169E-01  3.09599977E+00
  0.00000000E+00 -7.38733169E-01  3.09599977E+00  0.00000000E+00 -7.38733169E-01
  3.09599977E+00  0.00000000E+00 -7.38733169E-01  3.09599977E+00  0.00000000E+00
 -7.38733169E-01  3.09599977E+00  0.00000000E+00 -7.38733169E-01  3.09599977E+00
  0.00000000E+00 -7.38733169E-01  3.09599977E+00  0.00000000E+00 -7.38733169E-01
  3.09599977E+00  0.00000000E+00 -7.38733169E-01  3.09599977E+00  0.00000000E+00
 -7.38733169E-01  3.09599977E+00  0.00000000E+00 -7.38733169E-01  3.09599977E+00
  0.00000000E+00 -7.38733169E-01  3.09599977E+00  0.00000000E+00 -7.38733169E-01
  3.09599977E+00  0.00000000E+00  1.42678302E+00  0.00000000E+00  1.19721312E+00
  1.42678302E+00  0.00000000E+00  1.19721312E+00  1.42678302E+00  0.00000000E+00
  1.19721312E+00  1.42678302E+00  0.00000000E+00  1.19721312E+00  1.42678302E+00
  0.00000000E+00  1.19721312E+00  1.42678302E+00  0.00000000E+00  1.19721312E+00
  1.42678302E+00  0.00000000E+00  1.19721312E+00  1.42678302E+00  0.00000000E+00
  1.19721312E+00  1.42678302E+00  0.00000000E+00  1.19721312E+00
Num ILSW                                   I              100
ILSW                                       I   N=         100
           0           0           0           0           2           0
           0           0           0           0           0          -1
           5           0           0           0           0           0
           0           0           0           0           0           0
           1           1           0           0           0           0
           0           0      100000           0          -1           0
           0           0           0           0           0           0
           0           0           0           1           0           0
           0 -2000000000           1           0           0           0
           0           0           4          52           0           0
           0           0           0           0           0           0
           0           0           0           4           0           1
           0           0           0           0           0           0
           0           0           0           0           0           0
           0           0           0           0           0           0
           0           0           0           0           0           0
           0           0           0           0
Num RLSW                                   I               52
RLSW                                       R   N=          52
  1.00000000E+00  1.00000000E+00  1.00000000E+00  1.00000000E+00  1.00000000E+00
  0.00000000E+00  0.00000000E+00  1.00000000E+00  0.00000000E+00  0.00000000E+00
  0.00000000E+00  0.00000000E+00  1.00000000E+00  0.00000000E+00  0.00000000E+00
  0.00000000E+00  0.00000000E+00  1.00000000E+00  0.00000000E+00  0.00000000E+00
  0.00000000E+00  0.00000000E+00  1.00000000E+00  0.00000000E+00  0.00000000E+00
  0.00000000E+00  0.00000000E+00  1.00000000E+00  0.00000000E+00  0.00000000E+00
  0.00000000E+00  0.00000000E+00  1.00000000E+00  0.00000000E+00  0.00000000E+00
  0.00000000E+00  0.00000000E+00  0.00000000E+00  1.00000000E+00  1.00000000E+00
  0.00000000E+00  1.00000000E+00  0.00000000E+00  0.00000000E+00  0.00000000E+00
  0.00000000E+00  0.00000000E+00  0.00000000E+00  0.00000000E+00  0.00000000E+00
  0.00000000E+00  0.00000000E+00
MxBond                                     I                2
NBond                                      I   N=           4
           2           0           1           1
IBond                                      I   N=           8
           3           4           0           0           1           0
           1           0
RBond                                      R   N=           8
  1.00000000E+00  1.00000000E+00  0.00000000E+00  0.00000000E+00  1.00000000E+00
  0.00000000E+00  1.00000000E+00  0.00000000E+00
Virial Ratio                               R      2.000038639874930E+00
SCF Energy                                 R     -3.107467055290536E+03
MP2 Energy                                 R     -3.108167205216427E+03
Total Energy                               R     -3.108167205216427E+03
Post-SCF wavefunction norm                 R      1.105102115743328E+00
RMS Density                                R      6.108542294779260E-09
Job Status                                 I                1
Nuclear derivative order                   I                0
External E-field                           R   N=          35
  0.00000000E+00  0.00000000E+00  0.00000000E+00  0.00000000E+00  0.00000000E+00
  0.00000000E+00  0.00000000E+00  0.00000000E+00  0.00000000E+00  0.00000000E+00
  0.00000000E+00  0.00000000E+00  0.00000000E+00  0.00000000E+00  0.00000000E+00
  0.00000000E+00  0.00000000E+00  0.00000000E+00  0.00000000E+00  0.00000000E+00
  0.00000000E+00  0.00000000E+00  0.00000000E+00  0.00000000E+00  0.00000000E+00
  0.00000000E+00  0.00000000E+00  0.00000000E+00  0.00000000E+00  0.00000000E+00
  0.00000000E+00  0.00000000E+00  0.00000000E+00  0.00000000E+00  0.00000000E+00
IOpCl                                      I                0
IROHF                                      I                0
Alpha Orbital Energies                     R   N=         178
 -4.89740474E+02 -1.04741273E+02 -6.48807616E+01 -5.82352783E+01 -5.82352236E+01
 -5.82351797E+01 -2.04802510E+01 -1.04609152E+01 -9.55326318E+00 -7.92810414E+00
 -7.92537259E+00 -7.92521987E+00 -7.16095044E+00 -7.16057791E+00 -7.16044503E+00
 -2.90267503E+00 -2.90257309E+00 -2.90237421E+00 -2.90191637E+00 -2.90189950E+00
 -1.25078006E+00 -9.07364498E-01 -7.11719675E-01 -5.57938499E-01 -4.57226560E-01
 -4.48263462E-01 -3.18917306E-01 -2.92403143E-01 -1.66300332E-01 -1.61143167E-01
 -1.59840756E-01  1.50480435E-01  1.76474293E-01  2.17186984E-01  2.25303129E-01
  2.42691088E-01  2.50087998E-01  2.51222632E-01  2.78053671E-01  2.81733373E-01
  3.10136739E-01  3.25492957E-01  3.33587795E-01  3.65508817E-01  3.98684461E-01
  4.41788036E-01  4.57222111E-01  4.91346237E-01  4.96387012E-01  5.13275640E-01
  5.34436548E-01  5.45611027E-01  5.54344797E-01  5.67186796E-01  5.86028886E-01
  5.96581300E-01  6.03047597E-01  6.39945264E-01  6.46516973E-01  7.30387770E-01
  7.43987765E-01  7.54563543E-01  7.73256995E-01  8.15193080E-01  8.64368964E-01
  8.69038967E-01  8.76266827E-01  8.97452139E-01  9.41018485E-01  9.67705612E-01
  9.89951046E-01  1.00959939E+00  1.01970779E+00  1.02975463E+00  1.04102199E+00
  1.04361301E+00  1.07378105E+00  1.08105091E+00  1.09220801E+00  1.10707394E+00
  1.12626248E+00  1.13116723E+00  1.17345739E+00  1.18623542E+00  1.19637214E+00
  1.21052166E+00  1.21296921E+00  1.23043715E+00  1.26242371E+00  1.26504677E+00
  1.33101510E+00  1.34240116E+00  1.36557878E+00  1.39768590E+00  1.44936653E+00
  1.48314632E+00  1.51175423E+00  1.55506421E+00  1.58829430E+00  1.64009761E+00
  1.67782876E+00  1.69198019E+00  1.69964884E+00  1.75091721E+00  1.76797436E+00
  1.85801852E+00  1.96659667E+00  2.09912053E+00  2.31219803E+00  2.39811874E+00
  2.40163865E+00  2.41072449E+00  2.45905650E+00  2.46852211E+00  2.49366492E+00
  2.51401237E+00  2.53748904E+00  2.55140646E+00  2.56390568E+00  2.56422704E+00
  2.56959978E+00  2.57217893E+00  2.60377886E+00  2.61109069E+00  2.63368058E+00
  2.63919285E+00  2.65472390E+00  2.66986771E+00  2.68644114E+00  2.69646052E+00
  2.70702469E+00  2.71956261E+00  2.72553825E+00  2.75164701E+00  2.78728044E+00
  2.80600608E+00  2.86204407E+00  2.92898003E+00  2.96817753E+00  3.01563702E+00
  3.10776870E+00  3.18649928E+00  3.21288670E+00  3.22402757E+00  3.23444733E+00
  3.29137521E+00  3.34021366E+00  3.48913524E+00  3.54864268E+00  3.55467359E+00
  3.90336159E+00  4.01022085E+00  4.33344507E+00  4.39759710E+00  4.46784905E+00
  4.55468665E+00  4.62887977E+00  4.72550641E+00  4.91798145E+00  5.00045181E+00
  5.35937029E+00  5.44244687E+00  5.68397908E+00  6.37168984E+00  6.61964337E+00
  6.85619916E+00  6.89490571E+00  6.90772450E+00  6.97392124E+00  7.32584838E+00
  7.35033022E+00  7.36067003E+00  7.45279103E+00  7.48824451E+00  7.70448300E+00
  7.72475374E+00  8.37955213E+00  1.45429440E+01
Alpha MO coefficients                      R   N=       31684
 -4.10007381E-08 -2.36791748E-07 -1.74252939E-08  8.42863630E-07  2.67178927E-06
 -1.83899719E-08 -4.04880757E-09  1.94402723E-09  6.20029785E-08 -2.94129367E-09
 -3.62883031E-09  1.01185881E-06 -1.57847900E-08  1.63237584E-06  1.67997039E-07
  2.51570310E-07  9.72015159E-07  1.23408842E-08 -3.48138564E-08 -1.60781315E-09
 -6.71234817E-09  1.10452698E-08 -3.60592930E-08  2.50400398E-07  6.66559216E-09
  7.47168117E-08 -4.31318753E-08  1.84728126E-07  4.06760363E-07  1.35669023E-07
  5.31898887E-07 -1.41871586E-08 -3.05191280E-08  2.25255848E-08 -3.62506556E-09
  3.10189921E-08 -3.92984530E-09 -2.56610572E-08  7.59268938E-09 -6.39029060E-09
  2.12041684E-09  3.11134188E-09  4.95395620E-08  2.05233529E-08  1.77551987E-07
 -2.92805141E-08  1.00053502E+00 -1.74607802E-03 -3.66970777E-04  2.49937433E-05
 -3.80452024E-05 -1.29594446E-05  1.93877173E-06 -1.61317603E-07 -4.35571469E-08
  4.13552455E-07 -5.16466222E-08  2.45975037E-08 -1.47147934E-07 -1.02370962E-06
  6.53725717E-08  1.11270512E-07  2.65980878E-07 -2.83127868E-08  5.18595458E-08
  3.38515241E-06 -1.75964953E-07 -6.24062798E-07 -4.80857798E-07  6.87019568E-08
  1.99775139E-08  1.61406008E-08 -3.82513563E-08  2.32527191E-10 -9.28236627E-09
  6.66461218E-09 -4.36536687E-08  2.70256336E-08 -4.62901542E-09  6.23657145E-08
 -2.03651395E-08  2.29532929E-08 -4.08764159E-08  1.23515365E-08 -2.94018816E-08
  3.12972794E-08  5.72298800E-07  4.88844258E-07 -2.79054203E-08 -1.10543715E-06
  6.79281462E-08 -5.95490386E-08  1.15611909E-07 -2.98531592E-09  8.34908367E-08
 -7.53987170E-10 -1.90184207E-07  2.81215910E-08  1.21691081E-07 -2.36205728E-07
  8.96107765E-09 -1.71952539E-07  2.56539476E-10  3.92033557E-07 -5.69024396E-08
  7.70630136E-09  1.11438642E-07  2.99553298E-07 -2.78339421E-08 -9.07002194E-07
 -4.37241324E-07 -2.27372897E-08  6.72323681E-09 -5.05798000E-09 -2.17176771E-07
  9.75409077E-08 -5.23610676E-08  9.48058640E-08 -3.36817569E-08  2.13867503E-08
 -1.73708515E-07  2.16157427E-07 -2.62996455E-07 -2.10548720E-07 -1.16361625E-08
 -8.62991457E-08 -3.57779599E-09  7.81508395E-09 -2.45487608E-08  1.65118228E-08
 -2.02603095E-08  8.12267826E-08 -4.59029570E-08  1.20124451E-07  1.36403798E-08
  1.23876220E-07 -3.92255751E-08 -8.32333846E-08  7.59161867E-08 -1.12447367E-07
 -1.16954493E-07 -2.23571698E-08  6.34163961E-08 -2.85189490E-08  4.73431469E-09
  1.69456985E-09  9.52715905E-09 -5.17928925E-10  7.85799927E-08 -1.06867057E-07
  2.86814956E-08  1.80612263E-08  4.05900259E-08 -3.73283968E-08 -2.99052659E-08
 -3.50238148E-10 -2.42744384E-06  2.01130364E-06 -7.17220781E-07  1.24711779E-07
 -6.17209247E-09  9.60629114E-08  3.49293871E-07 -2.80308061E-08  1.41136540E-07
  2.35452343E-06  5.95688527E-07 -1.42796819E-06 -5.09379836E-08 -3.48583312E-08
  1.38086721E-08  2.58099077E-08  1.56277196E-08  2.66756080E-08  3.25743947E-07
 -1.40837048E-07  1.13949967E-08 -1.20334775E-07  6.40111453E-06  3.48696012E-05
  1.04447592E-06 -1.32111225E-04 -7.49650930E-05 -1.75606756E-07  3.23765161E-06
  5.55275777E-07  3.43182786E-07 -9.81901704E-06 -2.10598495E-06  5.05535806E-05
 -1.49148611E-04  5.76250698E-06  1.53755618E-05 -3.01090734E-05  5.07429516E-06
 -1.90934057E-06  2.24698144E-07  1.65674747E-07 -2.87367763E-06 -1.40764354E-06
  1.32456689E-05  2.21194021E-08 -1.02745598E-06  2.07725620E-05  9.57587161E-06
  2.67943464E-05  9.41516727E-06 -9.34779198E-06  5.55306764E-05  1.46881157E-05
 -3.15385303E-08 -1.03948791E-07  7.07936023E-07 -8.12258673E-07  8.24208346E-07
 -1.15162660E-06  5.62130913E-07 -1.52617436E-07 -2.12384925E-06  1.01883385E-05
  3.80480549E-06 -3.34978266E-06 -6.68911462E-06  1.07058386E-05  1.14046797E-07
  5.91405986E-07  3.44391059E-06  8.01479435E-06 -8.48383892E-07 -1.47626307E-05
 -9.96796749E-06 -7.07538866E-08  1.61289741E-09  1.07285520E-09  3.45272558E-07
 -1.21437152E-08 -3.64937462E-09  4.44134588E-07 -8.83895884E-08  3.30545904E-08
 -1.46444804E-06  7.35177245E-09  8.20613798E-08  1.55917434E-05 -2.18519497E-07
 -3.37092904E-06  3.04949594E-06 -1.18254302E-07  3.49520798E-07  5.46134021E-08
  1.00298753E-08  8.32137222E-09 -1.67237623E-07 -5.58932637E-08 -4.76474584E-07
 -1.46817518E-07 -7.51243787E-08  1.25267084E-06  2.77159827E-07  1.51560624E-06
  9.20575421E-07  3.64391766E-07 -3.61692564E-06 -3.37885569E-07  3.06906403E-06
  1.84690238E-06 -1.08897463E-06 -5.23740367E-06  2.19757110E-07  8.26771054E-08
  1.77487404E-08  3.29669004E-07 -1.07974689E-07 -5.86522376E-07 -8.23489829E-07
 -7.78345365E-07  2.45463448E-07 -1.22633674E-06 -5.46013208E-07 -3.67769961E-07
  9.90310106E-07  3.28297585E-06  1.34029701E-06  9.99534861E-01  1.95365494E-03
  1.84329669E-04 -4.17405085E-04  6.91961388E-05  6.81864097E-05  1.62353560E-05
 -7.64250944E-05  2.39906535E-06  3.48581786E-05 -1.34628630E-04  3.96835788E-06
 -1.68619803E-05  7.22587933E-05 -2.24114238E-06  7.55531999E-06 -5.22257476E-05
 -2.32792546E-06  1.41084899E-06 -1.12251669E-05 -1.37712640E-06 -3.72308475E-06
  1.62963789E-07 -1.42794928E-07 -5.52493650E-06 -3.33112059E-06 -2.79024742E-05
  6.31997926E-07 -1.47701504E-06 -4.29305212E-05 -2.33261276E-05 -2.80527873E-06
 -3.35702273E-06  4.63142817E-07 -6.65058059E-06  1.60608613E-07 -5.85541528E-07
 -1.31939778E-06  5.66042988E-06  2.83397978E-07 -1.25991205E-06 -5.21937909E-06
  4.70559221E-06  8.08455656E-07 -1.19705697E-06  3.76978199E-06 -1.17280079E-06
  2.32198549E-06 -2.96929251E-06  5.77409943E-06 -6.23245652E-07 -2.33393885E-05
  1.19133172E-05 -4.72308208E-06  9.41518992E-07 -2.10279636E-06  5.33139750E-07
 -6.76819827E-06  1.66235897E-05  6.96442795E-07  9.07307531E-06  1.35581693E-05
 -2.86170462E-06 -8.08596864E-07 -1.63813668E-07 -1.38625856E-07 -1.71368489E-06
 -8.24558365E-07 -5.02089153E-06  1.59621775E-06 -9.11141328E-07  4.32891457E-06
 -3.81629197E-06 -5.84412131E-08  4.85146268E-10 -1.43064442E-07  2.90118075E-06
  1.16961630E-05  6.13508628E-08  2.33514479E-08  5.77863441E-08  6.32050222E-07
  1.90314684E-08  3.41385012E-08  4.64697984E-06 -1.70396988E-07  5.85415936E-06
  8.69043164E-07  1.42077522E-06  4.03491789E-06  2.74497992E-08 -1.47055596E-07
 -2.00190903E-08  4.46092284E-08  5.24509304E-08 -6.15468469E-08  1.05710029E-06
  8.01680919E-08  1.00508323E-07 -1.65997523E-07  1.80438403E-07  2.11922760E-06
  1.71312129E-07  2.19758382E-06  3.00023669E-07  1.05300925E-09  6.67323445E-08
 -9.97301301E-09  5.35383186E-08 -1.88719084E-08 -8.62849276E-08  1.79364469E-08
 -3.15579131E-07  1.45460417E-07  1.23012969E-08  3.24982495E-07  1.00448633E-07
  4.58363826E-07 -4.66597791E-08 -3.14071648E-01  1.04046617E+00  2.14002620E-02
  2.77513376E-05 -7.54592333E-05 -4.97947872E-05  4.99147044E-07 -1.05592187E-05
 -6.92227467E-06  5.87806443E-05 -2.52170260E-06 -4.75364522E-07  4.82045980E-06
 -3.83916187E-06 -5.43317526E-08  2.25256813E-06  1.64355383E-06  2.05059694E-07
 -2.31926462E-06  1.77164830E-05 -5.14494101E-07 -4.60309733E-06 -1.01799992E-06
  1.65578037E-07  1.22760326E-07  7.42499503E-07 -2.11422809E-06 -3.29822215E-08
 -1.71036885E-07  2.66457082E-07 -4.12921638E-07  2.52097419E-07 -7.86107902E-09
  5.29853976E-07 -1.40682022E-07  8.07585268E-07 -1.60991514E-07  3.00767876E-08
 -1.19211139E-06  2.60269319E-07  2.83993433E-06  2.85568708E-06 -1.06341842E-07
 -5.68929727E-06  1.92505225E-07 -1.71756775E-07  5.50346087E-07 -6.96824267E-11
  2.30063344E-07 -1.06557746E-08 -8.10822198E-07  8.85826812E-08  7.87330884E-07
 -1.32229131E-06  1.36882239E-08 -1.07714515E-06  1.69868681E-08  2.20653965E-06
 -2.25578542E-07  4.21756800E-08  6.00561950E-07  1.57539058E-06 -3.14195727E-07
 -3.56622390E-06 -2.74638895E-06 -6.92369250E-08 -1.94027034E-08 -1.74672005E-08
 -4.26487872E-07  4.75444473E-08 -2.15745535E-07  2.55420978E-07 -1.49155850E-08
  7.58003683E-08 -1.64667406E-06  1.11403788E-06 -4.66673175E-07 -5.56162682E-07
  8.85477528E-08 -5.93717763E-07 -4.51098295E-08 -7.78769500E-09 -6.35535254E-08