title                                                                   
SP        RMP2-FC                                                     Aug-CC-pVTZ         
Number of atoms                            I                4
Info1-9                                    I   N=           9
          40          13           0           0           0         110
           1           2           1
Full Title                                 C   N=           1
title       
Route                                      C   N=           5
#p pop=NBO SP NoSymm mp2/aug-cc-pvtz density=current        
Charge                                     I               -1
Multiplicity                               I                1
Number of electrons                        I               62
Number of alpha electrons                  I               31
Number of beta electrons                   I               31
Number of basis functions                  I              178
Number of independent functions            I              178
Number of point charges in /Mol/           I                0
Number of translation vectors              I                0
Atomic numbers                             I   N=           4
           8          35          17           1
Nuclear charges                            R   N=           4
  8.00000000E+00  3.50000000E+01  1.70000000E+01  1.00000000E+00
Current cartesian coordinates              R   N=          12
  0.00000000E+00  0.00000000E+00  0.00000000E+00  5.80867318E+00  0.00000000E+00
  0.00000000E+00 -7.38733169E-01  3.09599977E+00  0.00000000E+00  1.31183845E+00
  0.00000000E+00  1.31183845E+00
Number of symbols in /Mol/                 I                0
Force Field                                I                0
Atom Types                                 C   N=           4
                                                
Int Atom Types                             I   N=           4
           0           0           0           0
MM charges                                 R   N=           4
  0.00000000E+00  0.00000000E+00  0.00000000E+00  0.00000000E+00
Integer atomic weights                     I   N=           4
          16          79          35           1
Real atomic weights                        R   N=           4
  1.59949146E+01  7.89183361E+01  3.49688527E+01  1.00782504E+00
Atom fragment info                         I   N=           4
           0           0           0           0
Atom residue num                           I   N=           4
           0           0           0           0
Nuclear spins                              I   N=           4
           0           3           3           1
Nuclear ZEff                               R   N=           4
 -5.60000000E+00 -2.45000000E+01 -1.42400000E+01 -1.00000000E+00
Nuclear ZNuc                               R   N=           4
  8.00000000E+00  3.50000000E+01  1.70000000E+01  1.00000000E+00
Nuclear QMom                               R   N=           4
  0.00000000E+00  3.13000000E+01 -8.16500000E+00  0.00000000E+00
Nuclear GFac                               R   N=           4
  0.00000000E+00  2.10639900E+00  8.21874000E-01  2.79284600E+00
MicOpt                                     I   N=           4
          -1          -1          -1          -1
Number of residues                         I                0
Number of secondary structures             I                0
Number of contracted shells                I               58
Number of primitive shells                 I              180
Pure/Cartesian d shells                    I                0
Pure/Cartesian f shells                    I                0
Highest angular momentum                   I                3
Largest degree of contraction              I               15
Shell types                                I   N=          58
           0           0           0           0           0           1
           1           1           1          -2          -2          -2
          -3          -3           0           0           0           0
           0           0           0           1           1           1
           1           1           1          -2          -2          -2
          -2          -3          -3           0           0           0
           0           0           0           1           1           1
           1           1          -2          -2          -2          -3
          -3           0           0           0           0           1
           1           1          -2          -2
Number of primitives per shell             I   N=          58
           7           6           1           1           1           3
           1           1           1           1           1           1
           1           1          15          12          10          10
           1           1           1           9           9           8
           1           1           1           7           1           1
           1           1           1          11           9           8
           1           1           1           6           6           1
           1           1           1           1           1           1
           1           3           1           1           1           1
           1           1           1           1
Shell to atom map                          I   N=          58
           1           1           1           1           1           1
           1           1           1           1           1           1
           1           1           2           2           2           2
           2           2           2           2           2           2
           2           2           2           2           2           2
           2           2           2           3           3           3
           3           3           3           3           3           3
           3           3           3           3           3           3
           3           4           4           4           4           4
           4           4           4           4
Primitive exponents                        R   N=         180
  1.53300000E+04  2.29900000E+03  5.22400000E+02  1.47300000E+02  4.75500000E+01
  1.67600000E+01  6.20700000E+00  5.22400000E+02  1.47300000E+02  4.75500000E+01
  1.67600000E+01  6.20700000E+00  6.88200000E-01  1.75200000E+00  2.38400000E-01
  7.37600000E-02  3.44600000E+01  7.74900000E+00  2.28000000E+00  7.15600000E-01
  2.14000000E-01  5.97400000E-02  2.31400000E+00  6.45000000E-01  2.14000000E-01
  1.42800000E+00  5.00000000E-01  1.06390000E+07  1.59340000E+06  3.62610000E+05
  1.02700000E+05  3.35010000E+04  1.20930000E+04  4.71590000E+03  1.95560000E+03
  8.52610000E+02  3.87670000E+02  1.82680000E+02  8.82450000E+01  3.92630000E+01
  9.40570000E+00  1.89950000E+00  3.35010000E+04  1.20930000E+04  4.71590000E+03
  1.95560000E+03  8.52610000E+02  3.87670000E+02  1.82680000E+02  8.82450000E+01
  3.92630000E+01  1.92340000E+01  9.40570000E+00  1.89950000E+00  4.71590000E+03
  8.52610000E+02  3.87670000E+02  1.82680000E+02  8.82450000E+01  3.92630000E+01
  1.92340000E+01  9.40570000E+00  4.16010000E+00  1.89950000E+00  4.71590000E+03
  8.52610000E+02  3.87670000E+02  8.82450000E+01  3.92630000E+01  1.92340000E+01
  9.40570000E+00  4.16010000E+00  1.89950000E+00  3.01140000E-01  6.04720000E-01
  1.25150000E-01  4.55930000E-02  8.67650000E+03  2.05590000E+03  6.66230000E+02
  2.53100000E+02  1.06120000E+02  4.72420000E+01  2.18250000E+01  9.96840000E+00
  1.99820000E+00  8.67650000E+03  6.66230000E+02  2.53100000E+02  1.06120000E+02
  4.72420000E+01  2.18250000E+01  9.96840000E+00  4.51710000E+00  1.99820000E+00
  6.66230000E+02  1.06120000E+02  4.72420000E+01  2.18250000E+01  9.96840000E+00
  4.51710000E+00  1.99820000E+00  2.81450000E-01  7.09880000E-01  1.02040000E-01
  3.51420000E-02  4.03830000E+02  1.21170000E+02  4.63450000E+01  1.97210000E+01
  8.86240000E+00  3.99620000E+00  1.76360000E+00  7.06190000E-01  2.63900000E-01
  1.04700000E-01  5.51500000E-01  2.58000000E-01  4.56100000E+05  6.83300000E+04
  1.55500000E+04  4.40500000E+03  1.43900000E+03  5.20400000E+02  2.03100000E+02
  8.39600000E+01  3.62000000E+01  1.58300000E+01  6.33400000E+00  4.40500000E+03
  1.43900000E+03  5.20400000E+02  2.03100000E+02  8.39600000E+01  3.62000000E+01
  1.58300000E+01  6.33400000E+00  2.69400000E+00  1.43900000E+03  2.03100000E+02
  8.39600000E+01  3.62000000E+01  1.58300000E+01  6.33400000E+00  2.69400000E+00
  4.31300000E-01  9.76800000E-01  1.62500000E-01  5.91000000E-02  6.63300000E+02
  1.56800000E+02  4.99800000E+01  1.84200000E+01  7.24000000E+00  2.92200000E+00
  1.56800000E+02  4.99800000E+01  1.84200000E+01  7.24000000E+00  2.92200000E+00
  3.81800000E-01  1.02200000E+00  1.30100000E-01  4.19000000E-02  1.04600000E+00
  3.44000000E-01  1.35000000E-01  7.06000000E-01  3.12000000E-01  3.38700000E+01
  5.09500000E+00  1.15900000E+00  3.25800000E-01  1.02700000E-01  2.52600000E-02
  1.40700000E+00  3.88000000E-01  1.02000000E-01  1.05700000E+00  2.47000000E-01
Contraction coefficients                   R   N=         180
  5.19808943E-04  4.02025621E-03  2.07128267E-02  8.10105536E-02  2.35962985E-01
  4.42653446E-01  3.57064423E-01 -4.42115008E-05 -1.22591041E-03 -1.05517725E-02
 -6.74452633E-02 -1.71198607E-01  1.07329856E+00  1.00000000E+00  1.00000000E+00
  1.00000000E+00  4.11634896E-02  2.57762836E-01  8.02419274E-01  1.00000000E+00
  1.00000000E+00  1.00000000E+00  1.00000000E+00  1.00000000E+00  1.00000000E+00
  1.00000000E+00  1.00000000E+00  5.89674518E-06  4.60752740E-05  2.42070343E-04
  1.02205299E-03  3.70930499E-03  1.19720307E-02  3.46735726E-02  8.90729487E-02
  1.93334549E-01  3.20663919E-01  3.29580713E-01  1.49250790E-01  1.55764867E-02
  7.93747636E-04  2.65221775E-04 -5.68536848E-06 -3.52666574E-05 -3.27539377E-04
 -1.87629276E-03 -1.01414527E-02 -3.80702440E-02 -9.57536910E-02 -4.73840598E-02
  3.47577995E-01  5.73945554E-01  2.14222079E-01 -1.02928963E-02  7.18105399E-06
  1.20828593E-04  4.42852463E-04  3.05163083E-03  3.69571776E-03 -4.41792565E-02
 -2.33790718E-01 -4.89037435E-02  6.44374705E-01  5.44424123E-01  2.45813907E-06
  1.21542842E-05 -4.20845287E-05 -2.71411136E-04  1.88335237E-03  1.04009470E-02
  6.18574958E-03 -1.11556547E-01 -4.47970305E-01  1.18314733E+00  1.00000000E+00
  1.00000000E+00  1.00000000E+00  4.37079993E-04  3.79355062E-03  2.05440673E-02
  7.95459389E-02  2.18602295E-01  3.89303910E-01  3.60668111E-01  1.10677963E-01
 -1.34807692E-03  1.00103778E-06 -7.06114784E-05 -1.15560817E-03 -7.09755620E-03
 -2.44937124E-02 -1.01982599E-02  2.19854720E-01  5.15741017E-01  3.67494091E-01
 -2.33484889E-05 -3.27796533E-04  4.19438933E-04 -2.20691716E-03 -6.45224464E-03
 -4.68458724E-02 -4.09196666E-02  1.01815889E+00  1.00000000E+00  1.00000000E+00
  1.00000000E+00  1.51744738E-03  1.30531170E-02  5.97884776E-02  1.75631556E-01
  3.28164786E-01  3.96050780E-01  2.81996460E-01  1.00000000E+00  1.00000000E+00
  1.00000000E+00  1.00000000E+00  1.00000000E+00  4.93229477E-05  3.83207967E-04
  2.00947816E-03  8.38950124E-03  2.94843950E-02  8.78759948E-02  2.11589759E-01
  3.65611554E-01  3.41246350E-01  1.02162570E-01  2.14249949E-03 -2.21747925E-06
 -1.71189708E-04 -1.27922846E-03 -9.32956265E-03 -3.98910062E-02 -1.05536085E-01
  9.36202446E-03  5.10511140E-01  5.73150737E-01  4.03949245E-06  2.12481765E-04
  8.59484452E-04  4.63248159E-03  4.47343490E-04 -7.38438245E-02 -3.62271994E-01
  1.16620337E+00  1.00000000E+00  1.00000000E+00  1.00000000E+00  2.47206402E-03
  1.97550234E-02  9.09917355E-02  2.63187834E-01  4.49078073E-01  3.60183072E-01
  3.03427809E-05 -1.22475826E-03 -6.01429772E-03 -2.76401323E-02  4.35105612E-04
  1.00307272E+00  1.00000000E+00  1.00000000E+00  1.00000000E+00  1.00000000E+00
  1.00000000E+00  1.00000000E+00  1.00000000E+00  1.00000000E+00  2.54948632E-02
  1.90362766E-01  8.52162022E-01  1.00000000E+00  1.00000000E+00  1.00000000E+00
  1.00000000E+00  1.00000000E+00  1.00000000E+00  1.00000000E+00  1.00000000E+00
Coordinates of each shell                  R   N=         174
  0.00000000E+00  0.00000000E+00  0.00000000E+00  0.00000000E+00  0.00000000E+00
  0.00000000E+00  0.00000000E+00  0.00000000E+00  0.00000000E+00  0.00000000E+00
  0.00000000E+00  0.00000000E+00  0.00000000E+00  0.00000000E+00  0.00000000E+00
  0.00000000E+00  0.00000000E+00  0.00000000E+00  0.00000000E+00  0.00000000E+00
  0.00000000E+00  0.00000000E+00  0.00000000E+00  0.00000000E+00  0.00000000E+00
  0.00000000E+00  0.00000000E+00  0.00000000E+00  0.00000000E+00  0.00000000E+00
  0.00000000E+00  0.00000000E+00  0.00000000E+00  0.00000000E+00  0.00000000E+00
  0.00000000E+00  0.00000000E+00  0.00000000E+00  0.00000000E+00  0.00000000E+00
  0.00000000E+00  0.00000000E+00  5.80867318E+00  0.00000000E+00  0.00000000E+00
  5.80867318E+00  0.00000000E+00  0.00000000E+00  5.80867318E+00  0.00000000E+00
  0.00000000E+00  5.80867318E+00  0.00000000E+00  0.00000000E+00  5.80867318E+00
  0.00000000E+00  0.00000000E+00  5.80867318E+00  0.00000000E+00  0.00000000E+00
  5.80867318E+00  0.00000000E+00  0.00000000E+00  5.80867318E+00  0.00000000E+00
  0.00000000E+00  5.80867318E+00  0.00000000E+00  0.00000000E+00  5.80867318E+00
  0.00000000E+00  0.00000000E+00  5.80867318E+00  0.00000000E+00  0.00000000E+00
  5.80867318E+00  0.00000000E+00  0.00000000E+00  5.80867318E+00  0.00000000E+00
  0.00000000E+00  5.80867318E+00  0.00000000E+00  0.00000000E+00  5.80867318E+00
  0.00000000E+00  0.00000000E+00  5.80867318E+00  0.00000000E+00  0.00000000E+00
  5.80867318E+00  0.00000000E+00  0.00000000E+00  5.80867318E+00  0.00000000E+00
  0.00000000E+00  5.80867318E+00  0.00000000E+00  0.00000000E+00 -7.38733169E-01
  3.09599977E+00  0.00000000E+00 -7.38733169E-01  3.09599977E+00  0.00000000E+00
 -7.38733169E-01  3.09599977E+00  0.00000000E+00 -7.38733169E-01  3.09599977E+00
  0.00000000E+00 -7.38733169E-01  3.09599977E+00  0.00000000E+00 -7.38733169E-01
  3.09599977E+00  0.00000000E+00 -7.38733169E-01  3.09599977E+00  0.00000000E+00
 -7.38733169E-01  3.09599977E+00  0.00000000E+00 -7.38733169E-01  3.09599977E+00
  0.00000000E+00 -7.38733169E-01  3.09599977E+00  0.00000000E+00 -7.38733169E-01
  3.09599977E+00  0.00000000E+00 -7.38733169E-01  3.09599977E+00  0.00000000E+00
 -7.38733169E-01  3.09599977E+00  0.00000000E+00 -7.38733169E-01  3.09599977E+00
  0.00000000E+00 -7.38733169E-01  3.09599977E+00  0.00000000E+00 -7.38733169E-01
  3.09599977E+00  0.00000000E+00  1.31183845E+00  0.00000000E+00  1.31183845E+00
  1.31183845E+00  0.00000000E+00  1.31183845E+00  1.31183845E+00  0.00000000E+00
  1.31183845E+00  1.31183845E+00  0.00000000E+00  1.31183845E+00  1.31183845E+00
  0.00000000E+00  1.31183845E+00  1.31183845E+00  0.00000000E+00  1.31183845E+00
  1.31183845E+00  0.00000000E+00  1.31183845E+00  1.31183845E+00  0.00000000E+00
  1.31183845E+00  1.31183845E+00  0.00000000E+00  1.31183845E+00
Num ILSW                                   I              100
ILSW                                       I   N=         100
           0           0           0           0           2           0
           0           0           0           0           0          -1
           5           0           0           0           0           0
           0           0           0           0           0           0
           1           1           0           0           0           0
           0           0      100000           0          -1           0
           0           0           0           0           0           0
           0           0           0           1           0           0
           0 -2000000000           1           0           0           0
           0           0           4          52           0           0
           0           0           0           0           0           0
           0           0           0           4           0           1
           0           0           0           0           0           0
           0           0           0           0           0           0
           0           0           0           0           0           0
           0           0           0           0           0           0
           0           0           0           0
Num RLSW                                   I               52
RLSW                                       R   N=          52
  1.00000000E+00  1.00000000E+00  1.00000000E+00  1.00000000E+00  1.00000000E+00
  0.00000000E+00  0.00000000E+00  1.00000000E+00  0.00000000E+00  0.00000000E+00
  0.00000000E+00  0.00000000E+00  1.00000000E+00  0.00000000E+00  0.00000000E+00
  0.00000000E+00  0.00000000E+00  1.00000000E+00  0.00000000E+00  0.00000000E+00
  0.00000000E+00  0.00000000E+00  1.00000000E+00  0.00000000E+00  0.00000000E+00
  0.00000000E+00  0.00000000E+00  1.00000000E+00  0.00000000E+00  0.00000000E+00
  0.00000000E+00  0.00000000E+00  1.00000000E+00  0.00000000E+00  0.00000000E+00
  0.00000000E+00  0.00000000E+00  0.00000000E+00  1.00000000E+00  1.00000000E+00
  0.00000000E+00  1.00000000E+00  0.00000000E+00  0.00000000E+00  0.00000000E+00
  0.00000000E+00  0.00000000E+00  0.00000000E+00  0.00000000E+00  0.00000000E+00
  0.00000000E+00  0.00000000E+00
MxBond                                     I                2
NBond                                      I   N=           4
           2           0           1           1
IBond                                      I   N=           8
           3           4           0           0           1           0
           1           0
RBond                                      R   N=           8
  1.00000000E+00  1.00000000E+00  0.00000000E+00  0.00000000E+00  1.00000000E+00
  0.00000000E+00  1.00000000E+00  0.00000000E+00
Virial Ratio                               R      2.000036366581038E+00
SCF Energy                                 R     -3.107464571362620E+03
MP2 Energy                                 R     -3.108164195686002E+03
Total Energy                               R     -3.108164195686002E+03
Post-SCF wavefunction norm                 R      1.105054286034541E+00
RMS Density                                R      6.513759318527780E-09
Job Status                                 I                1
Nuclear derivative order                   I                0
External E-field                           R   N=          35
  0.00000000E+00  0.00000000E+00  0.00000000E+00  0.00000000E+00  0.00000000E+00
  0.00000000E+00  0.00000000E+00  0.00000000E+00  0.00000000E+00  0.00000000E+00
  0.00000000E+00  0.00000000E+00  0.00000000E+00  0.00000000E+00  0.00000000E+00
  0.00000000E+00  0.00000000E+00  0.00000000E+00  0.00000000E+00  0.00000000E+00
  0.00000000E+00  0.00000000E+00  0.00000000E+00  0.00000000E+00  0.00000000E+00
  0.00000000E+00  0.00000000E+00  0.00000000E+00  0.00000000E+00  0.00000000E+00
  0.00000000E+00  0.00000000E+00  0.00000000E+00  0.00000000E+00  0.00000000E+00
IOpCl                                      I                0
IROHF                                      I                0
Alpha Orbital Energies                     R   N=         178
 -4.89737713E+02 -1.04742813E+02 -6.48779933E+01 -5.82325081E+01 -5.82324569E+01
 -5.82324086E+01 -2.04833292E+01 -1.04624918E+01 -9.55049679E+00 -7.92968353E+00
 -7.92693866E+00 -7.92677654E+00 -7.15816164E+00 -7.15782614E+00 -7.15767281E+00
 -2.89989300E+00 -2.89981017E+00 -2.89957975E+00 -2.89916728E+00 -2.89914367E+00
 -1.25450079E+00 -9.09122829E-01 -7.08424727E-01 -5.61051852E-01 -4.59643576E-01
 -4.50566665E-01 -3.20782680E-01 -2.94195137E-01 -1.62849658E-01 -1.58455870E-01
 -1.56960367E-01  1.49079442E-01  1.75605653E-01  2.17015726E-01  2.25345991E-01
  2.43193422E-01  2.50648611E-01  2.51655755E-01  2.76245672E-01  2.79699750E-01
  3.10270550E-01  3.22035371E-01  3.34857727E-01  3.64373446E-01  3.96119802E-01
  4.40881823E-01  4.56092388E-01  4.92456585E-01  4.97412654E-01  5.11931022E-01
  5.33552741E-01  5.44149329E-01  5.54552497E-01  5.63619831E-01  5.84002116E-01
  5.95129651E-01  6.01429225E-01  6.28619812E-01  6.45064963E-01  7.29804390E-01
  7.44784525E-01  7.54322508E-01  7.77722474E-01  8.18251987E-01  8.61414886E-01
  8.70363414E-01  8.72963342E-01  8.96500460E-01  9.36414413E-01  9.63298177E-01
  9.93185226E-01  1.01181867E+00  1.02239746E+00  1.03291453E+00  1.04049647E+00
  1.04078885E+00  1.07284639E+00  1.07392223E+00  1.09026080E+00  1.10686314E+00
  1.12380616E+00  1.12792477E+00  1.17289805E+00  1.18713792E+00  1.19614503E+00
  1.20771658E+00  1.21344836E+00  1.22746313E+00  1.23940536E+00  1.26309896E+00
  1.32115871E+00  1.33405328E+00  1.36394546E+00  1.39360694E+00  1.43547859E+00
  1.47867513E+00  1.50426480E+00  1.54921410E+00  1.59182415E+00  1.63383297E+00
  1.66672045E+00  1.68774339E+00  1.69832093E+00  1.73349184E+00  1.75641690E+00
  1.85717585E+00  1.96628179E+00  2.09790891E+00  2.30681242E+00  2.39859185E+00
  2.40003863E+00  2.41040148E+00  2.45607471E+00  2.46911755E+00  2.48341252E+00
  2.51445106E+00  2.53516131E+00  2.55067097E+00  2.56423572E+00  2.56608084E+00
  2.56949850E+00  2.57194881E+00  2.59873823E+00  2.61037326E+00  2.63350007E+00
  2.63492089E+00  2.65204039E+00  2.66368646E+00  2.68573914E+00  2.69492693E+00
  2.70623633E+00  2.71270380E+00  2.72024520E+00  2.75346548E+00  2.78858788E+00
  2.79948838E+00  2.86323354E+00  2.92452830E+00  2.95740040E+00  2.99249314E+00
  3.11179061E+00  3.18703304E+00  3.21003699E+00  3.22081567E+00  3.23276618E+00
  3.29045563E+00  3.33641782E+00  3.48071138E+00  3.54612098E+00  3.55123108E+00
  3.89979843E+00  3.98474217E+00  4.32229402E+00  4.38951032E+00  4.44823544E+00
  4.54073301E+00  4.61355987E+00  4.72569554E+00  4.90623164E+00  5.00105313E+00
  5.36302178E+00  5.44865213E+00  5.68343004E+00  6.36642544E+00  6.62312152E+00
  6.84735068E+00  6.89526235E+00  6.90763737E+00  6.96841977E+00  7.32872832E+00
  7.35498883E+00  7.36605388E+00  7.45655604E+00  7.47350597E+00  7.69343306E+00
  7.71341758E+00  8.38788606E+00  1.46060245E+01
Alpha MO coefficients                      R   N=       31684
 -2.84996507E-08 -1.71072215E-07 -2.39786136E-08  7.56325927E-07  2.63452607E-06
 -1.72138592E-08 -1.90926463E-10  4.81727255E-10  8.75251002E-08 -2.15071448E-08
  2.81014161E-08  1.05240618E-06  9.69795328E-08  1.41155763E-06  1.40973965E-07
  3.41519266E-07  9.06030914E-07  1.74620353E-08 -3.09400435E-08 -6.37140304E-10
 -1.55597918E-09  1.01515052E-08 -4.88661497E-08  2.54574874E-07  3.83161648E-09
  6.20755967E-08 -3.96310149E-08  8.50463171E-08  3.76364494E-07  1.47635305E-07
  5.12414777E-07 -7.89485725E-08 -2.57068413E-08  2.26081412E-08 -2.42904384E-09
  3.46247569E-08 -1.46672926E-09 -2.53804618E-08  1.00380447E-08 -2.95420696E-08
  4.00118941E-09 -3.60949433E-10  3.33755475E-08  1.40104735E-08  1.69959068E-07
 -3.92337900E-08  1.00053502E+00 -1.74609415E-03 -3.67027937E-04  2.48678136E-05
 -3.79985850E-05 -1.26629571E-05  2.08749365E-06 -9.10242526E-08 -4.28862584E-08
  4.07776089E-07 -7.31067385E-08  2.54075640E-08 -1.46342278E-07 -9.79012860E-07
  7.22308412E-08  1.01793475E-07  2.58273138E-07 -3.09701052E-08  5.60506433E-08
  3.13625863E-06 -1.78378221E-07 -5.91862104E-07 -5.17355657E-07  6.76900689E-08
  2.60801197E-08  1.99743018E-08 -3.54424934E-08 -4.34268664E-11 -1.55514584E-08
  6.49298863E-09 -5.23893764E-08  1.93063486E-08 -3.59168398E-09  7.80123890E-08
 -1.85922295E-08  4.53698366E-08 -2.00062046E-08  1.01465346E-08 -7.18311594E-08
  2.53114495E-08  5.28011306E-07  4.72796328E-07 -2.67201757E-08 -1.02988577E-06
  7.63953279E-08 -6.09095879E-08  1.16796821E-07 -4.08804298E-09  8.67108453E-08
 -1.92062668E-09 -1.91322631E-07  3.01642756E-08  1.32866128E-07 -2.49809282E-07
  1.06263629E-08 -1.89160968E-07  3.90743140E-09  4.13181999E-07 -6.12496787E-08
  6.78278077E-09  9.60077068E-08  2.63684760E-07 -1.02930733E-08 -1.04495949E-06
 -5.23629212E-07 -2.45054539E-08  9.18540286E-09 -4.43311772E-09 -2.49434458E-07
  1.48714351E-07 -5.13859618E-08  1.00948455E-07 -4.20296448E-08  1.91503443E-08
 -7.90856500E-08  3.00685540E-07 -2.90697456E-07 -2.29115068E-07 -1.05975909E-08
 -6.40820099E-08 -3.57368790E-09  4.13968424E-09 -2.27573141E-08  1.57043499E-08
 -1.38022702E-08  9.27113525E-08 -3.62631359E-08  1.24572854E-07  3.19180294E-08
  1.14172773E-07 -6.33546067E-08 -8.93777201E-08  7.84866166E-08 -5.77320589E-08
 -1.64566791E-07 -1.74491153E-08  6.79925747E-08 -3.19361896E-08  6.68172633E-09
  4.57848775E-09  1.52217244E-08  8.50467234E-09  7.13841324E-08 -1.18855827E-07
  3.43124123E-08  2.32054622E-08  3.12342573E-08 -5.16038366E-08 -5.95509813E-08
  3.91236019E-09 -2.42772958E-06  1.83649565E-06 -7.07048833E-07  9.66065822E-08
 -2.75015193E-09  8.75635423E-08  2.70790434E-07 -3.75191161E-08  3.27475009E-07
  1.89611778E-06  5.51301942E-07 -1.28089493E-06 -7.45213271E-08 -5.31022424E-08
  1.43895372E-08  3.50733648E-08  1.67522390E-08 -7.91541913E-08  2.45532815E-07
 -1.42327217E-07  1.57474027E-07 -1.08612352E-07  6.56299884E-06  3.56762510E-05
  8.76611128E-07 -1.30075140E-04 -7.15638156E-05 -2.14068298E-07  3.24570113E-06
  4.92745858E-07  7.75932766E-07 -9.82266697E-06 -1.56886414E-06  5.01114041E-05
 -1.47642527E-04  7.00987158E-06  1.56620650E-05 -2.90889450E-05  5.53683852E-06
 -1.88074738E-06  2.05995652E-07  1.82890198E-07 -2.84384277E-06 -1.44440854E-06
  1.33330924E-05  4.04040464E-07 -1.07689987E-06  2.07269120E-05  9.80027363E-06
  2.74102437E-05  9.96409903E-06 -1.00597924E-05  5.48006075E-05  1.55507888E-05
 -1.44381187E-09 -1.19404356E-07  8.72507746E-07 -8.20149339E-07  8.06857603E-07
 -1.06886798E-06  4.70218095E-07 -1.63606667E-07 -1.84031046E-06  9.58710784E-06
  4.00087572E-06 -3.22204941E-06 -6.98907545E-06  1.11393574E-05  1.06659304E-07
  5.60754090E-07  3.23775929E-06  7.58378947E-06 -8.08523987E-07 -1.29444239E-05
 -9.86727878E-06 -7.30491382E-08  1.30331396E-09 -1.69130551E-09  3.31684100E-07
 -2.07695072E-08  2.39816624E-08  1.73403697E-07 -2.02975202E-07  2.18489508E-07
 -1.45390109E-06  2.02197971E-08  9.38535147E-09  1.45229757E-05  2.45157098E-07
 -3.03753144E-06  3.03815136E-06 -1.04989343E-07  2.89732287E-07  6.39181907E-08
  3.89160787E-09  9.69981699E-09 -1.83812068E-07 -6.91707719E-08 -5.35114001E-07
 -9.80703304E-08 -7.94735564E-08  1.35227178E-06  3.49938347E-07  1.56092457E-06
  6.47002263E-07  3.38118109E-07 -3.63848389E-06 -4.18197105E-07  2.90657451E-06
  1.75577418E-06 -9.51645748E-07 -4.92958488E-06 -9.08636076E-08  9.35260433E-08
  6.13387797E-08  3.64129192E-07 -8.61191426E-08 -4.90793998E-07 -8.85810159E-07
 -9.16130450E-07  1.66233980E-07 -1.37460325E-06 -6.17403687E-07 -3.25486468E-07
  8.22436342E-07  3.43909986E-06  1.61898965E-06  9.99534863E-01  1.95379115E-03
  1.84596222E-04 -4.17499668E-04  6.84548571E-05  6.64561669E-05  1.59168928E-05
 -7.66015991E-05  2.53049899E-06  3.45197010E-05 -1.34833323E-04  4.28591269E-06
 -1.66173570E-05  7.23987985E-05 -2.40030587E-06  7.80747615E-06 -5.09890530E-05
 -2.26783790E-06  1.19540503E-06 -1.10476400E-05 -1.42051064E-06 -3.72961229E-06
  1.53400724E-07 -1.20510852E-07 -5.61574748E-06 -3.32383922E-06 -2.78062432E-05
  6.96858200E-07 -1.68747462E-06 -4.28472418E-05 -2.32597147E-05 -2.94315525E-06
 -3.27444502E-06  4.96628971E-07 -6.06115034E-06  2.81600960E-07 -5.76624467E-07
 -1.24114786E-06  5.55796506E-06  1.73451175E-07 -1.29736694E-06 -5.32519087E-06
  4.82522252E-06  6.70644939E-07 -1.36345852E-06  3.91544983E-06 -1.03422333E-06
  2.33684940E-06 -2.75700940E-06  5.50084619E-06 -5.02598474E-07 -2.38637839E-05
  7.05906890E-06 -4.34568507E-06  1.03823618E-06 -1.93281480E-06  6.90103320E-07
 -6.87590525E-06  1.62674992E-05  1.40964963E-06  8.31888448E-06  1.22414052E-05
 -2.57569085E-06 -1.00591340E-06 -2.51921132E-07 -1.17618227E-07 -1.83925145E-06
 -7.67606894E-07 -3.80654225E-06  1.43465516E-06 -7.06429693E-07  3.75420680E-06
 -3.39394908E-06 -8.01779739E-09  2.50676509E-07 -1.73227975E-07  2.61007849E-06
  1.11499292E-05  6.95909662E-08  3.71548378E-08  2.75676043E-08  6.26281770E-07
 -4.27262514E-08  2.28402936E-07  5.00911190E-06  1.49143839E-07  5.00431289E-06
  7.54790270E-07  1.66789806E-06  3.67784241E-06  3.97896979E-08 -1.38660739E-07
 -1.27427952E-08  6.08392273E-08  4.86407678E-08 -6.32092371E-08  1.08237697E-06
  5.62722601E-08  4.43754553E-08 -1.50758336E-07 -2.21504267E-07  2.11057722E-06
  1.82202345E-07  2.23534284E-06  5.81395942E-08  3.04684544E-08  6.15355545E-08
 -4.57573293E-09  6.75748411E-08 -8.96064478E-09 -9.69393215E-08  2.05993543E-08
 -4.07428354E-07  1.77826961E-07 -1.86863821E-09  2.77900322E-07  7.38201889E-08
  4.82680676E-07 -6.17711529E-08 -3.14071661E-01  1.04046613E+00  2.13998336E-02
  2.69896450E-05 -7.51830925E-05 -4.78268284E-05  1.70848264E-06 -1.48207916E-06
 -6.86341902E-06  5.81819529E-05 -1.67307683E-06 -4.66334970E-07  4.75054863E-06
 -3.43329413E-06 -4.03082538E-08  2.22800730E-06  1.20446870E-06  1.96545041E-07
 -2.27554464E-06  1.57128379E-05 -4.94684911E-07 -4.36831943E-06 -1.24441839E-06
  1.78793912E-07  1.72633029E-07  8.97077290E-07 -2.01078304E-06 -4.24687120E-08
 -4.07345467E-07  2.75237090E-07 -4.49528330E-07  2.04296947E-07 -1.83053094E-09
  5.98542003E-07 -1.39287668E-07  8.45203515E-07 -8.71448323E-08  1.88711181E-08
 -1.27435251E-06  2.52806512E-07  2.48911112E-06  2.73299908E-06 -1.01201487E-07
 -5.09361665E-06  1.84936768E-07 -1.98580633E-07  5.53829133E-07 -1.43923069E-09
  2.70833114E-07 -1.77115231E-08 -8.27704507E-07  9.06894120E-08  8.28733035E-07
 -1.27715670E-06  1.45631429E-08 -1.14554147E-06  3.47033214E-08  2.18748037E-06
 -2.29798170E-07  3.96135687E-08  5.60404266E-07  1.47648258E-06 -2.76070223E-07
 -3.94814103E-06 -2.96958097E-06 -7.47994056E-08 -1.52392625E-08 -1.13954641E-08
 -5.08594628E-07  1.59955688E-07 -1.66719449E-07  2.72286489E-07 -2.59406004E-08
  5.08632788E-08 -1.26818844E-06  1.41289506E-06 -5.77272960E-07 -6.65841861E-07
  7.70104707E-08 -4.83440728E-07 -4.79392652E-08 -2.15270132E-08 -4.96475947E-08