 Entering Gaussian System, Link 0=g16
 Input=brhocl_rOH_opt.gjf
 Output=brhocl_rOH_opt.log
 Initial command:
 /sw/contrib/gaussian/g16/B01/g16/l1.exe "/scr/Gau-25918.inp" -scrdir="/scr/"
 Entering Link 1 = /sw/contrib/gaussian/g16/B01/g16/l1.exe PID=     25919.
  
 Copyright (c) 1988-2017, Gaussian, Inc.  All Rights Reserved.
  
 This is part of the Gaussian(R) 16 program.  It is based on
 the Gaussian(R) 09 system (copyright 2009, Gaussian, Inc.),
 the Gaussian(R) 03 system (copyright 2003, Gaussian, Inc.),
 the Gaussian(R) 98 system (copyright 1998, Gaussian, Inc.),
 the Gaussian(R) 94 system (copyright 1995, Gaussian, Inc.),
 the Gaussian 92(TM) system (copyright 1992, Gaussian, Inc.),
 the Gaussian 90(TM) system (copyright 1990, Gaussian, Inc.),
 the Gaussian 88(TM) system (copyright 1988, Gaussian, Inc.),
 the Gaussian 86(TM) system (copyright 1986, Carnegie Mellon
 University), and the Gaussian 82(TM) system (copyright 1983,
 Carnegie Mellon University). Gaussian is a federally registered
 trademark of Gaussian, Inc.
  
 This software contains proprietary and confidential information,
 including trade secrets, belonging to Gaussian, Inc.
  
 This software is provided under written license and may be
 used, copied, transmitted, or stored only in accord with that
 written license.
  
 The following legend is applicable only to US Government
 contracts under FAR:
  
                    RESTRICTED RIGHTS LEGEND
  
 Use, reproduction and disclosure by the US Government is
 subject to restrictions as set forth in subparagraphs (a)
 and (c) of the Commercial Computer Software - Restricted
 Rights clause in FAR 52.227-19.
  
 Gaussian, Inc.
 340 Quinnipiac St., Bldg. 40, Wallingford CT 06492
  
  
 ---------------------------------------------------------------
 Warning -- This program may not be used in any manner that
 competes with the business of Gaussian, Inc. or will provide
 assistance to any competitor of Gaussian, Inc.  The licensee
 of this program is prohibited from giving any competitor of
 Gaussian, Inc. access to this program.  By using this program,
 the user acknowledges that Gaussian, Inc. is engaged in the
 business of creating and licensing software in the field of
 computational chemistry and represents and warrants to the
 licensee that it is not a competitor of Gaussian, Inc. and that
 it will not use this program in any manner prohibited above.
 ---------------------------------------------------------------
  

 Cite this work as:
 Gaussian 16, Revision B.01,
 M. J. Frisch, G. W. Trucks, H. B. Schlegel, G. E. Scuseria, 
 M. A. Robb, J. R. Cheeseman, G. Scalmani, V. Barone, 
 G. A. Petersson, H. Nakatsuji, X. Li, M. Caricato, A. V. Marenich, 
 J. Bloino, B. G. Janesko, R. Gomperts, B. Mennucci, H. P. Hratchian, 
 J. V. Ortiz, A. F. Izmaylov, J. L. Sonnenberg, D. Williams-Young, 
 F. Ding, F. Lipparini, F. Egidi, J. Goings, B. Peng, A. Petrone, 
 T. Henderson, D. Ranasinghe, V. G. Zakrzewski, J. Gao, N. Rega, 
 G. Zheng, W. Liang, M. Hada, M. Ehara, K. Toyota, R. Fukuda, 
 J. Hasegawa, M. Ishida, T. Nakajima, Y. Honda, O. Kitao, H. Nakai, 
 T. Vreven, K. Throssell, J. A. Montgomery, Jr., J. E. Peralta, 
 F. Ogliaro, M. J. Bearpark, J. J. Heyd, E. N. Brothers, K. N. Kudin, 
 V. N. Staroverov, T. A. Keith, R. Kobayashi, J. Normand, 
 K. Raghavachari, A. P. Rendell, J. C. Burant, S. S. Iyengar, 
 J. Tomasi, M. Cossi, J. M. Millam, M. Klene, C. Adamo, R. Cammi, 
 J. W. Ochterski, R. L. Martin, K. Morokuma, O. Farkas, 
 J. B. Foresman, and D. J. Fox, Gaussian, Inc., Wallingford CT, 2016.
 
 ******************************************
 Gaussian 16:  ES64L-G16RevB.01 20-Dec-2017
                23-Sep-2021 
 ******************************************
 %nproc=28
 Will use up to   28 processors via shared memory.
 %mem=120GB
 %chk=/gscratch/ilahie/mccoygrp/coire_hocl/brhocl/brhocl_rOH_opt.chk
 -------------------------------------------------
 #p opt=(z-matrix) mp2/aug-cc-pvtz density=current
 -------------------------------------------------
 1/10=7,18=40,38=1/1,3;
 2/12=2,17=6,18=5,29=3,40=1/2;
 3/5=16,6=1,7=10,11=9,25=1,30=1,71=1/1,2,3;
 4//1;
 5/5=2,38=5/2;
 8/6=4,10=1/1;
 9/15=2,16=-3/6;
 10/5=1/2;
 6/7=2,8=2,9=2,10=2,22=-1/1;
 7/12=2,29=1/1,2,3,16;
 1/10=7,18=40/3(2);
 2/29=3/2;
 99//99;
 2/29=3/2;
 3/5=16,6=1,7=10,11=9,25=1,30=1,71=1/1,2,3;
 4/5=5,16=3,69=1/1;
 5/5=2,38=5/2;
 8/6=4,10=1/1;
 9/15=2,16=-3/6;
 10/5=1/2;
 7/12=2/1,2,3,16;
 1/18=40/3(-8);
 2/29=3/2;
 6/7=2,8=2,9=2,10=2,22=-1/1;
 99/9=10/99;
 Leave Link    1 at Thu Sep 23 15:52:40 2021, MaxMem= 16106127360 cpu:               2.4 elap:               0.1
 (Enter /sw/contrib/gaussian/g16/B01/g16/l101.exe)
 -----
 title
 -----
 Symbolic Z-matrix:
 Charge = -1 Multiplicity = 1
 O
 X                    1     10. 
 Cl                   1    r1       2     90. 
 Br                   1    r2       2     90.      3    a1       0
 H                    1    r3       2    oop      3    a1       0
       Variables:
  r1                    1.68433 -1        0.     
  r2                    3.07382 -1        0.     
  r3                    1.01774                  
  a1                  103.42035 -1        0.     
  OOP                  90.     Scan 10   -5.     
 
 ITRead=  0  0  0  0
 MicOpt= -1 -1 -1 -1
 NAtoms=      4 NQM=        4 NQMF=       0 NMMI=      0 NMMIF=      0
                NMic=       0 NMicF=      0.
                    Isotopes and Nuclear Properties:
 (Nuclear quadrupole moments (NQMom) in fm**2, nuclear magnetic moments (NMagM)
  in nuclear magnetons)

  Atom         1           2           3           4
 IAtWgt=          16          35          79           1
 AtmWgt=  15.9949146  34.9688527  78.9183361   1.0078250
 NucSpn=           0           3           3           1
 AtZEff=  -0.0000000  -0.0000000  -0.0000000  -0.0000000
 NQMom=    0.0000000  -8.1650000  31.3000000   0.0000000
 NMagM=    0.0000000   0.8218740   2.1063990   2.7928460
 AtZNuc=   8.0000000  17.0000000  35.0000000   1.0000000
 Leave Link  101 at Thu Sep 23 15:52:41 2021, MaxMem= 16106127360 cpu:               2.8 elap:               0.1
 (Enter /sw/contrib/gaussian/g16/B01/g16/l103.exe)

 GradGradGradGradGradGradGradGradGradGradGradGradGradGradGradGradGradGrad
 Berny optimization.
 Initialization pass.
                       ----------------------------
                       !    Initial Parameters    !
                       ! (Angstroms and Degrees)  !
 ----------------------                            ----------------------
 !      Name          Value   Derivative information (Atomic Units)     !
 ------------------------------------------------------------------------
 !       r1          1.6843   Frozen                                    !
 !       r2          3.0738   Frozen                                    !
 !       r3          1.0177   estimate D2E/DX2                          !
 !       a1        103.4203   Frozen                                    !
 !       OOP        90.0      Scan                                      !
 ------------------------------------------------------------------------
 Trust Radius=3.00D-01 FncErr=1.00D-07 GrdErr=1.00D-07 EigMax=2.50D+02 EigMin=1.00D-04
 Number of optimizations in scan=  11
 Number of steps in this run=     20 maximum allowed number of steps=    100.
 GradGradGradGradGradGradGradGradGradGradGradGradGradGradGradGradGradGrad

 Leave Link  103 at Thu Sep 23 15:52:41 2021, MaxMem= 16106127360 cpu:               1.3 elap:               0.1
 (Enter /sw/contrib/gaussian/g16/B01/g16/l202.exe)
 ---------------------------------------------------------------------------------------------------
                            Z-MATRIX (ANGSTROMS AND DEGREES)
   CD    Cent   Atom    N1       Length/X        N2       Alpha/Y        N3        Beta/Z          J
 ---------------------------------------------------------------------------------------------------
      1      1  O 
      2         X        1  10.000000(     1)
      3      2  Cl       1   1.684326(     2)      2   90.000(     5)
      4      3  Br       1   3.073817(     3)      2   90.000(     6)      3  103.420(     8)      0
      5      4  H        1   1.017737(     4)      2   90.000(     7)      3  103.420(     9)      0
 ---------------------------------------------------------------------------------------------------
                         Z-Matrix orientation:                         
 ---------------------------------------------------------------------
 Center     Atomic      Atomic             Coordinates (Angstroms)
 Number     Number       Type             X           Y           Z
 ---------------------------------------------------------------------
      1          8           0        0.000000    0.000000    0.000000
      2         -1           0        0.000000    0.000000   10.000000
      3         17           0        1.684326    0.000000    0.000000
      4         35           0       -0.713413   -2.989882    0.000000
      5          1           0       -0.236210   -0.989946    0.000000
 ---------------------------------------------------------------------
                    Distance matrix (angstroms):
                    1          2          3          4          5
     1  O    0.000000
     2  X   10.000000   0.000000
     3  Cl   1.684326  10.140856   0.000000
     4  Br   3.073817  10.461757   3.832564   0.000000
     5  H    1.017737  10.051656   2.160660   2.056081   0.000000
 Stoichiometry    BrClHO(1-)
 Framework group  CS[SG(BrClHO)]
 Deg. of freedom     5
 Full point group                 CS      NOp   2
 Largest Abelian subgroup         CS      NOp   2
 Largest concise Abelian subgroup C1      NOp   1
                         Standard orientation:                         
 ---------------------------------------------------------------------
 Center     Atomic      Atomic             Coordinates (Angstroms)
 Number     Number       Type             X           Y           Z
 ---------------------------------------------------------------------
      1          8           0        0.582791    1.631692    0.000000
      2         17           0        2.149769    1.014007    0.000000
      3         35           0       -1.177383   -0.888257    0.000000
      4          1           0        0.000000    0.797340    0.000000
 ---------------------------------------------------------------------
 Rotational constants (GHZ):          22.6455542           1.2808285           1.2122632
 Leave Link  202 at Thu Sep 23 15:52:42 2021, MaxMem= 16106127360 cpu:               3.3 elap:               0.2
 (Enter /sw/contrib/gaussian/g16/B01/g16/l301.exe)
 Standard basis: Aug-CC-pVTZ (5D, 7F)
 Ernie: Thresh=  0.10000D-02 Tol=  0.10000D-05 Strict=F.
 Ernie:  48 primitive shells out of 228 were deleted.
 There are   142 symmetry adapted cartesian basis functions of A'  symmetry.
 There are    66 symmetry adapted cartesian basis functions of A"  symmetry.
 There are   118 symmetry adapted basis functions of A'  symmetry.
 There are    60 symmetry adapted basis functions of A"  symmetry.
   178 basis functions,   430 primitive gaussians,   208 cartesian basis functions
    31 alpha electrons       31 beta electrons
       nuclear repulsion energy       190.4171241185 Hartrees.
 IExCor=    0 DFT=F Ex=HF Corr=None ExCW=0 ScaHFX=  1.000000
 ScaDFX=  1.000000  1.000000  1.000000  1.000000 ScalE2=  1.000000  1.000000
 IRadAn=      5 IRanWt=     -1 IRanGd=            0 ICorTp=0 IEmpDi=  4
 NAtoms=    4 NActive=    4 NUniq=    4 SFac= 1.00D+00 NAtFMM=   60 NAOKFM=F Big=F
 Integral buffers will be    131072 words long.
 Raffenetti 1 integral format.
 Two-electron integral symmetry is turned on.
 Leave Link  301 at Thu Sep 23 15:52:43 2021, MaxMem= 16106127360 cpu:               3.9 elap:               0.3
 (Enter /sw/contrib/gaussian/g16/B01/g16/l302.exe)
 NPDir=0 NMtPBC=     1 NCelOv=     1 NCel=       1 NClECP=     1 NCelD=      1
         NCelK=      1 NCelE2=     1 NClLst=     1 CellRange=     0.0.
 One-electron integrals computed using PRISM.
 One-electron integral symmetry used in STVInt
 NBasis=   178 RedAO= T EigKep=  2.39D-04  NBF=   118    60
 NBsUse=   178 1.00D-06 EigRej= -1.00D+00 NBFU=   118    60
 Leave Link  302 at Thu Sep 23 15:52:45 2021, MaxMem= 16106127360 cpu:              11.2 elap:               0.5
 (Enter /sw/contrib/gaussian/g16/B01/g16/l303.exe)
 DipDrv:  MaxL=1.
 Leave Link  303 at Thu Sep 23 15:52:46 2021, MaxMem= 16106127360 cpu:               9.8 elap:               0.4
 (Enter /sw/contrib/gaussian/g16/B01/g16/l401.exe)
 ExpMin= 2.53D-02 ExpMax= 1.06D+07 ExpMxC= 1.21D+04 IAcc=3 IRadAn=         5 AccDes= 0.00D+00
 Harris functional with IExCor=  205 and IRadAn=       5 diagonalized for initial guess.
 HarFok:  IExCor=  205 AccDes= 0.00D+00 IRadAn=         5 IDoV= 1 UseB2=F ITyADJ=14
 ICtDFT=  3500011 ScaDFX=  1.000000  1.000000  1.000000  1.000000
 FoFCou: FMM=F IPFlag=           0 FMFlag=      100000 FMFlg1=           0
         NFxFlg=           0 DoJE=T BraDBF=F KetDBF=T FulRan=T
         wScrn=  0.000000 ICntrl=       500 IOpCl=  0 I1Cent=   200000004 NGrid=           0
         NMat0=    1 NMatS0=      1 NMatT0=    0 NMatD0=    1 NMtDS0=    0 NMtDT0=    0
 Petite list used in FoFCou.
 Harris En= -3106.38947305454    
 JPrj=0 DoOrth=F DoCkMO=F.
 Initial guess orbital symmetries:
       Occupied  (A') (A') (A') (A') (A') (A") (A') (A') (A') (A')
                 (A') (A") (A') (A') (A") (A') (A') (A") (A') (A")
                 (A') (A') (A') (A') (A') (A") (A') (A') (A") (A')
                 (A")
       Virtual   (A') (A') (A') (A') (A") (A') (A') (A") (A') (A')
                 (A") (A') (A") (A') (A') (A") (A') (A') (A") (A')
                 (A') (A') (A') (A") (A") (A') (A') (A') (A") (A')
                 (A') (A') (A") (A") (A') (A") (A') (A') (A') (A")
                 (A') (A') (A") (A") (A') (A') (A") (A') (A') (A")
                 (A') (A') (A") (A") (A') (A') (A') (A") (A') (A")
                 (A') (A") (A') (A') (A') (A') (A') (A") (A") (A')
                 (A") (A") (A') (A') (A') (A') (A') (A") (A') (A')
                 (A") (A') (A") (A') (A") (A') (A") (A") (A') (A')
                 (A') (A") (A') (A') (A") (A') (A") (A') (A') (A")
                 (A') (A") (A') (A") (A') (A') (A') (A") (A") (A')
                 (A') (A") (A') (A') (A") (A') (A') (A") (A') (A')
                 (A') (A") (A") (A') (A") (A') (A') (A') (A') (A')
                 (A") (A') (A') (A') (A") (A') (A") (A') (A") (A")
                 (A') (A') (A") (A') (A') (A') (A')
 The electronic state of the initial guess is 1-A'.
 Leave Link  401 at Thu Sep 23 15:52:47 2021, MaxMem= 16106127360 cpu:              18.0 elap:               0.9
 (Enter /sw/contrib/gaussian/g16/B01/g16/l502.exe)
 Keep R1 ints in memory in symmetry-blocked form, NReq=191183261.
 FoFCou: FMM=F IPFlag=           0 FMFlag=           0 FMFlg1=           0
         NFxFlg=           0 DoJE=F BraDBF=F KetDBF=F FulRan=T
         wScrn=  0.000000 ICntrl=       600 IOpCl=  0 I1Cent=           0 NGrid=           0
         NMat0=    1 NMatS0=  15931 NMatT0=    0 NMatD0=    1 NMtDS0=    0 NMtDT0=    0
 Petite list used in FoFCou.
 Closed shell SCF:
 Using DIIS extrapolation, IDIIS=  1040.
 NGot= 16106127360 LenX= 16041757360 LenY= 16041713655
 Requested convergence on RMS density matrix=1.00D-08 within 128 cycles.
 Requested convergence on MAX density matrix=1.00D-06.
 Requested convergence on             energy=1.00D-06.
 No special actions if energy rises.

 Cycle   1  Pass 1  IDiag  1:
 E= -3107.31704212752    
 DIIS: error= 6.15D-02 at cycle   1 NSaved=   1.
 NSaved= 1 IEnMin= 1 EnMin= -3107.31704212752     IErMin= 1 ErrMin= 6.15D-02
 ErrMax= 6.15D-02  0.00D+00 EMaxC= 1.00D-01 BMatC= 6.37D-01 BMatP= 6.37D-01
 IDIUse=3 WtCom= 3.85D-01 WtEn= 6.15D-01
 Coeff-Com:  0.100D+01
 Coeff-En:   0.100D+01
 Coeff:      0.100D+01
 Gap=     0.558 Goal=   None    Shift=    0.000
 GapD=    0.558 DampG=2.000 DampE=0.500 DampFc=1.0000 IDamp=-1.
 RMSDP=3.08D-03 MaxDP=1.01D-01              OVMax= 1.16D-01

 Cycle   2  Pass 1  IDiag  1:
 E= -3107.45124830477     Delta-E=       -0.134206177246 Rises=F Damp=F
 DIIS: error= 1.72D-02 at cycle   2 NSaved=   2.
 NSaved= 2 IEnMin= 2 EnMin= -3107.45124830477     IErMin= 2 ErrMin= 1.72D-02
 ErrMax= 1.72D-02  0.00D+00 EMaxC= 1.00D-01 BMatC= 4.19D-02 BMatP= 6.37D-01
 IDIUse=3 WtCom= 8.28D-01 WtEn= 1.72D-01
 Coeff-Com:  0.132D+00 0.868D+00
 Coeff-En:   0.000D+00 0.100D+01
 Coeff:      0.110D+00 0.890D+00
 Gap=     0.332 Goal=   None    Shift=    0.000
 RMSDP=1.13D-03 MaxDP=3.78D-02 DE=-1.34D-01 OVMax= 7.18D-02

 Cycle   3  Pass 1  IDiag  1:
 E= -3107.46888736435     Delta-E=       -0.017639059578 Rises=F Damp=F
 DIIS: error= 8.83D-03 at cycle   3 NSaved=   3.
 NSaved= 3 IEnMin= 3 EnMin= -3107.46888736435     IErMin= 3 ErrMin= 8.83D-03
 ErrMax= 8.83D-03  0.00D+00 EMaxC= 1.00D-01 BMatC= 1.36D-02 BMatP= 4.19D-02
 IDIUse=3 WtCom= 9.12D-01 WtEn= 8.83D-02
 Coeff-Com:  0.688D-02 0.360D+00 0.633D+00
 Coeff-En:   0.000D+00 0.183D+00 0.817D+00
 Coeff:      0.627D-02 0.345D+00 0.649D+00
 Gap=     0.333 Goal=   None    Shift=    0.000
 RMSDP=3.46D-04 MaxDP=1.22D-02 DE=-1.76D-02 OVMax= 3.52D-02

 Cycle   4  Pass 1  IDiag  1:
 E= -3107.47819151221     Delta-E=       -0.009304147868 Rises=F Damp=F
 DIIS: error= 1.40D-03 at cycle   4 NSaved=   4.
 NSaved= 4 IEnMin= 4 EnMin= -3107.47819151221     IErMin= 4 ErrMin= 1.40D-03
 ErrMax= 1.40D-03  0.00D+00 EMaxC= 1.00D-01 BMatC= 1.71D-04 BMatP= 1.36D-02
 IDIUse=3 WtCom= 9.86D-01 WtEn= 1.40D-02
 Coeff-Com: -0.513D-02-0.282D-01 0.495D-01 0.984D+00
 Coeff-En:   0.000D+00 0.000D+00 0.000D+00 0.100D+01
 Coeff:     -0.506D-02-0.278D-01 0.489D-01 0.984D+00
 Gap=     0.332 Goal=   None    Shift=    0.000
 RMSDP=6.04D-05 MaxDP=1.42D-03 DE=-9.30D-03 OVMax= 3.50D-03

 Cycle   5  Pass 1  IDiag  1:
 E= -3107.47838848545     Delta-E=       -0.000196973239 Rises=F Damp=F
 DIIS: error= 2.16D-04 at cycle   5 NSaved=   5.
 NSaved= 5 IEnMin= 5 EnMin= -3107.47838848545     IErMin= 5 ErrMin= 2.16D-04
 ErrMax= 2.16D-04  0.00D+00 EMaxC= 1.00D-01 BMatC= 1.20D-05 BMatP= 1.71D-04
 IDIUse=3 WtCom= 9.98D-01 WtEn= 2.16D-03
 Coeff-Com:  0.812D-03-0.175D-01-0.397D-01-0.169D+00 0.123D+01
 Coeff-En:   0.000D+00 0.000D+00 0.000D+00 0.000D+00 0.100D+01
 Coeff:      0.811D-03-0.175D-01-0.397D-01-0.169D+00 0.122D+01
 Gap=     0.333 Goal=   None    Shift=    0.000
 RMSDP=3.03D-05 MaxDP=8.26D-04 DE=-1.97D-04 OVMax= 2.87D-03

 Cycle   6  Pass 1  IDiag  1:
 E= -3107.47842186754     Delta-E=       -0.000033382084 Rises=F Damp=F
 DIIS: error= 1.21D-04 at cycle   6 NSaved=   6.
 NSaved= 6 IEnMin= 6 EnMin= -3107.47842186754     IErMin= 6 ErrMin= 1.21D-04
 ErrMax= 1.21D-04  0.00D+00 EMaxC= 1.00D-01 BMatC= 1.69D-06 BMatP= 1.20D-05
 IDIUse=3 WtCom= 9.99D-01 WtEn= 1.21D-03
 Coeff-Com:  0.466D-03 0.413D-02-0.147D-02-0.123D+00-0.539D-01 0.117D+01
 Coeff-En:   0.000D+00 0.000D+00 0.000D+00 0.000D+00 0.000D+00 0.100D+01
 Coeff:      0.465D-03 0.412D-02-0.147D-02-0.123D+00-0.538D-01 0.117D+01
 Gap=     0.333 Goal=   None    Shift=    0.000
 RMSDP=1.29D-05 MaxDP=3.74D-04 DE=-3.34D-05 OVMax= 1.43D-03

 Cycle   7  Pass 1  IDiag  1:
 E= -3107.47842755653     Delta-E=       -0.000005688993 Rises=F Damp=F
 DIIS: error= 4.52D-05 at cycle   7 NSaved=   7.
 NSaved= 7 IEnMin= 7 EnMin= -3107.47842755653     IErMin= 7 ErrMin= 4.52D-05
 ErrMax= 4.52D-05  0.00D+00 EMaxC= 1.00D-01 BMatC= 1.78D-07 BMatP= 1.69D-06
 IDIUse=1 WtCom= 1.00D+00 WtEn= 0.00D+00
 Coeff-Com: -0.227D-03 0.864D-03 0.659D-02 0.546D-01-0.154D+00-0.275D+00
 Coeff-Com:  0.137D+01
 Coeff:     -0.227D-03 0.864D-03 0.659D-02 0.546D-01-0.154D+00-0.275D+00
 Coeff:      0.137D+01
 Gap=     0.333 Goal=   None    Shift=    0.000
 RMSDP=5.24D-06 MaxDP=1.39D-04 DE=-5.69D-06 OVMax= 5.56D-04

 Cycle   8  Pass 1  IDiag  1:
 E= -3107.47842824401     Delta-E=       -0.000000687483 Rises=F Damp=F
 DIIS: error= 8.42D-06 at cycle   8 NSaved=   8.
 NSaved= 8 IEnMin= 8 EnMin= -3107.47842824401     IErMin= 8 ErrMin= 8.42D-06
 ErrMax= 8.42D-06  0.00D+00 EMaxC= 1.00D-01 BMatC= 8.67D-09 BMatP= 1.78D-07
 IDIUse=1 WtCom= 1.00D+00 WtEn= 0.00D+00
 Coeff-Com:  0.148D-04-0.465D-03-0.109D-02-0.451D-02 0.279D-01 0.133D-01
 Coeff-Com: -0.317D+00 0.128D+01
 Coeff:      0.148D-04-0.465D-03-0.109D-02-0.451D-02 0.279D-01 0.133D-01
 Coeff:     -0.317D+00 0.128D+01
 Gap=     0.333 Goal=   None    Shift=    0.000
 RMSDP=1.18D-06 MaxDP=2.53D-05 DE=-6.87D-07 OVMax= 1.28D-04

 Cycle   9  Pass 1  IDiag  1:
 E= -3107.47842827872     Delta-E=       -0.000000034708 Rises=F Damp=F
 DIIS: error= 3.52D-06 at cycle   9 NSaved=   9.
 NSaved= 9 IEnMin= 9 EnMin= -3107.47842827872     IErMin= 9 ErrMin= 3.52D-06
 ErrMax= 3.52D-06  0.00D+00 EMaxC= 1.00D-01 BMatC= 1.14D-09 BMatP= 8.67D-09
 IDIUse=1 WtCom= 1.00D+00 WtEn= 0.00D+00
 Coeff-Com:  0.126D-04-0.662D-04-0.333D-03-0.244D-02 0.715D-02 0.149D-01
 Coeff-Com: -0.541D-01-0.177D+00 0.121D+01
 Coeff:      0.126D-04-0.662D-04-0.333D-03-0.244D-02 0.715D-02 0.149D-01
 Coeff:     -0.541D-01-0.177D+00 0.121D+01
 Gap=     0.333 Goal=   None    Shift=    0.000
 RMSDP=4.31D-07 MaxDP=9.67D-06 DE=-3.47D-08 OVMax= 5.27D-05

 Cycle  10  Pass 1  IDiag  1:
 E= -3107.47842828375     Delta-E=       -0.000000005030 Rises=F Damp=F
 DIIS: error= 1.80D-06 at cycle  10 NSaved=  10.
 NSaved=10 IEnMin=10 EnMin= -3107.47842828375     IErMin=10 ErrMin= 1.80D-06
 ErrMax= 1.80D-06  0.00D+00 EMaxC= 1.00D-01 BMatC= 2.58D-10 BMatP= 1.14D-09
 IDIUse=1 WtCom= 1.00D+00 WtEn= 0.00D+00
 Coeff-Com: -0.335D-05 0.139D-03 0.248D-03 0.364D-03-0.601D-02 0.153D-02
 Coeff-Com:  0.588D-01-0.255D+00-0.826D-01 0.128D+01
 Coeff:     -0.335D-05 0.139D-03 0.248D-03 0.364D-03-0.601D-02 0.153D-02
 Coeff:      0.588D-01-0.255D+00-0.826D-01 0.128D+01
 Gap=     0.333 Goal=   None    Shift=    0.000
 RMSDP=2.65D-07 MaxDP=5.68D-06 DE=-5.03D-09 OVMax= 3.19D-05

 Cycle  11  Pass 1  IDiag  1:
 E= -3107.47842828500     Delta-E=       -0.000000001244 Rises=F Damp=F
 DIIS: error= 5.79D-07 at cycle  11 NSaved=  11.
 NSaved=11 IEnMin=11 EnMin= -3107.47842828500     IErMin=11 ErrMin= 5.79D-07
 ErrMax= 5.79D-07  0.00D+00 EMaxC= 1.00D-01 BMatC= 2.52D-11 BMatP= 2.58D-10
 IDIUse=1 WtCom= 1.00D+00 WtEn= 0.00D+00
 Coeff-Com: -0.161D-05-0.201D-04 0.148D-04 0.627D-03-0.693D-03-0.350D-02
 Coeff-Com:  0.425D-02 0.533D-01-0.150D+00-0.203D+00 0.130D+01
 Coeff:     -0.161D-05-0.201D-04 0.148D-04 0.627D-03-0.693D-03-0.350D-02
 Coeff:      0.425D-02 0.533D-01-0.150D+00-0.203D+00 0.130D+01
 Gap=     0.333 Goal=   None    Shift=    0.000
 RMSDP=8.79D-08 MaxDP=1.93D-06 DE=-1.24D-09 OVMax= 1.04D-05

 Cycle  12  Pass 1  IDiag  1:
 E= -3107.47842828512     Delta-E=       -0.000000000121 Rises=F Damp=F
 DIIS: error= 1.29D-07 at cycle  12 NSaved=  12.
 NSaved=12 IEnMin=12 EnMin= -3107.47842828512     IErMin=12 ErrMin= 1.29D-07
 ErrMax= 1.29D-07  0.00D+00 EMaxC= 1.00D-01 BMatC= 1.66D-12 BMatP= 2.52D-11
 IDIUse=1 WtCom= 1.00D+00 WtEn= 0.00D+00
 Coeff-Com:  0.113D-06-0.116D-04-0.219D-04-0.258D-04 0.531D-03-0.929D-04
 Coeff-Com: -0.590D-02 0.270D-01 0.397D-02-0.143D+00 0.116D+00 0.100D+01
 Coeff:      0.113D-06-0.116D-04-0.219D-04-0.258D-04 0.531D-03-0.929D-04
 Coeff:     -0.590D-02 0.270D-01 0.397D-02-0.143D+00 0.116D+00 0.100D+01
 Gap=     0.333 Goal=   None    Shift=    0.000
 RMSDP=1.60D-08 MaxDP=3.27D-07 DE=-1.21D-10 OVMax= 1.62D-06

 Cycle  13  Pass 1  IDiag  1:
 E= -3107.47842828513     Delta-E=       -0.000000000013 Rises=F Damp=F
 DIIS: error= 2.37D-08 at cycle  13 NSaved=  13.
 NSaved=13 IEnMin=13 EnMin= -3107.47842828513     IErMin=13 ErrMin= 2.37D-08
 ErrMax= 2.37D-08  0.00D+00 EMaxC= 1.00D-01 BMatC= 9.44D-14 BMatP= 1.66D-12
 IDIUse=1 WtCom= 1.00D+00 WtEn= 0.00D+00
 Coeff-Com:  0.819D-07 0.258D-05 0.223D-05-0.267D-04-0.410D-04 0.138D-03
 Coeff-Com:  0.899D-03-0.789D-02 0.912D-02 0.362D-01-0.110D+00-0.142D+00
 Coeff-Com:  0.121D+01
 Coeff:      0.819D-07 0.258D-05 0.223D-05-0.267D-04-0.410D-04 0.138D-03
 Coeff:      0.899D-03-0.789D-02 0.912D-02 0.362D-01-0.110D+00-0.142D+00
 Coeff:      0.121D+01
 Gap=     0.333 Goal=   None    Shift=    0.000
 RMSDP=4.84D-09 MaxDP=9.36D-08 DE=-1.32D-11 OVMax= 3.90D-07

 SCF Done:  E(RHF) =  -3107.47842829     A.U. after   13 cycles
            NFock= 13  Conv=0.48D-08     -V/T= 2.0000
 KE= 3.107330305859D+03 PE=-7.823358908284D+03 EE= 1.418133050021D+03
 Leave Link  502 at Thu Sep 23 15:52:51 2021, MaxMem= 16106127360 cpu:              64.3 elap:               3.2
 (Enter /sw/contrib/gaussian/g16/B01/g16/l801.exe)
 ExpMin= 2.53D-02 ExpMax= 1.06D+07 ExpMxC= 1.21D+04 IAcc=3 IRadAn=         5 AccDes= 0.00D+00
 HarFok:  IExCor=  205 AccDes= 0.00D+00 IRadAn=         5 IDoV=-2 UseB2=F ITyADJ=14
 ICtDFT= 12500011 ScaDFX=  1.000000  1.000000  1.000000  1.000000
 Largest valence mixing into a core orbital is  4.47D-04
 Largest core mixing into a valence orbital is  1.58D-04
 Range of M.O.s used for correlation:    16   178
 NBasis=   178 NAE=    31 NBE=    31 NFC=    15 NFV=     0
 NROrb=    163 NOA=    16 NOB=    16 NVA=   147 NVB=   147

 **** Warning!!: The largest alpha MO coefficient is  0.20105919D+02

 Leave Link  801 at Thu Sep 23 15:52:52 2021, MaxMem= 16106127360 cpu:               4.7 elap:               0.3
 (Enter /sw/contrib/gaussian/g16/B01/g16/l906.exe)
 Frozen-core derivative calculation, NFC=  15 NFV=   0.
 FulOut=F Deriv=T AODrv=T NAtomX=     4
   MMem=         123  MDisk=          16 MDiskD=          16
  W3Min=     1147744 MinDsk=     1765480 NBas6D=         208
 NBas2D=       22240    NTT=       21736    LW2=     9911920
    MDV= 16105602492 MDiskM=      387105 NBas2p=       22137
 Fully direct method using O(ONN) memory.
 IMap=   1   2   3   4   5   6   7   8   9  10  11  12  13  14  15  16  17  18  19  20
 IMap=  21  22  23  24  25  26  27  28  29  30  31
 JobTyp=1 Pass  1:  I=  16 to  31 NPSUse= 28 ParTrn=T ParDer=T DoDerP=T.
 Spin components of T(2) and E(2):
     alpha-alpha T2 =       0.3036506518D-01 E2=     -0.9427687967D-01
     alpha-beta  T2 =       0.1615404079D+00 E2=     -0.5157843336D+00
     beta-beta   T2 =       0.3036506518D-01 E2=     -0.9427687967D-01
 The integrals were generated   1 times.
 ANorm=    0.1105563448D+01
 E2 =    -0.7043380929D+00 EUMP2 =    -0.31081827663780D+04
 Leave Link  906 at Thu Sep 23 15:53:09 2021, MaxMem= 16106127360 cpu:             466.7 elap:              16.8
 (Enter /sw/contrib/gaussian/g16/B01/g16/l1002.exe)
 Minotr:  Closed shell wavefunction.
          Computing MP2/KS-MP2 derivatives.
          Using Z-Vector for PSCF gradient.
          Skipping F1 and S1 gradient terms here.
          IDoAtm=1111
          Frozen-core window.
          Direct CPHF calculation.
          Differentiating once with respect to electric field.
                with respect to dipole field.
          Differentiating once with respect to nuclear coordinates.
          Using symmetry in CPHF.
          Requested convergence is 1.0D-10 RMS, and 1.0D-09 maximum.
          NewPWx=F KeepS1=T KeepF1=T KeepIn=T MapXYZ=F SortEE=F KeepMc=T.
 Keep R1 ints in memory in symmetry-blocked form, NReq=191184324.
 FoFCou: FMM=F IPFlag=           0 FMFlag=           0 FMFlg1=           0
         NFxFlg=           0 DoJE=F BraDBF=F KetDBF=F FulRan=T
         wScrn=  0.000000 ICntrl=       600 IOpCl=  0 I1Cent=           0 NGrid=           0
         NMat0=    1 NMatS0=  15931 NMatT0=    0 NMatD0=    1 NMtDS0=    0 NMtDT0=    0
 Petite list used in FoFCou.
          MDV=   16106127360 using IRadAn=       5.
          Solving linear equations separately, MaxMat=       0.
          There are     1 degrees of freedom in the 1st order CPHF.  IDoFFX=0 NUNeed=     1.
 LinEq1:  Iter=  0 NonCon=     1 RMS=2.65D-03 Max=4.58D-02 NDo=     1
 AX will form     1 AO Fock derivatives at one time.
 LinEq1:  Iter=  1 NonCon=     1 RMS=4.17D-04 Max=5.02D-03 NDo=     1
 LinEq1:  Iter=  2 NonCon=     1 RMS=1.96D-04 Max=4.07D-03 NDo=     1
 LinEq1:  Iter=  3 NonCon=     1 RMS=6.38D-05 Max=1.05D-03 NDo=     1
 LinEq1:  Iter=  4 NonCon=     1 RMS=2.71D-05 Max=9.12D-04 NDo=     1
 LinEq1:  Iter=  5 NonCon=     1 RMS=9.74D-06 Max=1.61D-04 NDo=     1
 LinEq1:  Iter=  6 NonCon=     1 RMS=2.03D-06 Max=2.43D-05 NDo=     1
 LinEq1:  Iter=  7 NonCon=     1 RMS=4.95D-07 Max=8.66D-06 NDo=     1
 LinEq1:  Iter=  8 NonCon=     1 RMS=1.38D-07 Max=2.20D-06 NDo=     1
 LinEq1:  Iter=  9 NonCon=     1 RMS=3.35D-08 Max=8.28D-07 NDo=     1
 LinEq1:  Iter= 10 NonCon=     1 RMS=9.51D-09 Max=2.46D-07 NDo=     1
 LinEq1:  Iter= 11 NonCon=     1 RMS=2.37D-09 Max=4.00D-08 NDo=     1
 LinEq1:  Iter= 12 NonCon=     1 RMS=4.55D-10 Max=6.75D-09 NDo=     1
 LinEq1:  Iter= 13 NonCon=     1 RMS=1.27D-10 Max=1.73D-09 NDo=     1
 LinEq1:  Iter= 14 NonCon=     0 RMS=2.77D-11 Max=4.07D-10 NDo=     1
 Linear equations converged to 1.000D-10 1.000D-09 after    14 iterations.
 End of Minotr F.D. properties file   721 does not exist.
 End of Minotr F.D. properties file   722 does not exist.
 End of Minotr F.D. properties file   788 does not exist.
 Leave Link 1002 at Thu Sep 23 15:53:12 2021, MaxMem= 16106127360 cpu:              54.0 elap:               2.9
 (Enter /sw/contrib/gaussian/g16/B01/g16/l601.exe)
 Copying SCF densities to generalized density rwf, IOpCl= 0 IROHF=0.

 **********************************************************************

            Population analysis using the MP2 Density.

 **********************************************************************

 Orbital symmetries:
       Occupied  (A') (A') (A') (A') (A") (A') (A') (A') (A') (A')
                 (A') (A") (A') (A") (A') (A') (A") (A') (A") (A')
                 (A') (A') (A') (A') (A") (A') (A') (A") (A') (A")
                 (A')
       Virtual   (A') (A') (A') (A") (A') (A') (A") (A') (A') (A")
                 (A') (A') (A') (A') (A") (A") (A') (A') (A') (A')
                 (A") (A") (A') (A') (A') (A") (A') (A') (A') (A")
                 (A') (A") (A') (A') (A") (A') (A') (A") (A") (A')
                 (A") (A') (A') (A') (A") (A') (A") (A') (A') (A')
                 (A") (A') (A") (A') (A') (A") (A") (A') (A') (A")
                 (A') (A") (A') (A') (A') (A') (A') (A") (A") (A')
                 (A") (A') (A') (A") (A') (A') (A') (A") (A") (A')
                 (A') (A') (A") (A') (A") (A') (A") (A") (A') (A')
                 (A') (A') (A") (A') (A") (A') (A") (A') (A") (A')
                 (A") (A') (A') (A') (A") (A') (A") (A') (A") (A')
                 (A') (A") (A') (A') (A") (A') (A') (A") (A') (A')
                 (A') (A") (A") (A') (A") (A') (A') (A') (A') (A')
                 (A") (A') (A') (A') (A") (A') (A") (A') (A") (A')
                 (A") (A') (A") (A') (A') (A') (A')
 The electronic state is 1-A'.
 Alpha  occ. eigenvalues -- -489.75651-104.73061 -64.89689 -58.25139 -58.25134
 Alpha  occ. eigenvalues --  -58.25134 -20.46061 -10.45011  -9.56944  -7.91727
 Alpha  occ. eigenvalues --   -7.91464  -7.91454  -7.17727  -7.17668  -7.17667
 Alpha  occ. eigenvalues --   -2.91898  -2.91870  -2.91868  -2.91804  -2.91804
 Alpha  occ. eigenvalues --   -1.22717  -0.89453  -0.73230  -0.53756  -0.44120
 Alpha  occ. eigenvalues --   -0.43303  -0.30733  -0.27986  -0.18681  -0.17688
 Alpha  occ. eigenvalues --   -0.17682
 Alpha virt. eigenvalues --    0.15620   0.18126   0.21571   0.22800   0.24121
 Alpha virt. eigenvalues --    0.24627   0.25007   0.28728   0.30364   0.31823
 Alpha virt. eigenvalues --    0.32360   0.32491   0.35887   0.43610   0.43706
 Alpha virt. eigenvalues --    0.46922   0.48193   0.48577   0.50234   0.54236
 Alpha virt. eigenvalues --    0.54273   0.57090   0.59365   0.60132   0.60396
 Alpha virt. eigenvalues --    0.60909   0.65638   0.69974   0.73750   0.74481
 Alpha virt. eigenvalues --    0.75324   0.77670   0.78764   0.84688   0.89038
 Alpha virt. eigenvalues --    0.89654   0.92001   0.94390   0.99835   0.99886
 Alpha virt. eigenvalues --    1.00345   1.00865   1.01870   1.03254   1.06846
 Alpha virt. eigenvalues --    1.08158   1.09378   1.10321   1.11069   1.13329
 Alpha virt. eigenvalues --    1.15320   1.17672   1.18180   1.20870   1.22165
 Alpha virt. eigenvalues --    1.24113   1.28395   1.29499   1.33324   1.33525
 Alpha virt. eigenvalues --    1.37458   1.38885   1.47604   1.50602   1.51939
 Alpha virt. eigenvalues --    1.56912   1.59068   1.63298   1.66703   1.70118
 Alpha virt. eigenvalues --    1.70630   1.77177   1.79085   1.79935   1.89903
 Alpha virt. eigenvalues --    1.97532   2.15202   2.37834   2.41049   2.41726
 Alpha virt. eigenvalues --    2.42247   2.46604   2.50275   2.50599   2.52789
 Alpha virt. eigenvalues --    2.53517   2.54931   2.55085   2.55327   2.56244
 Alpha virt. eigenvalues --    2.58234   2.60219   2.63161   2.64742   2.65854
 Alpha virt. eigenvalues --    2.68018   2.68115   2.70053   2.72016   2.72612
 Alpha virt. eigenvalues --    2.73976   2.75706   2.78309   2.80846   2.81045
 Alpha virt. eigenvalues --    2.88347   3.03278   3.07443   3.09697   3.17740
 Alpha virt. eigenvalues --    3.20097   3.21751   3.25689   3.29138   3.31213
 Alpha virt. eigenvalues --    3.33996   3.53144   3.54848   3.57377   3.93455
 Alpha virt. eigenvalues --    4.18736   4.30652   4.44962   4.53644   4.58991
 Alpha virt. eigenvalues --    4.77660   4.97065   5.03347   5.25296   5.33136
 Alpha virt. eigenvalues --    5.37034   5.65903   6.43311   6.59525   6.84916
 Alpha virt. eigenvalues --    6.90278   6.91676   6.99928   7.27098   7.33089
 Alpha virt. eigenvalues --    7.34682   7.45082   7.55659   7.74303   7.81847
 Alpha virt. eigenvalues --    8.35132  14.56538
          Condensed to atoms (all electrons):
               1          2          3          4
     1  O    8.670642  -0.115202  -0.093928   0.032716
     2  Cl  -0.115202  17.069667   0.004300  -0.006867
     3  Br  -0.093928   0.004300  35.892742   0.042846
     4  H    0.032716  -0.006867   0.042846   0.639220
 Mulliken charges:
               1
     1  O   -0.494227
     2  Cl   0.048102
     3  Br  -0.845960
     4  H    0.292085
 Sum of Mulliken charges =  -1.00000
 Mulliken charges with hydrogens summed into heavy atoms:
               1
     1  O   -0.202142
     2  Cl   0.048102
     3  Br  -0.845960
 Electronic spatial extent (au):  <R**2>=            810.2049
 Charge=             -1.0000 electrons
 Dipole moment (field-independent basis, Debye):
    X=              2.6501    Y=              1.1370    Z=              0.0000  Tot=              2.8837
 Quadrupole moment (field-independent basis, Debye-Ang):
   XX=            -50.7411   YY=            -50.4242   ZZ=            -43.1709
   XY=             -7.3555   XZ=              0.0000   YZ=              0.0000
 Traceless Quadrupole moment (field-independent basis, Debye-Ang):
   XX=             -2.6291   YY=             -2.3121   ZZ=              4.9412
   XY=             -7.3555   XZ=              0.0000   YZ=              0.0000
 Octapole moment (field-independent basis, Debye-Ang**2):
  XXX=            -10.3975  YYY=            -16.5923  ZZZ=              0.0000  XYY=             -7.2757
  XXY=             -4.0558  XXZ=              0.0000  XZZ=             -5.8011  YZZ=             -3.7489
  YYZ=              0.0000  XYZ=              0.0000
 Hexadecapole moment (field-independent basis, Debye-Ang**3):
 XXXX=           -628.4286 YYYY=           -363.0824 ZZZZ=            -61.8399 XXXY=           -191.3180
 XXXZ=              0.0000 YYYX=           -184.8912 YYYZ=              0.0000 ZZZX=              0.0000
 ZZZY=              0.0000 XXYY=           -173.9657 XXZZ=           -118.5667 YYZZ=            -69.1764
 XXYZ=              0.0000 YYXZ=              0.0000 ZZXY=            -59.4675
 N-N= 1.904171241185D+02 E-N=-7.821930292306D+03  KE= 3.107357097768D+03
 Symmetry A'   KE= 2.681320072051D+03
 Symmetry A"   KE= 4.260370257176D+02
 No NMR shielding tensors so no spin-rotation constants.
 Leave Link  601 at Thu Sep 23 15:53:13 2021, MaxMem= 16106127360 cpu:               7.6 elap:               0.4
 (Enter /sw/contrib/gaussian/g16/B01/g16/l701.exe)
 ... and contract with generalized density number  2.
 Compute integral first derivatives.
 Leave Link  701 at Thu Sep 23 15:53:14 2021, MaxMem= 16106127360 cpu:               6.5 elap:               0.3
 (Enter /sw/contrib/gaussian/g16/B01/g16/l702.exe)
 L702 exits ... SP integral derivatives will be done elsewhere.
 Leave Link  702 at Thu Sep 23 15:53:14 2021, MaxMem= 16106127360 cpu:               1.2 elap:               0.1
 (Enter /sw/contrib/gaussian/g16/B01/g16/l703.exe)
 Integral derivatives from FoFJK, PRISM(SPDF).
 Compute integral first derivatives, UseDBF=F ICtDFT=           0.
 Calling FoFJK, ICntrl=  10002127 FMM=F ISym2X=1 I1Cent= 0 IOpClX= 0 NMat=1 NMatS=1 NMatT=0.
 FoFJK:  IHMeth= 1 ICntrl=10002127 DoSepK=F KAlg= 0 I1Cent=           0 FoldK=F
 IRaf=         0 NMat=       1 IRICut=       1 DoRegI=T DoRafI=F ISym2E= 1 IDoP0=0 IntGTp=1.
 FoFCou: FMM=F IPFlag=           0 FMFlag=      100000 FMFlg1=         800
         NFxFlg=           0 DoJE=F BraDBF=F KetDBF=F FulRan=T
         wScrn=  0.000000 ICntrl=  10002127 IOpCl=  0 I1Cent=           0 NGrid=           0
         NMat0=    1 NMatS0=      1 NMatT0=    0 NMatD0=    1 NMtDS0=    0 NMtDT0=    0
 Petite list used in FoFCou.
 Leave Link  703 at Thu Sep 23 15:53:16 2021, MaxMem= 16106127360 cpu:              66.2 elap:               2.4
 (Enter /sw/contrib/gaussian/g16/B01/g16/l716.exe)
 Dipole        = 1.04263481D+00 4.47316421D-01 0.00000000D+00
 ***** Axes restored to original set *****
 -------------------------------------------------------------------
 Center     Atomic                   Forces (Hartrees/Bohr)
 Number     Number              X              Y              Z
 -------------------------------------------------------------------
      1        8          -0.001144472    0.000299160   -0.000000000
      2       17          -0.000005771   -0.000037184   -0.000000000
      3       35          -0.000537117    0.000133662   -0.000000000
      4        1           0.001687360   -0.000395639   -0.000000000
 -------------------------------------------------------------------
 Cartesian Forces:  Max     0.001687360 RMS     0.000626552
 -----------------------------------------------------------------------------------------------
                       Internal Coordinate Forces (Hartree/Bohr or radian)
  Cent   Atom   N1       Length/X         N2         Alpha/Y        N3         Beta/Z          J
 -----------------------------------------------------------------------------------------------
      1  O 
         X        1   0.000000(     1)
      2  Cl       1  -0.000006(     2)      2  -0.000000(     5)
      3  Br       1  -0.000005(     3)      2  -0.000000(     6)      3   0.003215(     8)     0
      4  H        1  -0.000007(     4)      2  -0.000000(     7)      3  -0.003333(     9)     0
 -----------------------------------------------------------------------------------------------
 Internal  Forces:  Max     0.003333191 RMS     0.001543665
 Force constants in Cartesian coordinates: 
                1             2             3             4             5 
      1  0.469923D+00
      2  0.513330D-01  0.505705D+00
      3  0.000000D+00  0.000000D+00  0.287971D-01
      4 -0.378449D+00  0.000000D+00  0.000000D+00  0.378449D+00
      5  0.385763D-01 -0.496747D-01  0.000000D+00  0.000000D+00  0.404701D-01
      6  0.000000D+00  0.000000D+00  0.000000D+00  0.000000D+00  0.000000D+00
      7  0.908078D-03  0.786124D-02  0.000000D+00  0.000000D+00 -0.131527D-01
      8 -0.529144D-02 -0.231439D-01  0.000000D+00  0.000000D+00  0.313835D-02
      9  0.000000D+00  0.000000D+00  0.142542D-01  0.000000D+00  0.000000D+00
     10 -0.923814D-01 -0.591942D-01  0.000000D+00  0.000000D+00 -0.254236D-01
     11 -0.846178D-01 -0.432887D+00  0.000000D+00  0.000000D+00  0.606629D-02
     12  0.000000D+00  0.000000D+00 -0.430513D-01  0.000000D+00  0.000000D+00
                6             7             8             9            10 
      6  0.100000D+01
      7  0.000000D+00  0.126426D-01
      8  0.000000D+00  0.205813D-02  0.207770D-01
      9  0.000000D+00  0.000000D+00  0.000000D+00  0.705568D-02
     10  0.000000D+00 -0.135507D-01  0.323331D-02  0.000000D+00  0.105932D+00
     11  0.000000D+00  0.323331D-02 -0.771497D-03  0.000000D+00  0.813845D-01
     12  0.000000D+00  0.000000D+00  0.000000D+00 -0.213099D-01  0.000000D+00
               11            12 
     11  0.427592D+00
     12  0.000000D+00  0.643612D-01
 Force constants in internal coordinates: 
                1             2             3             4             5 
      1  0.000000D+00
      2  0.000000D+00  0.378449D+00
      3  0.000000D+00  0.000000D+00  0.212681D-01
      4  0.000000D+00  0.000000D+00  0.000000D+00  0.447011D+00
      5  0.000000D+00  0.000000D+00  0.000000D+00  0.000000D+00  0.101309D+02
      6  0.000000D+00  0.000000D+00  0.000000D+00  0.000000D+00  0.000000D+00
      7  0.000000D+00  0.000000D+00  0.000000D+00  0.000000D+00  0.000000D+00
      8  0.000000D+00  0.000000D+00  0.000000D+00  0.000000D+00  0.000000D+00
      9  0.000000D+00  0.000000D+00  0.000000D+00  0.000000D+00  0.000000D+00
                6             7             8             9 
      6  0.238063D+00
      7 -0.238063D+00  0.238063D+00
      8  0.000000D+00  0.000000D+00  0.410000D+00
      9  0.000000D+00  0.000000D+00 -0.160000D+00  0.320000D+00
 Leave Link  716 at Thu Sep 23 15:53:17 2021, MaxMem= 16106127360 cpu:               3.5 elap:               0.2
 (Enter /sw/contrib/gaussian/g16/B01/g16/l103.exe)

 GradGradGradGradGradGradGradGradGradGradGradGradGradGradGradGradGradGrad
 Berny optimization.
 Search for a local minimum.
 Step number   1 out of a maximum of   20 on scan point     1 out of    11
 All quantities printed in internal units (Hartrees-Bohrs-Radians)
 Second derivative matrix not updated -- first step.
 The second derivative matrix:
                          r1        r2        r3        a1        OOP
           r1           0.37845
           r2           0.00000   0.02127
           r3           0.00000   0.00000   0.44701
           a1           0.00000  -0.00000  -0.00000   0.41000
           OOP          0.00000   0.00000   0.00000  -0.00000   0.23806
 ITU=  0
     Eigenvalues ---    0.447011000.000001000.000001000.000001000.00000
 RFO step:  Lambda= 0.00000000D+00 EMin= 4.47011092D-01
 Linear search not attempted -- first point.
 Variable       Old X    -DE/DX   Delta X   Delta X   Delta X     New X
                                 (Linear)    (Quad)   (Total)
    r1        3.18291  -0.00001   0.00000   0.00000   0.00000   3.18291
    r2        5.80867  -0.00001   0.00000   0.00000   0.00000   5.80867
    r3        1.92324  -0.00001   0.00000  -0.00002  -0.00002   1.92323
    a1        1.80503  -0.00012   0.00000   0.00000   0.00000   1.80503
   OOP        1.57080  -0.00000   0.00000   0.00000   0.00000   1.57080
         Item               Value     Threshold  Converged?
 Maximum Force            0.000007     0.000450     YES
 RMS     Force            0.000007     0.000300     YES
 Maximum Displacement     0.000015     0.001800     YES
 RMS     Displacement     0.000007     0.001200     YES
 Predicted change in Energy=-5.156452D-11
 Optimization completed.
    -- Stationary point found.
                       ----------------------------
                       !   Optimized Parameters   !
                       ! (Angstroms and Degrees)  !
 ----------------------                            ----------------------
 !      Name          Value   Derivative information (Atomic Units)     !
 ------------------------------------------------------------------------
 !       r1          1.6843   -DE/DX =    0.0                           !
 !       r2          3.0738   -DE/DX =    0.0                           !
 !       r3          1.0177   -DE/DX =    0.0                           !
 !       a1        103.4203   -DE/DX =   -0.0001                        !
 !       OOP        90.0      -DE/DX =    0.0                           !
 ------------------------------------------------------------------------
 Lowest energy point so far.  Saving SCF results.
 GradGradGradGradGradGradGradGradGradGradGradGradGradGradGradGradGradGrad

 Leave Link  103 at Thu Sep 23 15:53:17 2021, MaxMem= 16106127360 cpu:               1.5 elap:               0.1
 (Enter /sw/contrib/gaussian/g16/B01/g16/l202.exe)
 ---------------------------------------------------------------------------------------------------
                            Z-MATRIX (ANGSTROMS AND DEGREES)
   CD    Cent   Atom    N1       Length/X        N2       Alpha/Y        N3        Beta/Z          J
 ---------------------------------------------------------------------------------------------------
      1      1  O 
      2         X        1  10.000000(     1)
      3      2  Cl       1   1.684326(     2)      2   90.000(     5)
      4      3  Br       1   3.073817(     3)      2   90.000(     6)      3  103.420(     8)      0
      5      4  H        1   1.017737(     4)      2   85.000(     7)      3  103.420(     9)      0
 ---------------------------------------------------------------------------------------------------
                         Z-Matrix orientation:                         
 ---------------------------------------------------------------------
 Center     Atomic      Atomic             Coordinates (Angstroms)
 Number     Number       Type             X           Y           Z
 ---------------------------------------------------------------------
      1          8           0        0.000000    0.000000    0.000000
      2         -1           0        0.000000    0.000000   10.000000
      3         17           0        1.684326    0.000000    0.000000
      4         35           0       -0.713413   -2.989882    0.000000
      5          1           0       -0.235311   -0.986179    0.088702
 ---------------------------------------------------------------------
                    Distance matrix (angstroms):
                    1          2          3          4          5
     1  O    0.000000
     2  X   10.000000   0.000000
     3  Cl   1.684326  10.140856   0.000000
     4  Br   3.073817  10.461757   3.832564   0.000000
     5  H    1.017737   9.963019   2.159959   2.061862   0.000000
 Stoichiometry    BrClHO(1-)
 Framework group  C1[X(BrClHO)]
 Deg. of freedom     6
 Full point group                 C1      NOp   1
 Omega: Change in point group or standard orientation.

 Old FWG=CS   [SG(Br1Cl1H1O1)]
 New FWG=C01  [X(Br1Cl1H1O1)]
 RotChk:  IX=0 Diff= 8.37D-01
 Largest Abelian subgroup         C1      NOp   1
 Largest concise Abelian subgroup C1      NOp   1
                         Standard orientation:                         
 ---------------------------------------------------------------------
 Center     Atomic      Atomic             Coordinates (Angstroms)
 Number     Number       Type             X           Y           Z
 ---------------------------------------------------------------------
      1          8           0        1.403422    1.015978   -0.007018
      2         17           0        2.346340   -0.379661    0.000001
      3         35           0       -1.473420   -0.066655   -0.000789
      4          1           0        0.454547    0.659343    0.083737
 ---------------------------------------------------------------------
 Rotational constants (GHZ):          22.6357016           1.2807908           1.2122459
 Leave Link  202 at Thu Sep 23 15:53:17 2021, MaxMem= 16106127360 cpu:               1.3 elap:               0.1
 (Enter /sw/contrib/gaussian/g16/B01/g16/l301.exe)
 Standard basis: Aug-CC-pVTZ (5D, 7F)
 Ernie: Thresh=  0.10000D-02 Tol=  0.10000D-05 Strict=F.
 Ernie:  48 primitive shells out of 228 were deleted.
 There are   208 symmetry adapted cartesian basis functions of A   symmetry.
 There are   178 symmetry adapted basis functions of A   symmetry.
   178 basis functions,   430 primitive gaussians,   208 cartesian basis functions
    31 alpha electrons       31 beta electrons
       nuclear repulsion energy       190.3932156706 Hartrees.
 IExCor=    0 DFT=F Ex=HF Corr=None ExCW=0 ScaHFX=  1.000000
 ScaDFX=  1.000000  1.000000  1.000000  1.000000 ScalE2=  1.000000  1.000000
 IRadAn=      5 IRanWt=     -1 IRanGd=            0 ICorTp=0 IEmpDi=  4
 NAtoms=    4 NActive=    4 NUniq=    4 SFac= 1.00D+00 NAtFMM=   60 NAOKFM=F Big=F
 Integral buffers will be    131072 words long.
 Raffenetti 1 integral format.
 Two-electron integral symmetry is turned on.
 Leave Link  301 at Thu Sep 23 15:53:17 2021, MaxMem= 16106127360 cpu:               1.8 elap:               0.1
 (Enter /sw/contrib/gaussian/g16/B01/g16/l302.exe)
 NPDir=0 NMtPBC=     1 NCelOv=     1 NCel=       1 NClECP=     1 NCelD=      1
         NCelK=      1 NCelE2=     1 NClLst=     1 CellRange=     0.0.
 One-electron integrals computed using PRISM.
 One-electron integral symmetry used in STVInt
 NBasis=   178 RedAO= T EigKep=  2.41D-04  NBF=   178
 NBsUse=   178 1.00D-06 EigRej= -1.00D+00 NBFU=   178
 Leave Link  302 at Thu Sep 23 15:53:17 2021, MaxMem= 16106127360 cpu:               4.6 elap:               0.2
 (Enter /sw/contrib/gaussian/g16/B01/g16/l303.exe)
 DipDrv:  MaxL=1.
 Leave Link  303 at Thu Sep 23 15:53:17 2021, MaxMem= 16106127360 cpu:               6.6 elap:               0.3
 (Enter /sw/contrib/gaussian/g16/B01/g16/l401.exe)
 Initial guess from the checkpoint file:  "/gscratch/ilahie/mccoygrp/coire_hocl/brhocl/brhocl_rOH_opt.chk"
 B after Tr=    -0.000000   -0.000000   -0.000000
         Rot=    0.955166    0.000007    0.000001    0.296070 Ang=  34.44 deg.
 Guess basis will be translated and rotated to current coordinates.
 JPrj=2 DoOrth=T DoCkMO=T.
 Generating alternative initial guess.
 ExpMin= 2.53D-02 ExpMax= 1.06D+07 ExpMxC= 1.21D+04 IAcc=3 IRadAn=         5 AccDes= 0.00D+00
 Harris functional with IExCor=  205 and IRadAn=       5 diagonalized for initial guess.
 HarFok:  IExCor=  205 AccDes= 0.00D+00 IRadAn=         5 IDoV= 1 UseB2=F ITyADJ=14
 ICtDFT=  3500011 ScaDFX=  1.000000  1.000000  1.000000  1.000000
 FoFCou: FMM=F IPFlag=           0 FMFlag=      100000 FMFlg1=           0
         NFxFlg=           0 DoJE=T BraDBF=F KetDBF=T FulRan=T
         wScrn=  0.000000 ICntrl=       500 IOpCl=  0 I1Cent=   200000004 NGrid=           0
         NMat0=    1 NMatS0=      1 NMatT0=    0 NMatD0=    1 NMtDS0=    0 NMtDT0=    0
 Petite list used in FoFCou.
 Harris En= -3106.38941902340    
 Leave Link  401 at Thu Sep 23 15:53:18 2021, MaxMem= 16106127360 cpu:               9.5 elap:               0.4
 (Enter /sw/contrib/gaussian/g16/B01/g16/l502.exe)
 Keep R1 ints in memory in canonical form, NReq=149455310.
 FoFCou: FMM=F IPFlag=           0 FMFlag=           0 FMFlg1=           0
         NFxFlg=           0 DoJE=F BraDBF=F KetDBF=F FulRan=T
         wScrn=  0.000000 ICntrl=       600 IOpCl=  0 I1Cent=           0 NGrid=           0
         NMat0=    1 NMatS0=  15931 NMatT0=    0 NMatD0=    1 NMtDS0=    0 NMtDT0=    0
 Symmetry not used in FoFCou.
 Two-electron integral symmetry not used.
 Closed shell SCF:
 Using DIIS extrapolation, IDIIS=  1040.
 NGot= 16106127360 LenX= 15979126904 LenY= 15979083199
 Requested convergence on RMS density matrix=1.00D-08 within 128 cycles.
 Requested convergence on MAX density matrix=1.00D-06.
 Requested convergence on             energy=1.00D-06.
 No special actions if energy rises.

 Cycle   1  Pass 1  IDiag  1:
 E= -3107.47705187330    
 DIIS: error= 2.46D-03 at cycle   1 NSaved=   1.
 NSaved= 1 IEnMin= 1 EnMin= -3107.47705187330     IErMin= 1 ErrMin= 2.46D-03
 ErrMax= 2.46D-03  0.00D+00 EMaxC= 1.00D-01 BMatC= 1.04D-03 BMatP= 1.04D-03
 IDIUse=3 WtCom= 9.75D-01 WtEn= 2.46D-02
 Coeff-Com:  0.100D+01
 Coeff-En:   0.100D+01
 Coeff:      0.100D+01
 Gap=     0.672 Goal=   None    Shift=    0.000
 GapD=    0.672 DampG=2.000 DampE=1.000 DampFc=2.0000 IDamp=-1.
 RMSDP=2.80D-04 MaxDP=1.24D-02              OVMax= 9.68D-03

 Cycle   2  Pass 1  IDiag  1:
 E= -3107.47806500592     Delta-E=       -0.001013132621 Rises=F Damp=F
 DIIS: error= 5.99D-04 at cycle   2 NSaved=   2.
 NSaved= 2 IEnMin= 2 EnMin= -3107.47806500592     IErMin= 2 ErrMin= 5.99D-04
 ErrMax= 5.99D-04  0.00D+00 EMaxC= 1.00D-01 BMatC= 5.63D-05 BMatP= 1.04D-03
 IDIUse=3 WtCom= 9.94D-01 WtEn= 5.99D-03
 Coeff-Com: -0.213D+00 0.121D+01
 Coeff-En:   0.000D+00 0.100D+01
 Coeff:     -0.211D+00 0.121D+01
 Gap=     0.333 Goal=   None    Shift=    0.000
 RMSDP=7.27D-05 MaxDP=3.11D-03 DE=-1.01D-03 OVMax= 4.17D-03

 Cycle   3  Pass 1  IDiag  1:
 E= -3107.47816481011     Delta-E=       -0.000099804194 Rises=F Damp=F
 DIIS: error= 1.84D-04 at cycle   3 NSaved=   3.
 NSaved= 3 IEnMin= 3 EnMin= -3107.47816481011     IErMin= 3 ErrMin= 1.84D-04
 ErrMax= 1.84D-04  0.00D+00 EMaxC= 1.00D-01 BMatC= 3.07D-06 BMatP= 5.63D-05
 IDIUse=3 WtCom= 9.98D-01 WtEn= 1.84D-03
 Coeff-Com:  0.119D-01-0.202D+00 0.119D+01
 Coeff-En:   0.000D+00 0.000D+00 0.100D+01
 Coeff:      0.119D-01-0.202D+00 0.119D+01
 Gap=     0.333 Goal=   None    Shift=    0.000
 RMSDP=1.46D-05 MaxDP=7.31D-04 DE=-9.98D-05 OVMax= 1.29D-03

 Cycle   4  Pass 1  IDiag  1:
 E= -3107.47817160048     Delta-E=       -0.000006790369 Rises=F Damp=F
 DIIS: error= 5.91D-05 at cycle   4 NSaved=   4.
 NSaved= 4 IEnMin= 4 EnMin= -3107.47817160048     IErMin= 4 ErrMin= 5.91D-05
 ErrMax= 5.91D-05  0.00D+00 EMaxC= 1.00D-01 BMatC= 7.27D-07 BMatP= 3.07D-06
 IDIUse=1 WtCom= 1.00D+00 WtEn= 0.00D+00
 Coeff-Com:  0.216D-01-0.172D+00 0.392D+00 0.757D+00
 Coeff:      0.216D-01-0.172D+00 0.392D+00 0.757D+00
 Gap=     0.333 Goal=   None    Shift=    0.000
 RMSDP=4.02D-06 MaxDP=1.35D-04 DE=-6.79D-06 OVMax= 3.27D-04

 Cycle   5  Pass 1  IDiag  1:
 E= -3107.47817242869     Delta-E=       -0.000000828208 Rises=F Damp=F
 DIIS: error= 1.39D-05 at cycle   5 NSaved=   5.
 NSaved= 5 IEnMin= 5 EnMin= -3107.47817242869     IErMin= 5 ErrMin= 1.39D-05
 ErrMax= 1.39D-05  0.00D+00 EMaxC= 1.00D-01 BMatC= 4.97D-08 BMatP= 7.27D-07
 IDIUse=1 WtCom= 1.00D+00 WtEn= 0.00D+00
 Coeff-Com:  0.411D-03 0.623D-02-0.106D+00 0.699D-01 0.103D+01
 Coeff:      0.411D-03 0.623D-02-0.106D+00 0.699D-01 0.103D+01
 Gap=     0.333 Goal=   None    Shift=    0.000
 RMSDP=1.83D-06 MaxDP=6.20D-05 DE=-8.28D-07 OVMax= 1.50D-04

 Cycle   6  Pass 1  IDiag  1:
 E= -3107.47817252488     Delta-E=       -0.000000096188 Rises=F Damp=F
 DIIS: error= 5.02D-06 at cycle   6 NSaved=   6.
 NSaved= 6 IEnMin= 6 EnMin= -3107.47817252488     IErMin= 6 ErrMin= 5.02D-06
 ErrMax= 5.02D-06  0.00D+00 EMaxC= 1.00D-01 BMatC= 3.82D-09 BMatP= 4.97D-08
 IDIUse=1 WtCom= 1.00D+00 WtEn= 0.00D+00
 Coeff-Com: -0.195D-02 0.162D-01-0.389D-01-0.714D-01 0.201D-01 0.108D+01
 Coeff:     -0.195D-02 0.162D-01-0.389D-01-0.714D-01 0.201D-01 0.108D+01
 Gap=     0.333 Goal=   None    Shift=    0.000
 RMSDP=6.87D-07 MaxDP=2.37D-05 DE=-9.62D-08 OVMax= 5.68D-05

 Cycle   7  Pass 1  IDiag  1:
 E= -3107.47817253564     Delta-E=       -0.000000010761 Rises=F Damp=F
 DIIS: error= 2.01D-06 at cycle   7 NSaved=   7.
 NSaved= 7 IEnMin= 7 EnMin= -3107.47817253564     IErMin= 7 ErrMin= 2.01D-06
 ErrMax= 2.01D-06  0.00D+00 EMaxC= 1.00D-01 BMatC= 5.30D-10 BMatP= 3.82D-09
 IDIUse=1 WtCom= 1.00D+00 WtEn= 0.00D+00
 Coeff-Com:  0.394D-03-0.395D-02 0.180D-01 0.897D-02-0.939D-01-0.169D+00
 Coeff-Com:  0.124D+01
 Coeff:      0.394D-03-0.395D-02 0.180D-01 0.897D-02-0.939D-01-0.169D+00
 Coeff:      0.124D+01
 Gap=     0.333 Goal=   None    Shift=    0.000
 RMSDP=2.89D-07 MaxDP=7.00D-06 DE=-1.08D-08 OVMax= 3.39D-05

 Cycle   8  Pass 1  IDiag  1:
 E= -3107.47817253807     Delta-E=       -0.000000002430 Rises=F Damp=F
 DIIS: error= 1.21D-06 at cycle   8 NSaved=   8.
 NSaved= 8 IEnMin= 8 EnMin= -3107.47817253807     IErMin= 8 ErrMin= 1.21D-06
 ErrMax= 1.21D-06  0.00D+00 EMaxC= 1.00D-01 BMatC= 1.55D-10 BMatP= 5.30D-10
 IDIUse=1 WtCom= 1.00D+00 WtEn= 0.00D+00
 Coeff-Com:  0.330D-03-0.271D-02 0.466D-02 0.122D-01 0.801D-02-0.159D+00
 Coeff-Com: -0.275D+00 0.141D+01
 Coeff:      0.330D-03-0.271D-02 0.466D-02 0.122D-01 0.801D-02-0.159D+00
 Coeff:     -0.275D+00 0.141D+01
 Gap=     0.333 Goal=   None    Shift=    0.000
 RMSDP=2.01D-07 MaxDP=4.83D-06 DE=-2.43D-09 OVMax= 2.67D-05

 Cycle   9  Pass 1  IDiag  1:
 E= -3107.47817253898     Delta-E=       -0.000000000912 Rises=F Damp=F
 DIIS: error= 5.04D-07 at cycle   9 NSaved=   9.
 NSaved= 9 IEnMin= 9 EnMin= -3107.47817253898     IErMin= 9 ErrMin= 5.04D-07
 ErrMax= 5.04D-07  0.00D+00 EMaxC= 1.00D-01 BMatC= 3.09D-11 BMatP= 1.55D-10
 IDIUse=1 WtCom= 1.00D+00 WtEn= 0.00D+00
 Coeff-Com: -0.126D-03 0.121D-02-0.452D-02-0.381D-02 0.191D-01 0.715D-01
 Coeff-Com: -0.241D+00-0.372D+00 0.153D+01
 Coeff:     -0.126D-03 0.121D-02-0.452D-02-0.381D-02 0.191D-01 0.715D-01
 Coeff:     -0.241D+00-0.372D+00 0.153D+01
 Gap=     0.333 Goal=   None    Shift=    0.000
 RMSDP=1.28D-07 MaxDP=2.85D-06 DE=-9.12D-10 OVMax= 1.75D-05

 Cycle  10  Pass 1  IDiag  1:
 E= -3107.47817253920     Delta-E=       -0.000000000219 Rises=F Damp=F
 DIIS: error= 8.32D-08 at cycle  10 NSaved=  10.
 NSaved=10 IEnMin=10 EnMin= -3107.47817253920     IErMin=10 ErrMin= 8.32D-08
 ErrMax= 8.32D-08  0.00D+00 EMaxC= 1.00D-01 BMatC= 2.15D-12 BMatP= 3.09D-11
 IDIUse=1 WtCom= 1.00D+00 WtEn= 0.00D+00
 Coeff-Com: -0.342D-04 0.286D-03-0.353D-03-0.143D-02-0.122D-02 0.198D-01
 Coeff-Com:  0.430D-01-0.209D+00 0.725D-01 0.108D+01
 Coeff:     -0.342D-04 0.286D-03-0.353D-03-0.143D-02-0.122D-02 0.198D-01
 Coeff:      0.430D-01-0.209D+00 0.725D-01 0.108D+01
 Gap=     0.333 Goal=   None    Shift=    0.000
 RMSDP=2.57D-08 MaxDP=5.22D-07 DE=-2.19D-10 OVMax= 3.39D-06

 Cycle  11  Pass 1  IDiag  1:
 E= -3107.47817253921     Delta-E=       -0.000000000007 Rises=F Damp=F
 DIIS: error= 2.69D-08 at cycle  11 NSaved=  11.
 NSaved=11 IEnMin=11 EnMin= -3107.47817253921     IErMin=11 ErrMin= 2.69D-08
 ErrMax= 2.69D-08  0.00D+00 EMaxC= 1.00D-01 BMatC= 1.71D-13 BMatP= 2.15D-12
 IDIUse=1 WtCom= 1.00D+00 WtEn= 0.00D+00
 Coeff-Com:  0.980D-05-0.994D-04 0.361D-03 0.243D-03-0.154D-02-0.635D-02
 Coeff-Com:  0.196D-01 0.304D-01-0.126D+00-0.500D-01 0.113D+01
 Coeff:      0.980D-05-0.994D-04 0.361D-03 0.243D-03-0.154D-02-0.635D-02
 Coeff:      0.196D-01 0.304D-01-0.126D+00-0.500D-01 0.113D+01
 Gap=     0.333 Goal=   None    Shift=    0.000
 RMSDP=7.33D-09 MaxDP=1.47D-07 DE=-7.28D-12 OVMax= 8.35D-07

 SCF Done:  E(RHF) =  -3107.47817254     A.U. after   11 cycles
            NFock= 11  Conv=0.73D-08     -V/T= 2.0000
 KE= 3.107329309290D+03 PE=-7.823314510810D+03 EE= 1.418113813310D+03
 Leave Link  502 at Thu Sep 23 15:53:22 2021, MaxMem= 16106127360 cpu:              40.1 elap:               3.8
 (Enter /sw/contrib/gaussian/g16/B01/g16/l801.exe)
 ExpMin= 2.53D-02 ExpMax= 1.06D+07 ExpMxC= 1.21D+04 IAcc=3 IRadAn=         5 AccDes= 0.00D+00
 HarFok:  IExCor=  205 AccDes= 0.00D+00 IRadAn=         5 IDoV=-2 UseB2=F ITyADJ=14
 ICtDFT= 12500011 ScaDFX=  1.000000  1.000000  1.000000  1.000000
 Largest valence mixing into a core orbital is  4.47D-04
 Largest core mixing into a valence orbital is  1.58D-04
 Range of M.O.s used for correlation:    16   178
 NBasis=   178 NAE=    31 NBE=    31 NFC=    15 NFV=     0
 NROrb=    163 NOA=    16 NOB=    16 NVA=   147 NVB=   147

 **** Warning!!: The largest alpha MO coefficient is  0.18147104D+02

 Leave Link  801 at Thu Sep 23 15:53:22 2021, MaxMem= 16106127360 cpu:               2.5 elap:               0.1
 (Enter /sw/contrib/gaussian/g16/B01/g16/l906.exe)
 Frozen-core derivative calculation, NFC=  15 NFV=   0.
 FulOut=F Deriv=T AODrv=T NAtomX=     4
   MMem=         123  MDisk=          16 MDiskD=          16
  W3Min=     1147744 MinDsk=     1765480 NBas6D=         208
 NBas2D=       22240    NTT=       21736    LW2=     9911920
    MDV= 16105648953 MDiskM=      387106 NBas2p=       22137
 Fully direct method using O(ONN) memory.
 IMap=   1   2   3   4   5   6   7   8   9  10  11  12  13  14  15  16  17  18  19  20
 IMap=  21  22  23  24  25  26  27  28  29  30  31
 JobTyp=1 Pass  1:  I=  16 to  31 NPSUse= 28 ParTrn=T ParDer=T DoDerP=T.
 Spin components of T(2) and E(2):
     alpha-alpha T2 =       0.3036381830D-01 E2=     -0.9426249114D-01
     alpha-beta  T2 =       0.1615541497D+00 E2=     -0.5157542420D+00
     beta-beta   T2 =       0.3036381830D-01 E2=     -0.9426249114D-01
 The integrals were generated   1 times.
 ANorm=    0.1105568535D+01
 E2 =    -0.7042792243D+00 EUMP2 =    -0.31081824517635D+04
 Leave Link  906 at Thu Sep 23 15:53:39 2021, MaxMem= 16106127360 cpu:             467.5 elap:              16.7
 (Enter /sw/contrib/gaussian/g16/B01/g16/l1002.exe)
 Minotr:  Closed shell wavefunction.
          Computing MP2/KS-MP2 derivatives.
          Using Z-Vector for PSCF gradient.
          Skipping F1 and S1 gradient terms here.
          IDoAtm=1111
          Frozen-core window.
          Direct CPHF calculation.
          Differentiating once with respect to electric field.
                with respect to dipole field.
          Differentiating once with respect to nuclear coordinates.
          Requested convergence is 1.0D-10 RMS, and 1.0D-09 maximum.
          NewPWx=F KeepS1=T KeepF1=T KeepIn=T MapXYZ=F SortEE=F KeepMc=T.
 Keep R1 ints in memory in canonical form, NReq=149459946.
 FoFCou: FMM=F IPFlag=           0 FMFlag=           0 FMFlg1=           0
         NFxFlg=           0 DoJE=F BraDBF=F KetDBF=F FulRan=T
         wScrn=  0.000000 ICntrl=       600 IOpCl=  0 I1Cent=           0 NGrid=           0
         NMat0=    1 NMatS0=  15931 NMatT0=    0 NMatD0=    1 NMtDS0=    0 NMtDT0=    0
 Symmetry not used in FoFCou.
 Two-electron integral symmetry not used.
          MDV=   16106127360 using IRadAn=       5.
          Solving linear equations separately, MaxMat=       0.
          There are     1 degrees of freedom in the 1st order CPHF.  IDoFFX=0 NUNeed=     1.
 LinEq1:  Iter=  0 NonCon=     1 RMS=2.66D-03 Max=4.49D-02 NDo=     1
 AX will form     1 AO Fock derivatives at one time.
 LinEq1:  Iter=  1 NonCon=     1 RMS=4.18D-04 Max=4.42D-03 NDo=     1
 LinEq1:  Iter=  2 NonCon=     1 RMS=1.96D-04 Max=4.07D-03 NDo=     1
 LinEq1:  Iter=  3 NonCon=     1 RMS=6.38D-05 Max=1.04D-03 NDo=     1
 LinEq1:  Iter=  4 NonCon=     1 RMS=2.71D-05 Max=9.12D-04 NDo=     1
 LinEq1:  Iter=  5 NonCon=     1 RMS=9.79D-06 Max=1.61D-04 NDo=     1
 LinEq1:  Iter=  6 NonCon=     1 RMS=2.09D-06 Max=2.35D-05 NDo=     1
 LinEq1:  Iter=  7 NonCon=     1 RMS=5.46D-07 Max=1.02D-05 NDo=     1
 LinEq1:  Iter=  8 NonCon=     1 RMS=1.78D-07 Max=4.60D-06 NDo=     1
 LinEq1:  Iter=  9 NonCon=     1 RMS=5.48D-08 Max=1.35D-06 NDo=     1
 LinEq1:  Iter= 10 NonCon=     1 RMS=1.47D-08 Max=2.16D-07 NDo=     1
 LinEq1:  Iter= 11 NonCon=     1 RMS=3.36D-09 Max=5.37D-08 NDo=     1
 LinEq1:  Iter= 12 NonCon=     1 RMS=6.58D-10 Max=1.78D-08 NDo=     1
 LinEq1:  Iter= 13 NonCon=     1 RMS=2.05D-10 Max=4.23D-09 NDo=     1
 LinEq1:  Iter= 14 NonCon=     1 RMS=6.43D-11 Max=1.19D-09 NDo=     1
 LinEq1:  Iter= 15 NonCon=     0 RMS=1.20D-11 Max=1.99D-10 NDo=     1
 Linear equations converged to 1.000D-10 1.000D-09 after    15 iterations.
 End of Minotr F.D. properties file   721 does not exist.
 End of Minotr F.D. properties file   722 does not exist.
 End of Minotr F.D. properties file   788 does not exist.
 Leave Link 1002 at Thu Sep 23 15:53:44 2021, MaxMem= 16106127360 cpu:              51.6 elap:               5.6
 (Enter /sw/contrib/gaussian/g16/B01/g16/l701.exe)
 ... and contract with generalized density number  2.
 Compute integral first derivatives.
 Leave Link  701 at Thu Sep 23 15:53:45 2021, MaxMem= 16106127360 cpu:               8.1 elap:               0.3
 (Enter /sw/contrib/gaussian/g16/B01/g16/l702.exe)
 L702 exits ... SP integral derivatives will be done elsewhere.
 Leave Link  702 at Thu Sep 23 15:53:45 2021, MaxMem= 16106127360 cpu:               0.5 elap:               0.0
 (Enter /sw/contrib/gaussian/g16/B01/g16/l703.exe)
 Integral derivatives from FoFJK, PRISM(SPDF).
 Compute integral first derivatives, UseDBF=F ICtDFT=           0.
 Calling FoFJK, ICntrl=  10002127 FMM=F ISym2X=0 I1Cent= 0 IOpClX= 0 NMat=1 NMatS=1 NMatT=0.
 FoFJK:  IHMeth= 1 ICntrl=10002127 DoSepK=F KAlg= 0 I1Cent=           0 FoldK=F
 IRaf=         0 NMat=       1 IRICut=       1 DoRegI=T DoRafI=F ISym2E= 0 IDoP0=0 IntGTp=1.
 FoFCou: FMM=F IPFlag=           0 FMFlag=      100000 FMFlg1=         800
         NFxFlg=           0 DoJE=F BraDBF=F KetDBF=F FulRan=T
         wScrn=  0.000000 ICntrl=  10002127 IOpCl=  0 I1Cent=           0 NGrid=           0
         NMat0=    1 NMatS0=      1 NMatT0=    0 NMatD0=    1 NMtDS0=    0 NMtDT0=    0
 Symmetry not used in FoFCou.
 Leave Link  703 at Thu Sep 23 15:53:47 2021, MaxMem= 16106127360 cpu:              63.7 elap:               2.3
 (Enter /sw/contrib/gaussian/g16/B01/g16/l716.exe)
 Dipole        = 1.12204649D+00-2.18266090D-01 2.61079324D-02
 ***** Axes restored to original set *****
 -------------------------------------------------------------------
 Center     Atomic                   Forces (Hartrees/Bohr)
 Number     Number              X              Y              Z
 -------------------------------------------------------------------
      1        8          -0.001192014    0.000029685    0.002427629
      2       17           0.000083544    0.000019749    0.000088938
      3       35          -0.000528739    0.000164434    0.001248070
      4        1           0.001637209   -0.000213868   -0.003764638
 -------------------------------------------------------------------
 Cartesian Forces:  Max     0.003764638 RMS     0.001474602
 -----------------------------------------------------------------------------------------------
                       Internal Coordinate Forces (Hartree/Bohr or radian)
  Cent   Atom   N1       Length/X         N2         Alpha/Y        N3         Beta/Z          J
 -----------------------------------------------------------------------------------------------
      1  O 
         X        1   0.000000(     1)
      2  Cl       1   0.000084(     2)      2  -0.000283(     5)
      3  Br       1  -0.000037(     3)      2  -0.007250(     6)      3   0.003209(     8)     0
      4  H        1  -0.000499(     4)      2   0.007184(     7)      3  -0.003146(     9)     0
 -----------------------------------------------------------------------------------------------
 Internal  Forces:  Max     0.007249633 RMS     0.003722321
 Leave Link  716 at Thu Sep 23 15:53:47 2021, MaxMem= 16106127360 cpu:               1.4 elap:               0.1
 (Enter /sw/contrib/gaussian/g16/B01/g16/l103.exe)

 GradGradGradGradGradGradGradGradGradGradGradGradGradGradGradGradGradGrad
 Berny optimization.
 Search for a local minimum.
 Step number   1 out of a maximum of   20 on scan point     2 out of    11
 All quantities printed in internal units (Hartrees-Bohrs-Radians)
 Second derivative matrix not updated -- first step.
 The second derivative matrix:
                          r1        r2        r3        a1        OOP
           r1           0.37845
           r2           0.00000   0.02127
           r3           0.00000   0.00000   0.44701
           a1           0.00000  -0.00000  -0.00000   0.41000
           OOP          0.00000   0.00000   0.00000  -0.00000   0.23806
 ITU=  0
     Eigenvalues ---    0.447011000.000001000.000001000.000001000.00000
 RFO step:  Lambda=-5.57957051D-07 EMin= 4.47011092D-01
 Linear search not attempted -- first point.
 Variable       Old X    -DE/DX   Delta X   Delta X   Delta X     New X
                                 (Linear)    (Quad)   (Total)
    r1        3.18291   0.00008   0.00000   0.00000   0.00000   3.18291
    r2        5.80867  -0.00004   0.00000   0.00000   0.00000   5.80867
    r3        1.92324  -0.00050   0.00000  -0.00112  -0.00112   1.92213
    a1        1.80503   0.00006   0.00000   0.00000   0.00000   1.80503
   OOP        1.48353   0.00718   0.00000   0.00000   0.00000   1.48353
         Item               Value     Threshold  Converged?
 Maximum Force            0.000499     0.000450     NO 
 RMS     Force            0.000499     0.000300     NO 
 Maximum Displacement     0.001117     0.001800     YES
 RMS     Displacement     0.000500     0.001200     YES
 Predicted change in Energy=-2.789785D-07
 Lowest energy point so far.  Saving SCF results.
 GradGradGradGradGradGradGradGradGradGradGradGradGradGradGradGradGradGrad

 Leave Link  103 at Thu Sep 23 15:53:47 2021, MaxMem= 16106127360 cpu:               0.5 elap:               0.0
 (Enter /sw/contrib/gaussian/g16/B01/g16/l202.exe)
 ---------------------------------------------------------------------------------------------------
                            Z-MATRIX (ANGSTROMS AND DEGREES)
   CD    Cent   Atom    N1       Length/X        N2       Alpha/Y        N3        Beta/Z          J
 ---------------------------------------------------------------------------------------------------
      1      1  O 
      2         X        1  10.000000(     1)
      3      2  Cl       1   1.684326(     2)      2   90.000(     5)
      4      3  Br       1   3.073817(     3)      2   90.000(     6)      3  103.420(     8)      0
      5      4  H        1   1.017146(     4)      2   85.000(     7)      3  103.420(     9)      0
 ---------------------------------------------------------------------------------------------------
                         Z-Matrix orientation:                         
 ---------------------------------------------------------------------
 Center     Atomic      Atomic             Coordinates (Angstroms)
 Number     Number       Type             X           Y           Z
 ---------------------------------------------------------------------
      1          8           0        0.000000    0.000000    0.000000
      2         -1           0        0.000000    0.000000   10.000000
      3         17           0        1.684326    0.000000    0.000000
      4         35           0       -0.713413   -2.989882    0.000000
      5          1           0       -0.235174   -0.985606    0.088650
 ---------------------------------------------------------------------
                    Distance matrix (angstroms):
                    1          2          3          4          5
     1  O    0.000000
     2  X   10.000000   0.000000
     3  Cl   1.684326  10.140856   0.000000
     4  Br   3.073817  10.461757   3.832564   0.000000
     5  H    1.017146   9.963011   2.159574   2.062448   0.000000
 Stoichiometry    BrClHO(1-)
 Framework group  C1[X(BrClHO)]
 Deg. of freedom     6
 Full point group                 C1      NOp   1
 RotChk:  IX=0 Diff= 4.31D-06
 Largest Abelian subgroup         C1      NOp   1
 Largest concise Abelian subgroup C1      NOp   1
                         Standard orientation:                         
 ---------------------------------------------------------------------
 Center     Atomic      Atomic             Coordinates (Angstroms)
 Number     Number       Type             X           Y           Z
 ---------------------------------------------------------------------
      1          8           0        1.403416    1.015971   -0.007016
      2         17           0        2.346330   -0.379671    0.000001
      3         35           0       -1.473429   -0.066655   -0.000788
      4          1           0        0.455091    0.659545    0.083686
 ---------------------------------------------------------------------
 Rotational constants (GHZ):          22.6354252           1.2807888           1.2122433
 Leave Link  202 at Thu Sep 23 15:53:47 2021, MaxMem= 16106127360 cpu:               0.4 elap:               0.0
 (Enter /sw/contrib/gaussian/g16/B01/g16/l301.exe)
 Standard basis: Aug-CC-pVTZ (5D, 7F)
 Ernie: Thresh=  0.10000D-02 Tol=  0.10000D-05 Strict=F.
 Ernie:  48 primitive shells out of 228 were deleted.
 There are   208 symmetry adapted cartesian basis functions of A   symmetry.
 There are   178 symmetry adapted basis functions of A   symmetry.
   178 basis functions,   430 primitive gaussians,   208 cartesian basis functions
    31 alpha electrons       31 beta electrons
       nuclear repulsion energy       190.3938230352 Hartrees.
 IExCor=    0 DFT=F Ex=HF Corr=None ExCW=0 ScaHFX=  1.000000
 ScaDFX=  1.000000  1.000000  1.000000  1.000000 ScalE2=  1.000000  1.000000
 IRadAn=      5 IRanWt=     -1 IRanGd=            0 ICorTp=0 IEmpDi=  4
 NAtoms=    4 NActive=    4 NUniq=    4 SFac= 1.00D+00 NAtFMM=   60 NAOKFM=F Big=F
 Integral buffers will be    131072 words long.
 Raffenetti 1 integral format.
 Two-electron integral symmetry is turned on.
 Leave Link  301 at Thu Sep 23 15:53:47 2021, MaxMem= 16106127360 cpu:               2.1 elap:               0.1
 (Enter /sw/contrib/gaussian/g16/B01/g16/l302.exe)
 NPDir=0 NMtPBC=     1 NCelOv=     1 NCel=       1 NClECP=     1 NCelD=      1
         NCelK=      1 NCelE2=     1 NClLst=     1 CellRange=     0.0.
 One-electron integrals computed using PRISM.
 One-electron integral symmetry used in STVInt
 NBasis=   178 RedAO= T EigKep=  2.41D-04  NBF=   178
 NBsUse=   178 1.00D-06 EigRej= -1.00D+00 NBFU=   178
 Leave Link  302 at Thu Sep 23 15:53:47 2021, MaxMem= 16106127360 cpu:               4.5 elap:               0.2
 (Enter /sw/contrib/gaussian/g16/B01/g16/l303.exe)
 DipDrv:  MaxL=1.
 Leave Link  303 at Thu Sep 23 15:53:48 2021, MaxMem= 16106127360 cpu:               0.7 elap:               0.0
 (Enter /sw/contrib/gaussian/g16/B01/g16/l401.exe)
 Initial guess from the checkpoint file:  "/gscratch/ilahie/mccoygrp/coire_hocl/brhocl/brhocl_rOH_opt.chk"
 B after Tr=    -0.000000   -0.000000    0.000000
         Rot=    1.000000    0.000002   -0.000000    0.000002 Ang=   0.00 deg.
 Guess basis will be translated and rotated to current coordinates.
 JPrj=2 DoOrth=T DoCkMO=T.
 Leave Link  401 at Thu Sep 23 15:53:48 2021, MaxMem= 16106127360 cpu:               3.7 elap:               0.2
 (Enter /sw/contrib/gaussian/g16/B01/g16/l502.exe)
 Keep R1 ints in memory in canonical form, NReq=149455310.
 FoFCou: FMM=F IPFlag=           0 FMFlag=           0 FMFlg1=           0
         NFxFlg=           0 DoJE=F BraDBF=F KetDBF=F FulRan=T
         wScrn=  0.000000 ICntrl=       600 IOpCl=  0 I1Cent=           0 NGrid=           0
         NMat0=    1 NMatS0=  15931 NMatT0=    0 NMatD0=    1 NMtDS0=    0 NMtDT0=    0
 Symmetry not used in FoFCou.
 Two-electron integral symmetry not used.
 Closed shell SCF:
 Using DIIS extrapolation, IDIIS=  1040.
 NGot= 16106127360 LenX= 15979126904 LenY= 15979083199
 Requested convergence on RMS density matrix=1.00D-08 within 128 cycles.
 Requested convergence on MAX density matrix=1.00D-06.
 Requested convergence on             energy=1.00D-06.
 No special actions if energy rises.

 Cycle   1  Pass 1  IDiag  1:
 E= -3107.47820817945    
 DIIS: error= 4.12D-05 at cycle   1 NSaved=   1.
 NSaved= 1 IEnMin= 1 EnMin= -3107.47820817945     IErMin= 1 ErrMin= 4.12D-05
 ErrMax= 4.12D-05  0.00D+00 EMaxC= 1.00D-01 BMatC= 1.54D-07 BMatP= 1.54D-07
 IDIUse=1 WtCom= 1.00D+00 WtEn= 0.00D+00
 Coeff-Com:  0.100D+01
 Coeff:      0.100D+01
 Gap=     0.672 Goal=   None    Shift=    0.000
 RMSDP=3.22D-06 MaxDP=1.10D-04              OVMax= 1.07D-04

 Cycle   2  Pass 1  IDiag  1:
 E= -3107.47820830597     Delta-E=       -0.000000126524 Rises=F Damp=F
 DIIS: error= 6.43D-06 at cycle   2 NSaved=   2.
 NSaved= 2 IEnMin= 2 EnMin= -3107.47820830597     IErMin= 2 ErrMin= 6.43D-06
 ErrMax= 6.43D-06  0.00D+00 EMaxC= 1.00D-01 BMatC= 9.14D-09 BMatP= 1.54D-07
 IDIUse=1 WtCom= 1.00D+00 WtEn= 0.00D+00
 Coeff-Com: -0.221D-01 0.102D+01
 Coeff:     -0.221D-01 0.102D+01
 Gap=     0.333 Goal=   None    Shift=    0.000
 RMSDP=6.38D-07 MaxDP=2.46D-05 DE=-1.27D-07 OVMax= 5.08D-05

 Cycle   3  Pass 1  IDiag  1:
 E= -3107.47820831470     Delta-E=       -0.000000008732 Rises=F Damp=F
 DIIS: error= 4.24D-06 at cycle   3 NSaved=   3.
 NSaved= 3 IEnMin= 3 EnMin= -3107.47820831470     IErMin= 3 ErrMin= 4.24D-06
 ErrMax= 4.24D-06  0.00D+00 EMaxC= 1.00D-01 BMatC= 2.99D-09 BMatP= 9.14D-09
 IDIUse=1 WtCom= 1.00D+00 WtEn= 0.00D+00
 Coeff-Com: -0.633D-01 0.348D+00 0.715D+00
 Coeff:     -0.633D-01 0.348D+00 0.715D+00
 Gap=     0.333 Goal=   None    Shift=    0.000
 RMSDP=2.15D-07 MaxDP=5.91D-06 DE=-8.73D-09 OVMax= 1.86D-05

 Cycle   4  Pass 1  IDiag  1:
 E= -3107.47820831730     Delta-E=       -0.000000002602 Rises=F Damp=F
 DIIS: error= 1.03D-06 at cycle   4 NSaved=   4.
 NSaved= 4 IEnMin= 4 EnMin= -3107.47820831730     IErMin= 4 ErrMin= 1.03D-06
 ErrMax= 1.03D-06  0.00D+00 EMaxC= 1.00D-01 BMatC= 1.61D-10 BMatP= 2.99D-09
 IDIUse=1 WtCom= 1.00D+00 WtEn= 0.00D+00
 Coeff-Com: -0.232D-02-0.692D-01 0.768D-01 0.995D+00
 Coeff:     -0.232D-02-0.692D-01 0.768D-01 0.995D+00
 Gap=     0.333 Goal=   None    Shift=    0.000
 RMSDP=9.65D-08 MaxDP=3.03D-06 DE=-2.60D-09 OVMax= 9.46D-06

 Cycle   5  Pass 1  IDiag  1:
 E= -3107.47820831761     Delta-E=       -0.000000000302 Rises=F Damp=F
 DIIS: error= 3.35D-07 at cycle   5 NSaved=   5.
 NSaved= 5 IEnMin= 5 EnMin= -3107.47820831761     IErMin= 5 ErrMin= 3.35D-07
 ErrMax= 3.35D-07  0.00D+00 EMaxC= 1.00D-01 BMatC= 1.19D-11 BMatP= 1.61D-10
 IDIUse=1 WtCom= 1.00D+00 WtEn= 0.00D+00
 Coeff-Com:  0.500D-02-0.197D-01-0.625D-01-0.156D+00 0.123D+01
 Coeff:      0.500D-02-0.197D-01-0.625D-01-0.156D+00 0.123D+01
 Gap=     0.333 Goal=   None    Shift=    0.000
 RMSDP=4.41D-08 MaxDP=1.40D-06 DE=-3.02D-10 OVMax= 4.32D-06

 Cycle   6  Pass 1  IDiag  1:
 E= -3107.47820831765     Delta-E=       -0.000000000043 Rises=F Damp=F
 DIIS: error= 1.01D-07 at cycle   6 NSaved=   6.
 NSaved= 6 IEnMin= 6 EnMin= -3107.47820831765     IErMin= 6 ErrMin= 1.01D-07
 ErrMax= 1.01D-07  0.00D+00 EMaxC= 1.00D-01 BMatC= 1.26D-12 BMatP= 1.19D-11
 IDIUse=1 WtCom= 1.00D+00 WtEn= 0.00D+00
 Coeff-Com: -0.656D-03 0.946D-02 0.643D-02-0.699D-01-0.191D+00 0.125D+01
 Coeff:     -0.656D-03 0.946D-02 0.643D-02-0.699D-01-0.191D+00 0.125D+01
 Gap=     0.333 Goal=   None    Shift=    0.000
 RMSDP=1.40D-08 MaxDP=2.75D-07 DE=-4.27D-11 OVMax= 1.21D-06

 Cycle   7  Pass 1  IDiag  1:
 E= -3107.47820831766     Delta-E=       -0.000000000010 Rises=F Damp=F
 DIIS: error= 2.61D-08 at cycle   7 NSaved=   7.
 NSaved= 7 IEnMin= 7 EnMin= -3107.47820831766     IErMin= 7 ErrMin= 2.61D-08
 ErrMax= 2.61D-08  0.00D+00 EMaxC= 1.00D-01 BMatC= 1.25D-13 BMatP= 1.26D-12
 IDIUse=1 WtCom= 1.00D+00 WtEn= 0.00D+00
 Coeff-Com: -0.525D-03 0.200D-02 0.877D-02 0.197D-01-0.146D+00-0.518D-02
 Coeff-Com:  0.112D+01
 Coeff:     -0.525D-03 0.200D-02 0.877D-02 0.197D-01-0.146D+00-0.518D-02
 Coeff:      0.112D+01
 Gap=     0.333 Goal=   None    Shift=    0.000
 RMSDP=4.18D-09 MaxDP=1.01D-07 DE=-1.05D-11 OVMax= 3.24D-07

 SCF Done:  E(RHF) =  -3107.47820832     A.U. after    7 cycles
            NFock=  7  Conv=0.42D-08     -V/T= 2.0000
 KE= 3.107330065922D+03 PE=-7.823316313295D+03 EE= 1.418114216020D+03
 Leave Link  502 at Thu Sep 23 15:53:51 2021, MaxMem= 16106127360 cpu:              36.5 elap:               2.8
 (Enter /sw/contrib/gaussian/g16/B01/g16/l801.exe)
 ExpMin= 2.53D-02 ExpMax= 1.06D+07 ExpMxC= 1.21D+04 IAcc=3 IRadAn=         5 AccDes= 0.00D+00
 HarFok:  IExCor=  205 AccDes= 0.00D+00 IRadAn=         5 IDoV=-2 UseB2=F ITyADJ=14
 ICtDFT= 12500011 ScaDFX=  1.000000  1.000000  1.000000  1.000000
 DSYEVD-2 returned Info=         101 IAlg= 4 N=    50 NDim=    50 NE2=   272983353 trying  DSYEV.
 Largest valence mixing into a core orbital is  4.47D-04
 Largest core mixing into a valence orbital is  1.58D-04
 Range of M.O.s used for correlation:    16   178
 NBasis=   178 NAE=    31 NBE=    31 NFC=    15 NFV=     0
 NROrb=    163 NOA=    16 NOB=    16 NVA=   147 NVB=   147

 **** Warning!!: The largest alpha MO coefficient is  0.18135371D+02

 Leave Link  801 at Thu Sep 23 15:53:51 2021, MaxMem= 16106127360 cpu:               2.0 elap:               0.1
 (Enter /sw/contrib/gaussian/g16/B01/g16/l906.exe)
 Frozen-core derivative calculation, NFC=  15 NFV=   0.
 FulOut=F Deriv=T AODrv=T NAtomX=     4
   MMem=         123  MDisk=          16 MDiskD=          16
  W3Min=     1147744 MinDsk=     1765480 NBas6D=         208
 NBas2D=       22240    NTT=       21736    LW2=     9911920
[...]
 LinEq1:  Iter=  1 NonCon=     1 RMS=4.16D-04 Max=4.35D-03 NDo=     1
 LinEq1:  Iter=  2 NonCon=     1 RMS=2.00D-04 Max=2.63D-03 NDo=     1
 LinEq1:  Iter=  3 NonCon=     1 RMS=6.49D-05 Max=9.05D-04 NDo=     1
 LinEq1:  Iter=  4 NonCon=     1 RMS=2.50D-05 Max=5.77D-04 NDo=     1
 LinEq1:  Iter=  5 NonCon=     1 RMS=1.18D-05 Max=2.51D-04 NDo=     1
 LinEq1:  Iter=  6 NonCon=     1 RMS=3.65D-06 Max=7.09D-05 NDo=     1
 LinEq1:  Iter=  7 NonCon=     1 RMS=9.61D-07 Max=1.14D-05 NDo=     1
 LinEq1:  Iter=  8 NonCon=     1 RMS=2.82D-07 Max=4.08D-06 NDo=     1
 LinEq1:  Iter=  9 NonCon=     1 RMS=7.54D-08 Max=1.57D-06 NDo=     1
 LinEq1:  Iter= 10 NonCon=     1 RMS=1.89D-08 Max=3.34D-07 NDo=     1
 LinEq1:  Iter= 11 NonCon=     1 RMS=4.83D-09 Max=8.24D-08 NDo=     1
 LinEq1:  Iter= 12 NonCon=     1 RMS=1.07D-09 Max=1.54D-08 NDo=     1
 LinEq1:  Iter= 13 NonCon=     1 RMS=2.86D-10 Max=3.30D-09 NDo=     1
 LinEq1:  Iter= 14 NonCon=     0 RMS=7.06D-11 Max=6.34D-10 NDo=     1
 Linear equations converged to 1.000D-10 1.000D-09 after    14 iterations.
 End of Minotr F.D. properties file   721 does not exist.
 End of Minotr F.D. properties file   722 does not exist.
 End of Minotr F.D. properties file   788 does not exist.
 Leave Link 1002 at Thu Sep 23 16:03:35 2021, MaxMem= 16106127360 cpu:              41.8 elap:               4.6
 (Enter /sw/contrib/gaussian/g16/B01/g16/l701.exe)
 ... and contract with generalized density number  2.
 Compute integral first derivatives.
 Leave Link  701 at Thu Sep 23 16:03:35 2021, MaxMem= 16106127360 cpu:               5.3 elap:               0.2
 (Enter /sw/contrib/gaussian/g16/B01/g16/l702.exe)
 L702 exits ... SP integral derivatives will be done elsewhere.
 Leave Link  702 at Thu Sep 23 16:03:35 2021, MaxMem= 16106127360 cpu:               1.4 elap:               0.1
 (Enter /sw/contrib/gaussian/g16/B01/g16/l703.exe)
 Integral derivatives from FoFJK, PRISM(SPDF).
 Compute integral first derivatives, UseDBF=F ICtDFT=           0.
 Calling FoFJK, ICntrl=  10002127 FMM=F ISym2X=0 I1Cent= 0 IOpClX= 0 NMat=1 NMatS=1 NMatT=0.
 FoFJK:  IHMeth= 1 ICntrl=10002127 DoSepK=F KAlg= 0 I1Cent=           0 FoldK=F
 IRaf=         0 NMat=       1 IRICut=       1 DoRegI=T DoRafI=F ISym2E= 0 IDoP0=0 IntGTp=1.
 FoFCou: FMM=F IPFlag=           0 FMFlag=      100000 FMFlg1=         800
         NFxFlg=           0 DoJE=F BraDBF=F KetDBF=F FulRan=T
         wScrn=  0.000000 ICntrl=  10002127 IOpCl=  0 I1Cent=           0 NGrid=           0
         NMat0=    1 NMatS0=      1 NMatT0=    0 NMatD0=    1 NMtDS0=    0 NMtDT0=    0
 Symmetry not used in FoFCou.
 Leave Link  703 at Thu Sep 23 16:03:37 2021, MaxMem= 16106127360 cpu:              62.7 elap:               2.3
 (Enter /sw/contrib/gaussian/g16/B01/g16/l716.exe)
 Dipole        = 1.82627747D+00-1.84252678D-02 3.02988990D-01
 ***** Axes restored to original set *****
 -------------------------------------------------------------------
 Center     Atomic                   Forces (Hartrees/Bohr)
 Number     Number              X              Y              Z
 -------------------------------------------------------------------
      1        8           0.004037447    0.010637979    0.009606313
      2       17           0.007280532    0.003569989   -0.003310557
      3       35          -0.001002749   -0.002153261    0.005419280
      4        1          -0.010315230   -0.012054706   -0.011715035
 -------------------------------------------------------------------
 Cartesian Forces:  Max     0.012054706 RMS     0.007759039
 -----------------------------------------------------------------------------------------------
                       Internal Coordinate Forces (Hartree/Bohr or radian)
  Cent   Atom   N1       Length/X         N2         Alpha/Y        N3         Beta/Z          J
 -----------------------------------------------------------------------------------------------
      1  O 
         X        1   0.000000(     1)
      2  Cl       1   0.007281(     2)      2   0.010537(     5)
      3  Br       1   0.002327(     3)      2  -0.031479(     6)      3   0.002763(     8)     0
      4  H        1   0.000102(     4)      2   0.033924(     7)      3   0.008600(     9)     0
 -----------------------------------------------------------------------------------------------
 Internal  Forces:  Max     0.033924430 RMS     0.016305570
 Leave Link  716 at Thu Sep 23 16:03:37 2021, MaxMem= 16106127360 cpu:               0.9 elap:               0.1
 (Enter /sw/contrib/gaussian/g16/B01/g16/l103.exe)

 GradGradGradGradGradGradGradGradGradGradGradGradGradGradGradGradGradGrad
 Berny optimization.
 Search for a local minimum.
 Step number   2 out of a maximum of   20 on scan point    11 out of    11
 All quantities printed in internal units (Hartrees-Bohrs-Radians)
 Update second derivatives using D2CorN and points    1    2
 DE= -8.05D-06 DEPred=-8.32D-06 R= 9.67D-01
 TightC=F SS=  1.41D+00  RLast= 6.13D-03 DXNew= 5.0454D-01 1.8380D-02
 Trust test= 9.67D-01 RLast= 6.13D-03 DXMaxT set to 3.00D-01
 The second derivative matrix:
                          r1        r2        r3        a1        OOP
           r1           0.37845
           r2           0.00000   0.02127
           r3          -0.00748   0.00444   0.46012
           a1           0.00000  -0.00000   0.00391   0.41000
           OOP          0.00000   0.00000  -0.03403  -0.00000   0.23806
 ITU=  1  0
     Eigenvalues ---    0.460121000.000001000.000001000.000001000.00000
 RFO step:  Lambda= 0.00000000D+00 EMin= 4.60118642D-01
 Quartic linear search produced a step of -0.03566.
 Variable       Old X    -DE/DX   Delta X   Delta X   Delta X     New X
                                 (Linear)    (Quad)   (Total)
    r1        3.18291   0.00728   0.00000   0.00000   0.00000   3.18291
    r2        5.80867   0.00233   0.00000   0.00000   0.00000   5.80867
    r3        1.84909   0.00010   0.00022   0.00000   0.00022   1.84931
    a1        1.80503   0.01136   0.00000   0.00000   0.00000   1.80503
   OOP        0.69813   0.03392   0.00000   0.00000   0.00000   0.69813
         Item               Value     Threshold  Converged?
 Maximum Force            0.000102     0.000450     YES
 RMS     Force            0.000102     0.000300     YES
 Maximum Displacement     0.000218     0.001800     YES
 RMS     Displacement     0.000098     0.001200     YES
 Predicted change in Energy=-1.123494D-08
 Optimization completed.
    -- Stationary point found.
                       ----------------------------
                       !   Optimized Parameters   !
                       ! (Angstroms and Degrees)  !
 ----------------------                            ----------------------
 !      Name          Value   Derivative information (Atomic Units)     !
 ------------------------------------------------------------------------
 !       r1          1.6843   -DE/DX =    0.0073                        !
 !       r2          3.0738   -DE/DX =    0.0023                        !
 !       r3          0.9785   -DE/DX =    0.0001                        !
 !       a1        103.4203   -DE/DX =    0.0114                        !
 !       OOP        40.0      -DE/DX =    0.0339                        !
 ------------------------------------------------------------------------
 Lowest energy point so far.  Saving SCF results.
 Summary of Optimized Potential Surface Scan (add -3108.0 to energies):
                           1         2         3         4         5
     Eigenvalues --    -0.18277  -0.18245  -0.18153  -0.18004  -0.17807
           r1           1.68433   1.68433   1.68433   1.68433   1.68433
           r2           3.07382   3.07382   3.07382   3.07382   3.07382
           r3           1.01774   1.01715   1.01433   1.01038   1.00553
           a1         103.42035 103.42035 103.42035 103.42035 103.42035
           OOP         90.00000  85.00000  80.00000  75.00000  70.00000
                           6         7         8         9        10
     Eigenvalues --    -0.17571  -0.17304  -0.17018  -0.16721  -0.16420
           r1           1.68433   1.68433   1.68433   1.68433   1.68433
           r2           3.07382   3.07382   3.07382   3.07382   3.07382
           r3           1.00029   0.99504   0.99008   0.98561   0.98174
           a1         103.42035 103.42035 103.42035 103.42035 103.42035
           OOP         65.00000  60.00000  55.00000  50.00000  45.00000
                          11
     Eigenvalues --    -0.16121
           r1           1.68433
           r2           3.07382
           r3           0.97850
           a1         103.42035
           OOP         40.00000
 Largest change from initial coordinates is atom    2       1.067 Angstoms.
 GradGradGradGradGradGradGradGradGradGradGradGradGradGradGradGradGradGrad

 Leave Link  103 at Thu Sep 23 16:03:37 2021, MaxMem= 16106127360 cpu:               0.6 elap:               0.0
 (Enter /sw/contrib/gaussian/g16/B01/g16/l202.exe)
 ---------------------------------------------------------------------------------------------------
                            Z-MATRIX (ANGSTROMS AND DEGREES)
   CD    Cent   Atom    N1       Length/X        N2       Alpha/Y        N3        Beta/Z          J
 ---------------------------------------------------------------------------------------------------
      1      1  O 
      2         X        1  10.000000(     1)
      3      2  Cl       1   1.684326(     2)      2   90.000(     5)
      4      3  Br       1   3.073817(     3)      2   90.000(     6)      3  103.420(     8)      0
      5      4  H        1   0.978497(     4)      2   40.000(     7)      3  103.420(     9)      0
 ---------------------------------------------------------------------------------------------------
                         Z-Matrix orientation:                         
 ---------------------------------------------------------------------
 Center     Atomic      Atomic             Coordinates (Angstroms)
 Number     Number       Type             X           Y           Z
 ---------------------------------------------------------------------
      1          8           0        0.000000    0.000000    0.000000
      2         -1           0        0.000000    0.000000   10.000000
      3         17           0        1.684326    0.000000    0.000000
      4         35           0       -0.713413   -2.989882    0.000000
      5          1           0       -0.145979   -0.611791    0.749572
 ---------------------------------------------------------------------
                    Distance matrix (angstroms):
                    1          2          3          4          5
     1  O    0.000000
     2  X   10.000000   0.000000
     3  Cl   1.684326  10.140856   0.000000
     4  Br   3.073817  10.461757   3.832564   0.000000
     5  H    0.978497   9.271786   2.070304   2.557178   0.000000
 Stoichiometry    BrClHO(1-)
 Framework group  C1[X(BrClHO)]
 Deg. of freedom     6
 Full point group                 C1      NOp   1
 RotChk:  IX=0 Diff= 3.39D-16
 Largest Abelian subgroup         C1      NOp   1
 Largest concise Abelian subgroup C1      NOp   1
                         Standard orientation:                         
 ---------------------------------------------------------------------
 Center     Atomic      Atomic             Coordinates (Angstroms)
 Number     Number       Type             X           Y           Z
 ---------------------------------------------------------------------
      1          8           0        1.399494    1.008601   -0.071358
      2         17           0        2.339614   -0.387071    0.000919
      3         35           0       -1.479493   -0.066219   -0.003877
      4          1           0        0.812850    0.829086    0.690928
 ---------------------------------------------------------------------
 Rotational constants (GHZ):          21.8951287           1.2773610           1.2100912
 Leave Link  202 at Thu Sep 23 16:03:38 2021, MaxMem= 16106127360 cpu:               2.8 elap:               0.1
 (Enter /sw/contrib/gaussian/g16/B01/g16/l601.exe)
 Copying SCF densities to generalized density rwf, IOpCl= 0 IROHF=0.

 **********************************************************************

            Population analysis using the MP2 Density.

 **********************************************************************

 Orbital symmetries:
       Occupied  (A) (A) (A) (A) (A) (A) (A) (A) (A) (A) (A) (A)
                 (A) (A) (A) (A) (A) (A) (A) (A) (A) (A) (A) (A)
                 (A) (A) (A) (A) (A) (A) (A)
       Virtual   (A) (A) (A) (A) (A) (A) (A) (A) (A) (A) (A) (A)
                 (A) (A) (A) (A) (A) (A) (A) (A) (A) (A) (A) (A)
                 (A) (A) (A) (A) (A) (A) (A) (A) (A) (A) (A) (A)
                 (A) (A) (A) (A) (A) (A) (A) (A) (A) (A) (A) (A)
                 (A) (A) (A) (A) (A) (A) (A) (A) (A) (A) (A) (A)
                 (A) (A) (A) (A) (A) (A) (A) (A) (A) (A) (A) (A)
                 (A) (A) (A) (A) (A) (A) (A) (A) (A) (A) (A) (A)
                 (A) (A) (A) (A) (A) (A) (A) (A) (A) (A) (A) (A)
                 (A) (A) (A) (A) (A) (A) (A) (A) (A) (A) (A) (A)
                 (A) (A) (A) (A) (A) (A) (A) (A) (A) (A) (A) (A)
                 (A) (A) (A) (A) (A) (A) (A) (A) (A) (A) (A) (A)
                 (A) (A) (A) (A) (A) (A) (A) (A) (A) (A) (A) (A)
                 (A) (A) (A)
 The electronic state is 1-A.
 Alpha  occ. eigenvalues -- -489.73505-104.74422 -64.87533 -58.22984 -58.22979
 Alpha  occ. eigenvalues --  -58.22974 -20.48621 -10.46393  -9.54783  -7.93113
 Alpha  occ. eigenvalues --   -7.92837  -7.92820  -7.15548  -7.15518  -7.15501
 Alpha  occ. eigenvalues --   -2.89722  -2.89715  -2.89689  -2.89652  -2.89649
 Alpha  occ. eigenvalues --   -1.25800  -0.91067  -0.70531  -0.56393  -0.46188
 Alpha  occ. eigenvalues --   -0.45269  -0.32252  -0.29582  -0.15957  -0.15587
 Alpha  occ. eigenvalues --   -0.15418
 Alpha virt. eigenvalues --    0.14759   0.17477   0.21673   0.22552   0.24376
 Alpha virt. eigenvalues --    0.25116   0.25212   0.27452   0.27804   0.31015
 Alpha virt. eigenvalues --    0.31844   0.33608   0.36312   0.39415   0.43963
 Alpha virt. eigenvalues --    0.45495   0.49322   0.49835   0.51013   0.53277
 Alpha virt. eigenvalues --    0.54226   0.55510   0.56091   0.58222   0.59311
 Alpha virt. eigenvalues --    0.60036   0.61846   0.64415   0.72934   0.74534
 Alpha virt. eigenvalues --    0.75463   0.78216   0.82095   0.85796   0.86432
 Alpha virt. eigenvalues --    0.87702   0.89548   0.93150   0.95948   0.99621
 Alpha virt. eigenvalues --    1.01485   1.02471   1.03607   1.03994   1.04140
 Alpha virt. eigenvalues --    1.06734   1.07167   1.08926   1.10517   1.11863
 Alpha virt. eigenvalues --    1.12927   1.17002   1.18518   1.19439   1.20439
 Alpha virt. eigenvalues --    1.21140   1.22086   1.22738   1.26220   1.31201
 Alpha virt. eigenvalues --    1.32701   1.36227   1.38749   1.42451   1.47447
 Alpha virt. eigenvalues --    1.49737   1.54411   1.58850   1.63162   1.65618
 Alpha virt. eigenvalues --    1.67863   1.70004   1.71829   1.74674   1.85701
 Alpha virt. eigenvalues --    1.96626   2.09760   2.30364   2.39915   2.40085
 Alpha virt. eigenvalues --    2.41070   2.44979   2.46767   2.47666   2.51446
 Alpha virt. eigenvalues --    2.53220   2.55054   2.56501   2.56733   2.56937
 Alpha virt. eigenvalues --    2.57240   2.59395   2.60913   2.62983   2.63510
 Alpha virt. eigenvalues --    2.64818   2.66182   2.67989   2.69570   2.70418
 Alpha virt. eigenvalues --    2.70909   2.72018   2.75277   2.78408   2.79670
 Alpha virt. eigenvalues --    2.86505   2.91562   2.93190   2.99273   3.11477
 Alpha virt. eigenvalues --    3.18607   3.20847   3.21844   3.23142   3.28975
 Alpha virt. eigenvalues --    3.33288   3.47178   3.54093   3.55406   3.89957
 Alpha virt. eigenvalues --    3.96776   4.29600   4.36825   4.45042   4.52295
 Alpha virt. eigenvalues --    4.60024   4.72889   4.90032   5.00271   5.36754
 Alpha virt. eigenvalues --    5.45281   5.68222   6.36302   6.62344   6.83846
 Alpha virt. eigenvalues --    6.89595   6.90857   6.96337   7.33005   7.35961
 Alpha virt. eigenvalues --    7.37128   7.44896   7.46872   7.68105   7.70295
 Alpha virt. eigenvalues --    8.39521  14.66641
          Condensed to atoms (all electrons):
               1          2          3          4
     1  O    8.488975  -0.122848  -0.077036   0.085378
     2  Cl  -0.122848  17.046978   0.000486  -0.000001
     3  Br  -0.077036   0.000486  35.955187   0.056497
     4  H    0.085378  -0.000001   0.056497   0.623905
 Mulliken charges:
               1
     1  O   -0.374470
     2  Cl   0.075384
     3  Br  -0.935135
     4  H    0.234220
 Sum of Mulliken charges =  -1.00000
 Mulliken charges with hydrogens summed into heavy atoms:
               1
     1  O   -0.140249
     2  Cl   0.075384
     3  Br  -0.935135
 Electronic spatial extent (au):  <R**2>=            814.5123
 Charge=             -1.0000 electrons
 Dipole moment (field-independent basis, Debye):
    X=              4.6419    Y=             -0.0468    Z=              0.7701  Tot=              4.7056
 Quadrupole moment (field-independent basis, Debye-Ang):
   XX=            -58.5078   YY=            -43.4192   ZZ=            -42.3931
   XY=             -2.1845   XZ=              0.8494   YZ=              0.9712
 Traceless Quadrupole moment (field-independent basis, Debye-Ang):
   XX=            -10.4011   YY=              4.6875   ZZ=              5.7136
   XY=             -2.1845   XZ=              0.8494   YZ=              0.9712
 Octapole moment (field-independent basis, Debye-Ang**2):
  XXX=            -10.8758  YYY=             -1.3933  ZZZ=             -0.4085  XYY=             -4.3768
  XXY=             -4.4360  XXZ=             -1.6048  XZZ=             -3.9863  YZZ=              1.4277
  YYZ=              0.4287  XYZ=              0.4542
 Hexadecapole moment (field-independent basis, Debye-Ang**3):
 XXXX=           -931.3898 YYYY=           -113.2675 ZZZZ=            -65.6794 XXXY=            -11.6804
 XXXZ=             -1.0460 YYYX=             -4.4318 YYYZ=              0.4206 ZZZX=              1.0107
 ZZZY=              0.6566 XXYY=           -162.6695 XXZZ=           -159.4356 YYZZ=            -29.5595
 XXYZ=             -0.1254 YYXZ=              0.6153 ZZXY=              2.5255
 N-N= 1.890004625121D+02 E-N=-7.819391104088D+03  KE= 3.107385421667D+03
 No NMR shielding tensors so no spin-rotation constants.
 Leave Link  601 at Thu Sep 23 16:03:38 2021, MaxMem= 16106127360 cpu:               4.4 elap:               0.2
 (Enter /sw/contrib/gaussian/g16/B01/g16/l9999.exe)
 1\1\GINC-N2218\Scan\RMP2-FC\Aug-CC-pVTZ\Br1Cl1H1O1(1-)\CGAVINH\23-Sep-
 2021\1\\#p opt=(z-matrix) mp2/aug-cc-pvtz density=current\\title\\-1,1
 \O\X,1,10.\Cl,1,r1,2,90.\Br,1,r2,2,90.,3,a1,0\H,1,r3,2,OOP,3,a1,0\\r1=
 1.68432553,s,-1000,0.\r2=3.07381747,s,-1000,0.\r3=0.97849682\a1=103.42
 034752,s,-1000,0.\OOP=40.,s,10,-5.\\Version=ES64L-G16RevB.01\State=1-A
 \HF=-3107.4784283,-3107.4782083,-3107.4776212,-3107.4766317,-3107.4752
 757,-3107.473587,-3107.4716165,-3107.4694205,-3107.4670551,-3107.46457
 14,-3107.462012\MP2=-3108.1827664,-3108.1824521,-3108.1815278,-3108.18
 00434,-3108.1780732,-3108.1757071,-3108.1730432,-3108.1701794,-3108.16
 72052,-3108.1641957,-3108.1612086\RMSD=4.836e-09,4.176e-09,6.481e-09,9
 .045e-09,5.271e-09,5.852e-09,5.883e-09,5.515e-09,4.879e-09,4.153e-09,9
 .775e-09\PG=C01 [X(Br1Cl1H1O1)]\\@


 KEEP CLOSE TO NATURES HEART, YOURSELF;
 AND BREAK CLEAR AWAY, ONCE IN A WHILE, AND
 CLIMB A MOUNTAIN OR SPEND A WEEK IN THE
 WOODS.  WASH YOUR SPIRIT CLEAN...
                                         -- JOHN MUIR
 Job cpu time:       0 days  4 hours  0 minutes 47.8 seconds.
 Elapsed time:       0 days  0 hours 10 minutes 47.9 seconds.
 File lengths (MBytes):  RWF=     21 Int=      0 D2E=      0 Chk=      8 Scr=      1
 Normal termination of Gaussian 16 at Thu Sep 23 16:03:38 2021.
