title                                                                   
SP        RMP2-FC                                                     Aug-CC-pVTZ         
Number of atoms                            I                4
Info1-9                                    I   N=           9
          40          13           0           0           0         110
           1           2           1
Full Title                                 C   N=           1
title       
Route                                      C   N=           5
#p pop=NBO SP NoSymm mp2/aug-cc-pvtz density=current        
Charge                                     I               -1
Multiplicity                               I                1
Number of electrons                        I               62
Number of alpha electrons                  I               31
Number of beta electrons                   I               31
Number of basis functions                  I              178
Number of independent functions            I              178
Number of point charges in /Mol/           I                0
Number of translation vectors              I                0
Atomic numbers                             I   N=           4
           8          35          17           1
Nuclear charges                            R   N=           4
  8.00000000E+00  3.50000000E+01  1.70000000E+01  1.00000000E+00
Current cartesian coordinates              R   N=          12
  0.00000000E+00  0.00000000E+00  0.00000000E+00  5.80867318E+00  0.00000000E+00
  0.00000000E+00 -7.38733169E-01  3.09599977E+00  0.00000000E+00  1.62843354E+00
  0.00000000E+00  9.40176541E-01
Number of symbols in /Mol/                 I                0
Force Field                                I                0
Atom Types                                 C   N=           4
                                                
Int Atom Types                             I   N=           4
           0           0           0           0
MM charges                                 R   N=           4
  0.00000000E+00  0.00000000E+00  0.00000000E+00  0.00000000E+00
Integer atomic weights                     I   N=           4
          16          79          35           1
Real atomic weights                        R   N=           4
  1.59949146E+01  7.89183361E+01  3.49688527E+01  1.00782504E+00
Atom fragment info                         I   N=           4
           0           0           0           0
Atom residue num                           I   N=           4
           0           0           0           0
Nuclear spins                              I   N=           4
           0           3           3           1
Nuclear ZEff                               R   N=           4
 -5.60000000E+00 -2.45000000E+01 -1.42400000E+01 -1.00000000E+00
Nuclear ZNuc                               R   N=           4
  8.00000000E+00  3.50000000E+01  1.70000000E+01  1.00000000E+00
Nuclear QMom                               R   N=           4
  0.00000000E+00  3.13000000E+01 -8.16500000E+00  0.00000000E+00
Nuclear GFac                               R   N=           4
  0.00000000E+00  2.10639900E+00  8.21874000E-01  2.79284600E+00
MicOpt                                     I   N=           4
          -1          -1          -1          -1
Number of residues                         I                0
Number of secondary structures             I                0
Number of contracted shells                I               58
Number of primitive shells                 I              180
Pure/Cartesian d shells                    I                0
Pure/Cartesian f shells                    I                0
Highest angular momentum                   I                3
Largest degree of contraction              I               15
Shell types                                I   N=          58
           0           0           0           0           0           1
           1           1           1          -2          -2          -2
          -3          -3           0           0           0           0
           0           0           0           1           1           1
           1           1           1          -2          -2          -2
          -2          -3          -3           0           0           0
           0           0           0           1           1           1
           1           1          -2          -2          -2          -3
          -3           0           0           0           0           1
           1           1          -2          -2
Number of primitives per shell             I   N=          58
           7           6           1           1           1           3
           1           1           1           1           1           1
           1           1          15          12          10          10
           1           1           1           9           9           8
           1           1           1           7           1           1
           1           1           1          11           9           8
           1           1           1           6           6           1
           1           1           1           1           1           1
           1           3           1           1           1           1
           1           1           1           1
Shell to atom map                          I   N=          58
           1           1           1           1           1           1
           1           1           1           1           1           1
           1           1           2           2           2           2
           2           2           2           2           2           2
           2           2           2           2           2           2
           2           2           2           3           3           3
           3           3           3           3           3           3
           3           3           3           3           3           3
           3           4           4           4           4           4
           4           4           4           4
Primitive exponents                        R   N=         180
  1.53300000E+04  2.29900000E+03  5.22400000E+02  1.47300000E+02  4.75500000E+01
  1.67600000E+01  6.20700000E+00  5.22400000E+02  1.47300000E+02  4.75500000E+01
  1.67600000E+01  6.20700000E+00  6.88200000E-01  1.75200000E+00  2.38400000E-01
  7.37600000E-02  3.44600000E+01  7.74900000E+00  2.28000000E+00  7.15600000E-01
  2.14000000E-01  5.97400000E-02  2.31400000E+00  6.45000000E-01  2.14000000E-01
  1.42800000E+00  5.00000000E-01  1.06390000E+07  1.59340000E+06  3.62610000E+05
  1.02700000E+05  3.35010000E+04  1.20930000E+04  4.71590000E+03  1.95560000E+03
  8.52610000E+02  3.87670000E+02  1.82680000E+02  8.82450000E+01  3.92630000E+01
  9.40570000E+00  1.89950000E+00  3.35010000E+04  1.20930000E+04  4.71590000E+03
  1.95560000E+03  8.52610000E+02  3.87670000E+02  1.82680000E+02  8.82450000E+01
  3.92630000E+01  1.92340000E+01  9.40570000E+00  1.89950000E+00  4.71590000E+03
  8.52610000E+02  3.87670000E+02  1.82680000E+02  8.82450000E+01  3.92630000E+01
  1.92340000E+01  9.40570000E+00  4.16010000E+00  1.89950000E+00  4.71590000E+03
  8.52610000E+02  3.87670000E+02  8.82450000E+01  3.92630000E+01  1.92340000E+01
  9.40570000E+00  4.16010000E+00  1.89950000E+00  3.01140000E-01  6.04720000E-01
  1.25150000E-01  4.55930000E-02  8.67650000E+03  2.05590000E+03  6.66230000E+02
  2.53100000E+02  1.06120000E+02  4.72420000E+01  2.18250000E+01  9.96840000E+00
  1.99820000E+00  8.67650000E+03  6.66230000E+02  2.53100000E+02  1.06120000E+02
  4.72420000E+01  2.18250000E+01  9.96840000E+00  4.51710000E+00  1.99820000E+00
  6.66230000E+02  1.06120000E+02  4.72420000E+01  2.18250000E+01  9.96840000E+00
  4.51710000E+00  1.99820000E+00  2.81450000E-01  7.09880000E-01  1.02040000E-01
  3.51420000E-02  4.03830000E+02  1.21170000E+02  4.63450000E+01  1.97210000E+01
  8.86240000E+00  3.99620000E+00  1.76360000E+00  7.06190000E-01  2.63900000E-01
  1.04700000E-01  5.51500000E-01  2.58000000E-01  4.56100000E+05  6.83300000E+04
  1.55500000E+04  4.40500000E+03  1.43900000E+03  5.20400000E+02  2.03100000E+02
  8.39600000E+01  3.62000000E+01  1.58300000E+01  6.33400000E+00  4.40500000E+03
  1.43900000E+03  5.20400000E+02  2.03100000E+02  8.39600000E+01  3.62000000E+01
  1.58300000E+01  6.33400000E+00  2.69400000E+00  1.43900000E+03  2.03100000E+02
  8.39600000E+01  3.62000000E+01  1.58300000E+01  6.33400000E+00  2.69400000E+00
  4.31300000E-01  9.76800000E-01  1.62500000E-01  5.91000000E-02  6.63300000E+02
  1.56800000E+02  4.99800000E+01  1.84200000E+01  7.24000000E+00  2.92200000E+00
  1.56800000E+02  4.99800000E+01  1.84200000E+01  7.24000000E+00  2.92200000E+00
  3.81800000E-01  1.02200000E+00  1.30100000E-01  4.19000000E-02  1.04600000E+00
  3.44000000E-01  1.35000000E-01  7.06000000E-01  3.12000000E-01  3.38700000E+01
  5.09500000E+00  1.15900000E+00  3.25800000E-01  1.02700000E-01  2.52600000E-02
  1.40700000E+00  3.88000000E-01  1.02000000E-01  1.05700000E+00  2.47000000E-01
Contraction coefficients                   R   N=         180
  5.19808943E-04  4.02025621E-03  2.07128267E-02  8.10105536E-02  2.35962985E-01
  4.42653446E-01  3.57064423E-01 -4.42115008E-05 -1.22591041E-03 -1.05517725E-02
 -6.74452633E-02 -1.71198607E-01  1.07329856E+00  1.00000000E+00  1.00000000E+00
  1.00000000E+00  4.11634896E-02  2.57762836E-01  8.02419274E-01  1.00000000E+00
  1.00000000E+00  1.00000000E+00  1.00000000E+00  1.00000000E+00  1.00000000E+00
  1.00000000E+00  1.00000000E+00  5.89674518E-06  4.60752740E-05  2.42070343E-04
  1.02205299E-03  3.70930499E-03  1.19720307E-02  3.46735726E-02  8.90729487E-02
  1.93334549E-01  3.20663919E-01  3.29580713E-01  1.49250790E-01  1.55764867E-02
  7.93747636E-04  2.65221775E-04 -5.68536848E-06 -3.52666574E-05 -3.27539377E-04
 -1.87629276E-03 -1.01414527E-02 -3.80702440E-02 -9.57536910E-02 -4.73840598E-02
  3.47577995E-01  5.73945554E-01  2.14222079E-01 -1.02928963E-02  7.18105399E-06
  1.20828593E-04  4.42852463E-04  3.05163083E-03  3.69571776E-03 -4.41792565E-02
 -2.33790718E-01 -4.89037435E-02  6.44374705E-01  5.44424123E-01  2.45813907E-06
  1.21542842E-05 -4.20845287E-05 -2.71411136E-04  1.88335237E-03  1.04009470E-02
  6.18574958E-03 -1.11556547E-01 -4.47970305E-01  1.18314733E+00  1.00000000E+00
  1.00000000E+00  1.00000000E+00  4.37079993E-04  3.79355062E-03  2.05440673E-02
  7.95459389E-02  2.18602295E-01  3.89303910E-01  3.60668111E-01  1.10677963E-01
 -1.34807692E-03  1.00103778E-06 -7.06114784E-05 -1.15560817E-03 -7.09755620E-03
 -2.44937124E-02 -1.01982599E-02  2.19854720E-01  5.15741017E-01  3.67494091E-01
 -2.33484889E-05 -3.27796533E-04  4.19438933E-04 -2.20691716E-03 -6.45224464E-03
 -4.68458724E-02 -4.09196666E-02  1.01815889E+00  1.00000000E+00  1.00000000E+00
  1.00000000E+00  1.51744738E-03  1.30531170E-02  5.97884776E-02  1.75631556E-01
  3.28164786E-01  3.96050780E-01  2.81996460E-01  1.00000000E+00  1.00000000E+00
  1.00000000E+00  1.00000000E+00  1.00000000E+00  4.93229477E-05  3.83207967E-04
  2.00947816E-03  8.38950124E-03  2.94843950E-02  8.78759948E-02  2.11589759E-01
  3.65611554E-01  3.41246350E-01  1.02162570E-01  2.14249949E-03 -2.21747925E-06
 -1.71189708E-04 -1.27922846E-03 -9.32956265E-03 -3.98910062E-02 -1.05536085E-01
  9.36202446E-03  5.10511140E-01  5.73150737E-01  4.03949245E-06  2.12481765E-04
  8.59484452E-04  4.63248159E-03  4.47343490E-04 -7.38438245E-02 -3.62271994E-01
  1.16620337E+00  1.00000000E+00  1.00000000E+00  1.00000000E+00  2.47206402E-03
  1.97550234E-02  9.09917355E-02  2.63187834E-01  4.49078073E-01  3.60183072E-01
  3.03427809E-05 -1.22475826E-03 -6.01429772E-03 -2.76401323E-02  4.35105612E-04
  1.00307272E+00  1.00000000E+00  1.00000000E+00  1.00000000E+00  1.00000000E+00
  1.00000000E+00  1.00000000E+00  1.00000000E+00  1.00000000E+00  2.54948632E-02
  1.90362766E-01  8.52162022E-01  1.00000000E+00  1.00000000E+00  1.00000000E+00
  1.00000000E+00  1.00000000E+00  1.00000000E+00  1.00000000E+00  1.00000000E+00
Coordinates of each shell                  R   N=         174
  0.00000000E+00  0.00000000E+00  0.00000000E+00  0.00000000E+00  0.00000000E+00
  0.00000000E+00  0.00000000E+00  0.00000000E+00  0.00000000E+00  0.00000000E+00
  0.00000000E+00  0.00000000E+00  0.00000000E+00  0.00000000E+00  0.00000000E+00
  0.00000000E+00  0.00000000E+00  0.00000000E+00  0.00000000E+00  0.00000000E+00
  0.00000000E+00  0.00000000E+00  0.00000000E+00  0.00000000E+00  0.00000000E+00
  0.00000000E+00  0.00000000E+00  0.00000000E+00  0.00000000E+00  0.00000000E+00
  0.00000000E+00  0.00000000E+00  0.00000000E+00  0.00000000E+00  0.00000000E+00
  0.00000000E+00  0.00000000E+00  0.00000000E+00  0.00000000E+00  0.00000000E+00
  0.00000000E+00  0.00000000E+00  5.80867318E+00  0.00000000E+00  0.00000000E+00
  5.80867318E+00  0.00000000E+00  0.00000000E+00  5.80867318E+00  0.00000000E+00
  0.00000000E+00  5.80867318E+00  0.00000000E+00  0.00000000E+00  5.80867318E+00
  0.00000000E+00  0.00000000E+00  5.80867318E+00  0.00000000E+00  0.00000000E+00
  5.80867318E+00  0.00000000E+00  0.00000000E+00  5.80867318E+00  0.00000000E+00
  0.00000000E+00  5.80867318E+00  0.00000000E+00  0.00000000E+00  5.80867318E+00
  0.00000000E+00  0.00000000E+00  5.80867318E+00  0.00000000E+00  0.00000000E+00
  5.80867318E+00  0.00000000E+00  0.00000000E+00  5.80867318E+00  0.00000000E+00
  0.00000000E+00  5.80867318E+00  0.00000000E+00  0.00000000E+00  5.80867318E+00
  0.00000000E+00  0.00000000E+00  5.80867318E+00  0.00000000E+00  0.00000000E+00
  5.80867318E+00  0.00000000E+00  0.00000000E+00  5.80867318E+00  0.00000000E+00
  0.00000000E+00  5.80867318E+00  0.00000000E+00  0.00000000E+00 -7.38733169E-01
  3.09599977E+00  0.00000000E+00 -7.38733169E-01  3.09599977E+00  0.00000000E+00
 -7.38733169E-01  3.09599977E+00  0.00000000E+00 -7.38733169E-01  3.09599977E+00
  0.00000000E+00 -7.38733169E-01  3.09599977E+00  0.00000000E+00 -7.38733169E-01
  3.09599977E+00  0.00000000E+00 -7.38733169E-01  3.09599977E+00  0.00000000E+00
 -7.38733169E-01  3.09599977E+00  0.00000000E+00 -7.38733169E-01  3.09599977E+00
  0.00000000E+00 -7.38733169E-01  3.09599977E+00  0.00000000E+00 -7.38733169E-01
  3.09599977E+00  0.00000000E+00 -7.38733169E-01  3.09599977E+00  0.00000000E+00
 -7.38733169E-01  3.09599977E+00  0.00000000E+00 -7.38733169E-01  3.09599977E+00
  0.00000000E+00 -7.38733169E-01  3.09599977E+00  0.00000000E+00 -7.38733169E-01
  3.09599977E+00  0.00000000E+00  1.62843354E+00  0.00000000E+00  9.40176541E-01
  1.62843354E+00  0.00000000E+00  9.40176541E-01  1.62843354E+00  0.00000000E+00
  9.40176541E-01  1.62843354E+00  0.00000000E+00  9.40176541E-01  1.62843354E+00
  0.00000000E+00  9.40176541E-01  1.62843354E+00  0.00000000E+00  9.40176541E-01
  1.62843354E+00  0.00000000E+00  9.40176541E-01  1.62843354E+00  0.00000000E+00
  9.40176541E-01  1.62843354E+00  0.00000000E+00  9.40176541E-01
Num ILSW                                   I              100
ILSW                                       I   N=         100
           0           0           0           0           2           0
           0           0           0           0           0          -1
           5           0           0           0           0           0
           0           0           0           0           0           0
           1           1           0           0           0           0
           0           0      100000           0          -1           0
           0           0           0           0           0           0
           0           0           0           1           0           0
           0 -2000000000           1           0           0           0
           0           0           4          52           0           0
           0           0           0           0           0           0
           0           0           0           4           0           1
           0           0           0           0           0           0
           0           0           0           0           0           0
           0           0           0           0           0           0
           0           0           0           0           0           0
           0           0           0           0
Num RLSW                                   I               52
RLSW                                       R   N=          52
  1.00000000E+00  1.00000000E+00  1.00000000E+00  1.00000000E+00  1.00000000E+00
  0.00000000E+00  0.00000000E+00  1.00000000E+00  0.00000000E+00  0.00000000E+00
  0.00000000E+00  0.00000000E+00  1.00000000E+00  0.00000000E+00  0.00000000E+00
  0.00000000E+00  0.00000000E+00  1.00000000E+00  0.00000000E+00  0.00000000E+00
  0.00000000E+00  0.00000000E+00  1.00000000E+00  0.00000000E+00  0.00000000E+00
  0.00000000E+00  0.00000000E+00  1.00000000E+00  0.00000000E+00  0.00000000E+00
  0.00000000E+00  0.00000000E+00  1.00000000E+00  0.00000000E+00  0.00000000E+00
  0.00000000E+00  0.00000000E+00  0.00000000E+00  1.00000000E+00  1.00000000E+00
  0.00000000E+00  1.00000000E+00  0.00000000E+00  0.00000000E+00  0.00000000E+00
  0.00000000E+00  0.00000000E+00  0.00000000E+00  0.00000000E+00  0.00000000E+00
  0.00000000E+00  0.00000000E+00
MxBond                                     I                2
NBond                                      I   N=           4
           2           0           1           1
IBond                                      I   N=           8
           3           4           0           0           1           0
           1           0
RBond                                      R   N=           8
  1.00000000E+00  1.00000000E+00  0.00000000E+00  0.00000000E+00  1.00000000E+00
  0.00000000E+00  1.00000000E+00  0.00000000E+00
Virial Ratio                               R      2.000042652183701E+00
SCF Energy                                 R     -3.107471616699034E+03
MP2 Energy                                 R     -3.108173043177578E+03
Total Energy                               R     -3.108173043177578E+03
Post-SCF wavefunction norm                 R      1.105236365667365E+00
RMS Density                                R      9.998964058727626E-09
Job Status                                 I                1
Nuclear derivative order                   I                0
External E-field                           R   N=          35
  0.00000000E+00  0.00000000E+00  0.00000000E+00  0.00000000E+00  0.00000000E+00
  0.00000000E+00  0.00000000E+00  0.00000000E+00  0.00000000E+00  0.00000000E+00
  0.00000000E+00  0.00000000E+00  0.00000000E+00  0.00000000E+00  0.00000000E+00
  0.00000000E+00  0.00000000E+00  0.00000000E+00  0.00000000E+00  0.00000000E+00
  0.00000000E+00  0.00000000E+00  0.00000000E+00  0.00000000E+00  0.00000000E+00
  0.00000000E+00  0.00000000E+00  0.00000000E+00  0.00000000E+00  0.00000000E+00
  0.00000000E+00  0.00000000E+00  0.00000000E+00  0.00000000E+00  0.00000000E+00
IOpCl                                      I                0
IROHF                                      I                0
Alpha Orbital Energies                     R   N=         178
 -4.89746087E+02 -1.04737868E+02 -6.48863951E+01 -5.82409133E+01 -5.82408535E+01
 -5.82408210E+01 -2.04737149E+01 -1.04574495E+01 -9.55890035E+00 -7.92463190E+00
 -7.92193028E+00 -7.92179655E+00 -7.16663406E+00 -7.16618502E+00 -7.16609866E+00
 -2.90834697E+00 -2.90819619E+00 -2.90806940E+00 -2.90752386E+00 -2.90751764E+00
 -1.24290213E+00 -9.03350225E-01 -7.18629154E-01 -5.51213579E-01 -4.52002126E-01
 -4.43277439E-01 -3.14968805E-01 -2.88429069E-01 -1.73425308E-01 -1.66616674E-01
 -1.65717182E-01  1.52940519E-01  1.78227110E-01  2.17052521E-01  2.25734651E-01
  2.41938941E-01  2.48822013E-01  2.50544134E-01  2.81662341E-01  2.87378457E-01
  3.09085010E-01  3.29389951E-01  3.32832763E-01  3.66667977E-01  4.05964492E-01
  4.42527618E-01  4.59772366E-01  4.88620217E-01  4.93463399E-01  5.13851559E-01
  5.36514067E-01  5.46119911E-01  5.56888376E-01  5.76134090E-01  5.90371884E-01
  5.98104238E-01  6.08159007E-01  6.48531037E-01  6.65802117E-01  7.31820637E-01
  7.41996970E-01  7.56612111E-01  7.67191299E-01  8.07609851E-01  8.64436061E-01
  8.71341758E-01  8.82775383E-01  8.99561516E-01  9.46343427E-01  9.76811519E-01
  9.86309649E-01  1.00784625E+00  1.01401810E+00  1.02324270E+00  1.04375863E+00
  1.05480696E+00  1.07336573E+00  1.08936528E+00  1.10058845E+00  1.11306042E+00
  1.12401262E+00  1.14680195E+00  1.17161406E+00  1.18253430E+00  1.19514735E+00
  1.19952102E+00  1.21638398E+00  1.24797011E+00  1.27366091E+00  1.30149725E+00
  1.34799553E+00  1.36385900E+00  1.37406957E+00  1.40743808E+00  1.47362294E+00
  1.49274762E+00  1.53169398E+00  1.56700955E+00  1.57735149E+00  1.65690064E+00
  1.68478097E+00  1.70260203E+00  1.71807669E+00  1.77345776E+00  1.79105495E+00
  1.86344122E+00  1.96813392E+00  2.10635378E+00  2.32895130E+00  2.39615850E+00
  2.40999632E+00  2.42111447E+00  2.46094064E+00  2.46690914E+00  2.50793287E+00
  2.51941932E+00  2.53792772E+00  2.55306414E+00  2.56018265E+00  2.56387969E+00
  2.56762024E+00  2.57776656E+00  2.59988564E+00  2.62293957E+00  2.62919598E+00
  2.65139929E+00  2.65653660E+00  2.67859956E+00  2.69528677E+00  2.69822929E+00
  2.71417664E+00  2.73483950E+00  2.74843587E+00  2.75880576E+00  2.78332714E+00
  2.81638395E+00  2.86412480E+00  2.91211258E+00  2.99052666E+00  3.08697747E+00
  3.10280844E+00  3.18500629E+00  3.21748733E+00  3.23806655E+00  3.23988696E+00
  3.29402017E+00  3.34738161E+00  3.50404318E+00  3.54728341E+00  3.56927590E+00
  3.91182661E+00  4.09059784E+00  4.33582021E+00  4.39186713E+00  4.50565726E+00
  4.56495505E+00  4.68419390E+00  4.73847375E+00  4.95420719E+00  5.00825949E+00
  5.35606641E+00  5.42666354E+00  5.68181887E+00  6.38757787E+00  6.60212551E+00
  6.86992809E+00  6.89627847E+00  6.91192647E+00  6.98402068E+00  7.31528934E+00
  7.34763050E+00  7.35002951E+00  7.44087961E+00  7.51786472E+00  7.72271349E+00
  7.74795836E+00  8.36285402E+00  1.44421187E+01
Alpha MO coefficients                      R   N=       31684
 -3.60992432E-08 -2.08475969E-07 -9.91856645E-09  1.00300777E-06  3.16296173E-06
 -1.49334432E-08 -8.57281871E-09 -3.69785016E-09  9.17766816E-09  2.21608513E-08
  4.51553477E-09  3.05691520E-07 -2.20612649E-07  1.86769258E-06  2.60411839E-07
  8.39087008E-08  1.09527073E-06 -9.46661436E-10 -3.64609325E-08 -4.00615653E-09
 -8.37952501E-09  1.11133843E-08  4.06515449E-08  2.40518305E-07  1.42392065E-08
  4.08602330E-08 -4.36325718E-08  4.21052710E-07  3.48888162E-07  4.46178105E-08
  2.76350548E-07  4.65504071E-08 -4.11906710E-08  2.72421969E-08 -2.02957152E-09
  3.26104982E-08 -6.04687633E-09 -2.76689498E-08  1.02507773E-09  5.16491827E-08
  4.17101669E-08  4.14285225E-10  4.63178270E-08  2.16118738E-08  1.53931179E-07
 -5.34115846E-09  1.00053502E+00 -1.74603624E-03 -3.66818857E-04  2.53225277E-05
 -3.81885705E-05 -1.36759965E-05  1.48698792E-06 -3.14064941E-07 -4.48589001E-08
  3.95351543E-07 -1.61930916E-08  2.28027996E-08 -1.32648721E-07 -1.21550573E-06
  4.92649956E-08  1.62635922E-07  3.11221883E-07 -2.30059530E-08  2.62590226E-08
  3.99236444E-06 -1.52442242E-07 -6.94504861E-07 -3.59992507E-07  6.60269544E-08
  2.71175228E-09  6.37982294E-09 -4.10825096E-08  6.06040218E-10  5.70799786E-09
  6.36670033E-09 -2.28680123E-08  4.35026665E-08 -5.73410046E-09  2.06765491E-08
 -2.03520303E-08 -5.31240668E-08 -1.10868903E-07  1.49843853E-08  1.26944191E-07
  3.45151623E-08  6.68549891E-07  5.23347830E-07 -2.40274330E-08 -1.27970451E-06
  4.28942710E-08 -6.04109965E-08  1.13739271E-07  1.13338083E-10  8.07998260E-08
  1.21073074E-09 -1.86361060E-07  1.98394099E-08  9.61098180E-08 -1.93747634E-07
  2.77858882E-09 -1.30779185E-07 -7.07273336E-09  3.19310729E-07 -3.69126203E-08
  7.76615413E-09  1.16134728E-07  3.02146181E-07 -5.22807096E-08 -5.47758245E-07
 -2.73393598E-07 -1.60487667E-08  2.45698100E-09 -4.43642762E-09 -1.20574744E-07
  1.60411640E-08 -3.76800375E-08  6.88601556E-08 -1.62130421E-08  1.79518723E-08
 -2.70453407E-07  3.75202328E-08 -1.11931191E-07 -1.73981034E-07  2.52478052E-09
 -1.32300747E-07 -4.22157042E-09  1.31126618E-08 -1.97887415E-08  1.70861448E-08
 -2.65560593E-08  5.49714579E-08 -5.11954405E-08  7.68520590E-08 -1.39549520E-08
  1.03965676E-07  9.21498385E-09 -2.93933928E-08  3.35469089E-08 -1.92354924E-07
 -4.25311301E-08 -3.15506845E-08  4.90802505E-08 -1.98383773E-08  6.09675844E-09
  1.57339430E-09 -3.10602905E-09 -1.37445542E-08  8.22076499E-08 -7.40625452E-08
  1.55485870E-08 -7.97169397E-09  3.19527805E-08 -2.25986062E-08  1.70003007E-08
  1.69197079E-08 -1.49108286E-06  1.71282546E-06 -7.25301793E-07  1.60851624E-07
 -1.20560432E-08  1.00887606E-07  3.92921558E-07  1.27864811E-08 -4.03655976E-07
  3.89480137E-06  5.95317045E-07 -1.54544973E-06  1.63667048E-08  3.89109496E-08
  1.22065990E-08 -1.95403383E-08  1.01685080E-08  3.35233959E-07  4.57303448E-07
 -1.16183459E-07 -4.61426999E-07 -1.33923970E-07  5.99531551E-06  3.28824497E-05
  1.46025445E-06 -1.38144579E-04 -8.41490656E-05 -3.25028341E-08  3.18505951E-06
  6.48324297E-07 -9.53809984E-07 -9.63289406E-06 -2.91377758E-06  5.10941451E-05
 -1.52028506E-04  3.02354750E-06  1.44347519E-05 -3.27561095E-05  3.87390304E-06
 -1.97927814E-06  2.60083463E-07  1.14907513E-07 -2.95612483E-06 -1.36959389E-06
  1.33099332E-05 -7.03307271E-07 -7.95153910E-07  2.08690395E-05  9.31337916E-06
  2.58316296E-05  7.54698444E-06 -7.11432765E-06  5.71482254E-05  1.32187406E-05
 -1.22854622E-07 -1.04019159E-07  3.62704327E-07 -7.01964886E-07  7.37597232E-07
 -1.32812985E-06  7.57137982E-07  1.21627493E-08 -2.61563195E-06  1.15024311E-05
  3.13486239E-06 -3.07517735E-06 -6.05805523E-06  9.83461910E-06  1.20175830E-07
  6.12689359E-07  3.60591905E-06  8.33446111E-06 -7.39346542E-07 -1.85495247E-05
 -9.32100174E-06 -6.90827234E-08  4.49605708E-09  1.05053166E-08  4.32778921E-07
 -2.10590458E-09 -9.50370186E-08  1.56022108E-06  1.69986562E-07 -5.70714163E-07
 -1.56812418E-06  1.85021221E-08  3.09583053E-07  1.71120487E-05 -1.61297980E-06
 -3.74432624E-06  2.89955268E-06 -7.19052641E-08  4.76175216E-07  3.95561325E-08
  3.33070793E-08  4.17624404E-09 -1.28974321E-07 -1.22962463E-08 -3.71492598E-07
 -3.11940690E-07 -5.30766981E-08  1.00488544E-06  1.89629469E-08  1.52580721E-06
  1.70642896E-06  3.65699918E-07 -3.60810944E-06  5.93380798E-08  3.30834509E-06
  1.82887853E-06 -1.30787519E-06 -5.55659450E-06  1.09982712E-06  1.08743102E-08
 -2.74165136E-08  2.14161446E-07 -1.17189647E-07 -7.29688230E-07 -6.43477729E-07
 -3.86753857E-07  5.71995819E-07 -9.97309044E-07 -2.90577009E-07 -5.89954428E-07
  1.27987242E-06  2.78270062E-06  4.31465717E-07  9.99534855E-01  1.95349514E-03
  1.83938911E-04 -4.17357495E-04  7.10473778E-05  7.21983061E-05  1.68210979E-05
 -7.60266407E-05  2.00314183E-06  3.55832609E-05 -1.34430097E-04  3.26074777E-06
 -1.73306780E-05  7.20045733E-05 -1.84584765E-06  6.83449787E-06 -5.50003261E-05
 -2.66451512E-06  1.85826950E-06 -1.15781083E-05 -1.23234568E-06 -3.70927488E-06
  1.54743411E-07 -1.63720596E-07 -5.31456143E-06 -3.33840480E-06 -2.81369233E-05
  5.06201747E-07 -1.05082110E-06 -4.32656004E-05 -2.34934655E-05 -2.47264351E-06
 -3.36276362E-06  6.36182035E-07 -7.96742662E-06  6.55968607E-10 -5.91059656E-07
 -1.53145556E-06  5.87375218E-06  4.03192263E-07 -1.10732288E-06 -4.98001541E-06
  4.47043142E-06  1.03586262E-06 -7.10854530E-07  3.49731671E-06 -1.25538067E-06
  2.14923769E-06 -3.48009980E-06  6.38681380E-06 -9.01860200E-07 -2.15046352E-05
  2.41108187E-05 -5.84564974E-06  8.29076146E-07 -2.36352123E-06  3.02008472E-07
 -7.55503609E-06  1.68257056E-05 -4.47710211E-07  9.03877125E-06  1.68352025E-05
 -2.81963769E-06 -5.91315223E-07 -2.51526764E-08 -1.25500993E-07 -1.33404893E-06
 -9.20938255E-07 -8.07504036E-06  2.28371269E-06 -1.23073607E-06  5.83219363E-06
 -4.07197161E-06 -9.35813588E-08 -1.25394871E-07 -5.67707495E-08  3.53633850E-06
  1.44635567E-05  8.37730914E-08  2.06268293E-09  7.66630472E-08  4.70965681E-07
  1.21358669E-07 -1.44225065E-07  1.19737878E-06 -7.60661323E-07  7.02552261E-06
  1.37685827E-06  8.84554215E-07  4.70870474E-06 -2.12917072E-08 -1.52945348E-07
 -3.20617245E-08  3.07084697E-08  5.20475466E-08  1.70945767E-07  9.30953822E-07
  1.20905097E-07 -1.67306118E-08 -1.66041054E-07  1.39331536E-06  1.63579811E-06
 -6.16413715E-08  9.12526579E-07  5.82496935E-07 -7.28406303E-08  7.34558894E-08
 -6.16750046E-09  4.40886428E-08 -3.06417148E-08 -8.22006683E-08 -2.33630302E-10
 -4.37018425E-09  2.55769443E-07  1.27404337E-09  2.91278548E-07  1.15190343E-07
  3.06471292E-07  1.53669153E-08 -3.14071614E-01  1.04046624E+00  2.14012707E-02
  2.93756400E-05 -7.63174683E-05 -5.37097078E-05 -2.39524208E-06 -2.98381864E-05
 -7.01896874E-06  5.57112881E-05 -4.44942465E-06 -4.92755789E-07  4.65005052E-06
 -5.23895577E-06 -9.54425372E-08  2.37645676E-06  2.81977292E-06  2.21502618E-07
 -2.33555294E-06  2.17039442E-05 -4.59200317E-07 -4.78951941E-06 -3.81485651E-07
  1.36427669E-07  1.85892074E-08  3.17923673E-07 -2.16202411E-06 -1.58610732E-08
  3.87982502E-07  2.40366398E-07 -2.87666965E-07  3.75688324E-07 -1.51583149E-08
  2.87693942E-07 -1.27764059E-07  5.07593777E-07 -5.57573039E-07  4.37745469E-08
 -5.43267293E-07  2.39951553E-07  3.50409560E-06  2.95312513E-06 -8.78339660E-08
 -6.81640709E-06  1.50959911E-07 -1.26629095E-07  5.02762117E-07  7.85552356E-09
  1.59101296E-07  1.79012368E-09 -7.35870234E-07  6.33259445E-08  6.08122372E-07
 -1.29176347E-06 -2.99440076E-09 -8.03595417E-07 -1.92197814E-08  2.01601093E-06
 -1.61195352E-07  4.03386482E-08  5.78306788E-07  1.50419098E-06 -3.46008281E-07
 -2.29896270E-06 -2.26331153E-06 -4.78024013E-08 -2.61483831E-08 -2.21490855E-08
 -1.41262651E-07 -1.24545594E-07 -2.27418402E-07  1.77834321E-07  1.20422551E-08
  9.30112563E-08 -2.03217550E-06  4.36559663E-07  4.19566585E-08 -3.70546244E-07
  1.74351730E-07 -7.92433258E-07 -4.41498887E-08  2.69159785E-08 -6.62156525E-08