 Entering Gaussian System, Link 0=g16
 Input=brhocl-_tz-eq.gjf
 Output=brhocl-_tz-eq.log
 Initial command:
 /sw/contrib/gaussian/g16/B01/g16/l1.exe "/scr/Gau-403542.inp" -scrdir="/scr/"
 Entering Link 1 = /sw/contrib/gaussian/g16/B01/g16/l1.exe PID=    403543.
  
 Copyright (c) 1988-2017, Gaussian, Inc.  All Rights Reserved.
  
 This is part of the Gaussian(R) 16 program.  It is based on
 the Gaussian(R) 09 system (copyright 2009, Gaussian, Inc.),
 the Gaussian(R) 03 system (copyright 2003, Gaussian, Inc.),
 the Gaussian(R) 98 system (copyright 1998, Gaussian, Inc.),
 the Gaussian(R) 94 system (copyright 1995, Gaussian, Inc.),
 the Gaussian 92(TM) system (copyright 1992, Gaussian, Inc.),
 the Gaussian 90(TM) system (copyright 1990, Gaussian, Inc.),
 the Gaussian 88(TM) system (copyright 1988, Gaussian, Inc.),
 the Gaussian 86(TM) system (copyright 1986, Carnegie Mellon
 University), and the Gaussian 82(TM) system (copyright 1983,
 Carnegie Mellon University). Gaussian is a federally registered
 trademark of Gaussian, Inc.
  
 This software contains proprietary and confidential information,
 including trade secrets, belonging to Gaussian, Inc.
  
 This software is provided under written license and may be
 used, copied, transmitted, or stored only in accord with that
 written license.
  
 The following legend is applicable only to US Government
 contracts under FAR:
  
                    RESTRICTED RIGHTS LEGEND
  
 Use, reproduction and disclosure by the US Government is
 subject to restrictions as set forth in subparagraphs (a)
 and (c) of the Commercial Computer Software - Restricted
 Rights clause in FAR 52.227-19.
  
 Gaussian, Inc.
 340 Quinnipiac St., Bldg. 40, Wallingford CT 06492
  
  
 ---------------------------------------------------------------
 Warning -- This program may not be used in any manner that
 competes with the business of Gaussian, Inc. or will provide
 assistance to any competitor of Gaussian, Inc.  The licensee
 of this program is prohibited from giving any competitor of
 Gaussian, Inc. access to this program.  By using this program,
 the user acknowledges that Gaussian, Inc. is engaged in the
 business of creating and licensing software in the field of
 computational chemistry and represents and warrants to the
 licensee that it is not a competitor of Gaussian, Inc. and that
 it will not use this program in any manner prohibited above.
 ---------------------------------------------------------------
  

 Cite this work as:
 Gaussian 16, Revision B.01,
 M. J. Frisch, G. W. Trucks, H. B. Schlegel, G. E. Scuseria, 
 M. A. Robb, J. R. Cheeseman, G. Scalmani, V. Barone, 
 G. A. Petersson, H. Nakatsuji, X. Li, M. Caricato, A. V. Marenich, 
 J. Bloino, B. G. Janesko, R. Gomperts, B. Mennucci, H. P. Hratchian, 
 J. V. Ortiz, A. F. Izmaylov, J. L. Sonnenberg, D. Williams-Young, 
 F. Ding, F. Lipparini, F. Egidi, J. Goings, B. Peng, A. Petrone, 
 T. Henderson, D. Ranasinghe, V. G. Zakrzewski, J. Gao, N. Rega, 
 G. Zheng, W. Liang, M. Hada, M. Ehara, K. Toyota, R. Fukuda, 
 J. Hasegawa, M. Ishida, T. Nakajima, Y. Honda, O. Kitao, H. Nakai, 
 T. Vreven, K. Throssell, J. A. Montgomery, Jr., J. E. Peralta, 
 F. Ogliaro, M. J. Bearpark, J. J. Heyd, E. N. Brothers, K. N. Kudin, 
 V. N. Staroverov, T. A. Keith, R. Kobayashi, J. Normand, 
 K. Raghavachari, A. P. Rendell, J. C. Burant, S. S. Iyengar, 
 J. Tomasi, M. Cossi, J. M. Millam, M. Klene, C. Adamo, R. Cammi, 
 J. W. Ochterski, R. L. Martin, K. Morokuma, O. Farkas, 
 J. B. Foresman, and D. J. Fox, Gaussian, Inc., Wallingford CT, 2016.
 
 ******************************************
 Gaussian 16:  ES64L-G16RevB.01 20-Dec-2017
                22-Oct-2021 
 ******************************************
 %nproc=28
 Will use up to   28 processors via shared memory.
 %mem=120GB
 %chk=/gscratch/ilahie/mccoygrp/hocl/2nd_basis/br_hocl_pp_eq.chk
 ------------------------------------------
 #p opt=(z-matrix) mp2/aug-cc-pvtz freq=anh
 ------------------------------------------
 1/10=7,18=40,38=1,80=1/1,3;
 2/12=2,17=6,18=5,29=3,40=1/2;
 3/5=16,6=1,7=10,11=9,25=1,30=1,71=1/1,2,3;
 4//1;
 5/5=2,38=5/2;
 8/6=4,10=1/1;
 9/15=2,16=-3/6;
 10/5=1/2;
 6/7=2,8=2,9=2,10=2/1;
 7/12=2,29=1/1,2,3,16;
 1/10=7,18=40,80=1/3(2);
 2/29=3/2;
 99//99;
 2/29=3/2;
 3/5=16,6=1,7=10,11=9,25=1,30=1,71=1/1,2,3;
 4/5=5,16=3,69=1/1;
 5/5=2,38=5/2;
 8/6=4,10=1/1;
 9/15=2,16=-3/6;
 10/5=1/2;
 7/12=2/1,2,3,16;
 1/18=40,80=1/3(-8);
 2/29=3/2;
 6/7=2,8=2,9=2,10=2/1;
 99/9=10/99;
 Leave Link    1 at Fri Oct 22 16:15:25 2021, MaxMem= 16106127360 cpu:               0.6 elap:               0.0
 (Enter /sw/contrib/gaussian/g16/B01/g16/l101.exe)
 -----
 title
 -----
 Symbolic Z-matrix:
 Charge = -1 Multiplicity = 1
 O
 H                    1    r1
 Cl                   1    r2       2    a1
 Br                   1    r3       3    a1       2    d1       0
       Variables:
  r1                    1.0177                   
  r2                    1.6844                   
  r3                    3.0737                   
  a1                  103.3831                   
  d1                    0.      -1        0.     
 
 ITRead=  0  0  0  0
 MicOpt= -1 -1 -1 -1
 NAtoms=      4 NQM=        4 NQMF=       0 NMMI=      0 NMMIF=      0
                NMic=       0 NMicF=      0.
                    Isotopes and Nuclear Properties:
 (Nuclear quadrupole moments (NQMom) in fm**2, nuclear magnetic moments (NMagM)
  in nuclear magnetons)

  Atom         1           2           3           4
 IAtWgt=          16           1          35          79
 AtmWgt=  15.9949146   1.0078250  34.9688527  78.9183361
 NucSpn=           0           1           3           3
 AtZEff=  -0.0000000  -0.0000000  -0.0000000  -0.0000000
 NQMom=    0.0000000   0.0000000  -8.1650000  31.3000000
 NMagM=    0.0000000   2.7928460   0.8218740   2.1063990
 AtZNuc=   8.0000000   1.0000000  17.0000000  35.0000000
 Leave Link  101 at Fri Oct 22 16:15:26 2021, MaxMem= 16106127360 cpu:               2.5 elap:               0.1
 (Enter /sw/contrib/gaussian/g16/B01/g16/l103.exe)

 GradGradGradGradGradGradGradGradGradGradGradGradGradGradGradGradGradGrad
 Berny optimization.
 Initialization pass.
                       ----------------------------
                       !    Initial Parameters    !
                       ! (Angstroms and Degrees)  !
 ----------------------                            ----------------------
 !      Name          Value   Derivative information (Atomic Units)     !
 ------------------------------------------------------------------------
 !       r1          1.0177   estimate D2E/DX2                          !
 !       r2          1.6844   estimate D2E/DX2                          !
 !       r3          3.0737   estimate D2E/DX2                          !
 !       a1        103.3831   estimate D2E/DX2                          !
 !       d1          0.0      Frozen                                    !
 ------------------------------------------------------------------------
 Trust Radius=3.00D-01 FncErr=1.00D-07 GrdErr=1.00D-07 EigMax=2.50D+02 EigMin=1.00D-04
 Number of steps in this run=     20 maximum allowed number of steps=    100.
 GradGradGradGradGradGradGradGradGradGradGradGradGradGradGradGradGradGrad

 Leave Link  103 at Fri Oct 22 16:15:26 2021, MaxMem= 16106127360 cpu:               0.6 elap:               0.0
 (Enter /sw/contrib/gaussian/g16/B01/g16/l202.exe)
 ---------------------------------------------------------------------------------------------------
                            Z-MATRIX (ANGSTROMS AND DEGREES)
   CD    Cent   Atom    N1       Length/X        N2       Alpha/Y        N3        Beta/Z          J
 ---------------------------------------------------------------------------------------------------
      1      1  O 
      2      2  H        1   1.017700(     1)
      3      3  Cl       1   1.684400(     2)      2  103.383(     4)
      4      4  Br       1   3.073700(     3)      3  103.383(     5)      2    0.000(     6)      0
 ---------------------------------------------------------------------------------------------------
                         Z-Matrix orientation:                         
 ---------------------------------------------------------------------
 Center     Atomic      Atomic             Coordinates (Angstroms)
 Number     Number       Type             X           Y           Z
 ---------------------------------------------------------------------
      1          8           0        0.000000    0.000000    0.000000
      2          1           0        0.000000    0.000000    1.017700
      3         17           0        1.638659    0.000000   -0.389873
      4         35           0        0.000000    0.000000    3.073700
 ---------------------------------------------------------------------
                    Distance matrix (angstroms):
                    1          2          3          4
     1  O    0.000000
     2  H    1.017700   0.000000
     3  Cl   1.684400   2.160200   0.000000
     4  Br   3.073700   2.056000   3.831650   0.000000
 Stoichiometry    BrClHO(1-)
 Framework group  CS[SG(BrClHO)]
 Deg. of freedom     5
 Full point group                 CS      NOp   2
 Largest Abelian subgroup         CS      NOp   2
 Largest concise Abelian subgroup C1      NOp   1
                         Standard orientation:                         
 ---------------------------------------------------------------------
 Center     Atomic      Atomic             Coordinates (Angstroms)
 Number     Number       Type             X           Y           Z
 ---------------------------------------------------------------------
      1          8           0        0.582692    1.631982    0.000000
      2          1           0       -0.000000    0.797606    0.000000
      3         17           0        2.149395    1.013399    0.000000
      4         35           0       -1.177178   -0.888035    0.000000
 ---------------------------------------------------------------------
 Rotational constants (GHZ):          22.6284469           1.2813845           1.2127121
 Leave Link  202 at Fri Oct 22 16:15:26 2021, MaxMem= 16106127360 cpu:               0.4 elap:               0.0
 (Enter /sw/contrib/gaussian/g16/B01/g16/l301.exe)
 Standard basis: Aug-CC-pVTZ (5D, 7F)
 Ernie: Thresh=  0.10000D-02 Tol=  0.10000D-05 Strict=F.
 Ernie:  48 primitive shells out of 228 were deleted.
 There are   142 symmetry adapted cartesian basis functions of A'  symmetry.
 There are    66 symmetry adapted cartesian basis functions of A"  symmetry.
 There are   118 symmetry adapted basis functions of A'  symmetry.
 There are    60 symmetry adapted basis functions of A"  symmetry.
   178 basis functions,   430 primitive gaussians,   208 cartesian basis functions
    31 alpha electrons       31 beta electrons
       nuclear repulsion energy       190.4380638188 Hartrees.
 IExCor=    0 DFT=F Ex=HF Corr=None ExCW=0 ScaHFX=  1.000000
 ScaDFX=  1.000000  1.000000  1.000000  1.000000 ScalE2=  1.000000  1.000000
 IRadAn=      5 IRanWt=     -1 IRanGd=            0 ICorTp=0 IEmpDi=  4
 NAtoms=    4 NActive=    4 NUniq=    4 SFac= 1.00D+00 NAtFMM=   60 NAOKFM=F Big=F
 Integral buffers will be    131072 words long.
 Raffenetti 1 integral format.
 Two-electron integral symmetry is turned on.
 Leave Link  301 at Fri Oct 22 16:15:26 2021, MaxMem= 16106127360 cpu:               1.9 elap:               0.1
 (Enter /sw/contrib/gaussian/g16/B01/g16/l302.exe)
 NPDir=0 NMtPBC=     1 NCelOv=     1 NCel=       1 NClECP=     1 NCelD=      1
         NCelK=      1 NCelE2=     1 NClLst=     1 CellRange=     0.0.
 One-electron integrals computed using PRISM.
 One-electron integral symmetry used in STVInt
 NBasis=   178 RedAO= T EigKep=  2.39D-04  NBF=   118    60
 NBsUse=   178 1.00D-06 EigRej= -1.00D+00 NBFU=   118    60
 Leave Link  302 at Fri Oct 22 16:15:26 2021, MaxMem= 16106127360 cpu:               4.3 elap:               0.2
 (Enter /sw/contrib/gaussian/g16/B01/g16/l303.exe)
 DipDrv:  MaxL=1.
 Leave Link  303 at Fri Oct 22 16:15:26 2021, MaxMem= 16106127360 cpu:               0.8 elap:               0.1
 (Enter /sw/contrib/gaussian/g16/B01/g16/l401.exe)
 ExpMin= 2.53D-02 ExpMax= 1.06D+07 ExpMxC= 1.21D+04 IAcc=3 IRadAn=         5 AccDes= 0.00D+00
 Harris functional with IExCor=  205 and IRadAn=       5 diagonalized for initial guess.
 HarFok:  IExCor=  205 AccDes= 0.00D+00 IRadAn=         5 IDoV= 1 UseB2=F ITyADJ=14
 ICtDFT=  3500011 ScaDFX=  1.000000  1.000000  1.000000  1.000000
 FoFCou: FMM=F IPFlag=           0 FMFlag=      100000 FMFlg1=           0
         NFxFlg=           0 DoJE=T BraDBF=F KetDBF=T FulRan=T
         wScrn=  0.000000 ICntrl=       500 IOpCl=  0 I1Cent=   200000004 NGrid=           0
         NMat0=    1 NMatS0=      1 NMatT0=    0 NMatD0=    1 NMtDS0=    0 NMtDT0=    0
 Petite list used in FoFCou.
 Harris En= -3106.38947370056    
 JPrj=0 DoOrth=F DoCkMO=F.
 Initial guess orbital symmetries:
       Occupied  (A') (A') (A') (A') (A') (A") (A') (A') (A') (A')
                 (A') (A") (A') (A') (A") (A') (A') (A") (A') (A")
                 (A') (A') (A') (A') (A') (A") (A') (A') (A") (A')
                 (A")
       Virtual   (A') (A') (A') (A') (A") (A') (A') (A") (A') (A')
                 (A") (A') (A") (A') (A') (A") (A') (A') (A") (A')
                 (A') (A') (A') (A") (A") (A') (A') (A') (A") (A')
                 (A') (A') (A") (A") (A') (A") (A') (A') (A') (A")
                 (A') (A') (A") (A") (A') (A') (A") (A') (A') (A")
                 (A') (A') (A") (A") (A') (A') (A') (A") (A') (A")
                 (A') (A") (A') (A') (A') (A') (A') (A") (A") (A')
                 (A") (A") (A') (A') (A') (A') (A') (A") (A') (A')
                 (A") (A') (A") (A') (A") (A') (A") (A") (A') (A')
                 (A') (A") (A') (A') (A") (A') (A") (A') (A') (A")
                 (A') (A") (A') (A") (A') (A') (A') (A") (A") (A')
                 (A') (A") (A') (A') (A") (A') (A') (A") (A') (A')
                 (A') (A") (A") (A') (A") (A') (A') (A') (A') (A')
                 (A") (A') (A') (A') (A") (A') (A") (A') (A") (A")
                 (A') (A') (A") (A') (A') (A') (A')
 The electronic state of the initial guess is 1-A'.
 Leave Link  401 at Fri Oct 22 16:15:26 2021, MaxMem= 16106127360 cpu:               7.3 elap:               0.3
 (Enter /sw/contrib/gaussian/g16/B01/g16/l502.exe)
 Keep R1 ints in memory in symmetry-blocked form, NReq=191183261.
 FoFCou: FMM=F IPFlag=           0 FMFlag=           0 FMFlg1=           0
         NFxFlg=           0 DoJE=F BraDBF=F KetDBF=F FulRan=T
         wScrn=  0.000000 ICntrl=       600 IOpCl=  0 I1Cent=           0 NGrid=           0
         NMat0=    1 NMatS0=  15931 NMatT0=    0 NMatD0=    1 NMtDS0=    0 NMtDT0=    0
 Petite list used in FoFCou.
 Closed shell SCF:
 Using DIIS extrapolation, IDIIS=  1040.
 NGot= 16106127360 LenX= 16041757360 LenY= 16041713655
 Requested convergence on RMS density matrix=1.00D-08 within 128 cycles.
 Requested convergence on MAX density matrix=1.00D-06.
 Requested convergence on             energy=1.00D-06.
 No special actions if energy rises.

 Cycle   1  Pass 1  IDiag  1:
 E= -3107.31702802704    
 DIIS: error= 6.15D-02 at cycle   1 NSaved=   1.
 NSaved= 1 IEnMin= 1 EnMin= -3107.31702802704     IErMin= 1 ErrMin= 6.15D-02
 ErrMax= 6.15D-02  0.00D+00 EMaxC= 1.00D-01 BMatC= 6.37D-01 BMatP= 6.37D-01
 IDIUse=3 WtCom= 3.85D-01 WtEn= 6.15D-01
 Coeff-Com:  0.100D+01
 Coeff-En:   0.100D+01
 Coeff:      0.100D+01
 Gap=     0.558 Goal=   None    Shift=    0.000
 GapD=    0.558 DampG=2.000 DampE=0.500 DampFc=1.0000 IDamp=-1.
 RMSDP=3.08D-03 MaxDP=1.01D-01              OVMax= 1.16D-01

 Cycle   2  Pass 1  IDiag  1:
 E= -3107.45123440014     Delta-E=       -0.134206373101 Rises=F Damp=F
 DIIS: error= 1.72D-02 at cycle   2 NSaved=   2.
 NSaved= 2 IEnMin= 2 EnMin= -3107.45123440014     IErMin= 2 ErrMin= 1.72D-02
 ErrMax= 1.72D-02  0.00D+00 EMaxC= 1.00D-01 BMatC= 4.19D-02 BMatP= 6.37D-01
 IDIUse=3 WtCom= 8.28D-01 WtEn= 1.72D-01
 Coeff-Com:  0.132D+00 0.868D+00
 Coeff-En:   0.000D+00 0.100D+01
 Coeff:      0.110D+00 0.890D+00
 Gap=     0.332 Goal=   None    Shift=    0.000
 RMSDP=1.13D-03 MaxDP=3.78D-02 DE=-1.34D-01 OVMax= 7.19D-02

 Cycle   3  Pass 1  IDiag  1:
 E= -3107.46887627453     Delta-E=       -0.017641874389 Rises=F Damp=F
 DIIS: error= 8.83D-03 at cycle   3 NSaved=   3.
 NSaved= 3 IEnMin= 3 EnMin= -3107.46887627453     IErMin= 3 ErrMin= 8.83D-03
 ErrMax= 8.83D-03  0.00D+00 EMaxC= 1.00D-01 BMatC= 1.36D-02 BMatP= 4.19D-02
 IDIUse=3 WtCom= 9.12D-01 WtEn= 8.83D-02
 Coeff-Com:  0.688D-02 0.360D+00 0.633D+00
 Coeff-En:   0.000D+00 0.183D+00 0.817D+00
 Coeff:      0.627D-02 0.345D+00 0.649D+00
 Gap=     0.333 Goal=   None    Shift=    0.000
 RMSDP=3.46D-04 MaxDP=1.22D-02 DE=-1.76D-02 OVMax= 3.52D-02

 Cycle   4  Pass 1  IDiag  1:
 E= -3107.47818284404     Delta-E=       -0.009306569508 Rises=F Damp=F
 DIIS: error= 1.40D-03 at cycle   4 NSaved=   4.
 NSaved= 4 IEnMin= 4 EnMin= -3107.47818284404     IErMin= 4 ErrMin= 1.40D-03
 ErrMax= 1.40D-03  0.00D+00 EMaxC= 1.00D-01 BMatC= 1.71D-04 BMatP= 1.36D-02
 IDIUse=3 WtCom= 9.86D-01 WtEn= 1.40D-02
 Coeff-Com: -0.513D-02-0.282D-01 0.495D-01 0.984D+00
 Coeff-En:   0.000D+00 0.000D+00 0.000D+00 0.100D+01
 Coeff:     -0.506D-02-0.278D-01 0.488D-01 0.984D+00
 Gap=     0.332 Goal=   None    Shift=    0.000
 RMSDP=6.04D-05 MaxDP=1.42D-03 DE=-9.31D-03 OVMax= 3.50D-03

 Cycle   5  Pass 1  IDiag  1:
 E= -3107.47837988165     Delta-E=       -0.000197037612 Rises=F Damp=F
 DIIS: error= 2.16D-04 at cycle   5 NSaved=   5.
 NSaved= 5 IEnMin= 5 EnMin= -3107.47837988165     IErMin= 5 ErrMin= 2.16D-04
 ErrMax= 2.16D-04  0.00D+00 EMaxC= 1.00D-01 BMatC= 1.20D-05 BMatP= 1.71D-04
 IDIUse=3 WtCom= 9.98D-01 WtEn= 2.16D-03
 Coeff-Com:  0.813D-03-0.175D-01-0.397D-01-0.169D+00 0.123D+01
 Coeff-En:   0.000D+00 0.000D+00 0.000D+00 0.000D+00 0.100D+01
 Coeff:      0.811D-03-0.175D-01-0.397D-01-0.169D+00 0.122D+01
 Gap=     0.333 Goal=   None    Shift=    0.000
 RMSDP=3.03D-05 MaxDP=8.26D-04 DE=-1.97D-04 OVMax= 2.87D-03

 Cycle   6  Pass 1  IDiag  1:
 E= -3107.47841328186     Delta-E=       -0.000033400210 Rises=F Damp=F
 DIIS: error= 1.21D-04 at cycle   6 NSaved=   6.
 NSaved= 6 IEnMin= 6 EnMin= -3107.47841328186     IErMin= 6 ErrMin= 1.21D-04
 ErrMax= 1.21D-04  0.00D+00 EMaxC= 1.00D-01 BMatC= 1.69D-06 BMatP= 1.20D-05
 IDIUse=3 WtCom= 9.99D-01 WtEn= 1.21D-03
 Coeff-Com:  0.466D-03 0.413D-02-0.147D-02-0.123D+00-0.539D-01 0.117D+01
 Coeff-En:   0.000D+00 0.000D+00 0.000D+00 0.000D+00 0.000D+00 0.100D+01
 Coeff:      0.465D-03 0.412D-02-0.146D-02-0.123D+00-0.538D-01 0.117D+01
 Gap=     0.333 Goal=   None    Shift=    0.000
 RMSDP=1.29D-05 MaxDP=3.73D-04 DE=-3.34D-05 OVMax= 1.43D-03

 Cycle   7  Pass 1  IDiag  1:
 E= -3107.47841897303     Delta-E=       -0.000005691176 Rises=F Damp=F
 DIIS: error= 4.52D-05 at cycle   7 NSaved=   7.
 NSaved= 7 IEnMin= 7 EnMin= -3107.47841897303     IErMin= 7 ErrMin= 4.52D-05
 ErrMax= 4.52D-05  0.00D+00 EMaxC= 1.00D-01 BMatC= 1.78D-07 BMatP= 1.69D-06
 IDIUse=1 WtCom= 1.00D+00 WtEn= 0.00D+00
 Coeff-Com: -0.227D-03 0.864D-03 0.659D-02 0.546D-01-0.154D+00-0.275D+00
 Coeff-Com:  0.137D+01
 Coeff:     -0.227D-03 0.864D-03 0.659D-02 0.546D-01-0.154D+00-0.275D+00
 Coeff:      0.137D+01
 Gap=     0.333 Goal=   None    Shift=    0.000
 RMSDP=5.24D-06 MaxDP=1.39D-04 DE=-5.69D-06 OVMax= 5.57D-04

 Cycle   8  Pass 1  IDiag  1:
 E= -3107.47841966041     Delta-E=       -0.000000687377 Rises=F Damp=F
 DIIS: error= 8.41D-06 at cycle   8 NSaved=   8.
 NSaved= 8 IEnMin= 8 EnMin= -3107.47841966041     IErMin= 8 ErrMin= 8.41D-06
 ErrMax= 8.41D-06  0.00D+00 EMaxC= 1.00D-01 BMatC= 8.66D-09 BMatP= 1.78D-07
 IDIUse=1 WtCom= 1.00D+00 WtEn= 0.00D+00
 Coeff-Com:  0.147D-04-0.464D-03-0.109D-02-0.450D-02 0.279D-01 0.132D-01
 Coeff-Com: -0.317D+00 0.128D+01
 Coeff:      0.147D-04-0.464D-03-0.109D-02-0.450D-02 0.279D-01 0.132D-01
 Coeff:     -0.317D+00 0.128D+01
 Gap=     0.333 Goal=   None    Shift=    0.000
 RMSDP=1.18D-06 MaxDP=2.53D-05 DE=-6.87D-07 OVMax= 1.28D-04

 Cycle   9  Pass 1  IDiag  1:
 E= -3107.47841969507     Delta-E=       -0.000000034659 Rises=F Damp=F
 DIIS: error= 3.52D-06 at cycle   9 NSaved=   9.
 NSaved= 9 IEnMin= 9 EnMin= -3107.47841969507     IErMin= 9 ErrMin= 3.52D-06
 ErrMax= 3.52D-06  0.00D+00 EMaxC= 1.00D-01 BMatC= 1.14D-09 BMatP= 8.66D-09
 IDIUse=1 WtCom= 1.00D+00 WtEn= 0.00D+00
 Coeff-Com:  0.126D-04-0.664D-04-0.333D-03-0.244D-02 0.715D-02 0.149D-01
 Coeff-Com: -0.542D-01-0.176D+00 0.121D+01
 Coeff:      0.126D-04-0.664D-04-0.333D-03-0.244D-02 0.715D-02 0.149D-01
 Coeff:     -0.542D-01-0.176D+00 0.121D+01
 Gap=     0.333 Goal=   None    Shift=    0.000
 RMSDP=4.30D-07 MaxDP=9.65D-06 DE=-3.47D-08 OVMax= 5.26D-05

 Cycle  10  Pass 1  IDiag  1:
 E= -3107.47841970009     Delta-E=       -0.000000005018 Rises=F Damp=F
 DIIS: error= 1.80D-06 at cycle  10 NSaved=  10.
 NSaved=10 IEnMin=10 EnMin= -3107.47841970009     IErMin=10 ErrMin= 1.80D-06
 ErrMax= 1.80D-06  0.00D+00 EMaxC= 1.00D-01 BMatC= 2.58D-10 BMatP= 1.14D-09
 IDIUse=1 WtCom= 1.00D+00 WtEn= 0.00D+00
 Coeff-Com: -0.335D-05 0.139D-03 0.247D-03 0.364D-03-0.601D-02 0.154D-02
 Coeff-Com:  0.587D-01-0.255D+00-0.828D-01 0.128D+01
 Coeff:     -0.335D-05 0.139D-03 0.247D-03 0.364D-03-0.601D-02 0.154D-02
 Coeff:      0.587D-01-0.255D+00-0.828D-01 0.128D+01
 Gap=     0.333 Goal=   None    Shift=    0.000
 RMSDP=2.65D-07 MaxDP=5.67D-06 DE=-5.02D-09 OVMax= 3.19D-05

 Cycle  11  Pass 1  IDiag  1:
 E= -3107.47841970134     Delta-E=       -0.000000001253 Rises=F Damp=F
 DIIS: error= 5.79D-07 at cycle  11 NSaved=  11.
 NSaved=11 IEnMin=11 EnMin= -3107.47841970134     IErMin=11 ErrMin= 5.79D-07
 ErrMax= 5.79D-07  0.00D+00 EMaxC= 1.00D-01 BMatC= 2.52D-11 BMatP= 2.58D-10
 IDIUse=1 WtCom= 1.00D+00 WtEn= 0.00D+00
 Coeff-Com: -0.161D-05-0.201D-04 0.148D-04 0.627D-03-0.694D-03-0.350D-02
 Coeff-Com:  0.426D-02 0.533D-01-0.150D+00-0.203D+00 0.130D+01
 Coeff:     -0.161D-05-0.201D-04 0.148D-04 0.627D-03-0.694D-03-0.350D-02
 Coeff:      0.426D-02 0.533D-01-0.150D+00-0.203D+00 0.130D+01
 Gap=     0.333 Goal=   None    Shift=    0.000
 RMSDP=8.80D-08 MaxDP=1.94D-06 DE=-1.25D-09 OVMax= 1.04D-05

 Cycle  12  Pass 1  IDiag  1:
 E= -3107.47841970147     Delta-E=       -0.000000000125 Rises=F Damp=F
 DIIS: error= 1.29D-07 at cycle  12 NSaved=  12.
 NSaved=12 IEnMin=12 EnMin= -3107.47841970147     IErMin=12 ErrMin= 1.29D-07
 ErrMax= 1.29D-07  0.00D+00 EMaxC= 1.00D-01 BMatC= 1.66D-12 BMatP= 2.52D-11
 IDIUse=1 WtCom= 1.00D+00 WtEn= 0.00D+00
 Coeff-Com:  0.113D-06-0.116D-04-0.219D-04-0.258D-04 0.531D-03-0.931D-04
 Coeff-Com: -0.591D-02 0.270D-01 0.403D-02-0.144D+00 0.115D+00 0.100D+01
 Coeff:      0.113D-06-0.116D-04-0.219D-04-0.258D-04 0.531D-03-0.931D-04
 Coeff:     -0.591D-02 0.270D-01 0.403D-02-0.144D+00 0.115D+00 0.100D+01
 Gap=     0.333 Goal=   None    Shift=    0.000
 RMSDP=1.60D-08 MaxDP=3.28D-07 DE=-1.25D-10 OVMax= 1.62D-06

 Cycle  13  Pass 1  IDiag  1:
 E= -3107.47841970148     Delta-E=       -0.000000000013 Rises=F Damp=F
 DIIS: error= 2.38D-08 at cycle  13 NSaved=  13.
 NSaved=13 IEnMin=13 EnMin= -3107.47841970148     IErMin=13 ErrMin= 2.38D-08
 ErrMax= 2.38D-08  0.00D+00 EMaxC= 1.00D-01 BMatC= 9.44D-14 BMatP= 1.66D-12
 IDIUse=1 WtCom= 1.00D+00 WtEn= 0.00D+00
 Coeff-Com:  0.819D-07 0.258D-05 0.223D-05-0.267D-04-0.410D-04 0.138D-03
 Coeff-Com:  0.899D-03-0.790D-02 0.911D-02 0.362D-01-0.110D+00-0.142D+00
 Coeff-Com:  0.121D+01
 Coeff:      0.819D-07 0.258D-05 0.223D-05-0.267D-04-0.410D-04 0.138D-03
 Coeff:      0.899D-03-0.790D-02 0.911D-02 0.362D-01-0.110D+00-0.142D+00
 Coeff:      0.121D+01
 Gap=     0.333 Goal=   None    Shift=    0.000
 RMSDP=4.84D-09 MaxDP=9.36D-08 DE=-1.27D-11 OVMax= 3.91D-07

 SCF Done:  E(RHF) =  -3107.47841970     A.U. after   13 cycles
            NFock= 13  Conv=0.48D-08     -V/T= 2.0000
 KE= 3.107330412509D+03 PE=-7.823401333239D+03 EE= 1.418154437210D+03
 Leave Link  502 at Fri Oct 22 16:15:29 2021, MaxMem= 16106127360 cpu:              46.3 elap:               2.4
 (Enter /sw/contrib/gaussian/g16/B01/g16/l801.exe)
 ExpMin= 2.53D-02 ExpMax= 1.06D+07 ExpMxC= 1.21D+04 IAcc=3 IRadAn=         5 AccDes= 0.00D+00
 HarFok:  IExCor=  205 AccDes= 0.00D+00 IRadAn=         5 IDoV=-2 UseB2=F ITyADJ=14
 ICtDFT= 12500011 ScaDFX=  1.000000  1.000000  1.000000  1.000000
 Largest valence mixing into a core orbital is  4.47D-04
 Largest core mixing into a valence orbital is  1.58D-04
 Range of M.O.s used for correlation:    16   178
 NBasis=   178 NAE=    31 NBE=    31 NFC=    15 NFV=     0
 NROrb=    163 NOA=    16 NOB=    16 NVA=   147 NVB=   147

 **** Warning!!: The largest alpha MO coefficient is  0.20138238D+02

 Leave Link  801 at Fri Oct 22 16:15:29 2021, MaxMem= 16106127360 cpu:               1.8 elap:               0.1
 (Enter /sw/contrib/gaussian/g16/B01/g16/l906.exe)
 Frozen-core derivative calculation, NFC=  15 NFV=   0.
 FulOut=F Deriv=T AODrv=T NAtomX=     4
   MMem=         123  MDisk=          16 MDiskD=          16
  W3Min=     1147744 MinDsk=     1765480 NBas6D=         208
 NBas2D=       22240    NTT=       21736    LW2=     9911920
    MDV= 16105602492 MDiskM=      387105 NBas2p=       22137
 Fully direct method using O(ONN) memory.
 IMap=   1   2   3   4   5   6   7   8   9  10  11  12  13  14  15  16  17  18  19  20
 IMap=  21  22  23  24  25  26  27  28  29  30  31
 JobTyp=1 Pass  1:  I=  16 to  31 NPSUse= 28 ParTrn=T ParDer=T DoDerP=T.
 Spin components of T(2) and E(2):
     alpha-alpha T2 =       0.3036594852D-01 E2=     -0.9427827959D-01
     alpha-beta  T2 =       0.1615446544D+00 E2=     -0.5157901550D+00
     beta-beta   T2 =       0.3036594852D-01 E2=     -0.9427827959D-01
 The integrals were generated   1 times.
 ANorm=    0.1105566168D+01
 E2 =    -0.7043467142D+00 EUMP2 =    -0.31081827664156D+04
 Leave Link  906 at Fri Oct 22 16:15:45 2021, MaxMem= 16106127360 cpu:             443.8 elap:              15.9
 (Enter /sw/contrib/gaussian/g16/B01/g16/l1002.exe)
 Minotr:  Closed shell wavefunction.
          Computing MP2/KS-MP2 derivatives.
          Using Z-Vector for PSCF gradient.
          Skipping F1 and S1 gradient terms here.
          IDoAtm=1111
          Frozen-core window.
          Direct CPHF calculation.
          Differentiating once with respect to electric field.
                with respect to dipole field.
          Differentiating once with respect to nuclear coordinates.
          Using symmetry in CPHF.
          Requested convergence is 1.0D-10 RMS, and 1.0D-09 maximum.
          NewPWx=F KeepS1=T KeepF1=T KeepIn=T MapXYZ=F SortEE=F KeepMc=T.
 Keep R1 ints in memory in symmetry-blocked form, NReq=191184324.
 FoFCou: FMM=F IPFlag=           0 FMFlag=           0 FMFlg1=           0
         NFxFlg=           0 DoJE=F BraDBF=F KetDBF=F FulRan=T
         wScrn=  0.000000 ICntrl=       600 IOpCl=  0 I1Cent=           0 NGrid=           0
         NMat0=    1 NMatS0=  15931 NMatT0=    0 NMatD0=    1 NMtDS0=    0 NMtDT0=    0
 Petite list used in FoFCou.
          MDV=   16106127360 using IRadAn=       5.
          Solving linear equations separately, MaxMat=       0.
          There are     1 degrees of freedom in the 1st order CPHF.  IDoFFX=0 NUNeed=     1.
 LinEq1:  Iter=  0 NonCon=     1 RMS=2.65D-03 Max=4.58D-02 NDo=     1
 AX will form     1 AO Fock derivatives at one time.
 LinEq1:  Iter=  1 NonCon=     1 RMS=4.17D-04 Max=5.02D-03 NDo=     1
 LinEq1:  Iter=  2 NonCon=     1 RMS=1.96D-04 Max=4.08D-03 NDo=     1
 LinEq1:  Iter=  3 NonCon=     1 RMS=6.38D-05 Max=1.05D-03 NDo=     1
 LinEq1:  Iter=  4 NonCon=     1 RMS=2.72D-05 Max=9.13D-04 NDo=     1
 LinEq1:  Iter=  5 NonCon=     1 RMS=9.74D-06 Max=1.62D-04 NDo=     1
 LinEq1:  Iter=  6 NonCon=     1 RMS=2.03D-06 Max=2.43D-05 NDo=     1
 LinEq1:  Iter=  7 NonCon=     1 RMS=4.95D-07 Max=8.66D-06 NDo=     1
 LinEq1:  Iter=  8 NonCon=     1 RMS=1.38D-07 Max=2.20D-06 NDo=     1
 LinEq1:  Iter=  9 NonCon=     1 RMS=3.36D-08 Max=8.31D-07 NDo=     1
 LinEq1:  Iter= 10 NonCon=     1 RMS=9.53D-09 Max=2.46D-07 NDo=     1
 LinEq1:  Iter= 11 NonCon=     1 RMS=2.38D-09 Max=3.98D-08 NDo=     1
 LinEq1:  Iter= 12 NonCon=     1 RMS=4.56D-10 Max=6.75D-09 NDo=     1
 LinEq1:  Iter= 13 NonCon=     1 RMS=1.27D-10 Max=1.73D-09 NDo=     1
 LinEq1:  Iter= 14 NonCon=     0 RMS=2.77D-11 Max=4.07D-10 NDo=     1
 Linear equations converged to 1.000D-10 1.000D-09 after    14 iterations.
 End of Minotr F.D. properties file   721 does not exist.
 End of Minotr F.D. properties file   722 does not exist.
 End of Minotr F.D. properties file   788 does not exist.
 Leave Link 1002 at Fri Oct 22 16:15:48 2021, MaxMem= 16106127360 cpu:              49.1 elap:               2.8
 (Enter /sw/contrib/gaussian/g16/B01/g16/l601.exe)
 Copying SCF densities to generalized density rwf, IOpCl= 0 IROHF=0.

 **********************************************************************

            Population analysis using the SCF Density.

 **********************************************************************

 Orbital symmetries:
       Occupied  (A') (A') (A') (A') (A") (A') (A') (A') (A') (A')
                 (A') (A") (A') (A") (A') (A') (A") (A') (A") (A')
                 (A') (A') (A') (A') (A") (A') (A') (A") (A') (A")
                 (A')
       Virtual   (A') (A') (A') (A") (A') (A') (A") (A') (A') (A")
                 (A') (A') (A') (A') (A") (A") (A') (A') (A') (A')
                 (A") (A") (A') (A') (A') (A") (A') (A') (A') (A")
                 (A') (A") (A') (A') (A") (A') (A') (A") (A") (A')
                 (A") (A') (A') (A') (A") (A') (A") (A') (A') (A')
                 (A") (A') (A") (A') (A') (A") (A") (A') (A') (A")
                 (A') (A") (A') (A') (A') (A') (A') (A") (A") (A')
                 (A") (A') (A') (A") (A') (A') (A') (A") (A") (A')
                 (A') (A') (A") (A') (A") (A') (A") (A") (A') (A')
                 (A') (A') (A") (A') (A") (A') (A") (A') (A") (A')
                 (A") (A') (A') (A') (A") (A') (A") (A') (A") (A')
                 (A') (A") (A') (A') (A") (A') (A') (A") (A') (A')
                 (A') (A") (A") (A') (A") (A') (A') (A') (A') (A')
                 (A") (A') (A') (A') (A") (A') (A") (A') (A") (A')
                 (A") (A') (A") (A') (A') (A') (A')
 The electronic state is 1-A'.
 Alpha  occ. eigenvalues -- -489.75651-104.73059 -64.89688 -58.25139 -58.25134
 Alpha  occ. eigenvalues --  -58.25133 -20.46062 -10.45009  -9.56943  -7.91725
 Alpha  occ. eigenvalues --   -7.91462  -7.91452  -7.17726  -7.17668  -7.17666
 Alpha  occ. eigenvalues --   -2.91897  -2.91869  -2.91867  -2.91803  -2.91803
 Alpha  occ. eigenvalues --   -1.22717  -0.89451  -0.73230  -0.53755  -0.44118
 Alpha  occ. eigenvalues --   -0.43302  -0.30733  -0.27986  -0.18681  -0.17688
 Alpha  occ. eigenvalues --   -0.17682
 Alpha virt. eigenvalues --    0.15621   0.18126   0.21571   0.22801   0.24122
 Alpha virt. eigenvalues --    0.24629   0.25008   0.28727   0.30364   0.31822
 Alpha virt. eigenvalues --    0.32361   0.32491   0.35886   0.43610   0.43707
 Alpha virt. eigenvalues --    0.46923   0.48192   0.48581   0.50238   0.54236
 Alpha virt. eigenvalues --    0.54277   0.57091   0.59365   0.60134   0.60397
 Alpha virt. eigenvalues --    0.60908   0.65639   0.69976   0.73747   0.74480
 Alpha virt. eigenvalues --    0.75325   0.77673   0.78766   0.84688   0.89037
 Alpha virt. eigenvalues --    0.89655   0.92008   0.94392   0.99836   0.99887
 Alpha virt. eigenvalues --    1.00345   1.00861   1.01867   1.03255   1.06853
 Alpha virt. eigenvalues --    1.08164   1.09379   1.10325   1.11069   1.13333
 Alpha virt. eigenvalues --    1.15314   1.17673   1.18181   1.20875   1.22165
 Alpha virt. eigenvalues --    1.24111   1.28393   1.29505   1.33329   1.33540
 Alpha virt. eigenvalues --    1.37464   1.38885   1.47604   1.50605   1.51958
 Alpha virt. eigenvalues --    1.56915   1.59063   1.63312   1.66697   1.70124
 Alpha virt. eigenvalues --    1.70630   1.77155   1.79088   1.79934   1.89906
 Alpha virt. eigenvalues --    1.97542   2.15202   2.37837   2.41050   2.41733
 Alpha virt. eigenvalues --    2.42250   2.46612   2.50275   2.50598   2.52789
 Alpha virt. eigenvalues --    2.53516   2.54934   2.55086   2.55328   2.56251
 Alpha virt. eigenvalues --    2.58233   2.60220   2.63173   2.64743   2.65852
 Alpha virt. eigenvalues --    2.68022   2.68113   2.70064   2.72014   2.72611
 Alpha virt. eigenvalues --    2.73980   2.75710   2.78310   2.80836   2.81045
 Alpha virt. eigenvalues --    2.88355   3.03279   3.07456   3.09693   3.17739
 Alpha virt. eigenvalues --    3.20102   3.21753   3.25676   3.29134   3.31218
 Alpha virt. eigenvalues --    3.34010   3.53124   3.54843   3.57385   3.93463
 Alpha virt. eigenvalues --    4.18742   4.30654   4.44964   4.53629   4.58985
 Alpha virt. eigenvalues --    4.77673   4.97081   5.03356   5.25309   5.33138
 Alpha virt. eigenvalues --    5.37044   5.65896   6.43318   6.59513   6.84921
 Alpha virt. eigenvalues --    6.90290   6.91672   6.99922   7.27106   7.33095
 Alpha virt. eigenvalues --    7.34683   7.45106   7.55654   7.74312   7.81813
 Alpha virt. eigenvalues --    8.35150  14.56622
          Condensed to atoms (all electrons):
               1          2          3          4
     1  O    8.400560   0.211195  -0.005782  -0.076539
     2  H    0.211195   0.390583  -0.015014   0.071204
     3  Cl  -0.005782  -0.015014  16.957941  -0.000355
     4  Br  -0.076539   0.071204  -0.000355  35.881500
 Mulliken charges:
               1
     1  O   -0.529433
     2  H    0.342032
     3  Cl   0.063210
     4  Br  -0.875810
 Sum of Mulliken charges =  -1.00000
 Mulliken charges with hydrogens summed into heavy atoms:
               1
     1  O   -0.187400
     3  Cl   0.063210
     4  Br  -0.875810
 Electronic spatial extent (au):  <R**2>=            809.2524
 Charge=             -1.0000 electrons
 Dipole moment (field-independent basis, Debye):
    X=              2.6714    Y=              1.2777    Z=              0.0000  Tot=              2.9613
 Quadrupole moment (field-independent basis, Debye-Ang):
   XX=            -50.7249   YY=            -50.0560   ZZ=            -42.6192
   XY=             -7.5550   XZ=              0.0000   YZ=              0.0000
 Traceless Quadrupole moment (field-independent basis, Debye-Ang):
   XX=             -2.9248   YY=             -2.2560   ZZ=              5.1808
   XY=             -7.5550   XZ=              0.0000   YZ=              0.0000
 Octapole moment (field-independent basis, Debye-Ang**2):
  XXX=            -10.5914  YYY=            -15.6734  ZZZ=              0.0000  XYY=             -7.1313
  XXY=             -4.0286  XXZ=              0.0000  XZZ=             -5.7308  YZZ=             -3.2885
  YYZ=              0.0000  XYZ=              0.0000
 Hexadecapole moment (field-independent basis, Debye-Ang**3):
 XXXX=           -623.2315 YYYY=           -355.9979 ZZZZ=            -58.7889 XXXY=           -191.2492
 XXXZ=              0.0000 YYYX=           -183.3159 YYYZ=              0.0000 ZZZX=              0.0000
 ZZZY=              0.0000 XXYY=           -172.3492 XXZZ=           -117.1972 YYZZ=            -67.1871
 XXYZ=              0.0000 YYXZ=              0.0000 ZZXY=            -58.9402
 N-N= 1.904380638188D+02 E-N=-7.823401330632D+03  KE= 3.107330412509D+03
 Symmetry A'   KE= 2.681023459937D+03
 Symmetry A"   KE= 4.263069525728D+02
 No NMR shielding tensors so no spin-rotation constants.
 Leave Link  601 at Fri Oct 22 16:15:48 2021, MaxMem= 16106127360 cpu:               4.4 elap:               0.2
 (Enter /sw/contrib/gaussian/g16/B01/g16/l701.exe)
 ... and contract with generalized density number  2.
 Compute integral first derivatives.
 Leave Link  701 at Fri Oct 22 16:15:48 2021, MaxMem= 16106127360 cpu:               6.4 elap:               0.3
 (Enter /sw/contrib/gaussian/g16/B01/g16/l702.exe)
 L702 exits ... SP integral derivatives will be done elsewhere.
 Leave Link  702 at Fri Oct 22 16:15:48 2021, MaxMem= 16106127360 cpu:               1.3 elap:               0.1
 (Enter /sw/contrib/gaussian/g16/B01/g16/l703.exe)
 Integral derivatives from FoFJK, PRISM(SPDF).
 Compute integral first derivatives, UseDBF=F ICtDFT=           0.
 Calling FoFJK, ICntrl=  10002127 FMM=F ISym2X=1 I1Cent= 0 IOpClX= 0 NMat=1 NMatS=1 NMatT=0.
 FoFJK:  IHMeth= 1 ICntrl=10002127 DoSepK=F KAlg= 0 I1Cent=           0 FoldK=F
 IRaf=         0 NMat=       1 IRICut=       1 DoRegI=T DoRafI=F ISym2E= 1 IDoP0=0 IntGTp=1.
 FoFCou: FMM=F IPFlag=           0 FMFlag=      100000 FMFlg1=         800
         NFxFlg=           0 DoJE=F BraDBF=F KetDBF=F FulRan=T
         wScrn=  0.000000 ICntrl=  10002127 IOpCl=  0 I1Cent=           0 NGrid=           0
         NMat0=    1 NMatS0=      1 NMatT0=    0 NMatD0=    1 NMtDS0=    0 NMtDT0=    0
 Petite list used in FoFCou.
 Leave Link  703 at Fri Oct 22 16:15:50 2021, MaxMem= 16106127360 cpu:              53.5 elap:               1.9
 (Enter /sw/contrib/gaussian/g16/B01/g16/l716.exe)
 Dipole        = 1.04243780D+00 4.47040254D-01 0.00000000D+00
 ***** Axes restored to original set *****
 -------------------------------------------------------------------
 Center     Atomic                   Forces (Hartrees/Bohr)
 Number     Number              X              Y              Z
 -------------------------------------------------------------------
      1        8          -0.001108955   -0.000000000   -0.000026324
      2        1           0.001673125   -0.000000000    0.000018856
      3       17          -0.000010537   -0.000000000    0.000003172
      4       35          -0.000553634   -0.000000000    0.000004295
 -------------------------------------------------------------------
 Cartesian Forces:  Max     0.001673125 RMS     0.000601167
 -----------------------------------------------------------------------------------------------
                       Internal Coordinate Forces (Hartree/Bohr or radian)
  Cent   Atom   N1       Length/X         N2         Alpha/Y        N3         Beta/Z          J
 -----------------------------------------------------------------------------------------------
      1  O 
      2  H        1   0.000019(     1)
      3  Cl       1  -0.000011(     2)      2  -0.003218(     4)
      4  Br       1   0.000004(     3)      3   0.003216(     5)      2   0.000000(     6)     0
 -----------------------------------------------------------------------------------------------
 Internal  Forces:  Max     0.003217815 RMS     0.001857234
 Force constants in Cartesian coordinates: 
                1             2             3             4             5 
      1  0.448635D+00
      2  0.000000D+00  0.287953D-01
      3 -0.375018D-01  0.000000D+00  0.526910D+00
      4 -0.782457D-01  0.000000D+00 -0.254273D-01  0.865192D-01
      5  0.000000D+00 -0.430487D-01  0.000000D+00  0.000000D+00  0.643574D-01
      6  0.000000D+00  0.000000D+00 -0.447070D+00  0.000000D+00  0.000000D+00
      7 -0.369431D+00  0.000000D+00  0.760838D-01  0.604972D-02  0.000000D+00
      8  0.000000D+00  0.000000D+00  0.000000D+00  0.000000D+00  0.000000D+00
      9  0.375018D-01  0.000000D+00 -0.585685D-01  0.254273D-01  0.000000D+00
     10 -0.958977D-03  0.000000D+00 -0.131546D-01 -0.143232D-01  0.000000D+00
     11  0.000000D+00  0.142534D-01  0.000000D+00  0.000000D+00 -0.213087D-01
     12  0.000000D+00  0.000000D+00 -0.212714D-01  0.000000D+00  0.000000D+00
                6             7             8             9            10 
      6  0.447070D+00
      7  0.000000D+00  0.360251D+00
      8  0.000000D+00  0.000000D+00  0.100000D+01
      9  0.000000D+00 -0.760838D-01  0.000000D+00  0.585685D-01
     10  0.000000D+00  0.312978D-02  0.000000D+00  0.131546D-01  0.121524D-01
     11  0.000000D+00  0.000000D+00  0.000000D+00  0.000000D+00  0.000000D+00
     12  0.000000D+00  0.000000D+00  0.000000D+00  0.000000D+00  0.000000D+00
               11            12 
     11  0.705529D-02
     12  0.000000D+00  0.212714D-01
 Force constants in internal coordinates: 
                1             2             3             4             5 
      1  0.447070D+00
      2  0.000000D+00  0.378353D+00
      3  0.000000D+00  0.000000D+00  0.212714D-01
      4  0.000000D+00  0.000000D+00  0.000000D+00  0.320000D+00
      5  0.000000D+00  0.000000D+00  0.000000D+00 -0.160000D+00  0.410000D+00
      6  0.000000D+00  0.000000D+00  0.000000D+00  0.000000D+00  0.000000D+00
                6 
      6  0.225280D+00
 Leave Link  716 at Fri Oct 22 16:15:50 2021, MaxMem= 16106127360 cpu:               1.0 elap:               0.1
 (Enter /sw/contrib/gaussian/g16/B01/g16/l103.exe)

 GradGradGradGradGradGradGradGradGradGradGradGradGradGradGradGradGradGrad
 Berny optimization.
 Search for a local minimum.
 Step number   1 out of a maximum of   20
 All quantities printed in internal units (Hartrees-Bohrs-Radians)
 Second derivative matrix not updated -- first step.
 The second derivative matrix:
                          r1        r2        r3        a1        d1
           r1           0.44707
           r2          -0.00000   0.37835
           r3           0.00000   0.00000   0.02127
           a1           0.00000  -0.00000  -0.00000   0.41000
           d1           0.00000   0.00000   0.00000   0.00000   0.22528
 ITU=  0
     Eigenvalues ---    0.02127   0.37835   0.41000   0.447071000.00000
 RFO step:  Lambda= 0.00000000D+00 EMin= 2.12713934D-02
 Linear search not attempted -- first point.
 Variable       Old X    -DE/DX   Delta X   Delta X   Delta X     New X
                                 (Linear)    (Quad)   (Total)
    r1        1.92317   0.00002   0.00000   0.00004   0.00004   1.92322
    r2        3.18305  -0.00001   0.00000  -0.00003  -0.00003   3.18303
    r3        5.80845   0.00000   0.00000   0.00020   0.00020   5.80865
    a1        1.80438  -0.00000   0.00000  -0.00001  -0.00001   1.80437
    d1        0.00000   0.00000   0.00000   0.00000   0.00000   0.00000
         Item               Value     Threshold  Converged?
 Maximum Force            0.000019     0.000450     YES
 RMS     Force            0.000011     0.000300     YES
 Maximum Displacement     0.000202     0.001800     YES
 RMS     Displacement     0.000093     0.001200     YES
 Predicted change in Energy=-9.959494D-10
 Optimization completed.
    -- Stationary point found.
                       ----------------------------
                       !   Optimized Parameters   !
                       ! (Angstroms and Degrees)  !
 ----------------------                            ----------------------
 !      Name          Value   Derivative information (Atomic Units)     !
 ------------------------------------------------------------------------
 !       r1          1.0177   -DE/DX =    0.0                           !
 !       r2          1.6844   -DE/DX =    0.0                           !
 !       r3          3.0737   -DE/DX =    0.0                           !
 !       a1        103.3831   -DE/DX =    0.0                           !
 !       d1          0.0      -DE/DX =    0.0                           !
 ------------------------------------------------------------------------
 Lowest energy point so far.  Saving SCF results.
 Largest change from initial coordinates is atom    4       0.000 Angstoms.
 GradGradGradGradGradGradGradGradGradGradGradGradGradGradGradGradGradGrad

 Leave Link  103 at Fri Oct 22 16:15:50 2021, MaxMem= 16106127360 cpu:               0.5 elap:               0.0
 (Enter /sw/contrib/gaussian/g16/B01/g16/l202.exe)
 ---------------------------------------------------------------------------------------------------
                            Z-MATRIX (ANGSTROMS AND DEGREES)
   CD    Cent   Atom    N1       Length/X        N2       Alpha/Y        N3        Beta/Z          J
 ---------------------------------------------------------------------------------------------------
      1      1  O 
      2      2  H        1   1.017700(     1)
      3      3  Cl       1   1.684400(     2)      2  103.383(     4)
      4      4  Br       1   3.073700(     3)      3  103.383(     5)      2    0.000(     6)      0
 ---------------------------------------------------------------------------------------------------
                         Z-Matrix orientation:                         
 ---------------------------------------------------------------------
 Center     Atomic      Atomic             Coordinates (Angstroms)
 Number     Number       Type             X           Y           Z
 ---------------------------------------------------------------------
      1          8           0        0.000000    0.000000    0.000000
      2          1           0        0.000000    0.000000    1.017700
      3         17           0        1.638659    0.000000   -0.389873
      4         35           0        0.000000    0.000000    3.073700
 ---------------------------------------------------------------------
                    Distance matrix (angstroms):
                    1          2          3          4
     1  O    0.000000
     2  H    1.017700   0.000000
     3  Cl   1.684400   2.160200   0.000000
     4  Br   3.073700   2.056000   3.831650   0.000000
 Stoichiometry    BrClHO(1-)
 Framework group  CS[SG(BrClHO)]
 Deg. of freedom     5
 Full point group                 CS      NOp   2
 RotChk:  IX=0 Diff= 1.11D-16
 Largest Abelian subgroup         CS      NOp   2
 Largest concise Abelian subgroup C1      NOp   1
                         Standard orientation:                         
 ---------------------------------------------------------------------
 Center     Atomic      Atomic             Coordinates (Angstroms)
 Number     Number       Type             X           Y           Z
 ---------------------------------------------------------------------
      1          8           0        0.582692    1.631982    0.000000
      2          1           0       -0.000000    0.797606    0.000000
      3         17           0        2.149395    1.013399    0.000000
      4         35           0       -1.177178   -0.888035    0.000000
 ---------------------------------------------------------------------
 Rotational constants (GHZ):          22.6284469           1.2813845           1.2127121
 Leave Link  202 at Fri Oct 22 16:15:50 2021, MaxMem= 16106127360 cpu:               0.4 elap:               0.0
 (Enter /sw/contrib/gaussian/g16/B01/g16/l9999.exe)
 1\1\GINC-N2398\POpt\RMP2-FC\Aug-CC-pVTZ\Br1Cl1H1O1(1-)\ABMCCOY\22-Oct-
 2021\1\\#p opt=(z-matrix) mp2/aug-cc-pvtz freq=anh\\title\\-1,1\O\H,1,
 r1\Cl,1,r2,2,a1\Br,1,r3,3,a1,2,d1,0\\r1=1.0177\r2=1.6844\r3=3.0737\a1=
 103.3831\d1=0.\\Version=ES64L-G16RevB.01\State=1-A'\HF=-3107.4784197\M
 P2=-3108.1827664\RMSD=4.840e-09\RMSF=6.012e-04\Dipole=0.5987015,0.,-0.
 9633681\PG=CS [SG(Br1Cl1H1O1)]\\@


 THE MORE POWERFUL THE METHOD, THE MORE CATASTROPHIC THE ERRORS.
     -- M.D. KAMEN
 Leave Link 9999 at Fri Oct 22 16:15:50 2021, MaxMem= 16106127360 cpu:               0.8 elap:               0.1
 Job cpu time:       0 days  0 hours 10 minutes 28.0 seconds.
 Elapsed time:       0 days  0 hours  0 minutes 24.8 seconds.
 File lengths (MBytes):  RWF=     15 Int=      0 D2E=      0 Chk=      8 Scr=      1
 Normal termination of Gaussian 16 at Fri Oct 22 16:15:50 2021.
 (Enter /sw/contrib/gaussian/g16/B01/g16/l1.exe)
 Link1:  Proceeding to internal job step number  2.
 ----------------------------------------------------------------------
 #P Geom=AllCheck Guess=TCheck SCRF=Check GenChk RMP2(FC)/Aug-CC-pVTZ F
 req
 ----------------------------------------------------------------------
 1/10=4,29=7,30=1,38=21,40=1,80=1/1,6,3;
 2/12=2,40=1/2;
 3/5=16,6=1,7=10,11=1,14=-4,25=1,30=1,70=2,71=2,116=1,140=1/1,2,3;
 4/5=101,69=2/1;
 5/5=2,38=6,98=1/2;
 8/6=3,8=1,10=1,19=11,30=-1/1;
 9/15=3,16=-3/6;
 11/6=1,8=1,15=11,17=12,24=-1,27=1,28=-2,29=300,32=6,42=3/1,2,10;
 10/6=2,21=1,60=-2/2;
 8/6=4,8=1,10=1,19=11,30=-1/11,4;
 10/5=1,20=4,60=-2/2;
 11/12=2,14=11,16=1,17=2,28=-2,42=3,76=2/2,10,12;
 6/7=2,8=2,9=2,10=2,22=-1/1;
 7/10=1,12=2,25=1,44=2,71=2/1,2,3,16;
 1/38=20,80=1/6(3);
 7/8=1,25=202,44=-1,71=1,92=10/16,17;
 1/10=4,30=1,38=20,80=1/3;
 99//99;
 3/5=16,6=1,7=10,11=1,14=-2,25=1,30=1,70=5,71=2,116=1,140=1/1,2,3;
 4/5=5,16=3,69=2/1;
 5/5=2,38=5,98=1/2;
 8/6=3,8=1,10=1,19=11,30=-1/1;
 9/15=3,16=-3/6;
 11/6=1,8=1,15=11,17=12,24=-1,27=1,28=-2,29=300,32=6,42=3/1,2,10;
 10/6=2,21=1,60=-2/2;
 8/6=4,8=1,10=1,19=11,30=-1/11,4;
 10/5=1,20=4,60=-2/2;
 11/12=2,14=11,16=1,17=2,28=-2,42=3,76=2/2,10,12;
 6/7=2,8=2,9=2,10=2,22=-1/1;
 7/7=1,10=1,12=2,25=1,44=2,71=1/1,2,3,16;
 1/38=20,80=1/6(-12);
 7/8=1,25=202,44=-1,71=1,92=10/16,17;
 1/10=4,30=1,38=20,80=1/3;
 99//99;
 Leave Link    1 at Fri Oct 22 16:15:51 2021, MaxMem= 16106127360 cpu:               0.7 elap:               0.0
 (Enter /sw/contrib/gaussian/g16/B01/g16/l101.exe)
 Structure from the checkpoint file:  "/gscratch/ilahie/mccoygrp/hocl/2nd_basis/br_hocl_pp_eq.chk"
 -----
 title
 -----
 Charge = -1 Multiplicity = 1
 Z-Matrix found in chk file.
 O
 H,1,r1
 Cl,1,r2,2,a1
 Br,1,r3,3,a1,2,d1,0
      Variables:
 r1=1.0177
 r2=1.6844
 r3=3.0737
 a1=103.3831
      Constants:
 d1=0.
 Recover connectivity data from disk.
 ITRead=  0  0  0  0
 MicOpt= -1 -1 -1 -1
 NAtoms=      4 NQM=        4 NQMF=       0 NMMI=      0 NMMIF=      0
                NMic=       0 NMicF=      0.
                    Isotopes and Nuclear Properties:
 (Nuclear quadrupole moments (NQMom) in fm**2, nuclear magnetic moments (NMagM)
  in nuclear magnetons)

  Atom         1           2           3           4
 IAtWgt=          16           1          35          79
 AtmWgt=  15.9949146   1.0078250  34.9688527  78.9183361
 NucSpn=           0           1           3           3
 AtZEff=   5.6000000   1.0000000  14.2400000  24.5000000
 NQMom=    0.0000000   0.0000000  -8.1650000  31.3000000
 NMagM=    0.0000000   2.7928460   0.8218740   2.1063990
 AtZNuc=   8.0000000   1.0000000  17.0000000  35.0000000
 Leave Link  101 at Fri Oct 22 16:15:51 2021, MaxMem= 16106127360 cpu:               7.6 elap:               0.3
 (Enter /sw/contrib/gaussian/g16/B01/g16/l106.exe)
 Numerical evaluation of third derivatives.
 Nuclear step= 0.010000 Angstroms, electric field step= 0.000333 atomic units, NStep=1.
 Leave Link  106 at Fri Oct 22 16:15:51 2021, MaxMem= 16106127360 cpu:               1.3 elap:               0.1
 (Enter /sw/contrib/gaussian/g16/B01/g16/l103.exe)

 GradGradGradGradGradGradGradGradGradGradGradGradGradGradGradGradGradGrad
 Berny optimization.
 Initialization pass.
                       ----------------------------
                       !    Initial Parameters    !
                       ! (Angstroms and Degrees)  !
 ----------------------                            ----------------------
 !      Name          Value   Derivative information (Atomic Units)     !
 ------------------------------------------------------------------------
 !       r1          1.0177   calculate D2E/DX2 analytically            !
 !       r2          1.6844   calculate D2E/DX2 analytically            !
 !       r3          3.0737   calculate D2E/DX2 analytically            !
 !       a1        103.3831   calculate D2E/DX2 analytically            !
 !       d1          0.0      frozen, calculate D2E/DX2 analytically    !
 ------------------------------------------------------------------------
 Trust Radius=3.00D-01 FncErr=1.00D-07 GrdErr=1.00D-07 EigMax=2.50D+02 EigMin=1.00D-04
 Number of steps in this run=      2 maximum allowed number of steps=      2.
 GradGradGradGradGradGradGradGradGradGradGradGradGradGradGradGradGradGrad

 Leave Link  103 at Fri Oct 22 16:15:51 2021, MaxMem= 16106127360 cpu:               1.5 elap:               0.1
 (Enter /sw/contrib/gaussian/g16/B01/g16/l202.exe)
                          Input orientation:                          
 ---------------------------------------------------------------------
 Center     Atomic      Atomic             Coordinates (Angstroms)
 Number     Number       Type             X           Y           Z
 ---------------------------------------------------------------------
      1          8           0        0.000000    0.000000    0.000000
      2          1           0        0.000000    0.000000    1.017700
      3         17           0        1.638659    0.000000   -0.389873
      4         35           0        0.000000    0.000000    3.073700
 ---------------------------------------------------------------------
                    Distance matrix (angstroms):
                    1          2          3          4
     1  O    0.000000
     2  H    1.017700   0.000000
     3  Cl   1.684400   2.160200   0.000000
     4  Br   3.073700   2.056000   3.831650   0.000000
 Stoichiometry    BrClHO(1-)
 Framework group  CS[SG(BrClHO)]
 Deg. of freedom     5
 Full point group                 CS      NOp   2
 RotChk:  IX=0 Diff= 1.69D-16
 Largest Abelian subgroup         CS      NOp   2
 Largest concise Abelian subgroup C1      NOp   1
                         Standard orientation:                         
 ---------------------------------------------------------------------
 Center     Atomic      Atomic             Coordinates (Angstroms)
 Number     Number       Type             X           Y           Z
 ---------------------------------------------------------------------
      1          8           0        0.582692    1.631982    0.000000
      2          1           0        0.000000    0.797606    0.000000
      3         17           0        2.149395    1.013399    0.000000
      4         35           0       -1.177178   -0.888035    0.000000
 ---------------------------------------------------------------------
 Rotational constants (GHZ):          22.6284469           1.2813845           1.2127121
 Leave Link  202 at Fri Oct 22 16:15:51 2021, MaxMem= 16106127360 cpu:               0.6 elap:               0.0
 (Enter /sw/contrib/gaussian/g16/B01/g16/l301.exe)
 Standard basis: Aug-CC-pVTZ (5D, 7F)
 Ernie: Thresh=  0.10000D-02 Tol=  0.10000D-05 Strict=F.
 Ernie:  48 primitive shells out of 228 were deleted.
 There are   142 symmetry adapted cartesian basis functions of A'  symmetry.
 There are    66 symmetry adapted cartesian basis functions of A"  symmetry.
 There are   118 symmetry adapted basis functions of A'  symmetry.
 There are    60 symmetry adapted basis functions of A"  symmetry.
   178 basis functions,   430 primitive gaussians,   208 cartesian basis functions
    31 alpha electrons       31 beta electrons
       nuclear repulsion energy       190.4380638188 Hartrees.
 IExCor=    0 DFT=F Ex=HF Corr=None ExCW=0 ScaHFX=  1.000000
 ScaDFX=  1.000000  1.000000  1.000000  1.000000 ScalE2=  1.000000  1.000000
 IRadAn=      5 IRanWt=     -1 IRanGd=            0 ICorTp=0 IEmpDi=  4
 NAtoms=    4 NActive=    4 NUniq=    4 SFac= 1.00D+00 NAtFMM=   60 NAOKFM=F Big=F
 Integral buffers will be    131072 words long.
 Raffenetti 1 integral format.
 Two-electron integral symmetry is turned on.
 Leave Link  301 at Fri Oct 22 16:15:51 2021, MaxMem= 16106127360 cpu:               2.3 elap:               0.1
 (Enter /sw/contrib/gaussian/g16/B01/g16/l302.exe)
 NPDir=0 NMtPBC=     1 NCelOv=     1 NCel=       1 NClECP=     1 NCelD=      1
         NCelK=      1 NCelE2=     1 NClLst=     1 CellRange=     0.0.
 One-electron integrals computed using PRISM.
 One-electron integral symmetry used in STVInt
 NBasis=   178 RedAO= T EigKep=  2.39D-04  NBF=   118    60
 NBsUse=   178 1.00D-06 EigRej= -1.00D+00 NBFU=   118    60
 Leave Link  302 at Fri Oct 22 16:15:51 2021, MaxMem= 16106127360 cpu:               3.8 elap:               0.2
 (Enter /sw/contrib/gaussian/g16/B01/g16/l303.exe)
 DipDrv:  MaxL=1.
 Leave Link  303 at Fri Oct 22 16:15:52 2021, MaxMem= 16106127360 cpu:               2.6 elap:               0.1
 (Enter /sw/contrib/gaussian/g16/B01/g16/l401.exe)
 Initial guess from the checkpoint file:  "/gscratch/ilahie/mccoygrp/hocl/2nd_basis/br_hocl_pp_eq.chk"
 B after Tr=     0.000000    0.000000   -0.000000
         Rot=    1.000000   -0.000000   -0.000000   -0.000000 Ang=   0.00 deg.
 Guess basis will be translated and rotated to current coordinates.
 JPrj=2 DoOrth=T DoCkMO=T.
 Initial guess orbital symmetries:
       Occupied  (A') (A') (A') (A') (A") (A') (A') (A') (A') (A')
                 (A') (A") (A') (A") (A') (A') (A") (A') (A") (A')
                 (A') (A') (A') (A') (A") (A') (A') (A") (A') (A")
                 (A')
       Virtual   (A') (A') (A') (A") (A') (A') (A") (A') (A') (A")
                 (A') (A') (A') (A') (A") (A") (A') (A') (A') (A')
                 (A") (A") (A') (A') (A') (A") (A') (A') (A') (A")
                 (A') (A") (A') (A') (A") (A') (A') (A") (A") (A')
                 (A") (A') (A') (A') (A") (A') (A") (A') (A') (A')
                 (A") (A') (A") (A') (A') (A") (A") (A') (A') (A")
                 (A') (A") (A') (A') (A') (A') (A') (A") (A") (A')
                 (A") (A') (A') (A") (A') (A') (A') (A") (A") (A')
                 (A') (A') (A") (A') (A") (A') (A") (A") (A') (A')
                 (A') (A') (A") (A') (A") (A') (A") (A') (A") (A')
                 (A") (A') (A') (A') (A") (A') (A") (A') (A") (A')
                 (A') (A") (A') (A') (A") (A') (A') (A") (A') (A')
                 (A') (A") (A") (A') (A") (A') (A') (A') (A') (A')
                 (A") (A') (A') (A') (A") (A') (A") (A') (A") (A')
                 (A") (A') (A") (A') (A') (A') (A')
 The electronic state of the initial guess is 1-A'.
 Leave Link  401 at Fri Oct 22 16:15:52 2021, MaxMem= 16106127360 cpu:               3.6 elap:               0.2
 (Enter /sw/contrib/gaussian/g16/B01/g16/l502.exe)
 Keep R1 ints in memory in symmetry-blocked form, NReq=191183261.
 FoFCou: FMM=F IPFlag=           0 FMFlag=           0 FMFlg1=           0
         NFxFlg=           0 DoJE=F BraDBF=F KetDBF=F FulRan=T
         wScrn=  0.000000 ICntrl=       600 IOpCl=  0 I1Cent=           0 NGrid=           0
         NMat0=    1 NMatS0=  15931 NMatT0=    0 NMatD0=    1 NMtDS0=    0 NMtDT0=    0
 Petite list used in FoFCou.
 Closed shell SCF:
 Using DIIS extrapolation, IDIIS=  1040.
 NGot= 16106127360 LenX= 16041757360 LenY= 16041713655
 Requested convergence on RMS density matrix=1.00D-08 within 128 cycles.
 Requested convergence on MAX density matrix=1.00D-06.
 Requested convergence on             energy=1.00D-06.
 No special actions if energy rises.

 Cycle   1  Pass 1  IDiag  1:
 E= -3107.47841970147    
 DIIS: error= 6.62D-09 at cycle   1 NSaved=   1.
 NSaved= 1 IEnMin= 1 EnMin= -3107.47841970147     IErMin= 1 ErrMin= 6.62D-09
 ErrMax= 6.62D-09  0.00D+00 EMaxC= 1.00D-01 BMatC= 6.51D-15 BMatP= 6.51D-15
 IDIUse=1 WtCom= 1.00D+00 WtEn= 0.00D+00
 Coeff-Com:  0.100D+01
 Coeff:      0.100D+01
 Gap=     0.333 Goal=   None    Shift=    0.000
 RMSDP=7.28D-10 MaxDP=1.92D-08              OVMax= 5.36D-08

 SCF Done:  E(RHF) =  -3107.47841970     A.U. after    1 cycles
            NFock=  1  Conv=0.73D-09     -V/T= 2.0000
 KE= 3.107330412576D+03 PE=-7.823401330699D+03 EE= 1.418154434602D+03
 Leave Link  502 at Fri Oct 22 16:15:53 2021, MaxMem= 16106127360 cpu:              41.6 elap:               1.6
 (Enter /sw/contrib/gaussian/g16/B01/g16/l801.exe)
 ExpMin= 2.53D-02 ExpMax= 1.06D+07 ExpMxC= 1.21D+04 IAcc=3 IRadAn=         5 AccDes= 0.00D+00
 HarFok:  IExCor=  205 AccDes= 0.00D+00 IRadAn=         5 IDoV=-2 UseB2=F ITyADJ=14
 ICtDFT= 12500011 ScaDFX=  1.000000  1.000000  1.000000  1.000000
 Largest valence mixing into a core orbital is  4.47D-04
 Largest core mixing into a valence orbital is  1.58D-04
 Range of M.O.s used for correlation:    16   178
 NBasis=   178 NAE=    31 NBE=    31 NFC=    15 NFV=     0
 NROrb=    163 NOA=    16 NOB=    16 NVA=   147 NVB=   147

 **** Warning!!: The largest alpha MO coefficient is  0.20138241D+02

 Leave Link  801 at Fri Oct 22 16:15:54 2021, MaxMem= 16106127360 cpu:               2.7 elap:               0.1
 (Enter /sw/contrib/gaussian/g16/B01/g16/l906.exe)
 Frozen-core derivative calculation, NFC=  15 NFV=   0.
 FulOut=F Deriv=T AODrv=T NAtomX=     4
   MMem=           0  MDisk=          16 MDiskD=          16
  W3Min=     1147744 MinDsk=     2284648 NBas6D=         208
 NBas2D=       22240    NTT=       21736    LW2=    22647416
    MDV= 16105596418 MDiskM=      387105 NBas2p=       22161
 Disk-based method using ON**2 memory for 16 occupieds at a time.
 Permanent disk used for amplitudes=    25756164 words.
 Estimated scratch disk usage=   257294638 words.
 IMap=   1   2   3   4   5   6   7   8   9  10  11  12  13  14  15  16  17  18  19  20
 IMap=  21  22  23  24  25  26  27  28  29  30  31
 Actual    scratch disk usage=   254941486 words.
 JobTyp=1 Pass  1:  I=  16 to  31 NPSUse= 28 ParTrn=T ParDer=T DoDerP=T.
 (rs|ai) integrals will be sorted in core.
 Spin components of T(2) and E(2):
     alpha-alpha T2 =       0.3036594824D-01 E2=     -0.9427827908D-01
     alpha-beta  T2 =       0.1615446532D+00 E2=     -0.5157901530D+00
     beta-beta   T2 =       0.3036594824D-01 E2=     -0.9427827908D-01
 The integrals were generated   1 times.
 ANorm=    0.1105566167D+01
 E2 =    -0.7043467111D+00 EUMP2 =    -0.31081827664126D+04
 Leave Link  906 at Fri Oct 22 16:17:53 2021, MaxMem= 16106127360 cpu:            3348.8 elap:             119.9
 (Enter /sw/contrib/gaussian/g16/B01/g16/l1101.exe)
 Using compressed Sx but separate Hx and Fx, NAtomX=     4.
 Will process      5 centers per pass.
 Leave Link 1101 at Fri Oct 22 16:17:54 2021, MaxMem= 16106127360 cpu:               5.3 elap:               0.3
 (Enter /sw/contrib/gaussian/g16/B01/g16/l1102.exe)
 Leave Link 1102 at Fri Oct 22 16:17:54 2021, MaxMem= 16106127360 cpu:               1.1 elap:               0.1
 (Enter /sw/contrib/gaussian/g16/B01/g16/l1110.exe)
 Forming Gx(P) for the SCF density, NAtomX=     4.
 Integral derivatives from FoFJK, PRISM(SPDF).
 Do as many integral derivatives as possible in FoFJK.
 G2DrvN: MDV=   16106126920.
 G2DrvN: will do     5 centers at a time, making    1 passes.
 Calling FoFCou, ICntrl=  3107 FMM=F I1Cent=   0 AccDes= 0.00D+00.
 FoFJK:  IHMeth= 1 ICntrl=    3107 DoSepK=F KAlg= 0 I1Cent=           0 FoldK=F
 IRaf=         0 NMat=       1 IRICut=       1 DoRegI=T DoRafI=F ISym2E= 1 IDoP0=0 IntGTp=1.
 FoFCou: FMM=F IPFlag=           0 FMFlag=      100000 FMFlg1=           0
         NFxFlg=           0 DoJE=F BraDBF=F KetDBF=F FulRan=T
         wScrn=  0.000000 ICntrl=      3107 IOpCl=  0 I1Cent=           0 NGrid=           0
         NMat0=    1 NMatS0=      1 NMatT0=    0 NMatD0=    1 NMtDS0=    0 NMtDT0=    0
 Petite list used in FoFCou.
 End of G2Drv F.D. properties file   721 does not exist.
 End of G2Drv F.D. properties file   722 does not exist.
 End of G2Drv F.D. properties file   788 does not exist.
 Leave Link 1110 at Fri Oct 22 16:17:56 2021, MaxMem= 16106127360 cpu:              66.6 elap:               2.4
 (Enter /sw/contrib/gaussian/g16/B01/g16/l1002.exe)
 Minotr:  Closed shell wavefunction.
          IDoAtm=1111
          Frozen-core window.
          Direct CPHF calculation.
          Differentiating once with respect to electric field.
                with respect to dipole field.
          Differentiating once with respect to nuclear coordinates.
          Requested convergence is 1.0D-08 RMS, and 1.0D-07 maximum.
          Secondary convergence is 1.0D-12 RMS, and 1.0D-12 maximum.
          NewPWx=T KeepS1=T KeepF1=T KeepIn=T MapXYZ=F SortEE=F KeepMc=T.
 Keep R1 ints in memory in symmetry-blocked form, NReq=191184324.
 FoFCou: FMM=F IPFlag=           0 FMFlag=           0 FMFlg1=           0
         NFxFlg=           0 DoJE=F BraDBF=F KetDBF=F FulRan=T
         wScrn=  0.000000 ICntrl=       600 IOpCl=  0 I1Cent=           0 NGrid=           0
         NMat0=    1 NMatS0=  15931 NMatT0=    0 NMatD0=    1 NMtDS0=    0 NMtDT0=    0
 Petite list used in FoFCou.
          MDV=   16106127360 using IRadAn=       4.
          Solving linear equations simultaneously, MaxMat=       0.
          There are    15 degrees of freedom in the 1st order CPHF.  IDoFFX=6 NUNeed=    15.
     12 vectors produced by pass  0 Test12= 3.04D-14 6.67D-09 XBig12= 2.12D+01 1.43D+00.
 AX will form    12 AO Fock derivatives at one time.
     12 vectors produced by pass  1 Test12= 3.04D-14 6.67D-09 XBig12= 1.57D+00 3.25D-01.
     12 vectors produced by pass  2 Test12= 3.04D-14 6.67D-09 XBig12= 7.39D-02 6.00D-02.
     12 vectors produced by pass  3 Test12= 3.04D-14 6.67D-09 XBig12= 2.28D-03 8.06D-03.
     12 vectors produced by pass  4 Test12= 3.04D-14 6.67D-09 XBig12= 2.86D-05 1.38D-03.
     12 vectors produced by pass  5 Test12= 3.04D-14 6.67D-09 XBig12= 4.09D-07 1.17D-04.
     12 vectors produced by pass  6 Test12= 3.04D-14 6.67D-09 XBig12= 5.09D-09 1.56D-05.
      9 vectors produced by pass  7 Test12= 3.04D-14 6.67D-09 XBig12= 8.32D-11 2.06D-06.
      4 vectors produced by pass  8 Test12= 3.04D-14 6.67D-09 XBig12= 8.34D-13 1.48D-07.
      3 vectors produced by pass  9 Test12= 3.04D-14 6.67D-09 XBig12= 9.44D-15 1.54D-08.
 InvSVY:  IOpt=1 It=  1 EMax= 8.88D-16
 Solved reduced A of dimension   100 with    12 vectors.
 FullF1:  Do perturbations      1 to      15.
 Saving first derivative matrices.
 End of Minotr F.D. properties file   721 does not exist.
 End of Minotr F.D. properties file   722 does not exist.
 End of Minotr F.D. properties file   788 does not exist.
 Leave Link 1002 at Fri Oct 22 16:17:59 2021, MaxMem= 16106127360 cpu:              63.3 elap:               2.3
 (Enter /sw/contrib/gaussian/g16/B01/g16/l811.exe)
 MDV= 16106127360.
 Form MO integral derivatives with frozen-active canonical formalism.
 MOERI=1 MOERIx=1 NAtoms=     4 NAtomX=     4.
 Discarding MO integrals.
 MO basis two electron integral derivatives will not be stored on disk.
 IAlg= 3 DoFC=T DoPWx=T Debug=F.
 Frozen-core window:  NFC=  15 NFV=   0.
 Reordered first order wavefunction length =     41532498
 In DefCFB: NBatch=  1 ICI= 31 ICA=147 LFMax= 74
            Large arrays: LIAPS=   674873472 LIARS=   457814448 words.
 In StABat: MaxSiz= 69 MinSiz= 25 NAtomB=  4
 DoIAMN: NPSUse= 28.
 Leave Link  811 at Fri Oct 22 16:19:19 2021, MaxMem= 16106127360 cpu:            2223.3 elap:              79.7
 (Enter /sw/contrib/gaussian/g16/B01/g16/l804.exe)
 Frozen-core window:  NFC=  15 NFV=   0.
 Closed-shell transformation, MDV= 16106127360 ITran=4 ISComp=1.
 Semi-Direct transformation.
 ModeAB=           2 MOrb=            31 LenV=   16105092984
 LASXX=     76884681 LTotXX=    76884681 LenRXX=    76884681
 LTotAB=    78239071 MaxLAS=   119939248 LenRXY=   119939248
 NonZer=   153769362 LenScr=   231559168 LnRSAI=           0
 LnScr1=           0 LExtra=           0 Total=    428383097
 MaxDsk=          -1 SrtSym=           F ITran=            4
 DoSDTr:  NPSUse= 28
 JobTyp=0 Pass  1:  I=   1 to  31.
 (rs|ai) integrals will be sorted in core.
 Complete sort for first half transformation.
 First half transformation complete.
 Begin second half transformation for I=  10.
 Begin second half transformation for I=  20.
 Begin second half transformation for I=  30.
 Begin second half transformation for I=  10.
 Begin second half transformation for I=  20.
 Begin second half transformation for I=  30.
 Complete sort for second half transformation.
 Second half transformation complete.
 Spin components of T(2) and E(2):
     alpha-alpha T2 =       0.3036594824D-01 E2=     -0.9427827908D-01
     alpha-beta  T2 =       0.1615446532D+00 E2=     -0.5157901530D+00
     beta-beta   T2 =       0.3036594824D-01 E2=     -0.9427827908D-01
 ANorm=    0.1563506668D+01
 E2 =    -0.7043467111D+00 EUMP2 =    -0.31081827664126D+04
 Leave Link  804 at Fri Oct 22 16:19:35 2021, MaxMem= 16106127360 cpu:             447.5 elap:              16.1
 (Enter /sw/contrib/gaussian/g16/B01/g16/l1002.exe)
 Minotr:  Closed shell wavefunction.
          Computing MP2/KS-MP2 derivatives.
          Using Z-Vector for PSCF gradient.
          Skipping F1 and S1 gradient terms here.
          IDoAtm=1111
          Frozen-core window.
          Using MO integrals in the linear equations.
          Forming densities via direct SCF.
          Differentiating once with respect to electric field.
                with respect to dipole field.
          Differentiating once with respect to nuclear coordinates.
          Using symmetry in CPHF.
          Requested convergence is 1.0D-10 RMS, and 1.0D-09 maximum.
          NewPWx=F KeepS1=T KeepF1=T KeepIn=T MapXYZ=F SortEE=F KeepMc=T.
          MDV=   16106127360 using IRadAn=       5.
          Solving linear equations separately, MaxMat=       0.
          There are     1 degrees of freedom in the 1st order CPHF.  IDoFFX=0 NUNeed=     1.
 FoFJK:  IHMeth= 1 ICntrl=       0 DoSepK=F KAlg= 0 I1Cent=           0 FoldK=F
 IRaf=         0 NMat=       1 IRICut=       1 DoRegI=T DoRafI=F ISym2E= 0 IDoP0=0 IntGTp=1.
 FoFCou: FMM=F IPFlag=           0 FMFlag=      100000 FMFlg1=           0
         NFxFlg=           0 DoJE=F BraDBF=F KetDBF=F FulRan=T
         wScrn=  0.000000 ICntrl=         0 IOpCl=  0 I1Cent=           0 NGrid=           0
         NMat0=    1 NMatS0=      1 NMatT0=    0 NMatD0=    1 NMtDS0=    0 NMtDT0=    0
 Symmetry not used in FoFCou.
 LinEq1:  Iter=  0 NonCon=     1 RMS=2.65D-03 Max=4.58D-02 NDo=     1
 LinEq1:  Iter=  1 NonCon=     1 RMS=4.17D-04 Max=5.02D-03 NDo=     1
 LinEq1:  Iter=  2 NonCon=     1 RMS=1.96D-04 Max=4.08D-03 NDo=     1
 LinEq1:  Iter=  3 NonCon=     1 RMS=6.38D-05 Max=1.05D-03 NDo=     1
 LinEq1:  Iter=  4 NonCon=     1 RMS=2.72D-05 Max=9.13D-04 NDo=     1
 LinEq1:  Iter=  5 NonCon=     1 RMS=9.74D-06 Max=1.62D-04 NDo=     1
 LinEq1:  Iter=  6 NonCon=     1 RMS=2.03D-06 Max=2.43D-05 NDo=     1
 LinEq1:  Iter=  7 NonCon=     1 RMS=4.95D-07 Max=8.66D-06 NDo=     1
 LinEq1:  Iter=  8 NonCon=     1 RMS=1.38D-07 Max=2.20D-06 NDo=     1
 LinEq1:  Iter=  9 NonCon=     1 RMS=3.36D-08 Max=8.31D-07 NDo=     1
 LinEq1:  Iter= 10 NonCon=     1 RMS=9.53D-09 Max=2.46D-07 NDo=     1
 LinEq1:  Iter= 11 NonCon=     1 RMS=2.38D-09 Max=3.98D-08 NDo=     1
 LinEq1:  Iter= 12 NonCon=     1 RMS=4.56D-10 Max=6.75D-09 NDo=     1
 LinEq1:  Iter= 13 NonCon=     1 RMS=1.27D-10 Max=1.73D-09 NDo=     1
 LinEq1:  Iter= 14 NonCon=     0 RMS=2.77D-11 Max=4.07D-10 NDo=     1
 Linear equations converged to 1.000D-10 1.000D-09 after    14 iterations.
 End of Minotr F.D. properties file   721 does not exist.
 End of Minotr F.D. properties file   722 does not exist.
 End of Minotr F.D. properties file   788 does not exist.
 Leave Link 1002 at Fri Oct 22 16:19:39 2021, MaxMem= 16106127360 cpu:             115.3 elap:               4.2
 (Enter /sw/contrib/gaussian/g16/B01/g16/l1102.exe)
 Use density number 2.
 Symmetrizing basis deriv contribution to polar:
 IMax=3 JMax=2 DiffMx= 0.00D+00
 Leave Link 1102 at Fri Oct 22 16:19:39 2021, MaxMem= 16106127360 cpu:               1.0 elap:               0.1
 (Enter /sw/contrib/gaussian/g16/B01/g16/l1110.exe)
 Forming Gx(P) for generalized density number  2 NAtomX=     4.
 Integral derivatives from FoFJK, PRISM(SPDF).
 Do as many integral derivatives as possible in FoFJK.
 G2DrvN: MDV=   16106126920.
 G2DrvN: will do     5 centers at a time, making    1 passes.
 Calling FoFCou, ICntrl=  3107 FMM=F I1Cent=   0 AccDes= 0.00D+00.
 FoFJK:  IHMeth= 1 ICntrl=    3107 DoSepK=F KAlg= 0 I1Cent=           0 FoldK=F
 IRaf=         0 NMat=       1 IRICut=       1 DoRegI=T DoRafI=F ISym2E= 1 IDoP0=0 IntGTp=1.
 FoFCou: FMM=F IPFlag=           0 FMFlag=      100000 FMFlg1=           0
         NFxFlg=           0 DoJE=F BraDBF=F KetDBF=F FulRan=T
         wScrn=  0.000000 ICntrl=      3107 IOpCl=  0 I1Cent=           0 NGrid=           0
         NMat0=    1 NMatS0=      1 NMatT0=    0 NMatD0=    1 NMtDS0=    0 NMtDT0=    0
 Petite list used in FoFCou.
 End of G2Drv F.D. properties file   721 does not exist.
 End of G2Drv F.D. properties file   722 does not exist.
 End of G2Drv F.D. properties file   788 does not exist.
 Leave Link 1110 at Fri Oct 22 16:19:42 2021, MaxMem= 16106127360 cpu:              66.2 elap:               2.4
 (Enter /sw/contrib/gaussian/g16/B01/g16/l1112.exe)
 MP22nd: MDV=   16106127360
 This link is doing NAtomX=     4 total of    15 degrees of freedom.
 Using ON3 I/O method in MakUI.
 Frozen-core window:  NFC=  15 NFV=   0.
 Using Ix for Sx.
 Use MO integrals over full window.
 Using OV2 memory method for fx*t*t/D, MaxI=    31 DoOO2=F NP=  28.
 R2 and R3 integrals will be kept in memory, NReq=   477039992.
 FoFCou: FMM=F IPFlag=           0 FMFlag=           0 FMFlg1=           0
         NFxFlg=           0 DoJE=F BraDBF=F KetDBF=F FulRan=T
         wScrn=  0.000000 ICntrl=       600 IOpCl=  0 I1Cent=           0 NGrid=           0
         NMat0=    1 NMatS0=      1 NMatT0=    0 NMatD0=    1 NMtDS0=    0 NMtDT0=    0
 Symmetry not used in FoFCou.
 DD1Dir will call FoFMem   1 times, MxPair=       992
 NAB=   496 NAA=     0 NBB=     0.
 Symmetry is being used.
 FoFJK:  IHMeth= 1 ICntrl=       0 DoSepK=F KAlg= 0 I1Cent=           0 FoldK=F
 IRaf=         0 NMat=      15 IRICut=      37 DoRegI=T DoRafI=T ISym2E= 2 IDoP0=3 IntGTp=3.
 Discarding MO integrals.
 Leave Link 1112 at Fri Oct 22 16:20:24 2021, MaxMem= 16106127360 cpu:            1156.2 elap:              41.7
 (Enter /sw/contrib/gaussian/g16/B01/g16/l601.exe)
 Copying SCF densities to generalized density rwf, IOpCl= 0 IROHF=0.

 **********************************************************************

            Population analysis using the MP2 Density.

 **********************************************************************

 Orbital symmetries:
       Occupied  (A') (A') (A') (A') (A") (A') (A') (A') (A') (A')
                 (A') (A") (A') (A") (A') (A') (A") (A') (A") (A')
                 (A') (A') (A') (A') (A") (A') (A') (A") (A') (A")
                 (A')
       Virtual   (A') (A') (A') (A") (A') (A') (A") (A') (A') (A")
                 (A') (A') (A') (A') (A") (A") (A') (A') (A') (A')
                 (A") (A") (A') (A') (A') (A") (A') (A') (A') (A")
                 (A') (A") (A') (A') (A") (A') (A') (A") (A") (A')
                 (A") (A') (A') (A') (A") (A') (A") (A') (A') (A')
                 (A") (A') (A") (A') (A') (A") (A") (A') (A') (A")
                 (A') (A") (A') (A') (A') (A') (A') (A") (A") (A')
                 (A") (A') (A') (A") (A') (A') (A') (A") (A") (A')
                 (A') (A') (A") (A') (A") (A') (A") (A") (A') (A')
                 (A') (A') (A") (A') (A") (A') (A") (A') (A") (A')
                 (A") (A') (A') (A') (A") (A') (A") (A') (A") (A')
                 (A') (A") (A') (A') (A") (A') (A') (A") (A') (A')
                 (A') (A") (A") (A') (A") (A') (A') (A') (A') (A')
                 (A") (A') (A') (A') (A") (A') (A") (A') (A") (A')
                 (A") (A') (A") (A') (A') (A') (A')
 The electronic state is 1-A'.
 Alpha  occ. eigenvalues -- -489.75651-104.73059 -64.89688 -58.25139 -58.25134
 Alpha  occ. eigenvalues --  -58.25133 -20.46062 -10.45009  -9.56943  -7.91725
 Alpha  occ. eigenvalues --   -7.91462  -7.91452  -7.17726  -7.17668  -7.17666
 Alpha  occ. eigenvalues --   -2.91897  -2.91869  -2.91867  -2.91803  -2.91803
 Alpha  occ. eigenvalues --   -1.22717  -0.89451  -0.73230  -0.53755  -0.44118
 Alpha  occ. eigenvalues --   -0.43302  -0.30733  -0.27986  -0.18681  -0.17688
 Alpha  occ. eigenvalues --   -0.17682
 Alpha virt. eigenvalues --    0.15621   0.18126   0.21571   0.22801   0.24122
 Alpha virt. eigenvalues --    0.24629   0.25008   0.28727   0.30364   0.31822
 Alpha virt. eigenvalues --    0.32361   0.32491   0.35886   0.43610   0.43707
 Alpha virt. eigenvalues --    0.46923   0.48192   0.48581   0.50238   0.54236
 Alpha virt. eigenvalues --    0.54277   0.57091   0.59365   0.60134   0.60397
 Alpha virt. eigenvalues --    0.60908   0.65639   0.69976   0.73747   0.74480
 Alpha virt. eigenvalues --    0.75325   0.77673   0.78766   0.84688   0.89037
 Alpha virt. eigenvalues --    0.89655   0.92008   0.94392   0.99836   0.99887
 Alpha virt. eigenvalues --    1.00345   1.00861   1.01867   1.03255   1.06853
 Alpha virt. eigenvalues --    1.08164   1.09379   1.10325   1.11069   1.13333
 Alpha virt. eigenvalues --    1.15314   1.17673   1.18181   1.20875   1.22165
 Alpha virt. eigenvalues --    1.24111   1.28393   1.29505   1.33329   1.33540
 Alpha virt. eigenvalues --    1.37464   1.38885   1.47604   1.50605   1.51958
 Alpha virt. eigenvalues --    1.56915   1.59063   1.63312   1.66697   1.70124
 Alpha virt. eigenvalues --    1.70630   1.77155   1.79088   1.79934   1.89906
 Alpha virt. eigenvalues --    1.97542   2.15202   2.37837   2.41050   2.41733
 Alpha virt. eigenvalues --    2.42250   2.46612   2.50275   2.50598   2.52789
 Alpha virt. eigenvalues --    2.53516   2.54934   2.55086   2.55328   2.56251
 Alpha virt. eigenvalues --    2.58233   2.60220   2.63173   2.64743   2.65852
 Alpha virt. eigenvalues --    2.68022   2.68113   2.70064   2.72014   2.72611
 Alpha virt. eigenvalues --    2.73980   2.75710   2.78310   2.80836   2.81045
 Alpha virt. eigenvalues --    2.88355   3.03279   3.07456   3.09693   3.17739
 Alpha virt. eigenvalues --    3.20102   3.21753   3.25676   3.29134   3.31218
 Alpha virt. eigenvalues --    3.34010   3.53124   3.54843   3.57385   3.93463
 Alpha virt. eigenvalues --    4.18742   4.30654   4.44964   4.53629   4.58985
 Alpha virt. eigenvalues --    4.77673   4.97081   5.03356   5.25309   5.33138
 Alpha virt. eigenvalues --    5.37044   5.65896   6.43318   6.59513   6.84921
 Alpha virt. eigenvalues --    6.90290   6.91672   6.99922   7.27106   7.33095
 Alpha virt. eigenvalues --    7.34683   7.45106   7.55654   7.74312   7.81813
 Alpha virt. eigenvalues --    8.35150  14.56622
          Condensed to atoms (all electrons):
               1          2          3          4
     1  O    8.670556   0.032698  -0.115112  -0.093935
     2  H    0.032698   0.639290  -0.006900   0.042824
     3  Cl  -0.115112  -0.006900  17.069659   0.004262
     4  Br  -0.093935   0.042824   0.004262  35.892821
 Mulliken charges:
               1
     1  O   -0.494207
     2  H    0.292088
     3  Cl   0.048091
     4  Br  -0.845972
 Sum of Mulliken charges =  -1.00000
 Mulliken charges with hydrogens summed into heavy atoms:
               1
     1  O   -0.202119
     3  Cl   0.048091
     4  Br  -0.845972
 APT charges:
               1
     1  O   -0.646687
     2  H    0.576846
     3  Cl  -0.004722
     4  Br  -0.925437
 Sum of APT charges =  -1.00000
 APT charges with hydrogens summed into heavy atoms:
               1
     1  O   -0.069841
     3  Cl  -0.004722
     4  Br  -0.925437
 Electronic spatial extent (au):  <R**2>=            809.9456
 Charge=             -1.0000 electrons
 Dipole moment (field-independent basis, Debye):
    X=              2.6496    Y=              1.1363    Z=              0.0000  Tot=              2.8830
 Quadrupole moment (field-independent basis, Debye-Ang):
   XX=            -50.7392   YY=            -50.4225   ZZ=            -43.1709
   XY=             -7.3543   XZ=              0.0000   YZ=              0.0000
 Traceless Quadrupole moment (field-independent basis, Debye-Ang):
   XX=             -2.6283   YY=             -2.3116   ZZ=              4.9400
   XY=             -7.3543   XZ=              0.0000   YZ=              0.0000
 Octapole moment (field-independent basis, Debye-Ang**2):
  XXX=            -10.3994  YYY=            -16.5912  ZZZ=              0.0000  XYY=             -7.2757
  XXY=             -4.0591  XXZ=              0.0000  XZZ=             -5.8000  YZZ=             -3.7477
  YYZ=              0.0000  XYZ=              0.0000
 Hexadecapole moment (field-independent basis, Debye-Ang**3):
 XXXX=           -628.2511 YYYY=           -362.9666 ZZZZ=            -61.8400 XXXY=           -191.2315
 XXXZ=              0.0000 YYYX=           -184.7896 YYYZ=              0.0000 ZZZX=              0.0000
 ZZZY=              0.0000 XXYY=           -173.9060 XXZZ=           -118.5330 YYZZ=            -69.1569
[...]
      6(1)                   777.058    766.714     20.67203973     20.65058821

 Overtones
 ---------
   Mode(n)                  E(harm)   E(anharm)                      I(anharm)
      1(2)                  5763.214   4635.920                     11.16352872
      2(2)                  2843.277   2798.596                    319.17513961
      3(2)                  1555.508   1528.515                      0.22039782
      4(2)                   479.244    469.623                      0.16425437
      5(2)                   171.026    174.001                      0.02945976
      6(2)                  1554.116   1498.034                     95.28339110

 Combination Bands
 -----------------
   Mode(n)     Mode(n)      E(harm)   E(anharm)                      I(anharm)
      2(1)        1(1)      4303.245   3819.412                      0.34078892
      3(1)        1(1)      3659.361   3279.969                      0.87316903
      3(1)        2(1)      2199.392   2139.967                      4.08828993
      4(1)        1(1)      3121.229   2771.927                     71.63106207
      4(1)        2(1)      1661.260   1611.397                      4.05521745
      4(1)        3(1)      1017.376   1005.561                      0.00566441
      5(1)        1(1)      2967.120   2603.271                     59.51342233
      5(1)        2(1)      1507.151   1463.219                      4.33695898
      5(1)        3(1)       863.267    853.618                      0.03585266
      5(1)        4(1)       325.135    323.373                      0.37796923
      6(1)        1(1)      3658.665   3344.273                      0.10484250
      6(1)        2(1)      2198.696   2140.554                      0.04497176
      6(1)        3(1)      1554.812   1533.662                      0.02925437
      6(1)        4(1)      1016.680    995.838                      0.16246317
      6(1)        5(1)       862.571    851.239                      0.01658809

 Units: Transition energies (E) in cm^-1
        Dipole strengths (DS) in 10^-40 esu^2.cm^2

 Fundamental Bands
 -----------------
   Mode(n)                  E(harm)   E(anharm)       DS(harm)      DS(anharm)
      1(1)                  2881.607   2474.226   3486.98116352   3517.06994852
      2(1)                  1421.638   1379.380     24.65657018     24.83221690
      3(1)                   777.754    767.671     45.04291280     47.79962464
      4(1)                   239.622    237.798    344.48133939    413.38245019
      5(1)                    85.513     86.514    136.76042101    129.47814007
      6(1)                   777.058    766.714    106.12980262    107.44994580

 Overtones
 ---------
   Mode(n)                  E(harm)   E(anharm)                     DS(anharm)
      1(2)                  5763.214   4635.920                      9.60667165
      2(2)                  2843.277   2798.596                    454.98406840
      3(2)                  1555.508   1528.515                      0.57523450
      4(2)                   479.244    469.623                      1.39532237
      5(2)                   171.026    174.001                      0.67543794
      6(2)                  1554.116   1498.034                    253.74814092

 Combination Bands
 -----------------
   Mode(n)     Mode(n)      E(harm)   E(anharm)                     DS(anharm)
      2(1)        1(1)      4303.245   3819.412                      0.35595601
      3(1)        1(1)      3659.361   3279.969                      1.06202821
      3(1)        2(1)      2199.392   2139.967                      7.62152903
      4(1)        1(1)      3121.229   2771.927                    103.09249885
      4(1)        2(1)      1661.260   1611.397                     10.03965908
      4(1)        3(1)      1017.376   1005.561                      0.02247261
      5(1)        1(1)      2967.120   2603.271                     91.20168656
      5(1)        2(1)      1507.151   1463.219                     11.82451929
      5(1)        3(1)       863.267    853.618                      0.16755797
      5(1)        4(1)       325.135    323.373                      4.66293908
      6(1)        1(1)      3658.665   3344.273                      0.12506707
      6(1)        2(1)      2198.696   2140.554                      0.08381487
      6(1)        3(1)      1554.812   1533.662                      0.07609714
      6(1)        4(1)      1016.680    995.838                      0.65083890
      6(1)        5(1)       862.571    851.239                      0.07774136

 Leave Link  717 at Fri Oct 22 17:18:14 2021, MaxMem= 16106127360 cpu:               7.5 elap:               0.3
 (Enter /sw/contrib/gaussian/g16/B01/g16/l103.exe)

 GradGradGradGradGradGradGradGradGradGradGradGradGradGradGradGradGradGrad
 Berny optimization.
 Search for a local minimum.
 Step number   1 out of a maximum of    2
 All quantities printed in internal units (Hartrees-Bohrs-Radians)
 Second derivative matrix not updated -- analytic derivatives used.
 The second derivative matrix:
                          r1        r2        r3        a1        d1
           r1           0.29630
           r2          -0.00379   0.26606
           r3           0.01113  -0.00252   0.03022
           a1           0.00313   0.05088   0.00278   0.18870
           d1           0.00000   0.00000   0.00000   0.00000   0.07923
 ITU=  0
     Eigenvalues ---    0.02966   0.16339   0.29063   0.297591000.00000
 Angle between quadratic step and forces=  48.09 degrees.
 Linear search not attempted -- first point.
 Variable       Old X    -DE/DX   Delta X   Delta X   Delta X     New X
                                 (Linear)    (Quad)   (Total)
    r1        1.92317   0.00002   0.00000   0.00006   0.00006   1.92323
    r2        3.18305  -0.00001   0.00000  -0.00004  -0.00004   3.18302
    r3        5.80845   0.00000   0.00000   0.00012   0.00012   5.80857
    a1        1.80438  -0.00000   0.00000  -0.00000  -0.00000   1.80437
    d1        0.00000   0.00000   0.00000   0.00000   0.00000   0.00000
         Item               Value     Threshold  Converged?
 Maximum Force            0.000019     0.000450     YES
 RMS     Force            0.000011     0.000300     YES
 Maximum Displacement     0.000118     0.001800     YES
 RMS     Displacement     0.000061     0.001200     YES
 Predicted change in Energy=-1.021870D-09
 Optimization completed.
    -- Stationary point found.
                       ----------------------------
                       !   Optimized Parameters   !
                       ! (Angstroms and Degrees)  !
 ----------------------                            ----------------------
 !      Name          Value   Derivative information (Atomic Units)     !
 ------------------------------------------------------------------------
 !       r1          1.0177   -DE/DX =    0.0                           !
 !       r2          1.6844   -DE/DX =    0.0                           !
 !       r3          3.0737   -DE/DX =    0.0                           !
 !       a1        103.3831   -DE/DX =    0.0                           !
 !       d1          0.0      -DE/DX =    0.0                           !
 ------------------------------------------------------------------------
 GradGradGradGradGradGradGradGradGradGradGradGradGradGradGradGradGradGrad

 Leave Link  103 at Fri Oct 22 17:18:14 2021, MaxMem= 16106127360 cpu:               1.8 elap:               0.1
 (Enter /sw/contrib/gaussian/g16/B01/g16/l9999.exe)

 ----------------------------------------------------------------------

 Electric dipole moment (input orientation):
 (Debye = 10**-18 statcoulomb cm , SI units = C m)
                  (au)            (Debye)         (10**-30 SI)
   Tot        0.113425D+01      0.288297D+01      0.961657D+01
   x          0.598702D+00      0.152175D+01      0.507600D+01
   y          0.000000D+00      0.000000D+00      0.000000D+00
   z         -0.963368D+00     -0.244864D+01     -0.816778D+01

 Dipole polarizability, Alpha (input orientation).
 (esu units = cm**3 , SI units = C**2 m**2 J**-1)
 Alpha(0;0):
               (au)            (10**-24 esu)      (10**-40 SI)
   iso        0.620796D+02      0.919925D+01      0.102355D+02
   aniso      0.219420D+02      0.325147D+01      0.361775D+01
   xx         0.610853D+02      0.905190D+01      0.100716D+02
   yx         0.000000D+00      0.000000D+00      0.000000D+00
   yy         0.524607D+02      0.777387D+01      0.864960D+01
   zx        -0.757675D+01     -0.112276D+01     -0.124924D+01
   zy         0.000000D+00      0.000000D+00      0.000000D+00
   zz         0.726929D+02      0.107720D+02      0.119854D+02

 ----------------------------------------------------------------------

 Dipole orientation:
     8          0.00000000         -0.00000000         -0.00000000
     1          1.01512730          0.00000000         -1.63343683
    17          2.24120565          0.00000000          2.26027307
    35          3.06592982          0.00000000         -4.93337406

 Electric dipole moment (dipole orientation):
 (Debye = 10**-18 statcoulomb cm , SI units = C m)
                  (au)            (Debye)         (10**-30 SI)
   Tot        0.113425D+01      0.288297D+01      0.961657D+01
   x          0.000000D+00      0.000000D+00      0.000000D+00
   y          0.000000D+00      0.000000D+00      0.000000D+00
   z          0.113425D+01      0.288297D+01      0.961657D+01

 Dipole polarizability, Alpha (dipole orientation).
 (esu units = cm**3 , SI units = C**2 m**2 J**-1)
 Alpha(0;0):
               (au)            (10**-24 esu)      (10**-40 SI)
   iso        0.620796D+02      0.919925D+01      0.102355D+02
   aniso      0.219420D+02      0.325147D+01      0.361775D+01
   xx         0.575257D+02      0.852443D+01      0.948471D+01
   yx         0.000000D+00      0.000000D+00      0.000000D+00
   yy         0.524607D+02      0.777387D+01      0.864960D+01
   zx        -0.184913D+01     -0.274013D+00     -0.304881D+00
   zy         0.000000D+00      0.000000D+00      0.000000D+00
   zz         0.762524D+02      0.112994D+02      0.125723D+02

 ----------------------------------------------------------------------
 1\1\GINC-N2398\Freq\RMP2-FC\Aug-CC-pVTZ\Br1Cl1H1O1(1-)\ABMCCOY\22-Oct-
 2021\1\\#P Geom=AllCheck Guess=TCheck SCRF=Check GenChk RMP2(FC)/Aug-C
 C-pVTZ Freq\\title\\-1,1\O\H,1,r1\Cl,1,r2,2,a1\Br,1,r3,3,a1,2,d1,0\\r1
 =1.0177\r2=1.6844\r3=3.0737\a1=103.3831\d1=0.\\Version=ES64L-G16RevB.0
 1\State=1-A'\HF=-3107.4784197\MP2=-3108.1827664\RMSD=7.278e-10\RMSF=6.
 012e-04\ZeroPoint=0.0140863\Thermal=0.01836\Dipole=0.5987017,0.,-0.963
 3683\DipoleDeriv=-0.4435135,0.,0.1117781,0.,-0.2831954,0.,0.3291829,0.
 ,-1.2133524,0.0520541,0.,-0.0384568,0.,0.1331653,0.,-0.3586942,0.,1.54
 53194,0.1466069,0.,-0.0810625,0.,-0.0853479,0.,-0.08779,0.,-0.0754248,
 -0.7551475,0.,0.0077412,0.,-0.764622,0.,0.1173013,0.,-1.2565422\Polar=
 61.0852502,0.,52.4606948,-7.5767511,0.,72.6928697\Quadrupole=3.2564357
 ,3.6727346,-6.9291703,0.,1.9933678,0.\PG=CS [SG(Br1Cl1H1O1)]\NImag=0\\
 0.26320268,0.,0.00921250,-0.04029355,0.,0.38716943,-0.04274038,0.,-0.0
 3758526,0.07342319,0.,-0.01438269,0.,0.,0.02241706,0.00475799,0.,-0.30
 735037,-0.00087811,0.,0.29629748,-0.22374819,0.,0.07656509,-0.02346628
 ,0.,-0.00391953,0.24560460,0.,0.00035813,0.,0.,-0.00054032,0.,0.,0.000
 00340,0.03284541,0.,-0.03873676,0.03765284,0.,-0.00007877,-0.06998790,
 0.,0.03908230,0.00328590,0.,0.00131372,-0.00721653,0.,0.00003965,0.001
 60987,0.,-0.00051034,0.00232077,0.,0.00481205,0.,0.,-0.00749405,0.,0.,
 0.00017878,0.,0.,0.00250322,0.00269014,0.,-0.04108230,0.00081054,0.,0.
 01113166,-0.00265766,0.,-0.00026677,-0.00084302,0.,0.03021742\\0.00110
 896,0.,0.00002630,-0.00167312,0.,-0.00001885,0.00001053,0.,-0.00000315
 ,0.00055363,0.,-0.00000430\\0.00403927,0.,0.00113434,-0.00125946,0.,-0
 .00738988,0.00139499,0.,0.01127862,0.00098475,0.,-0.00082839,0.,0.,0.0
 0020150,0.00966909,0.,0.00377108,-0.01081416,0.,-0.00314003,-0.0055989
 0,0.,-0.00837691,-0.00240329,0.,0.00025528,0.00816536,0.,-0.00051612,0
 .,0.,0.00064268,0.,0.,-0.00011526,-0.00886487,0.,0.00560221,-0.0002941
 7,0.,-0.00018898,0.00869702,0.,-0.00534028,0.00016464,0.,-0.00164225,0
 .00002356,0.,0.00088978,-0.00016317,0.,0.00046204,-0.00002507,0.,0.000
 21016,0.,0.,-0.00001579,0.,0.,-0.00001129,0.,0.,-0.00018315,0.00045527
 ,0.,-0.00198333,-0.00017032,0.,-0.00044215,-0.00057540,0.,-0.00007297,
 0.00029045,0.,0.00249844,-0.00360057,0.,-0.00368277,0.00356882,0.,-0.0
 0865522,-0.00078350,0.,-0.01782450,-0.00200219,0.,0.00145498,0.,0.,-0.
 00048077,-0.01762248,0.,0.02805072,0.01681899,0.,-0.02345099,0.0033859
 8,0.,0.01214220,0.00324175,0.,0.00177368,-0.00727780,0.,0.00103812,0.,
 0.,-0.00073116,0.,0.,-0.00039699,0.01442356,0.,-0.00702831,0.00030967,
 0.,-0.00053978,-0.01406444,0.,0.00786487,0.00099809,0.,0.00211348,-0.0
 0045607,0.,-0.00097018,0.00065007,0.,-0.00066879,-0.00119202,0.,0.0011
 8967,0.,0.,-0.00024305,0.,0.,0.00009004,0.,0.,-0.00103658,-0.00036991,
 0.,-0.01236715,0.00069589,0.,-0.00406000,0.00014856,0.,-0.00029678,-0.
 00047454,0.,0.01672399,0.00000002,0.01222887,0.,0.00000002,0.18782642,
 0.,0.,-0.02332464,0.,0.,0.00094529,0.,-0.18368091,0.00681842,0.,0.,-0.
 16119650,0.,0.,0.16931078,0.00000023,0.,0.01118429,0.,0.,-0.00771629,0
 .,0.,-0.01238015,0.,-0.01137661,0.01654668,0.,-0.00034259,-0.00427507,
 0.,0.,-0.01731290,0.,0.,0.00598151,0.,0.,0.01149713,0.,-0.00000002,-0.
 00008852,-0.00000001,0.,-0.00004743,0.,0.,0.00010854,0.,0.,-0.00079401
 ,0.,0.00723110,-0.00004046,0.,-0.00777169,0.00080706,0.,-0.00016573,0.
 00002741,0.00000004,-0.00000001,-0.00931702,0.,0.,0.00838862,-0.000000
 22,0.,0.00022207,0.,0.00000002,0.00070633,0.00000019,0.18449918,0.,-0.
 02195973,-0.07402289,0.,0.01228020,0.00255943,0.,0.01247875,0.00758973
 ,0.,-0.00112295,0.,0.,0.00033043,0.02135790,0.,-0.01389571,-0.02095932
 ,0.,0.01140958,-0.18667171,0.,0.06093619,-0.00988277,0.,-0.00018524,0.
 19642638,0.,0.02317529,0.,0.,0.00091920,0.,0.,-0.02393269,0.04970724,0
 .,0.00060990,0.00962598,0.,0.00026507,-0.05937843,0.,-0.00194067,-0.00
 038689,0.,0.00060794,-0.00026640,0.,-0.00021332,0.00012810,0.,0.000045
 20,0.00052519,0.,-0.00009260,0.,0.,-0.00012668,0.,0.,-0.00016180,0.,0.
 ,0.00038107,0.00295774,0.,0.00100564,-0.00114539,0.,0.00222104,-0.0013
 7253,0.,0.00106570,-0.00043985,0.,-0.00429240,-0.01788114,0.,0.0336573
 2,0.11606345,0.,-0.04134364,0.01463595,0.,-0.13153266,0.01671003,0.,-0
 .02209617,0.,0.,0.00510145,-0.11675364,0.,0.01955868,0.10278435,0.,0.0
 1545933,0.00556441,0.,0.00750444,-0.03241880,0.,0.02375256,0.02590925,
 0.,-0.01119686,0.,0.,0.01695137,0.,0.,-0.00584277,0.01012381,0.,0.0180
 5037,0.02032382,0.,-0.03288663,-0.03103251,0.,0.01362236,-0.00231922,0
 .,0.00796478,0.00107283,0.,-0.00978329,0.00094514,0.,0.00058489,0.0003
 0122,0.,-0.00036429,0.,0.,0.00004335,0.,0.,0.00008826,0.,0.,0.00023266
 ,-0.00943361,0.,0.00373457,0.00842446,0.,-0.00213129,-0.00022448,0.,0.
 00121390,0.00123363,0.,-0.00281726,0.14509364,0.,0.15989515,-0.0088579
 5,0.,-1.40778439,-0.11932491,0.,0.03207895,0.10780470,0.,-0.16410206,0
 .,0.,0.17149389,-0.02162123,0.,1.43378179,0.00204804,0.,-1.46237871,-0
 .02878410,0.,-0.02516229,0.02154931,0.,0.02029560,0.00638568,0.,0.0024
 4007,0.,0.,0.00060115,0.,0.,-0.00302569,0.02351723,0.,0.02153927,-0.03
 187871,0.,-0.00509529,0.00985908,0.,-0.01692333,0.00301537,0.,0.001941
 29,-0.01002909,0.,-0.00072241,0.00084911,0.,-0.00149761,0.00616461,0.,
 0.00176683,0.,0.,-0.00799299,0.,0.,-0.00001553,0.,0.,0.00624167,0.0069
 6194,0.,-0.04753673,-0.00224829,0.,0.03369224,-0.00499239,0.,0.0004793
 6,0.00027873,0.,0.01336513,-0.00465133,0.,0.00071842,0.00222100,0.,-0.
 00203428,-0.00100539,0.,0.00011449,0.00066417,0.,-0.00014254,0.,0.,0.0
 0018427,-0.00037617,0.,0.00250778,0.00042367,0.,-0.00259302,0.00566177
 ,0.,-0.00216305,0.00029567,0.,-0.00004032,-0.00582964,0.,-0.00054151,0
 .,0.,-0.00007246,0.,0.,0.00058526,-0.00188493,0.,-0.00091742,-0.000439
 58,0.,0.00011160,0.00208137,0.,0.00122014,-0.00000425,0.,-0.00017587,0
 .00004365,0.,-0.00000393,-0.00012827,0.,0.00024400,0.00007848,0.,-0.00
 003437,0.,0.,0.00003075,0.,0.,0.00002809,0.,0.,-0.00003117,0.00003643,
 0.,0.00044414,-0.00009359,0.,-0.00002739,0.00012380,0.,-0.00041545,-0.
 00006775,0.,-0.00001163,-0.01140323,0.,0.00046253,0.00163810,0.,-0.004
 40729,-0.00142407,0.,0.00170729,0.00006843,0.,0.00040739,0.,0.,-0.0009
 0194,0.00135256,0.,0.00913739,-0.00137513,0.,-0.00626356,0.01240074,0.
 ,-0.00454304,0.00079506,0.,-0.00004539,-0.01322639,0.,-0.00118031,0.,0
 .,-0.00015191,0.,0.,0.00126970,-0.00276438,0.,-0.00145606,-0.00134905,
 0.,0.00048715,0.00419997,0.,0.00172226,0.00042648,0.,0.00119603,0.0005
 6105,0.,0.00006823,0.00003048,0.,-0.00008550,-0.00103142,0.,0.00031041
 ,0.,0.,0.00064646,0.,0.,0.00006188,0.,0.,-0.00102607,-0.00022783,0.,-0
 .00327195,0.00101662,0.,-0.00336192,0.00038965,0.,-0.00075566,-0.00117
 792,0.,0.00737769,0.07694085,0.,0.29612744,-0.02253490,0.,-0.94137006,
 -0.06512757,0.,0.03546193,0.06101588,0.,-0.28359443,0.,0.,0.27856610,-
 0.00208926,0.,0.91119395,-0.01141938,-0.00000011,-0.92029700,-0.011589
 52,0.,-0.01380419,0.00592571,0.,0.01379758,0.00553895,0.,-0.01497043,0
 .,0.,0.00677105,0.,0.,0.00821706,0.02270864,0.,0.02708268,-0.02279391,
 0.,-0.00843817,0.00043358,0.,-0.01751676,-0.00022293,0.,0.00087369,-0.
 00181503,0.,-0.00028700,0.00012448,0.,-0.00034639,0.00189760,0.,0.0024
 3744,0.,0.,-0.00174272,0.00000011,0.,-0.00001841,0.,0.,-0.00068747,0.0
 0191168,0.,0.00309747,-0.00124626,0.00000012,0.01753589,-0.00042440,0.
 ,-0.00113068,-0.00024359,-0.00000011,-0.01951648,0.15090585,0.,-0.0197
 9177,-0.04061278,0.,-0.03011090,-0.00256950,0.,0.00163935,0.00400673,0
 .,-0.00310742,0.,0.,0.00207181,-0.00378174,0.,0.01767121,-0.00289917,0
 .,-0.01542812,-0.14868458,0.,0.03884656,-0.00141828,0.,0.00712658,0.15
 053512,0.,0.02289272,0.,0.,0.00109665,0.,0.,-0.02395699,0.04303390,0.,
 0.01262237,0.00118516,0.,-0.00198185,-0.04432835,0.,-0.01119465,0.0003
 4756,0.,0.00012558,-0.00001700,0.,-0.00044705,-0.00043233,0.,0.0001111
 8,0.00008623,0.,0.00000650,0.,0.,-0.00006105,0.,0.,-0.00003259,0.,0.,0
 .00007885,0.00136208,0.,-0.00017512,0.00007078,0.,-0.00026146,-0.00164
 458,0.,0.00054964,0.00021510,0.,-0.00012834,0.11961290,0.,0.03900113,-
 0.03862322,0.,-0.87210222,-0.11929677,0.,0.06696197,0.12397170,0.,-0.0
 5795347,0.,0.,0.05791434,-0.02569093,0.,0.82970698,-0.02634401,0.,-0.8
 2119717,-0.00600815,0.,-0.02860532,0.00113436,0.,0.05074881,0.00451860
 ,0.,0.01982149,0.,0.,0.00155063,0.,0.,-0.02174337,0.05691989,0.,0.0417
 4218,-0.03612310,0.,-0.03011251,-0.02027932,0.,-0.00916088,0.00569104,
 0.,0.00026580,-0.00580648,0.,0.00128353,0.00035518,0.,-0.00051535,-0.0
 0025654,0.,-0.00086913,0.,0.,-0.00151149,0.,0.,0.00037094,0.,0.,0.0020
 0188,0.00739551,0.,0.00065751,-0.00450002,0.,0.02160627,-0.00186345,0.
 ,-0.00247240,-0.00103445,0.,-0.01981349,-0.90218021,0.,-0.93197729,0.0
 2382519,0.,4.84528527,0.87524502,0.,-0.01500467,-0.84921946,0.,0.93868
 498,0.,0.,-0.92633569,-0.00493002,0.,-4.88400655,-0.00070895,0.,4.9320
 6723,0.02859829,0.,-0.00829510,-0.01572473,0.,0.00601879,-0.01189056,0
 .,-0.00618258,0.,0.,-0.00041024,0.,0.,0.00684558,-0.02120345,0.,0.0008
 5148,0.01309967,0.,0.00423846,0.00780949,0.,-0.00713141,-0.00166199,0.
 ,-0.00052877,-0.01030305,0.,-0.00037649,-0.00098334,0.,0.00029528,0.01
 293213,0.,-0.00052510,0.,0.,-0.01193904,0.,0.,-0.00025332,0.,0.,0.0127
 0783,0.00230493,0.,0.03788007,0.00261902,0.,-0.05231167,-0.00553181,0.
 ,0.00203989,0.00060489,0.,0.01237639\\@


 "I COULD HAVE DONE IT IN A MUCH MORE COMPLICATED WAY"
 SAID THE RED QUEEN, IMMENSELY PROUD.

                                      -- LEWIS CARROLL
 Job cpu time:       1 days  4 hours 42 minutes 16.1 seconds.
 Elapsed time:       0 days  1 hours  2 minutes 17.0 seconds.
 File lengths (MBytes):  RWF=   9248 Int=      0 D2E=      0 Chk=     48 Scr=      1
 Normal termination of Gaussian 16 at Fri Oct 22 17:18:15 2021.
