 Entering Gaussian System, Link 0=g16
 Input=clhoh-_tz-eq.gjf
 Output=clhoh-_tz-eq.log
 Initial command:
 /sw/contrib/gaussian/g16/B01/g16/l1.exe "/scr/Gau-10375.inp" -scrdir="/scr/"
 Entering Link 1 = /sw/contrib/gaussian/g16/B01/g16/l1.exe PID=     10376.
  
 Copyright (c) 1988-2017, Gaussian, Inc.  All Rights Reserved.
  
 This is part of the Gaussian(R) 16 program.  It is based on
 the Gaussian(R) 09 system (copyright 2009, Gaussian, Inc.),
 the Gaussian(R) 03 system (copyright 2003, Gaussian, Inc.),
 the Gaussian(R) 98 system (copyright 1998, Gaussian, Inc.),
 the Gaussian(R) 94 system (copyright 1995, Gaussian, Inc.),
 the Gaussian 92(TM) system (copyright 1992, Gaussian, Inc.),
 the Gaussian 90(TM) system (copyright 1990, Gaussian, Inc.),
 the Gaussian 88(TM) system (copyright 1988, Gaussian, Inc.),
 the Gaussian 86(TM) system (copyright 1986, Carnegie Mellon
 University), and the Gaussian 82(TM) system (copyright 1983,
 Carnegie Mellon University). Gaussian is a federally registered
 trademark of Gaussian, Inc.
  
 This software contains proprietary and confidential information,
 including trade secrets, belonging to Gaussian, Inc.
  
 This software is provided under written license and may be
 used, copied, transmitted, or stored only in accord with that
 written license.
  
 The following legend is applicable only to US Government
 contracts under FAR:
  
                    RESTRICTED RIGHTS LEGEND
  
 Use, reproduction and disclosure by the US Government is
 subject to restrictions as set forth in subparagraphs (a)
 and (c) of the Commercial Computer Software - Restricted
 Rights clause in FAR 52.227-19.
  
 Gaussian, Inc.
 340 Quinnipiac St., Bldg. 40, Wallingford CT 06492
  
  
 ---------------------------------------------------------------
 Warning -- This program may not be used in any manner that
 competes with the business of Gaussian, Inc. or will provide
 assistance to any competitor of Gaussian, Inc.  The licensee
 of this program is prohibited from giving any competitor of
 Gaussian, Inc. access to this program.  By using this program,
 the user acknowledges that Gaussian, Inc. is engaged in the
 business of creating and licensing software in the field of
 computational chemistry and represents and warrants to the
 licensee that it is not a competitor of Gaussian, Inc. and that
 it will not use this program in any manner prohibited above.
 ---------------------------------------------------------------
  

 Cite this work as:
 Gaussian 16, Revision B.01,
 M. J. Frisch, G. W. Trucks, H. B. Schlegel, G. E. Scuseria, 
 M. A. Robb, J. R. Cheeseman, G. Scalmani, V. Barone, 
 G. A. Petersson, H. Nakatsuji, X. Li, M. Caricato, A. V. Marenich, 
 J. Bloino, B. G. Janesko, R. Gomperts, B. Mennucci, H. P. Hratchian, 
 J. V. Ortiz, A. F. Izmaylov, J. L. Sonnenberg, D. Williams-Young, 
 F. Ding, F. Lipparini, F. Egidi, J. Goings, B. Peng, A. Petrone, 
 T. Henderson, D. Ranasinghe, V. G. Zakrzewski, J. Gao, N. Rega, 
 G. Zheng, W. Liang, M. Hada, M. Ehara, K. Toyota, R. Fukuda, 
 J. Hasegawa, M. Ishida, T. Nakajima, Y. Honda, O. Kitao, H. Nakai, 
 T. Vreven, K. Throssell, J. A. Montgomery, Jr., J. E. Peralta, 
 F. Ogliaro, M. J. Bearpark, J. J. Heyd, E. N. Brothers, K. N. Kudin, 
 V. N. Staroverov, T. A. Keith, R. Kobayashi, J. Normand, 
 K. Raghavachari, A. P. Rendell, J. C. Burant, S. S. Iyengar, 
 J. Tomasi, M. Cossi, J. M. Millam, M. Klene, C. Adamo, R. Cammi, 
 J. W. Ochterski, R. L. Martin, K. Morokuma, O. Farkas, 
 J. B. Foresman, and D. J. Fox, Gaussian, Inc., Wallingford CT, 2016.
 
 ******************************************
 Gaussian 16:  ES64L-G16RevB.01 20-Dec-2017
                28-Oct-2021 
 ******************************************
 %nproc=28
 Will use up to   28 processors via shared memory.
 %mem=120GB
 %chk=/gscratch/ilahie/mccoygrp/hocl/2nd_basis/cl_hoh_tz_eq.chk
 ------------------------------------------------
 #p opt=(z-matrix,tight) mp2/aug-cc-pvtz freq=anh
 ------------------------------------------------
 1/7=10,10=7,18=40,38=1,80=1/1,3;
 2/12=2,17=6,18=5,29=3,40=1/2;
 3/5=16,6=1,7=10,11=9,25=1,30=1,71=1/1,2,3;
 4//1;
 5/5=2,38=5/2;
 8/6=4,10=1/1;
 9/15=2,16=-3/6;
 10/5=1/2;
 6/7=2,8=2,9=2,10=2/1;
 7/12=2,29=1/1,2,3,16;
 1/7=10,10=7,18=40,80=1/3(2);
 2/29=3/2;
 99//99;
 2/29=3/2;
 3/5=16,6=1,7=10,11=9,25=1,30=1,71=1/1,2,3;
 4/5=5,16=3,69=1/1;
 5/5=2,38=5/2;
 8/6=4,10=1/1;
 9/15=2,16=-3/6;
 10/5=1/2;
 7/12=2/1,2,3,16;
 1/7=10,18=40,80=1/3(-8);
 2/29=3/2;
 6/7=2,8=2,9=2,10=2/1;
 99/9=10/99;
 Leave Link    1 at Thu Oct 28 08:13:15 2021, MaxMem= 16106127360 cpu:               2.9 elap:               0.1
 (Enter /sw/contrib/gaussian/g16/B01/g16/l101.exe)
 -----
 title
 -----
 Symbolic Z-matrix:
 Charge = -1 Multiplicity = 1
 O
 H                    1    r1
 H                    1    r2       2    a1
 Cl                   1    r3       3    a1       2    d1       0
       Variables:
  r1                    0.9927                   
  r2                    0.9606                   
  r3                    3.0887                   
  a1                  101.7383                   
  d1                    0.      -1        0.     
 
 ITRead=  0  0  0  0
 MicOpt= -1 -1 -1 -1
 NAtoms=      4 NQM=        4 NQMF=       0 NMMI=      0 NMMIF=      0
                NMic=       0 NMicF=      0.
                    Isotopes and Nuclear Properties:
 (Nuclear quadrupole moments (NQMom) in fm**2, nuclear magnetic moments (NMagM)
  in nuclear magnetons)

  Atom         1           2           3           4
 IAtWgt=          16           1           1          35
 AtmWgt=  15.9949146   1.0078250   1.0078250  34.9688527
 NucSpn=           0           1           1           3
 AtZEff=  -0.0000000  -0.0000000  -0.0000000  -0.0000000
 NQMom=    0.0000000   0.0000000   0.0000000  -8.1650000
 NMagM=    0.0000000   2.7928460   2.7928460   0.8218740
 AtZNuc=   8.0000000   1.0000000   1.0000000  17.0000000
 Leave Link  101 at Thu Oct 28 08:13:15 2021, MaxMem= 16106127360 cpu:               5.1 elap:               0.2
 (Enter /sw/contrib/gaussian/g16/B01/g16/l103.exe)

 GradGradGradGradGradGradGradGradGradGradGradGradGradGradGradGradGradGrad
 Berny optimization.
 Initialization pass.
                       ----------------------------
                       !    Initial Parameters    !
                       ! (Angstroms and Degrees)  !
 ----------------------                            ----------------------
 !      Name          Value   Derivative information (Atomic Units)     !
 ------------------------------------------------------------------------
 !       r1          0.9927   estimate D2E/DX2                          !
 !       r2          0.9606   estimate D2E/DX2                          !
 !       r3          3.0887   estimate D2E/DX2                          !
 !       a1        101.7383   estimate D2E/DX2                          !
 !       d1          0.0      Frozen                                    !
 ------------------------------------------------------------------------
 Trust Radius=3.00D-01 FncErr=1.00D-07 GrdErr=1.00D-07 EigMax=2.50D+02 EigMin=1.00D-04
 Number of steps in this run=     20 maximum allowed number of steps=    100.
 GradGradGradGradGradGradGradGradGradGradGradGradGradGradGradGradGradGrad

 Leave Link  103 at Thu Oct 28 08:13:16 2021, MaxMem= 16106127360 cpu:               1.2 elap:               0.1
 (Enter /sw/contrib/gaussian/g16/B01/g16/l202.exe)
 ---------------------------------------------------------------------------------------------------
                            Z-MATRIX (ANGSTROMS AND DEGREES)
   CD    Cent   Atom    N1       Length/X        N2       Alpha/Y        N3        Beta/Z          J
 ---------------------------------------------------------------------------------------------------
      1      1  O 
      2      2  H        1   0.992700(     1)
      3      3  H        1   0.960600(     2)      2  101.738(     4)
      4      4  Cl       1   3.088700(     3)      3  101.738(     5)      2    0.000(     6)      0
 ---------------------------------------------------------------------------------------------------
                         Z-Matrix orientation:                         
 ---------------------------------------------------------------------
 Center     Atomic      Atomic             Coordinates (Angstroms)
 Number     Number       Type             X           Y           Z
 ---------------------------------------------------------------------
      1          8           0        0.000000    0.000000    0.000000
      2          1           0        0.000000    0.000000    0.992700
      3          1           0        0.940511    0.000000   -0.195426
      4         17           0       -0.000000    0.000000    3.088700
 ---------------------------------------------------------------------
                    Distance matrix (angstroms):
                    1          2          3          4
     1  O    0.000000
     2  H    0.992700   0.000000
     3  H    0.960600   1.515323   0.000000
     4  Cl   3.088700   2.096000   3.416145   0.000000
 Stoichiometry    ClH2O(1-)
 Framework group  CS[SG(ClH2O)]
 Deg. of freedom     5
 Full point group                 CS      NOp   2
 Largest Abelian subgroup         CS      NOp   2
 Largest concise Abelian subgroup C1      NOp   1
                         Standard orientation:                         
 ---------------------------------------------------------------------
 Center     Atomic      Atomic             Coordinates (Angstroms)
 Number     Number       Type             X           Y           Z
 ---------------------------------------------------------------------
      1          8           0        0.034834    1.974266    0.000000
      2          1           0        0.034834    0.981566    0.000000
      3          1           0       -0.905677    2.169692    0.000000
      4         17           0        0.034834   -1.114434    0.000000
 ---------------------------------------------------------------------
 Rotational constants (GHZ):         606.4637112           4.5449844           4.5111765
 Leave Link  202 at Thu Oct 28 08:13:16 2021, MaxMem= 16106127360 cpu:               1.0 elap:               0.1
 (Enter /sw/contrib/gaussian/g16/B01/g16/l301.exe)
 Standard basis: Aug-CC-pVTZ (5D, 7F)
 Ernie: Thresh=  0.10000D-02 Tol=  0.10000D-05 Strict=F.
 Ernie:  16 primitive shells out of 116 were deleted.
 There are   113 symmetry adapted cartesian basis functions of A'  symmetry.
 There are    51 symmetry adapted cartesian basis functions of A"  symmetry.
 There are    95 symmetry adapted basis functions of A'  symmetry.
 There are    47 symmetry adapted basis functions of A"  symmetry.
   142 basis functions,   240 primitive gaussians,   164 cartesian basis functions
    14 alpha electrons       14 beta electrons
       nuclear repulsion energy        39.2466443625 Hartrees.
 IExCor=    0 DFT=F Ex=HF Corr=None ExCW=0 ScaHFX=  1.000000
 ScaDFX=  1.000000  1.000000  1.000000  1.000000 ScalE2=  1.000000  1.000000
 IRadAn=      5 IRanWt=     -1 IRanGd=            0 ICorTp=0 IEmpDi=  4
 NAtoms=    4 NActive=    4 NUniq=    4 SFac= 1.00D+00 NAtFMM=   60 NAOKFM=F Big=F
 Integral buffers will be    131072 words long.
 Raffenetti 1 integral format.
 Two-electron integral symmetry is turned on.
 Leave Link  301 at Thu Oct 28 08:13:16 2021, MaxMem= 16106127360 cpu:               5.3 elap:               0.2
 (Enter /sw/contrib/gaussian/g16/B01/g16/l302.exe)
 NPDir=0 NMtPBC=     1 NCelOv=     1 NCel=       1 NClECP=     1 NCelD=      1
         NCelK=      1 NCelE2=     1 NClLst=     1 CellRange=     0.0.
 One-electron integrals computed using PRISM.
 One-electron integral symmetry used in STVInt
 NBasis=   142 RedAO= T EigKep=  2.85D-04  NBF=    95    47
 NBsUse=   142 1.00D-06 EigRej= -1.00D+00 NBFU=    95    47
 Leave Link  302 at Thu Oct 28 08:13:16 2021, MaxMem= 16106127360 cpu:               6.6 elap:               0.3
 (Enter /sw/contrib/gaussian/g16/B01/g16/l303.exe)
 DipDrv:  MaxL=1.
 Leave Link  303 at Thu Oct 28 08:13:16 2021, MaxMem= 16106127360 cpu:               1.2 elap:               0.1
 (Enter /sw/contrib/gaussian/g16/B01/g16/l401.exe)
 ExpMin= 2.53D-02 ExpMax= 4.56D+05 ExpMxC= 1.44D+03 IAcc=3 IRadAn=         5 AccDes= 0.00D+00
 Harris functional with IExCor=  205 and IRadAn=       5 diagonalized for initial guess.
 HarFok:  IExCor=  205 AccDes= 0.00D+00 IRadAn=         5 IDoV= 1 UseB2=F ITyADJ=14
 ICtDFT=  3500011 ScaDFX=  1.000000  1.000000  1.000000  1.000000
 FoFCou: FMM=F IPFlag=           0 FMFlag=      100000 FMFlg1=           0
         NFxFlg=           0 DoJE=T BraDBF=F KetDBF=T FulRan=T
         wScrn=  0.000000 ICntrl=       500 IOpCl=  0 I1Cent=   200000004 NGrid=           0
         NMat0=    1 NMatS0=      1 NMatT0=    0 NMatD0=    1 NMtDS0=    0 NMtDT0=    0
 Petite list used in FoFCou.
 Harris En= -535.446696424880    
 JPrj=0 DoOrth=F DoCkMO=F.
 Initial guess orbital symmetries:
       Occupied  (A') (A') (A') (A') (A') (A") (A') (A') (A') (A')
                 (A") (A') (A') (A")
       Virtual   (A') (A') (A') (A") (A') (A') (A') (A") (A') (A')
                 (A') (A') (A") (A") (A') (A') (A") (A') (A') (A")
                 (A') (A') (A') (A') (A") (A') (A') (A") (A') (A")
                 (A') (A") (A') (A") (A') (A') (A') (A") (A') (A')
                 (A') (A") (A") (A') (A') (A") (A') (A") (A") (A')
                 (A') (A') (A') (A') (A') (A") (A") (A') (A") (A')
                 (A") (A') (A') (A') (A') (A") (A') (A") (A') (A')
                 (A") (A') (A") (A') (A') (A") (A') (A') (A") (A')
                 (A") (A') (A') (A") (A') (A") (A') (A") (A') (A')
                 (A") (A') (A') (A') (A") (A') (A") (A') (A") (A')
                 (A") (A") (A') (A') (A') (A') (A") (A') (A') (A')
                 (A") (A') (A') (A') (A') (A") (A') (A") (A") (A')
                 (A') (A") (A") (A') (A') (A') (A') (A')
 The electronic state of the initial guess is 1-A'.
 Leave Link  401 at Thu Oct 28 08:13:17 2021, MaxMem= 16106127360 cpu:               7.0 elap:               0.3
 (Enter /sw/contrib/gaussian/g16/B01/g16/l502.exe)
 Keep R1 ints in memory in symmetry-blocked form, NReq=77720007.
 FoFCou: FMM=F IPFlag=           0 FMFlag=           0 FMFlg1=           0
         NFxFlg=           0 DoJE=F BraDBF=F KetDBF=F FulRan=T
         wScrn=  0.000000 ICntrl=       600 IOpCl=  0 I1Cent=           0 NGrid=           0
         NMat0=    1 NMatS0=  10153 NMatT0=    0 NMatD0=    1 NMtDS0=    0 NMtDT0=    0
 Petite list used in FoFCou.
 Closed shell SCF:
 Using DIIS extrapolation, IDIIS=  1040.
 NGot= 16106127360 LenX= 16079895157 LenY= 16079867820
 Requested convergence on RMS density matrix=1.00D-08 within 128 cycles.
 Requested convergence on MAX density matrix=1.00D-06.
 Requested convergence on             energy=1.00D-06.
 No special actions if energy rises.

 Cycle   1  Pass 1  IDiag  1:
 E= -535.513902617202    
 DIIS: error= 4.71D-02 at cycle   1 NSaved=   1.
 NSaved= 1 IEnMin= 1 EnMin= -535.513902617202     IErMin= 1 ErrMin= 4.71D-02
 ErrMax= 4.71D-02  0.00D+00 EMaxC= 1.00D-01 BMatC= 3.43D-01 BMatP= 3.43D-01
 IDIUse=3 WtCom= 5.29D-01 WtEn= 4.71D-01
 Coeff-Com:  0.100D+01
 Coeff-En:   0.100D+01
 Coeff:      0.100D+01
 Gap=     0.388 Goal=   None    Shift=    0.000
 GapD=    0.388 DampG=1.000 DampE=0.500 DampFc=0.5000 IDamp=-1.
 Damping current iteration by 5.00D-01
 RMSDP=2.24D-03 MaxDP=5.77D-02              OVMax= 1.32D-01

 Cycle   2  Pass 1  IDiag  1:
 E= -535.586316243217     Delta-E=       -0.072413626015 Rises=F Damp=T
 DIIS: error= 1.63D-02 at cycle   2 NSaved=   2.
 NSaved= 2 IEnMin= 2 EnMin= -535.586316243217     IErMin= 2 ErrMin= 1.63D-02
 ErrMax= 1.63D-02  0.00D+00 EMaxC= 1.00D-01 BMatC= 6.29D-02 BMatP= 3.43D-01
 IDIUse=3 WtCom= 8.37D-01 WtEn= 1.63D-01
 Coeff-Com: -0.477D+00 0.148D+01
 Coeff-En:   0.000D+00 0.100D+01
 Coeff:     -0.399D+00 0.140D+01
 Gap=     0.313 Goal=   None    Shift=    0.000
 RMSDP=9.38D-04 MaxDP=3.35D-02 DE=-7.24D-02 OVMax= 6.72D-02

 Cycle   3  Pass 1  IDiag  1:
 E= -535.648816289219     Delta-E=       -0.062500046002 Rises=F Damp=F
 DIIS: error= 5.74D-03 at cycle   3 NSaved=   3.
 NSaved= 3 IEnMin= 3 EnMin= -535.648816289219     IErMin= 3 ErrMin= 5.74D-03
 ErrMax= 5.74D-03  0.00D+00 EMaxC= 1.00D-01 BMatC= 2.36D-03 BMatP= 6.29D-02
 IDIUse=3 WtCom= 9.43D-01 WtEn= 5.74D-02
 Coeff-Com: -0.149D+00 0.270D+00 0.879D+00
 Coeff-En:   0.000D+00 0.000D+00 0.100D+01
 Coeff:     -0.141D+00 0.255D+00 0.886D+00
 Gap=     0.321 Goal=   None    Shift=    0.000
 RMSDP=1.71D-04 MaxDP=4.30D-03 DE=-6.25D-02 OVMax= 1.13D-02

 Cycle   4  Pass 1  IDiag  1:
 E= -535.650353283641     Delta-E=       -0.001536994421 Rises=F Damp=F
 DIIS: error= 6.06D-04 at cycle   4 NSaved=   4.
 NSaved= 4 IEnMin= 4 EnMin= -535.650353283641     IErMin= 4 ErrMin= 6.06D-04
 ErrMax= 6.06D-04  0.00D+00 EMaxC= 1.00D-01 BMatC= 4.92D-05 BMatP= 2.36D-03
 IDIUse=3 WtCom= 9.94D-01 WtEn= 6.06D-03
 Coeff-Com: -0.225D-01 0.383D-01 0.182D+00 0.803D+00
 Coeff-En:   0.000D+00 0.000D+00 0.000D+00 0.100D+01
 Coeff:     -0.224D-01 0.380D-01 0.181D+00 0.804D+00
 Gap=     0.315 Goal=   None    Shift=    0.000
 RMSDP=3.88D-05 MaxDP=9.51D-04 DE=-1.54D-03 OVMax= 2.32D-03

 Cycle   5  Pass 1  IDiag  1:
 E= -535.650404880923     Delta-E=       -0.000051597282 Rises=F Damp=F
 DIIS: error= 1.69D-04 at cycle   5 NSaved=   5.
 NSaved= 5 IEnMin= 5 EnMin= -535.650404880923     IErMin= 5 ErrMin= 1.69D-04
 ErrMax= 1.69D-04  0.00D+00 EMaxC= 1.00D-01 BMatC= 3.73D-06 BMatP= 4.92D-05
 IDIUse=3 WtCom= 9.98D-01 WtEn= 1.69D-03
 Coeff-Com:  0.148D-01-0.281D-01-0.897D-01-0.454D-01 0.115D+01
 Coeff-En:   0.000D+00 0.000D+00 0.000D+00 0.000D+00 0.100D+01
 Coeff:      0.147D-01-0.281D-01-0.896D-01-0.453D-01 0.115D+01
 Gap=     0.316 Goal=   None    Shift=    0.000
 RMSDP=2.10D-05 MaxDP=5.57D-04 DE=-5.16D-05 OVMax= 1.61D-03

 Cycle   6  Pass 1  IDiag  1:
 E= -535.650414518395     Delta-E=       -0.000009637472 Rises=F Damp=F
 DIIS: error= 5.13D-05 at cycle   6 NSaved=   6.
 NSaved= 6 IEnMin= 6 EnMin= -535.650414518395     IErMin= 6 ErrMin= 5.13D-05
 ErrMax= 5.13D-05  0.00D+00 EMaxC= 1.00D-01 BMatC= 2.40D-07 BMatP= 3.73D-06
 IDIUse=1 WtCom= 1.00D+00 WtEn= 0.00D+00
 Coeff-Com: -0.200D-02 0.437D-02 0.111D-01-0.134D-01-0.361D+00 0.136D+01
 Coeff:     -0.200D-02 0.437D-02 0.111D-01-0.134D-01-0.361D+00 0.136D+01
 Gap=     0.316 Goal=   None    Shift=    0.000
 RMSDP=6.95D-06 MaxDP=1.59D-04 DE=-9.64D-06 OVMax= 5.30D-04

 Cycle   7  Pass 1  IDiag  1:
 E= -535.650415366743     Delta-E=       -0.000000848348 Rises=F Damp=F
 DIIS: error= 1.09D-05 at cycle   7 NSaved=   7.
 NSaved= 7 IEnMin= 7 EnMin= -535.650415366743     IErMin= 7 ErrMin= 1.09D-05
 ErrMax= 1.09D-05  0.00D+00 EMaxC= 1.00D-01 BMatC= 7.69D-09 BMatP= 2.40D-07
 IDIUse=1 WtCom= 1.00D+00 WtEn= 0.00D+00
 Coeff-Com:  0.132D-04-0.212D-03-0.127D-03 0.471D-02 0.694D-01-0.419D+00
 Coeff-Com:  0.135D+01
 Coeff:      0.132D-04-0.212D-03-0.127D-03 0.471D-02 0.694D-01-0.419D+00
 Coeff:      0.135D+01
 Gap=     0.316 Goal=   None    Shift=    0.000
 RMSDP=1.18D-06 MaxDP=3.11D-05 DE=-8.48D-07 OVMax= 8.36D-05

 Cycle   8  Pass 1  IDiag  1:
 E= -535.650415391610     Delta-E=       -0.000000024867 Rises=F Damp=F
 DIIS: error= 1.86D-06 at cycle   8 NSaved=   8.
 NSaved= 8 IEnMin= 8 EnMin= -535.650415391610     IErMin= 8 ErrMin= 1.86D-06
 ErrMax= 1.86D-06  0.00D+00 EMaxC= 1.00D-01 BMatC= 2.68D-10 BMatP= 7.69D-09
 IDIUse=1 WtCom= 1.00D+00 WtEn= 0.00D+00
 Coeff-Com:  0.557D-04-0.124D-03-0.342D-03 0.246D-03 0.113D-01-0.401D-01
 Coeff-Com: -0.158D-01 0.104D+01
 Coeff:      0.557D-04-0.124D-03-0.342D-03 0.246D-03 0.113D-01-0.401D-01
 Coeff:     -0.158D-01 0.104D+01
 Gap=     0.316 Goal=   None    Shift=    0.000
 RMSDP=1.63D-07 MaxDP=3.98D-06 DE=-2.49D-08 OVMax= 1.15D-05

 Cycle   9  Pass 1  IDiag  1:
 E= -535.650415392208     Delta-E=       -0.000000000598 Rises=F Damp=F
 DIIS: error= 5.59D-07 at cycle   9 NSaved=   9.
 NSaved= 9 IEnMin= 9 EnMin= -535.650415392208     IErMin= 9 ErrMin= 5.59D-07
 ErrMax= 5.59D-07  0.00D+00 EMaxC= 1.00D-01 BMatC= 2.59D-11 BMatP= 2.68D-10
 IDIUse=1 WtCom= 1.00D+00 WtEn= 0.00D+00
 Coeff-Com: -0.123D-04 0.425D-04 0.730D-04-0.425D-03-0.784D-02 0.439D-01
 Coeff-Com: -0.126D+00-0.112D+00 0.120D+01
 Coeff:     -0.123D-04 0.425D-04 0.730D-04-0.425D-03-0.784D-02 0.439D-01
 Coeff:     -0.126D+00-0.112D+00 0.120D+01
 Gap=     0.316 Goal=   None    Shift=    0.000
 RMSDP=5.10D-08 MaxDP=1.10D-06 DE=-5.98D-10 OVMax= 4.14D-06

 Cycle  10  Pass 1  IDiag  1:
 E= -535.650415392277     Delta-E=       -0.000000000068 Rises=F Damp=F
 DIIS: error= 9.09D-08 at cycle  10 NSaved=  10.
 NSaved=10 IEnMin=10 EnMin= -535.650415392277     IErMin=10 ErrMin= 9.09D-08
 ErrMax= 9.09D-08  0.00D+00 EMaxC= 1.00D-01 BMatC= 1.05D-12 BMatP= 2.59D-11
 IDIUse=1 WtCom= 1.00D+00 WtEn= 0.00D+00
 Coeff-Com: -0.937D-06 0.637D-06 0.406D-05 0.255D-04 0.322D-03-0.279D-02
 Coeff-Com:  0.149D-01-0.387D-01-0.118D+00 0.114D+01
 Coeff:     -0.937D-06 0.637D-06 0.406D-05 0.255D-04 0.322D-03-0.279D-02
 Coeff:      0.149D-01-0.387D-01-0.118D+00 0.114D+01
 Gap=     0.316 Goal=   None    Shift=    0.000
 RMSDP=1.57D-08 MaxDP=5.10D-07 DE=-6.84D-11 OVMax= 8.40D-07

 Cycle  11  Pass 1  IDiag  1:
 E= -535.650415392280     Delta-E=       -0.000000000003 Rises=F Damp=F
 DIIS: error= 2.15D-08 at cycle  11 NSaved=  11.
 NSaved=11 IEnMin=11 EnMin= -535.650415392280     IErMin=11 ErrMin= 2.15D-08
 ErrMax= 2.15D-08  0.00D+00 EMaxC= 1.00D-01 BMatC= 5.76D-14 BMatP= 1.05D-12
 IDIUse=1 WtCom= 1.00D+00 WtEn= 0.00D+00
 Coeff-Com:  0.989D-06-0.278D-05-0.498D-05 0.214D-04 0.398D-03-0.212D-02
 Coeff-Com:  0.524D-02 0.975D-02-0.607D-01-0.109D+00 0.116D+01
 Coeff:      0.989D-06-0.278D-05-0.498D-05 0.214D-04 0.398D-03-0.212D-02
 Coeff:      0.524D-02 0.975D-02-0.607D-01-0.109D+00 0.116D+01
 Gap=     0.316 Goal=   None    Shift=    0.000
 RMSDP=5.52D-09 MaxDP=2.04D-07 DE=-2.73D-12 OVMax= 2.13D-07

 SCF Done:  E(RHF) =  -535.650415392     A.U. after   11 cycles
            NFock= 11  Conv=0.55D-08     -V/T= 2.0002
 KE= 5.355428487835D+02 PE=-1.361282324942D+03 EE= 2.508424164039D+02
 Leave Link  502 at Thu Oct 28 08:13:18 2021, MaxMem= 16106127360 cpu:              25.1 elap:               1.1
 (Enter /sw/contrib/gaussian/g16/B01/g16/l801.exe)
 ExpMin= 2.53D-02 ExpMax= 4.56D+05 ExpMxC= 1.44D+03 IAcc=3 IRadAn=         5 AccDes= 0.00D+00
 HarFok:  IExCor=  205 AccDes= 0.00D+00 IRadAn=         5 IDoV=-2 UseB2=F ITyADJ=14
 ICtDFT= 12500011 ScaDFX=  1.000000  1.000000  1.000000  1.000000
 DSYEVD-2 returned Info=         101 IAlg= 4 N=    50 NDim=    50 NE2=   322121132 trying  DSYEV.
 Largest valence mixing into a core orbital is  4.53D-04
 Largest core mixing into a valence orbital is  1.83D-04
 Range of M.O.s used for correlation:     7   142
 NBasis=   142 NAE=    14 NBE=    14 NFC=     6 NFV=     0
 NROrb=    136 NOA=     8 NOB=     8 NVA=   128 NVB=   128

 **** Warning!!: The largest alpha MO coefficient is  0.16830045D+02

 Leave Link  801 at Thu Oct 28 08:13:18 2021, MaxMem= 16106127360 cpu:               5.4 elap:               0.3
 (Enter /sw/contrib/gaussian/g16/B01/g16/l906.exe)
 Frozen-core derivative calculation, NFC=   6 NFV=   0.
 FulOut=F Deriv=T AODrv=T NAtomX=     4
   MMem=         252  MDisk=           8 MDiskD=           8
  W3Min=      326032 MinDsk=      657538 NBas6D=         164
 NBas2D=       13905    NTT=       13530    LW2=     3500000
    MDV= 16105837521 MDiskM=      490970 NBas2p=       13825
 Fully direct method using O(ONN) memory.
 IMap=   1   2   3   4   5   6   7   8   9  10  11  12  13  14
 JobTyp=1 Pass  1:  I=   7 to  14 NPSUse= 28 ParTrn=T ParDer=T DoDerP=T.
 Spin components of T(2) and E(2):
     alpha-alpha T2 =       0.1964804765D-01 E2=     -0.6021754926D-01
     alpha-beta  T2 =       0.1073860080D+00 E2=     -0.3631425875D+00
     beta-beta   T2 =       0.1964804765D-01 E2=     -0.6021754926D-01
 The integrals were generated   1 times.
 ANorm=    0.1070832435D+01
 E2 =    -0.4835776860D+00 EUMP2 =    -0.53613399307832D+03
 Leave Link  906 at Thu Oct 28 08:13:23 2021, MaxMem= 16106127360 cpu:             122.0 elap:               4.5
 (Enter /sw/contrib/gaussian/g16/B01/g16/l1002.exe)
 Minotr:  Closed shell wavefunction.
          Computing MP2/KS-MP2 derivatives.
          Using Z-Vector for PSCF gradient.
          Skipping F1 and S1 gradient terms here.
          IDoAtm=1111
          Frozen-core window.
          Direct CPHF calculation.
          Differentiating once with respect to electric field.
                with respect to dipole field.
          Differentiating once with respect to nuclear coordinates.
          Using symmetry in CPHF.
          Requested convergence is 1.0D-10 RMS, and 1.0D-09 maximum.
          NewPWx=F KeepS1=T KeepF1=T KeepIn=T MapXYZ=F SortEE=F KeepMc=T.
 Keep R1 ints in memory in symmetry-blocked form, NReq=77720971.
 FoFCou: FMM=F IPFlag=           0 FMFlag=           0 FMFlg1=           0
         NFxFlg=           0 DoJE=F BraDBF=F KetDBF=F FulRan=T
         wScrn=  0.000000 ICntrl=       600 IOpCl=  0 I1Cent=           0 NGrid=           0
         NMat0=    1 NMatS0=  10153 NMatT0=    0 NMatD0=    1 NMtDS0=    0 NMtDT0=    0
 Petite list used in FoFCou.
          MDV=   16106127360 using IRadAn=       5.
          Solving linear equations separately, MaxMat=       0.
          There are     1 degrees of freedom in the 1st order CPHF.  IDoFFX=0 NUNeed=     1.
 LinEq1:  Iter=  0 NonCon=     1 RMS=3.01D-03 Max=3.98D-02 NDo=     1
 AX will form     1 AO Fock derivatives at one time.
 LinEq1:  Iter=  1 NonCon=     1 RMS=3.75D-04 Max=5.50D-03 NDo=     1
 LinEq1:  Iter=  2 NonCon=     1 RMS=1.13D-04 Max=1.25D-03 NDo=     1
 LinEq1:  Iter=  3 NonCon=     1 RMS=3.66D-05 Max=3.45D-04 NDo=     1
 LinEq1:  Iter=  4 NonCon=     1 RMS=1.06D-05 Max=9.33D-05 NDo=     1
 LinEq1:  Iter=  5 NonCon=     1 RMS=2.65D-06 Max=2.83D-05 NDo=     1
 LinEq1:  Iter=  6 NonCon=     1 RMS=6.50D-07 Max=8.56D-06 NDo=     1
 LinEq1:  Iter=  7 NonCon=     1 RMS=1.62D-07 Max=1.64D-06 NDo=     1
 LinEq1:  Iter=  8 NonCon=     1 RMS=3.80D-08 Max=4.13D-07 NDo=     1
 LinEq1:  Iter=  9 NonCon=     1 RMS=6.46D-09 Max=9.51D-08 NDo=     1
 LinEq1:  Iter= 10 NonCon=     1 RMS=9.33D-10 Max=8.43D-09 NDo=     1
 LinEq1:  Iter= 11 NonCon=     1 RMS=2.22D-10 Max=2.42D-09 NDo=     1
 LinEq1:  Iter= 12 NonCon=     0 RMS=4.99D-11 Max=5.75D-10 NDo=     1
 Linear equations converged to 1.000D-10 1.000D-09 after    12 iterations.
 End of Minotr F.D. properties file   721 does not exist.
 End of Minotr F.D. properties file   722 does not exist.
 End of Minotr F.D. properties file   788 does not exist.
 Leave Link 1002 at Thu Oct 28 08:13:25 2021, MaxMem= 16106127360 cpu:              34.0 elap:               1.7
 (Enter /sw/contrib/gaussian/g16/B01/g16/l601.exe)
 Copying SCF densities to generalized density rwf, IOpCl= 0 IROHF=0.

 **********************************************************************

            Population analysis using the SCF Density.

 **********************************************************************

 Orbital symmetries:
       Occupied  (A') (A') (A') (A') (A') (A") (A') (A') (A') (A')
                 (A") (A') (A') (A")
       Virtual   (A') (A') (A') (A") (A') (A') (A') (A") (A') (A')
                 (A') (A") (A') (A") (A') (A') (A") (A') (A') (A')
                 (A") (A') (A') (A') (A') (A') (A") (A") (A") (A')
                 (A') (A") (A') (A') (A") (A') (A') (A") (A') (A')
                 (A') (A") (A') (A') (A") (A') (A") (A") (A') (A")
                 (A') (A') (A') (A') (A") (A') (A") (A') (A') (A")
                 (A") (A') (A') (A') (A') (A") (A') (A") (A') (A")
                 (A') (A') (A') (A") (A') (A') (A") (A') (A") (A')
                 (A") (A') (A') (A") (A') (A") (A') (A") (A') (A')
                 (A") (A') (A') (A') (A') (A") (A') (A") (A") (A')
                 (A") (A') (A") (A') (A') (A') (A") (A') (A') (A')
                 (A") (A') (A') (A') (A') (A") (A') (A") (A') (A")
                 (A") (A') (A") (A') (A') (A') (A') (A')
 The electronic state is 1-A'.
 Alpha  occ. eigenvalues -- -104.53004 -20.37735 -10.25452  -7.72061  -7.72055
 Alpha  occ. eigenvalues --   -7.72054  -1.15791  -0.76533  -0.51567  -0.40550
 Alpha  occ. eigenvalues --   -0.32249  -0.18221  -0.17754  -0.17707
 Alpha virt. eigenvalues --    0.13869   0.18208   0.25649   0.26705   0.27572
 Alpha virt. eigenvalues --    0.28775   0.30505   0.31086   0.35232   0.39680
 Alpha virt. eigenvalues --    0.41297   0.41910   0.43421   0.49915   0.55276
 Alpha virt. eigenvalues --    0.55636   0.58061   0.59266   0.61153   0.66835
 Alpha virt. eigenvalues --    0.68592   0.69991   0.72819   0.82293   0.85612
 Alpha virt. eigenvalues --    0.87160   0.88636   0.89511   0.92371   0.94059
 Alpha virt. eigenvalues --    1.02132   1.02758   1.03848   1.07822   1.08533
 Alpha virt. eigenvalues --    1.09692   1.11009   1.11916   1.14412   1.18719
 Alpha virt. eigenvalues --    1.19900   1.20005   1.23071   1.26103   1.28360
 Alpha virt. eigenvalues --    1.32164   1.32375   1.40147   1.41870   1.44536
 Alpha virt. eigenvalues --    1.44817   1.50570   1.57446   1.59329   1.62330
 Alpha virt. eigenvalues --    1.68697   1.70434   1.74697   1.79051   1.79309
 Alpha virt. eigenvalues --    1.90174   1.90418   2.09605   2.12797   2.26290
 Alpha virt. eigenvalues --    2.46151   2.51879   2.59085   2.63083   2.63428
 Alpha virt. eigenvalues --    2.64820   2.65942   2.74177   2.80505   2.80835
 Alpha virt. eigenvalues --    2.86551   2.89755   2.91995   2.92482   2.98215
 Alpha virt. eigenvalues --    3.00514   3.00583   3.07003   3.16865   3.20513
 Alpha virt. eigenvalues --    3.34473   3.34511   3.39527   3.39792   3.41760
 Alpha virt. eigenvalues --    3.50540   3.53546   3.61502   3.87966   4.21531
 Alpha virt. eigenvalues --    4.23871   4.34940   4.37113   4.45552   4.45666
 Alpha virt. eigenvalues --    4.56589   4.59148   4.64370   4.77998   4.97346
 Alpha virt. eigenvalues --    5.11554   5.29793   5.38073   5.45235   5.52397
 Alpha virt. eigenvalues --    5.68592   5.79760   6.26128   6.50314   6.73763
 Alpha virt. eigenvalues --    6.91107   7.11009   7.29407   7.44314   7.45015
 Alpha virt. eigenvalues --    7.48148   7.55707   7.63584   7.80741   8.09388
 Alpha virt. eigenvalues --    8.14477   8.96789  16.20202
          Condensed to atoms (all electrons):
               1          2          3          4
     1  O    8.100621   0.253003   0.272007  -0.063332
     2  H    0.253003   0.358868   0.024405   0.040613
     3  H    0.272007   0.024405   0.527645   0.004254
     4  Cl  -0.063332   0.040613   0.004254  17.950966
 Mulliken charges:
               1
     1  O   -0.562299
     2  H    0.323111
     3  H    0.171689
     4  Cl  -0.932501
 Sum of Mulliken charges =  -1.00000
 Mulliken charges with hydrogens summed into heavy atoms:
               1
     1  O   -0.067499
     4  Cl  -0.932501
 Electronic spatial extent (au):  <R**2>=            270.8501
 Charge=             -1.0000 electrons
 Dipole moment (field-independent basis, Debye):
    X=             -1.5558    Y=              2.6217    Z=             -0.0000  Tot=              3.0486
 Quadrupole moment (field-independent basis, Debye-Ang):
   XX=            -22.2541   YY=            -35.0674   ZZ=            -24.4662
   XY=             -3.4839   XZ=             -0.0000   YZ=             -0.0000
 Traceless Quadrupole moment (field-independent basis, Debye-Ang):
   XX=              5.0084   YY=             -7.8048   ZZ=              2.7964
   XY=             -3.4839   XZ=             -0.0000   YZ=             -0.0000
 Octapole moment (field-independent basis, Debye-Ang**2):
  XXX=             -2.2089  YYY=              6.7065  ZZZ=             -0.0000  XYY=             -8.6935
  XXY=              8.1263  XXZ=             -0.0000  XZZ=             -0.2277  YZZ=              3.3730
  YYZ=             -0.0000  XYZ=              0.0000
 Hexadecapole moment (field-independent basis, Debye-Ang**3):
 XXXX=            -33.5576 YYYY=           -348.9732 ZZZZ=            -34.0465 XXXY=              0.0647
 XXXZ=             -0.0000 YYYX=            -15.5732 YYYZ=             -0.0000 ZZZX=             -0.0000
 ZZZY=             -0.0000 XXYY=            -51.8816 XXZZ=            -11.5578 YYZZ=            -61.8298
 XXYZ=             -0.0000 YYXZ=             -0.0000 ZZXY=              1.1584
 N-N= 3.924664436246D+01 E-N=-1.361282324866D+03  KE= 5.355428487835D+02
 Symmetry A'   KE= 4.858318885686D+02
 Symmetry A"   KE= 4.971096021486D+01
 No NMR shielding tensors so no spin-rotation constants.
 Leave Link  601 at Thu Oct 28 08:13:25 2021, MaxMem= 16106127360 cpu:               4.2 elap:               0.2
 (Enter /sw/contrib/gaussian/g16/B01/g16/l701.exe)
 ... and contract with generalized density number  2.
 Compute integral first derivatives.
 Leave Link  701 at Thu Oct 28 08:13:25 2021, MaxMem= 16106127360 cpu:               4.7 elap:               0.2
 (Enter /sw/contrib/gaussian/g16/B01/g16/l702.exe)
 L702 exits ... SP integral derivatives will be done elsewhere.
 Leave Link  702 at Thu Oct 28 08:13:25 2021, MaxMem= 16106127360 cpu:               1.1 elap:               0.1
 (Enter /sw/contrib/gaussian/g16/B01/g16/l703.exe)
 Integral derivatives from FoFJK, PRISM(SPDF).
 Compute integral first derivatives, UseDBF=F ICtDFT=           0.
 Calling FoFJK, ICntrl=  10002127 FMM=F ISym2X=1 I1Cent= 0 IOpClX= 0 NMat=1 NMatS=1 NMatT=0.
 FoFJK:  IHMeth= 1 ICntrl=10002127 DoSepK=F KAlg= 0 I1Cent=           0 FoldK=F
 IRaf=         0 NMat=       1 IRICut=       1 DoRegI=T DoRafI=F ISym2E= 1 IDoP0=0 IntGTp=1.
 FoFCou: FMM=F IPFlag=           0 FMFlag=      100000 FMFlg1=         800
         NFxFlg=           0 DoJE=F BraDBF=F KetDBF=F FulRan=T
         wScrn=  0.000000 ICntrl=  10002127 IOpCl=  0 I1Cent=           0 NGrid=           0
         NMat0=    1 NMatS0=      1 NMatT0=    0 NMatD0=    1 NMtDS0=    0 NMtDT0=    0
 Petite list used in FoFCou.
 Leave Link  703 at Thu Oct 28 08:13:26 2021, MaxMem= 16106127360 cpu:              23.4 elap:               0.9
 (Enter /sw/contrib/gaussian/g16/B01/g16/l716.exe)
 Dipole        =-5.73163838D-01 9.97672796D-01-4.70386663D-32
 ***** Axes restored to original set *****
 -------------------------------------------------------------------
 Center     Atomic                   Forces (Hartrees/Bohr)
 Number     Number              X              Y              Z
 -------------------------------------------------------------------
      1        8           0.002262684    0.000000000    0.000002943
      2        1          -0.003334914   -0.000000000   -0.000006505
      3        1           0.000000339    0.000000000    0.000000125
      4       17           0.001071891    0.000000000    0.000003436
 -------------------------------------------------------------------
 Cartesian Forces:  Max     0.003334914 RMS     0.001203827
 -----------------------------------------------------------------------------------------------
                       Internal Coordinate Forces (Hartree/Bohr or radian)
  Cent   Atom   N1       Length/X         N2         Alpha/Y        N3         Beta/Z          J
 -----------------------------------------------------------------------------------------------
      1  O 
      2  H        1  -0.000007(     1)
      3  H        1   0.000000(     2)      2   0.006256(     4)
      4  Cl       1   0.000003(     3)      3  -0.006256(     5)      2   0.000000(     6)     0
 -----------------------------------------------------------------------------------------------
 Internal  Forces:  Max     0.006256410 RMS     0.003612041
 Force constants in Cartesian coordinates: 
                1             2             3             4             5 
      1  0.630920D+00
      2  0.000000D+00  0.209371D-01
      3 -0.301083D-01  0.000000D+00  0.627535D+00
      4 -0.858780D-01  0.000000D+00 -0.460027D-01  0.909319D-01
      5  0.000000D+00 -0.308533D-01  0.000000D+00  0.000000D+00  0.454659D-01
      6  0.000000D+00  0.000000D+00 -0.489951D+00  0.000000D+00  0.000000D+00
      7 -0.547189D+00  0.000000D+00  0.908961D-01  0.955877D-02  0.000000D+00
      8  0.000000D+00  0.000000D+00  0.000000D+00  0.000000D+00  0.000000D+00
      9  0.301083D-01  0.000000D+00 -0.115998D+00  0.460027D-01  0.000000D+00
     10  0.214755D-02  0.000000D+00 -0.147851D-01 -0.146126D-01  0.000000D+00
     11  0.000000D+00  0.991617D-02  0.000000D+00  0.000000D+00 -0.146126D-01
     12  0.000000D+00  0.000000D+00 -0.215858D-01  0.000000D+00  0.000000D+00
                6             7             8             9            10 
      6  0.489951D+00
      7  0.000000D+00  0.534558D+00
      8  0.000000D+00  0.000000D+00  0.100000D+01
      9  0.000000D+00 -0.908961D-01  0.000000D+00  0.115998D+00
     10  0.000000D+00  0.307216D-02  0.000000D+00  0.147851D-01  0.939292D-02
     11  0.000000D+00  0.000000D+00  0.000000D+00  0.000000D+00  0.000000D+00
     12  0.000000D+00  0.000000D+00  0.000000D+00  0.000000D+00  0.000000D+00
               11            12 
     11  0.469646D-02
     12  0.000000D+00  0.215858D-01
 Force constants in internal coordinates: 
                1             2             3             4             5 
      1  0.489951D+00
      2  0.000000D+00  0.553446D+00
      3  0.000000D+00  0.000000D+00  0.215858D-01
      4  0.000000D+00  0.000000D+00  0.000000D+00  0.320000D+00
      5  0.000000D+00  0.000000D+00  0.000000D+00 -0.160000D+00  0.320000D+00
      6  0.000000D+00  0.000000D+00  0.000000D+00  0.000000D+00  0.000000D+00
                6 
      6  0.153378D+00
 Leave Link  716 at Thu Oct 28 08:13:26 2021, MaxMem= 16106127360 cpu:               0.9 elap:               0.1
 (Enter /sw/contrib/gaussian/g16/B01/g16/l103.exe)

 GradGradGradGradGradGradGradGradGradGradGradGradGradGradGradGradGradGrad
 Berny optimization.
 Search for a local minimum.
 Step number   1 out of a maximum of   20
 All quantities printed in internal units (Hartrees-Bohrs-Radians)
 Second derivative matrix not updated -- first step.
 The second derivative matrix:
                          r1        r2        r3        a1        d1
           r1           0.48995
           r2          -0.00000   0.55345
           r3          -0.00000  -0.00000   0.02159
           a1           0.00000   0.00000   0.00000   0.32000
           d1           0.00000   0.00000   0.00000  -0.00000   0.15338
 ITU=  0
     Eigenvalues ---    0.02159   0.32000   0.48995   0.553451000.00000
 RFO step:  Lambda= 0.00000000D+00 EMin= 2.15857908D-02
 Linear search not attempted -- first point.
 Variable       Old X    -DE/DX   Delta X   Delta X   Delta X     New X
                                 (Linear)    (Quad)   (Total)
    r1        1.87593  -0.00001   0.00000  -0.00001  -0.00001   1.87592
    r2        1.81527   0.00000   0.00000   0.00000   0.00000   1.81527
    r3        5.83680   0.00000   0.00000   0.00016   0.00016   5.83696
    a1        1.77567  -0.00000   0.00000  -0.00000  -0.00000   1.77567
    d1        0.00000   0.00000   0.00000   0.00000   0.00000   0.00000
         Item               Value     Threshold  Converged?
 Maximum Force            0.000007     0.000015     YES
 RMS     Force            0.000004     0.000010     YES
 Maximum Displacement     0.000159     0.000060     NO 
 RMS     Displacement     0.000071     0.000040     NO 
 Predicted change in Energy=-3.170067D-10
 Lowest energy point so far.  Saving SCF results.
 GradGradGradGradGradGradGradGradGradGradGradGradGradGradGradGradGradGrad

 Leave Link  103 at Thu Oct 28 08:13:26 2021, MaxMem= 16106127360 cpu:               0.6 elap:               0.0
 (Enter /sw/contrib/gaussian/g16/B01/g16/l202.exe)
 ---------------------------------------------------------------------------------------------------
                            Z-MATRIX (ANGSTROMS AND DEGREES)
   CD    Cent   Atom    N1       Length/X        N2       Alpha/Y        N3        Beta/Z          J
 ---------------------------------------------------------------------------------------------------
      1      1  O 
      2      2  H        1   0.992693(     1)
      3      3  H        1   0.960600(     2)      2  101.738(     4)
      4      4  Cl       1   3.088784(     3)      3  101.738(     5)      2    0.000(     6)      0
 ---------------------------------------------------------------------------------------------------
                         Z-Matrix orientation:                         
 ---------------------------------------------------------------------
 Center     Atomic      Atomic             Coordinates (Angstroms)
 Number     Number       Type             X           Y           Z
 ---------------------------------------------------------------------
      1          8           0        0.000000    0.000000    0.000000
      2          1           0        0.000000    0.000000    0.992693
      3          1           0        0.940512    0.000000   -0.195425
      4         17           0        0.000000    0.000000    3.088784
 ---------------------------------------------------------------------
                    Distance matrix (angstroms):
                    1          2          3          4
     1  O    0.000000
     2  H    0.992693   0.000000
     3  H    0.960600   1.515317   0.000000
     4  Cl   3.088784   2.096091   3.416225   0.000000
 Stoichiometry    ClH2O(1-)
 Framework group  CS[SG(ClH2O)]
 Deg. of freedom     5
 Full point group                 CS      NOp   2
 RotChk:  IX=0 Diff= 2.64D-14
 Largest Abelian subgroup         CS      NOp   2
 Largest concise Abelian subgroup C1      NOp   1
                         Standard orientation:                         
 ---------------------------------------------------------------------
 Center     Atomic      Atomic             Coordinates (Angstroms)
 Number     Number       Type             X           Y           Z
 ---------------------------------------------------------------------
      1          8           0        0.034834    1.974319   -0.000000
      2          1           0        0.034834    0.981626   -0.000000
      3          1           0       -0.905678    2.169744   -0.000000
      4         17           0        0.034834   -1.114466    0.000000
 ---------------------------------------------------------------------
 Rotational constants (GHZ):         606.4628609           4.5447347           4.5109306
 Leave Link  202 at Thu Oct 28 08:13:26 2021, MaxMem= 16106127360 cpu:               1.4 elap:               0.1
 (Enter /sw/contrib/gaussian/g16/B01/g16/l301.exe)
 Standard basis: Aug-CC-pVTZ (5D, 7F)
 Ernie: Thresh=  0.10000D-02 Tol=  0.10000D-05 Strict=F.
 Ernie:  16 primitive shells out of 116 were deleted.
 There are   113 symmetry adapted cartesian basis functions of A'  symmetry.
 There are    51 symmetry adapted cartesian basis functions of A"  symmetry.
 There are    95 symmetry adapted basis functions of A'  symmetry.
 There are    47 symmetry adapted basis functions of A"  symmetry.
   142 basis functions,   240 primitive gaussians,   164 cartesian basis functions
    14 alpha electrons       14 beta electrons
       nuclear repulsion energy        39.2457903481 Hartrees.
 IExCor=    0 DFT=F Ex=HF Corr=None ExCW=0 ScaHFX=  1.000000
 ScaDFX=  1.000000  1.000000  1.000000  1.000000 ScalE2=  1.000000  1.000000
 IRadAn=      5 IRanWt=     -1 IRanGd=            0 ICorTp=0 IEmpDi=  4
 NAtoms=    4 NActive=    4 NUniq=    4 SFac= 1.00D+00 NAtFMM=   60 NAOKFM=F Big=F
 Integral buffers will be    131072 words long.
 Raffenetti 1 integral format.
 Two-electron integral symmetry is turned on.
 Leave Link  301 at Thu Oct 28 08:13:26 2021, MaxMem= 16106127360 cpu:               1.6 elap:               0.1
 (Enter /sw/contrib/gaussian/g16/B01/g16/l302.exe)
 NPDir=0 NMtPBC=     1 NCelOv=     1 NCel=       1 NClECP=     1 NCelD=      1
         NCelK=      1 NCelE2=     1 NClLst=     1 CellRange=     0.0.
 One-electron integrals computed using PRISM.
 One-electron integral symmetry used in STVInt
 NBasis=   142 RedAO= T EigKep=  2.85D-04  NBF=    95    47
 NBsUse=   142 1.00D-06 EigRej= -1.00D+00 NBFU=    95    47
 Leave Link  302 at Thu Oct 28 08:13:26 2021, MaxMem= 16106127360 cpu:               5.2 elap:               0.2
 (Enter /sw/contrib/gaussian/g16/B01/g16/l303.exe)
 DipDrv:  MaxL=1.
 Leave Link  303 at Thu Oct 28 08:13:27 2021, MaxMem= 16106127360 cpu:               0.9 elap:               0.1
 (Enter /sw/contrib/gaussian/g16/B01/g16/l401.exe)
 Initial guess from the checkpoint file:  "/gscratch/ilahie/mccoygrp/hocl/2nd_basis/cl_hoh_tz_eq.chk"
 B after Tr=    -0.000000   -0.000000   -0.000000
         Rot=    1.000000    0.000000    0.000000    0.000000 Ang=   0.00 deg.
 Guess basis will be translated and rotated to current coordinates.
 JPrj=2 DoOrth=T DoCkMO=T.
 Initial guess orbital symmetries:
       Occupied  (A') (A') (A') (A') (A') (A") (A') (A') (A') (A')
                 (A") (A') (A') (A")
       Virtual   (A') (A') (A') (A") (A') (A') (A') (A") (A') (A')
                 (A') (A") (A') (A") (A') (A') (A") (A') (A') (A')
                 (A") (A') (A') (A') (A') (A') (A") (A") (A") (A')
                 (A') (A") (A') (A') (A") (A') (A') (A") (A') (A')
                 (A') (A") (A') (A') (A") (A') (A") (A") (A') (A")
                 (A') (A') (A') (A') (A") (A') (A") (A') (A') (A")
                 (A") (A') (A') (A') (A') (A") (A') (A") (A') (A")
                 (A') (A') (A') (A") (A') (A') (A") (A') (A") (A')
                 (A") (A') (A') (A") (A') (A") (A') (A") (A') (A')
                 (A") (A') (A') (A') (A') (A") (A') (A") (A") (A')
                 (A") (A') (A") (A') (A') (A') (A") (A') (A') (A')
                 (A") (A') (A') (A') (A') (A") (A') (A") (A') (A")
                 (A") (A') (A") (A') (A') (A') (A') (A')
 The electronic state of the initial guess is 1-A'.
 Leave Link  401 at Thu Oct 28 08:13:27 2021, MaxMem= 16106127360 cpu:               3.7 elap:               0.2
 (Enter /sw/contrib/gaussian/g16/B01/g16/l502.exe)
 Keep R1 ints in memory in symmetry-blocked form, NReq=77720007.
 FoFCou: FMM=F IPFlag=           0 FMFlag=           0 FMFlg1=           0
         NFxFlg=           0 DoJE=F BraDBF=F KetDBF=F FulRan=T
         wScrn=  0.000000 ICntrl=       600 IOpCl=  0 I1Cent=           0 NGrid=           0
         NMat0=    1 NMatS0=  10153 NMatT0=    0 NMatD0=    1 NMtDS0=    0 NMtDT0=    0
 Petite list used in FoFCou.
 Closed shell SCF:
 Using DIIS extrapolation, IDIIS=  1040.
 NGot= 16106127360 LenX= 16079895157 LenY= 16079867820
 Requested convergence on RMS density matrix=1.00D-08 within 128 cycles.
 Requested convergence on MAX density matrix=1.00D-06.
 Requested convergence on             energy=1.00D-06.
 No special actions if energy rises.

 Cycle   1  Pass 1  IDiag  1:
 E= -535.650416602752    
 DIIS: error= 1.05D-06 at cycle   1 NSaved=   1.
 NSaved= 1 IEnMin= 1 EnMin= -535.650416602752     IErMin= 1 ErrMin= 1.05D-06
 ErrMax= 1.05D-06  0.00D+00 EMaxC= 1.00D-01 BMatC= 1.78D-10 BMatP= 1.78D-10
 IDIUse=1 WtCom= 1.00D+00 WtEn= 0.00D+00
 Coeff-Com:  0.100D+01
 Coeff:      0.100D+01
 Gap=     0.316 Goal=   None    Shift=    0.000
 RMSDP=1.50D-07 MaxDP=5.24D-06              OVMax= 6.58D-06

 Cycle   2  Pass 1  IDiag  1:
 E= -535.650416602955     Delta-E=       -0.000000000203 Rises=F Damp=F
 DIIS: error= 3.91D-07 at cycle   2 NSaved=   2.
 NSaved= 2 IEnMin= 2 EnMin= -535.650416602955     IErMin= 2 ErrMin= 3.91D-07
 ErrMax= 3.91D-07  0.00D+00 EMaxC= 1.00D-01 BMatC= 1.14D-11 BMatP= 1.78D-10
 IDIUse=1 WtCom= 1.00D+00 WtEn= 0.00D+00
 Coeff-Com: -0.367D-01 0.104D+01
 Coeff:     -0.367D-01 0.104D+01
 Gap=     0.316 Goal=   None    Shift=    0.000
 RMSDP=2.86D-08 MaxDP=1.24D-06 DE=-2.03D-10 OVMax= 2.05D-06

 Cycle   3  Pass 1  IDiag  1:
 E= -535.650416602968     Delta-E=       -0.000000000013 Rises=F Damp=F
 DIIS: error= 2.14D-07 at cycle   3 NSaved=   3.
 NSaved= 3 IEnMin= 3 EnMin= -535.650416602968     IErMin= 3 ErrMin= 2.14D-07
 ErrMax= 2.14D-07  0.00D+00 EMaxC= 1.00D-01 BMatC= 2.85D-12 BMatP= 1.14D-11
 IDIUse=1 WtCom= 1.00D+00 WtEn= 0.00D+00
 Coeff-Com: -0.667D-01 0.308D+00 0.758D+00
 Coeff:     -0.667D-01 0.308D+00 0.758D+00
 Gap=     0.316 Goal=   None    Shift=    0.000
 RMSDP=8.42D-09 MaxDP=2.20D-07 DE=-1.25D-11 OVMax= 5.31D-07

 SCF Done:  E(RHF) =  -535.650416603     A.U. after    3 cycles
            NFock=  3  Conv=0.84D-08     -V/T= 2.0002
 KE= 5.355428390323D+02 PE=-1.361280564561D+03 EE= 2.508415185776D+02
 Leave Link  502 at Thu Oct 28 08:13:28 2021, MaxMem= 16106127360 cpu:              27.6 elap:               1.1
 (Enter /sw/contrib/gaussian/g16/B01/g16/l801.exe)
 ExpMin= 2.53D-02 ExpMax= 4.56D+05 ExpMxC= 1.44D+03 IAcc=3 IRadAn=         5 AccDes= 0.00D+00
 HarFok:  IExCor=  205 AccDes= 0.00D+00 IRadAn=         5 IDoV=-2 UseB2=F ITyADJ=14
 ICtDFT= 12500011 ScaDFX=  1.000000  1.000000  1.000000  1.000000
 Largest valence mixing into a core orbital is  4.53D-04
 Largest core mixing into a valence orbital is  1.83D-04
 Range of M.O.s used for correlation:     7   142
 NBasis=   142 NAE=    14 NBE=    14 NFC=     6 NFV=     0
 NROrb=    136 NOA=     8 NOB=     8 NVA=   128 NVB=   128

 **** Warning!!: The largest alpha MO coefficient is  0.16830345D+02

 Leave Link  801 at Thu Oct 28 08:13:28 2021, MaxMem= 16106127360 cpu:               1.7 elap:               0.1
 (Enter /sw/contrib/gaussian/g16/B01/g16/l906.exe)
 Frozen-core derivative calculation, NFC=   6 NFV=   0.
 FulOut=F Deriv=T AODrv=T NAtomX=     4
   MMem=         252  MDisk=           8 MDiskD=           8
  W3Min=      326032 MinDsk=      657538 NBas6D=         164
 NBas2D=       13905    NTT=       13530    LW2=     3500000
    MDV= 16105837521 MDiskM=      490970 NBas2p=       13825
 Fully direct method using O(ONN) memory.
 IMap=   1   2   3   4   5   6   7   8   9  10  11  12  13  14
 JobTyp=1 Pass  1:  I=   7 to  14 NPSUse= 28 ParTrn=T ParDer=T DoDerP=T.
 Spin components of T(2) and E(2):
     alpha-alpha T2 =       0.1964795974D-01 E2=     -0.6021728953D-01
     alpha-beta  T2 =       0.1073858308D+00 E2=     -0.3631419118D+00
     beta-beta   T2 =       0.1964795974D-01 E2=     -0.6021728953D-01
 The integrals were generated   1 times.
 ANorm=    0.1070832270D+01
 E2 =    -0.4835764908D+00 EUMP2 =    -0.53613399309378D+03
 Leave Link  906 at Thu Oct 28 08:13:32 2021, MaxMem= 16106127360 cpu:             121.4 elap:               4.4
 (Enter /sw/contrib/gaussian/g16/B01/g16/l1002.exe)
 Minotr:  Closed shell wavefunction.
          Computing MP2/KS-MP2 derivatives.
          Using Z-Vector for PSCF gradient.
          Skipping F1 and S1 gradient terms here.
          IDoAtm=1111
          Frozen-core window.
          Direct CPHF calculation.
          Differentiating once with respect to electric field.
                with respect to dipole field.
          Differentiating once with respect to nuclear coordinates.
          Using symmetry in CPHF.
          Requested convergence is 1.0D-10 RMS, and 1.0D-09 maximum.
          NewPWx=F KeepS1=T KeepF1=T KeepIn=T MapXYZ=F SortEE=F KeepMc=T.
 Keep R1 ints in memory in symmetry-blocked form, NReq=77720971.
 FoFCou: FMM=F IPFlag=           0 FMFlag=           0 FMFlg1=           0
         NFxFlg=           0 DoJE=F BraDBF=F KetDBF=F FulRan=T
         wScrn=  0.000000 ICntrl=       600 IOpCl=  0 I1Cent=           0 NGrid=           0
         NMat0=    1 NMatS0=  10153 NMatT0=    0 NMatD0=    1 NMtDS0=    0 NMtDT0=    0
 Petite list used in FoFCou.
          MDV=   16106127360 using IRadAn=       5.
          Solving linear equations separately, MaxMat=       0.
          There are     1 degrees of freedom in the 1st order CPHF.  IDoFFX=0 NUNeed=     1.
 LinEq1:  Iter=  0 NonCon=     1 RMS=3.01D-03 Max=3.98D-02 NDo=     1
 AX will form     1 AO Fock derivatives at one time.
 LinEq1:  Iter=  1 NonCon=     1 RMS=3.75D-04 Max=5.50D-03 NDo=     1
 LinEq1:  Iter=  2 NonCon=     1 RMS=1.13D-04 Max=1.25D-03 NDo=     1
 LinEq1:  Iter=  3 NonCon=     1 RMS=3.66D-05 Max=3.45D-04 NDo=     1
 LinEq1:  Iter=  4 NonCon=     1 RMS=1.06D-05 Max=9.34D-05 NDo=     1
 LinEq1:  Iter=  5 NonCon=     1 RMS=2.65D-06 Max=2.83D-05 NDo=     1
 LinEq1:  Iter=  6 NonCon=     1 RMS=6.50D-07 Max=8.56D-06 NDo=     1
 LinEq1:  Iter=  7 NonCon=     1 RMS=1.62D-07 Max=1.64D-06 NDo=     1
 LinEq1:  Iter=  8 NonCon=     1 RMS=3.80D-08 Max=4.13D-07 NDo=     1
 LinEq1:  Iter=  9 NonCon=     1 RMS=6.46D-09 Max=9.51D-08 NDo=     1
 LinEq1:  Iter= 10 NonCon=     1 RMS=9.33D-10 Max=8.43D-09 NDo=     1
 LinEq1:  Iter= 11 NonCon=     1 RMS=2.22D-10 Max=2.42D-09 NDo=     1
 LinEq1:  Iter= 12 NonCon=     0 RMS=4.99D-11 Max=5.75D-10 NDo=     1
 Linear equations converged to 1.000D-10 1.000D-09 after    12 iterations.
 End of Minotr F.D. properties file   721 does not exist.
 End of Minotr F.D. properties file   722 does not exist.
 End of Minotr F.D. properties file   788 does not exist.
 Leave Link 1002 at Thu Oct 28 08:13:34 2021, MaxMem= 16106127360 cpu:              25.8 elap:               1.2
 (Enter /sw/contrib/gaussian/g16/B01/g16/l701.exe)
 ... and contract with generalized density number  2.
 Compute integral first derivatives.
 Leave Link  701 at Thu Oct 28 08:13:34 2021, MaxMem= 16106127360 cpu:               4.3 elap:               0.2
 (Enter /sw/contrib/gaussian/g16/B01/g16/l702.exe)
 L702 exits ... SP integral derivatives will be done elsewhere.
 Leave Link  702 at Thu Oct 28 08:13:34 2021, MaxMem= 16106127360 cpu:               0.6 elap:               0.0
 (Enter /sw/contrib/gaussian/g16/B01/g16/l703.exe)
 Integral derivatives from FoFJK, PRISM(SPDF).
 Compute integral first derivatives, UseDBF=F ICtDFT=           0.
 Calling FoFJK, ICntrl=  10002127 FMM=F ISym2X=1 I1Cent= 0 IOpClX= 0 NMat=1 NMatS=1 NMatT=0.
 FoFJK:  IHMeth= 1 ICntrl=10002127 DoSepK=F KAlg= 0 I1Cent=           0 FoldK=F
 IRaf=         0 NMat=       1 IRICut=       1 DoRegI=T DoRafI=F ISym2E= 1 IDoP0=0 IntGTp=1.
 FoFCou: FMM=F IPFlag=           0 FMFlag=      100000 FMFlg1=         800
         NFxFlg=           0 DoJE=F BraDBF=F KetDBF=F FulRan=T
         wScrn=  0.000000 ICntrl=  10002127 IOpCl=  0 I1Cent=           0 NGrid=           0
         NMat0=    1 NMatS0=      1 NMatT0=    0 NMatD0=    1 NMtDS0=    0 NMtDT0=    0
 Petite list used in FoFCou.
 Leave Link  703 at Thu Oct 28 08:13:35 2021, MaxMem= 16106127360 cpu:              25.9 elap:               1.0
 (Enter /sw/contrib/gaussian/g16/B01/g16/l716.exe)
 Dipole        =-5.73168863D-01 9.97776793D-01-1.34593893D-32
 ***** Axes restored to original set *****
 -------------------------------------------------------------------
 Center     Atomic                   Forces (Hartrees/Bohr)
 Number     Number              X              Y              Z
 -------------------------------------------------------------------
      1        8           0.002263279   -0.000000000    0.000002074
      2        1          -0.003335206    0.000000000   -0.000002571
      3        1           0.000000018    0.000000000    0.000000055
      4       17           0.001071908   -0.000000000    0.000000442
 -------------------------------------------------------------------
 Cartesian Forces:  Max     0.003335206 RMS     0.001203987
 -----------------------------------------------------------------------------------------------
                       Internal Coordinate Forces (Hartree/Bohr or radian)
  Cent   Atom   N1       Length/X         N2         Alpha/Y        N3         Beta/Z          J
 -----------------------------------------------------------------------------------------------
      1  O 
      2  H        1  -0.000003(     1)
      3  H        1   0.000000(     2)      2   0.006257(     4)
      4  Cl       1   0.000000(     3)      3  -0.006257(     5)      2  -0.000000(     6)     0
 -----------------------------------------------------------------------------------------------
 Internal  Forces:  Max     0.006256680 RMS     0.003612266
 Leave Link  716 at Thu Oct 28 08:13:35 2021, MaxMem= 16106127360 cpu:               1.0 elap:               0.1
 (Enter /sw/contrib/gaussian/g16/B01/g16/l103.exe)

 GradGradGradGradGradGradGradGradGradGradGradGradGradGradGradGradGradGrad
 Berny optimization.
 Search for a local minimum.
 Step number   2 out of a maximum of   20
 All quantities printed in internal units (Hartrees-Bohrs-Radians)
 Update second derivatives using D2CorN and points    2
 DE= -1.55D-08 DEPred=-3.17D-10 R= 4.88D+01
 Trust test= 4.88D+01 RLast= 1.60D-04 DXMaxT set to 3.00D-01
 The second derivative matrix:
                          r1        r2        r3        a1        d1
           r1           0.48995
           r2          -0.00000   0.55345
           r3          -0.00000  -0.00000   0.02159
           a1           0.00000   0.00000   0.00000   0.32000
           d1           0.00000   0.00000   0.00000  -0.00000   0.15338
 ITU=  0  0
     Eigenvalues ---    0.02159   0.32000   0.48995   0.553451000.00000
 RFO step:  Lambda= 0.00000000D+00 EMin= 2.15857908D-02
 Quartic linear search produced a step of  0.00115.
 Variable       Old X    -DE/DX   Delta X   Delta X   Delta X     New X
                                 (Linear)    (Quad)   (Total)
    r1        1.87592  -0.00000  -0.00000  -0.00001  -0.00001   1.87591
    r2        1.81527   0.00000   0.00000   0.00000   0.00000   1.81527
    r3        5.83696   0.00000   0.00000  -0.00001  -0.00001   5.83695
    a1        1.77567  -0.00000  -0.00000  -0.00000  -0.00000   1.77567
    d1        0.00000  -0.00000   0.00000   0.00000   0.00000   0.00000
         Item               Value     Threshold  Converged?
 Maximum Force            0.000003     0.000015     YES
 RMS     Force            0.000001     0.000010     YES
 Maximum Displacement     0.000010     0.000060     YES
 RMS     Displacement     0.000005     0.000040     YES
 Predicted change in Energy=-1.552288D-12
 Optimization completed.
    -- Stationary point found.
                       ----------------------------
                       !   Optimized Parameters   !
                       ! (Angstroms and Degrees)  !
 ----------------------                            ----------------------
 !      Name          Value   Derivative information (Atomic Units)     !
 ------------------------------------------------------------------------
 !       r1          0.9927   -DE/DX =    0.0                           !
 !       r2          0.9606   -DE/DX =    0.0                           !
 !       r3          3.0888   -DE/DX =    0.0                           !
 !       a1        101.7382   -DE/DX =    0.0                           !
 !       d1          0.0      -DE/DX =    0.0                           !
 ------------------------------------------------------------------------
 Lowest energy point so far.  Saving SCF results.
 Largest change from initial coordinates is atom    2       0.000 Angstoms.
 GradGradGradGradGradGradGradGradGradGradGradGradGradGradGradGradGradGrad

 Leave Link  103 at Thu Oct 28 08:13:35 2021, MaxMem= 16106127360 cpu:               0.5 elap:               0.0
 (Enter /sw/contrib/gaussian/g16/B01/g16/l202.exe)
 ---------------------------------------------------------------------------------------------------
                            Z-MATRIX (ANGSTROMS AND DEGREES)
   CD    Cent   Atom    N1       Length/X        N2       Alpha/Y        N3        Beta/Z          J
 ---------------------------------------------------------------------------------------------------
      1      1  O 
      2      2  H        1   0.992693(     1)
      3      3  H        1   0.960600(     2)      2  101.738(     4)
      4      4  Cl       1   3.088784(     3)      3  101.738(     5)      2    0.000(     6)      0
 ---------------------------------------------------------------------------------------------------
                         Z-Matrix orientation:                         
 ---------------------------------------------------------------------
 Center     Atomic      Atomic             Coordinates (Angstroms)
 Number     Number       Type             X           Y           Z
 ---------------------------------------------------------------------
      1          8           0        0.000000    0.000000    0.000000
      2          1           0        0.000000    0.000000    0.992693
      3          1           0        0.940512    0.000000   -0.195425
      4         17           0        0.000000    0.000000    3.088784
 ---------------------------------------------------------------------
                    Distance matrix (angstroms):
                    1          2          3          4
     1  O    0.000000
     2  H    0.992693   0.000000
     3  H    0.960600   1.515317   0.000000
     4  Cl   3.088784   2.096091   3.416225   0.000000
 Stoichiometry    ClH2O(1-)
 Framework group  CS[SG(ClH2O)]
 Deg. of freedom     5
 Full point group                 CS      NOp   2
 RotChk:  IX=0 Diff= 3.14D-16
 Largest Abelian subgroup         CS      NOp   2
 Largest concise Abelian subgroup C1      NOp   1
                         Standard orientation:                         
 ---------------------------------------------------------------------
 Center     Atomic      Atomic             Coordinates (Angstroms)
 Number     Number       Type             X           Y           Z
 ---------------------------------------------------------------------
      1          8           0        0.034834    1.974319   -0.000000
      2          1           0        0.034834    0.981626   -0.000000
      3          1           0       -0.905678    2.169744   -0.000000
      4         17           0        0.034834   -1.114466    0.000000
 ---------------------------------------------------------------------
 Rotational constants (GHZ):         606.4628609           4.5447347           4.5109306
 Leave Link  202 at Thu Oct 28 08:13:35 2021, MaxMem= 16106127360 cpu:               0.4 elap:               0.0
 (Enter /sw/contrib/gaussian/g16/B01/g16/l601.exe)
 Copying SCF densities to generalized density rwf, IOpCl= 0 IROHF=0.

 **********************************************************************

            Population analysis using the SCF Density.

 **********************************************************************

 Orbital symmetries:
       Occupied  (A') (A') (A') (A') (A') (A") (A') (A') (A') (A')
                 (A") (A') (A') (A")
       Virtual   (A') (A') (A') (A") (A') (A') (A') (A") (A') (A')
                 (A') (A") (A') (A") (A') (A') (A") (A') (A') (A')
                 (A") (A') (A') (A') (A') (A') (A") (A") (A") (A')
                 (A') (A") (A') (A') (A") (A') (A') (A") (A') (A')
                 (A') (A") (A') (A') (A") (A') (A") (A") (A') (A")
                 (A') (A') (A') (A') (A") (A') (A") (A') (A') (A")
                 (A") (A') (A') (A') (A') (A") (A') (A") (A') (A")
                 (A') (A') (A') (A") (A') (A') (A") (A') (A") (A')
                 (A") (A') (A') (A") (A') (A") (A') (A") (A') (A')
                 (A") (A') (A') (A') (A') (A") (A') (A") (A") (A')
                 (A") (A') (A") (A') (A') (A') (A") (A') (A') (A')
                 (A") (A') (A') (A') (A') (A") (A') (A") (A') (A")
                 (A") (A') (A") (A') (A') (A') (A') (A')
 The electronic state is 1-A'.
 Alpha  occ. eigenvalues -- -104.53004 -20.37736 -10.25451  -7.72061  -7.72055
 Alpha  occ. eigenvalues --   -7.72054  -1.15792  -0.76532  -0.51567  -0.40551
 Alpha  occ. eigenvalues --   -0.32249  -0.18220  -0.17754  -0.17707
 Alpha virt. eigenvalues --    0.13869   0.18208   0.25649   0.26705   0.27572
 Alpha virt. eigenvalues --    0.28775   0.30505   0.31086   0.35232   0.39680
 Alpha virt. eigenvalues --    0.41297   0.41909   0.43421   0.49914   0.55276
 Alpha virt. eigenvalues --    0.55635   0.58061   0.59266   0.61152   0.66835
 Alpha virt. eigenvalues --    0.68592   0.69991   0.72819   0.82293   0.85612
 Alpha virt. eigenvalues --    0.87160   0.88635   0.89511   0.92371   0.94058
 Alpha virt. eigenvalues --    1.02131   1.02758   1.03848   1.07821   1.08532
 Alpha virt. eigenvalues --    1.09692   1.11009   1.11915   1.14412   1.18718
 Alpha virt. eigenvalues --    1.19901   1.20006   1.23070   1.26102   1.28359
 Alpha virt. eigenvalues --    1.32164   1.32375   1.40144   1.41870   1.44536
 Alpha virt. eigenvalues --    1.44817   1.50567   1.57444   1.59327   1.62328
 Alpha virt. eigenvalues --    1.68694   1.70434   1.74695   1.79052   1.79307
 Alpha virt. eigenvalues --    1.90173   1.90416   2.09605   2.12797   2.26289
 Alpha virt. eigenvalues --    2.46150   2.51878   2.59084   2.63083   2.63427
 Alpha virt. eigenvalues --    2.64819   2.65941   2.74176   2.80505   2.80835
 Alpha virt. eigenvalues --    2.86550   2.89754   2.91994   2.92481   2.98215
 Alpha virt. eigenvalues --    3.00512   3.00582   3.07001   3.16864   3.20511
 Alpha virt. eigenvalues --    3.34473   3.34512   3.39526   3.39792   3.41758
 Alpha virt. eigenvalues --    3.50540   3.53546   3.61501   3.87966   4.21529
 Alpha virt. eigenvalues --    4.23870   4.34940   4.37112   4.45551   4.45666
 Alpha virt. eigenvalues --    4.56589   4.59147   4.64369   4.77998   4.97345
 Alpha virt. eigenvalues --    5.11552   5.29793   5.38073   5.45235   5.52396
 Alpha virt. eigenvalues --    5.68592   5.79759   6.26125   6.50310   6.73761
 Alpha virt. eigenvalues --    6.91106   7.11009   7.29407   7.44314   7.45015
 Alpha virt. eigenvalues --    7.48148   7.55706   7.63582   7.80742   8.09387
 Alpha virt. eigenvalues --    8.14476   8.96790  16.20209
          Condensed to atoms (all electrons):
               1          2          3          4
     1  O    8.100600   0.253003   0.272009  -0.063323
     2  H    0.253003   0.358869   0.024404   0.040614
     3  H    0.272009   0.024404   0.527641   0.004254
     4  Cl  -0.063323   0.040614   0.004254  17.950968
 Mulliken charges:
               1
     1  O   -0.562289
     2  H    0.323110
     3  H    0.171692
     4  Cl  -0.932514
 Sum of Mulliken charges =  -1.00000
 Mulliken charges with hydrogens summed into heavy atoms:
               1
     1  O   -0.067486
     4  Cl  -0.932514
 Electronic spatial extent (au):  <R**2>=            270.8618
 Charge=             -1.0000 electrons
 Dipole moment (field-independent basis, Debye):
    X=             -1.5558    Y=              2.6220    Z=             -0.0000  Tot=              3.0488
 Quadrupole moment (field-independent basis, Debye-Ang):
   XX=            -22.2542   YY=            -35.0677   ZZ=            -24.4662
   XY=             -3.4840   XZ=              0.0000   YZ=             -0.0000
 Traceless Quadrupole moment (field-independent basis, Debye-Ang):
   XX=              5.0085   YY=             -7.8050   ZZ=              2.7965
   XY=             -3.4840   XZ=              0.0000   YZ=             -0.0000
 Octapole moment (field-independent basis, Debye-Ang**2):
  XXX=             -2.2089  YYY=              6.7075  ZZZ=             -0.0000  XYY=             -8.6939
  XXY=              8.1267  XXZ=             -0.0000  XZZ=             -0.2277  YZZ=              3.3732
  YYZ=              0.0000  XYZ=              0.0000
 Hexadecapole moment (field-independent basis, Debye-Ang**3):
 XXXX=            -33.5578 YYYY=           -348.9905 ZZZZ=            -34.0466 XXXY=              0.0647
 XXXZ=             -0.0000 YYYX=            -15.5745 YYYZ=              0.0000 ZZZX=             -0.0000
 ZZZY=              0.0000 XXYY=            -51.8838 XXZZ=            -11.5579 YYZZ=            -61.8325
 XXYZ=              0.0000 YYXZ=              0.0000 ZZXY=              1.1585
 N-N= 3.924579034814D+01 E-N=-1.361280571457D+03  KE= 5.355428390323D+02
 Symmetry A'   KE= 4.858318732600D+02
 Symmetry A"   KE= 4.971096577232D+01
 No NMR shielding tensors so no spin-rotation constants.
 Leave Link  601 at Thu Oct 28 08:13:35 2021, MaxMem= 16106127360 cpu:               4.0 elap:               0.2
 (Enter /sw/contrib/gaussian/g16/B01/g16/l9999.exe)
 1\1\GINC-N2095\POpt\RMP2-FC\Aug-CC-pVTZ\Cl1H2O1(1-)\ABMCCOY\28-Oct-202
 1\1\\#p opt=(z-matrix,tight) mp2/aug-cc-pvtz freq=anh\\title\\-1,1\O\H
 ,1,r1\H,1,r2,2,a1\Cl,1,r3,3,a1,2,d1,0\\r1=0.99269297\r2=0.96060029\r3=
 3.08878425\a1=101.73823766\d1=0.\\Version=ES64L-G16RevB.01\State=1-A'\
 HF=-535.6504166\MP2=-536.1339931\RMSD=8.425e-09\RMSF=1.204e-03\Dipole=
 0.5731689,0.,-0.9977768\PG=CS [SG(Cl1H2O1)]\\@


 CONTRAIWISE...CONTINUED TWEEDLEDEE, IF IT WAS SO, IT MIGHT BE,
 AND IF IT WERE SO, IT WOULD BE.....
 BUT AS IT ISN'T, IT AIN'T....
 THAT'S LOGIC.....
 ALICE THROUGH THE LOOKING GLASS
 Leave Link 9999 at Thu Oct 28 08:13:35 2021, MaxMem= 16106127360 cpu:               0.8 elap:               0.1
 Job cpu time:       0 days  0 hours  7 minutes 58.6 seconds.
 Elapsed time:       0 days  0 hours  0 minutes 19.4 seconds.
 File lengths (MBytes):  RWF=     15 Int=      0 D2E=      0 Chk=     48 Scr=      1
 Normal termination of Gaussian 16 at Thu Oct 28 08:13:35 2021.
 (Enter /sw/contrib/gaussian/g16/B01/g16/l1.exe)
 Link1:  Proceeding to internal job step number  2.
 ----------------------------------------------------------------------
 #P Geom=AllCheck Guess=TCheck SCRF=Check GenChk RMP2(FC)/Aug-CC-pVTZ F
 req
 ----------------------------------------------------------------------
 1/7=10,10=4,29=7,30=1,38=21,40=1,80=1/1,6,3;
 2/12=2,40=1/2;
 3/5=16,6=1,7=10,11=1,14=-4,25=1,30=1,70=2,71=2,116=1,140=1/1,2,3;
 4/5=101,69=2/1;
 5/5=2,38=6,98=1/2;
 8/6=3,8=1,10=1,19=11,30=-1/1;
 9/15=3,16=-3/6;
 11/6=1,8=1,15=11,17=12,24=-1,27=1,28=-2,29=300,32=6,42=3/1,2,10;
 10/6=2,21=1,60=-2/2;
 8/6=4,8=1,10=1,19=11,30=-1/11,4;
 10/5=1,20=4,60=-2/2;
 11/12=2,14=11,16=1,17=2,28=-2,42=3,76=2/2,10,12;
 6/7=2,8=2,9=2,10=2,22=-1/1;
 7/10=1,12=2,25=1,44=2,71=2/1,2,3,16;
 1/7=10,38=20,80=1/6(3);
 7/8=1,25=202,44=-1,71=1,92=10/16,17;
 1/7=10,10=4,30=1,38=20,80=1/3;
 99//99;
 3/5=16,6=1,7=10,11=1,14=-2,25=1,30=1,70=5,71=2,116=1,140=1/1,2,3;
 4/5=5,16=3,69=2/1;
 5/5=2,38=5,98=1/2;
 8/6=3,8=1,10=1,19=11,30=-1/1;
 9/15=3,16=-3/6;
 11/6=1,8=1,15=11,17=12,24=-1,27=1,28=-2,29=300,32=6,42=3/1,2,10;
 10/6=2,21=1,60=-2/2;
 8/6=4,8=1,10=1,19=11,30=-1/11,4;
 10/5=1,20=4,60=-2/2;
 11/12=2,14=11,16=1,17=2,28=-2,42=3,76=2/2,10,12;
 6/7=2,8=2,9=2,10=2,22=-1/1;
 7/7=1,10=1,12=2,25=1,44=2,71=1/1,2,3,16;
 1/7=10,38=20,80=1/6(-12);
 7/8=1,25=202,44=-1,71=1,92=10/16,17;
 1/7=10,10=4,30=1,38=20,80=1/3;
 99//99;
 Leave Link    1 at Thu Oct 28 08:13:35 2021, MaxMem= 16106127360 cpu:               0.6 elap:               0.0
 (Enter /sw/contrib/gaussian/g16/B01/g16/l101.exe)
 Structure from the checkpoint file:  "/gscratch/ilahie/mccoygrp/hocl/2nd_basis/cl_hoh_tz_eq.chk"
 -----
 title
 -----
 Charge = -1 Multiplicity = 1
 Z-Matrix found in chk file.
 O
 H,1,r1
 H,1,r2,2,a1
 Cl,1,r3,3,a1,2,d1,0
      Variables:
 r1=0.99269297
 r2=0.96060029
 r3=3.08878425
 a1=101.73823766
      Constants:
 d1=0.
 Recover connectivity data from disk.
 ITRead=  0  0  0  0
 MicOpt= -1 -1 -1 -1
 NAtoms=      4 NQM=        4 NQMF=       0 NMMI=      0 NMMIF=      0
                NMic=       0 NMicF=      0.
                    Isotopes and Nuclear Properties:
 (Nuclear quadrupole moments (NQMom) in fm**2, nuclear magnetic moments (NMagM)
  in nuclear magnetons)

  Atom         1           2           3           4
 IAtWgt=          16           1           1          35
 AtmWgt=  15.9949146   1.0078250   1.0078250  34.9688527
 NucSpn=           0           1           1           3
 AtZEff=   5.6000000   1.0000000   1.0000000  14.2400000
 NQMom=    0.0000000   0.0000000   0.0000000  -8.1650000
 NMagM=    0.0000000   2.7928460   2.7928460   0.8218740
 AtZNuc=   8.0000000   1.0000000   1.0000000  17.0000000
 Leave Link  101 at Thu Oct 28 08:13:35 2021, MaxMem= 16106127360 cpu:               3.5 elap:               0.2
 (Enter /sw/contrib/gaussian/g16/B01/g16/l106.exe)
 Numerical evaluation of third derivatives.
 Nuclear step= 0.010000 Angstroms, electric field step= 0.000333 atomic units, NStep=1.
 Leave Link  106 at Thu Oct 28 08:13:36 2021, MaxMem= 16106127360 cpu:               0.1 elap:               0.0
 (Enter /sw/contrib/gaussian/g16/B01/g16/l103.exe)

 GradGradGradGradGradGradGradGradGradGradGradGradGradGradGradGradGradGrad
 Berny optimization.
 Initialization pass.
                       ----------------------------
                       !    Initial Parameters    !
                       ! (Angstroms and Degrees)  !
 ----------------------                            ----------------------
 !      Name          Value   Derivative information (Atomic Units)     !
 ------------------------------------------------------------------------
 !       r1          0.9927   calculate D2E/DX2 analytically            !
 !       r2          0.9606   calculate D2E/DX2 analytically            !
 !       r3          3.0888   calculate D2E/DX2 analytically            !
 !       a1        101.7382   calculate D2E/DX2 analytically            !
 !       d1          0.0      frozen, calculate D2E/DX2 analytically    !
 ------------------------------------------------------------------------
 Trust Radius=3.00D-01 FncErr=1.00D-07 GrdErr=1.00D-07 EigMax=2.50D+02 EigMin=1.00D-04
 Number of steps in this run=      2 maximum allowed number of steps=      2.
 GradGradGradGradGradGradGradGradGradGradGradGradGradGradGradGradGradGrad

 Leave Link  103 at Thu Oct 28 08:13:36 2021, MaxMem= 16106127360 cpu:               0.7 elap:               0.1
 (Enter /sw/contrib/gaussian/g16/B01/g16/l202.exe)
                          Input orientation:                          
 ---------------------------------------------------------------------
 Center     Atomic      Atomic             Coordinates (Angstroms)
 Number     Number       Type             X           Y           Z
 ---------------------------------------------------------------------
      1          8           0        0.000000   -0.000000    0.000000
      2          1           0        0.000000   -0.000000    0.992693
      3          1           0        0.940512   -0.000000   -0.195425
      4         17           0        0.000000    0.000000    3.088784
 ---------------------------------------------------------------------
                    Distance matrix (angstroms):
                    1          2          3          4
     1  O    0.000000
     2  H    0.992693   0.000000
     3  H    0.960600   1.515317   0.000000
     4  Cl   3.088784   2.096091   3.416225   0.000000
 Stoichiometry    ClH2O(1-)
 Framework group  CS[SG(ClH2O)]
 Deg. of freedom     5
 Full point group                 CS      NOp   2
 RotChk:  IX=0 Diff= 2.26D-14
 Largest Abelian subgroup         CS      NOp   2
 Largest concise Abelian subgroup C1      NOp   1
                         Standard orientation:                         
 ---------------------------------------------------------------------
 Center     Atomic      Atomic             Coordinates (Angstroms)
 Number     Number       Type             X           Y           Z
 ---------------------------------------------------------------------
      1          8           0        0.034834    1.974319    0.000000
      2          1           0        0.034834    0.981626    0.000000
      3          1           0       -0.905678    2.169744    0.000000
      4         17           0        0.034834   -1.114466   -0.000000
 ---------------------------------------------------------------------
 Rotational constants (GHZ):         606.4628609           4.5447347           4.5109306
 Leave Link  202 at Thu Oct 28 08:13:36 2021, MaxMem= 16106127360 cpu:               0.4 elap:               0.0
 (Enter /sw/contrib/gaussian/g16/B01/g16/l301.exe)
 Standard basis: Aug-CC-pVTZ (5D, 7F)
 Ernie: Thresh=  0.10000D-02 Tol=  0.10000D-05 Strict=F.
 Ernie:  16 primitive shells out of 116 were deleted.
 There are   113 symmetry adapted cartesian basis functions of A'  symmetry.
 There are    51 symmetry adapted cartesian basis functions of A"  symmetry.
 There are    95 symmetry adapted basis functions of A'  symmetry.
 There are    47 symmetry adapted basis functions of A"  symmetry.
   142 basis functions,   240 primitive gaussians,   164 cartesian basis functions
    14 alpha electrons       14 beta electrons
       nuclear repulsion energy        39.2457903481 Hartrees.
 IExCor=    0 DFT=F Ex=HF Corr=None ExCW=0 ScaHFX=  1.000000
 ScaDFX=  1.000000  1.000000  1.000000  1.000000 ScalE2=  1.000000  1.000000
 IRadAn=      5 IRanWt=     -1 IRanGd=            0 ICorTp=0 IEmpDi=  4
 NAtoms=    4 NActive=    4 NUniq=    4 SFac= 1.00D+00 NAtFMM=   60 NAOKFM=F Big=F
 Integral buffers will be    131072 words long.
 Raffenetti 1 integral format.
 Two-electron integral symmetry is turned on.
 Leave Link  301 at Thu Oct 28 08:13:36 2021, MaxMem= 16106127360 cpu:               1.9 elap:               0.1
 (Enter /sw/contrib/gaussian/g16/B01/g16/l302.exe)
 NPDir=0 NMtPBC=     1 NCelOv=     1 NCel=       1 NClECP=     1 NCelD=      1
         NCelK=      1 NCelE2=     1 NClLst=     1 CellRange=     0.0.
 One-electron integrals computed using PRISM.
 One-electron integral symmetry used in STVInt
 NBasis=   142 RedAO= T EigKep=  2.85D-04  NBF=    95    47
 NBsUse=   142 1.00D-06 EigRej= -1.00D+00 NBFU=    95    47
 Leave Link  302 at Thu Oct 28 08:13:36 2021, MaxMem= 16106127360 cpu:               4.4 elap:               0.2
 (Enter /sw/contrib/gaussian/g16/B01/g16/l303.exe)
 DipDrv:  MaxL=1.
 Leave Link  303 at Thu Oct 28 08:13:36 2021, MaxMem= 16106127360 cpu:               1.4 elap:               0.1
 (Enter /sw/contrib/gaussian/g16/B01/g16/l401.exe)
 Initial guess from the checkpoint file:  "/gscratch/ilahie/mccoygrp/hocl/2nd_basis/cl_hoh_tz_eq.chk"
 B after Tr=     0.000000    0.000000   -0.000000
         Rot=    1.000000    0.000000   -0.000000    0.000000 Ang=   0.00 deg.
 Guess basis will be translated and rotated to current coordinates.
 JPrj=2 DoOrth=T DoCkMO=T.
 Initial guess orbital symmetries:
       Occupied  (A') (A') (A') (A') (A') (A") (A') (A') (A') (A')
                 (A") (A') (A') (A")
       Virtual   (A') (A') (A') (A") (A') (A') (A') (A") (A') (A')
                 (A') (A") (A') (A") (A') (A') (A") (A') (A') (A')
                 (A") (A') (A') (A') (A') (A') (A") (A") (A") (A')
                 (A') (A") (A') (A') (A") (A') (A') (A") (A') (A')
                 (A') (A") (A') (A') (A") (A') (A") (A") (A') (A")
                 (A') (A') (A') (A') (A") (A') (A") (A') (A') (A")
                 (A") (A') (A') (A') (A') (A") (A') (A") (A') (A")
                 (A') (A') (A') (A") (A') (A') (A") (A') (A") (A')
                 (A") (A') (A') (A") (A') (A") (A') (A") (A') (A')
                 (A") (A') (A') (A') (A') (A") (A') (A") (A") (A')
                 (A") (A') (A") (A') (A') (A') (A") (A') (A') (A')
                 (A") (A') (A') (A') (A') (A") (A') (A") (A') (A")
                 (A") (A') (A") (A') (A') (A') (A') (A')
 The electronic state of the initial guess is 1-A'.
 Leave Link  401 at Thu Oct 28 08:13:36 2021, MaxMem= 16106127360 cpu:               3.2 elap:               0.2
 (Enter /sw/contrib/gaussian/g16/B01/g16/l502.exe)
 Keep R1 ints in memory in symmetry-blocked form, NReq=77720007.
 FoFCou: FMM=F IPFlag=           0 FMFlag=           0 FMFlg1=           0
         NFxFlg=           0 DoJE=F BraDBF=F KetDBF=F FulRan=T
         wScrn=  0.000000 ICntrl=       600 IOpCl=  0 I1Cent=           0 NGrid=           0
         NMat0=    1 NMatS0=  10153 NMatT0=    0 NMatD0=    1 NMtDS0=    0 NMtDT0=    0
 Petite list used in FoFCou.
 Closed shell SCF:
 Using DIIS extrapolation, IDIIS=  1040.
 NGot= 16106127360 LenX= 16079895157 LenY= 16079867820
 Requested convergence on RMS density matrix=1.00D-08 within 128 cycles.
 Requested convergence on MAX density matrix=1.00D-06.
 Requested convergence on             energy=1.00D-06.
 No special actions if energy rises.

[...]
      4(1)                   406.973    399.797     67.25649582     59.20795789
      5(1)                   205.329    202.023     28.35325090     30.13244448
      6(1)                   757.007    757.143     37.00213389     38.52229821

 Overtones
 ---------
   Mode(n)                  E(harm)   E(anharm)                      I(anharm)
      1(2)                  7787.942   7270.966                      0.81905468
      2(2)                  6594.096   5767.093                      0.31048421
      3(2)                  3330.524   3227.813                     75.94055092
      4(2)                   813.946    782.641                      9.81480740
      5(2)                   410.659    398.647                      4.74271005
      6(2)                  1514.015   1479.093                     56.43943859

 Combination Bands
 -----------------
   Mode(n)     Mode(n)      E(harm)   E(anharm)                      I(anharm)
      2(1)        1(1)      7191.019   6725.743                      0.64844834
      3(1)        1(1)      5559.233   5316.686                      2.42188195
      3(1)        2(1)      4962.310   4605.905                      4.80665828
      4(1)        1(1)      4300.944   4108.235                      0.41074994
      4(1)        2(1)      3704.021   3475.402                      0.50080855
      4(1)        3(1)      2072.235   2001.852                     43.63252637
      5(1)        1(1)      4099.300   3917.040                      0.04236210
      5(1)        2(1)      3502.377   3249.193                     32.43583555
      5(1)        3(1)      1870.592   1820.700                      0.16383550
      5(1)        4(1)       612.303    597.090                      0.05363401
      6(1)        1(1)      4650.979   4470.895                      0.14228055
      6(1)        2(1)      4054.055   3840.457                      0.01500212
      6(1)        3(1)      2422.270   2400.575                      0.15233772
      6(1)        4(1)      1163.981   1159.043                      0.00614675
      6(1)        5(1)       962.337    951.133                      0.01154142

 Units: Transition energies (E) in cm^-1
        Dipole strengths (DS) in 10^-40 esu^2.cm^2

 Fundamental Bands
 -----------------
   Mode(n)                  E(harm)   E(anharm)       DS(harm)      DS(anharm)
      1(1)                  3893.971   3714.560     31.73651171     21.09186743
      2(1)                  3297.048   3021.426   1563.60159407   1597.46466369
      3(1)                  1665.262   1619.142     92.11292622     68.11142335
      4(1)                   406.973    399.797    659.28894402    590.80948409
      5(1)                   205.329    202.023    550.88288721    595.03236054
      6(1)                   757.007    757.143    194.99973040    202.97466573

 Overtones
 ---------
   Mode(n)                  E(harm)   E(anharm)                     DS(anharm)
      1(2)                  7787.942   7270.966                      0.44939494
      2(2)                  6594.096   5767.093                      0.21477807
      3(2)                  3330.524   3227.813                     93.85830757
      4(2)                   813.946    782.641                     50.02953031
      5(2)                   410.659    398.647                     47.46197601
      6(2)                  1514.015   1479.093                    152.22797678

 Combination Bands
 -----------------
   Mode(n)     Mode(n)      E(harm)   E(anharm)                     DS(anharm)
      2(1)        1(1)      7191.019   6725.743                      0.38462941
      3(1)        1(1)      5559.233   5316.686                      1.81726971
      3(1)        2(1)      4962.310   4605.905                      4.16328017
      4(1)        1(1)      4300.944   4108.235                      0.39886838
      4(1)        2(1)      3704.021   3475.402                      0.57487594
      4(1)        3(1)      2072.235   2001.852                     86.95324669
      5(1)        1(1)      4099.300   3917.040                      0.04314464
      5(1)        2(1)      3502.377   3249.193                     39.82510958
      5(1)        3(1)      1870.592   1820.700                      0.35898559
      5(1)        4(1)       612.303    597.090                      0.35835025
      6(1)        1(1)      4650.979   4470.895                      0.12695754
      6(1)        2(1)      4054.055   3840.457                      0.01558393
      6(1)        3(1)      2422.270   2400.575                      0.25316266
      6(1)        4(1)      1163.981   1159.043                      0.02115699
      6(1)        5(1)       962.337    951.133                      0.04840896

 Leave Link  717 at Thu Oct 28 08:27:31 2021, MaxMem= 16106127360 cpu:               6.7 elap:               0.3
 (Enter /sw/contrib/gaussian/g16/B01/g16/l103.exe)

 GradGradGradGradGradGradGradGradGradGradGradGradGradGradGradGradGradGrad
 Berny optimization.
 Search for a local minimum.
 Step number   1 out of a maximum of    2
 All quantities printed in internal units (Hartrees-Bohrs-Radians)
 Second derivative matrix not updated -- analytic derivatives used.
 The second derivative matrix:
                          r1        r2        r3        a1        d1
           r1           0.39015
           r2          -0.00599   0.54380
           r3           0.00876  -0.00004   0.01924
           a1           0.02027   0.03250   0.00119   0.13780
           d1           0.00000   0.00000   0.00000   0.00000   0.06964
 ITU=  0
     Eigenvalues ---    0.01903   0.13356   0.39191   0.546511000.00000
 Angle between quadratic step and forces=  65.06 degrees.
 Linear search not attempted -- first point.
 Variable       Old X    -DE/DX   Delta X   Delta X   Delta X     New X
                                 (Linear)    (Quad)   (Total)
    r1        1.87592  -0.00000   0.00000  -0.00001  -0.00001   1.87591
    r2        1.81527  -0.00000   0.00000  -0.00000  -0.00000   1.81527
    r3        5.83696   0.00000   0.00000   0.00003   0.00003   5.83698
    a1        1.77567  -0.00000   0.00000  -0.00000  -0.00000   1.77567
    d1        0.00000   0.00000   0.00000   0.00000   0.00000   0.00000
         Item               Value     Threshold  Converged?
 Maximum Force            0.000003     0.000015     YES
 RMS     Force            0.000001     0.000010     YES
 Maximum Displacement     0.000028     0.000060     YES
 RMS     Displacement     0.000013     0.000040     YES
 Predicted change in Energy=-1.676411D-11
 Optimization completed.
    -- Stationary point found.
                       ----------------------------
                       !   Optimized Parameters   !
                       ! (Angstroms and Degrees)  !
 ----------------------                            ----------------------
 !      Name          Value   Derivative information (Atomic Units)     !
 ------------------------------------------------------------------------
 !       r1          0.9927   -DE/DX =    0.0                           !
 !       r2          0.9606   -DE/DX =    0.0                           !
 !       r3          3.0888   -DE/DX =    0.0                           !
 !       a1        101.7382   -DE/DX =    0.0                           !
 !       d1          0.0      -DE/DX =    0.0                           !
 ------------------------------------------------------------------------
 GradGradGradGradGradGradGradGradGradGradGradGradGradGradGradGradGradGrad

 Leave Link  103 at Thu Oct 28 08:27:31 2021, MaxMem= 16106127360 cpu:               1.3 elap:               0.1
 (Enter /sw/contrib/gaussian/g16/B01/g16/l9999.exe)

 ----------------------------------------------------------------------

 Electric dipole moment (input orientation):
 (Debye = 10**-18 statcoulomb cm , SI units = C m)
                  (au)            (Debye)         (10**-30 SI)
   Tot        0.115069D+01      0.292476D+01      0.975594D+01
   x          0.573169D+00      0.145685D+01      0.485953D+01
   y          0.000000D+00      0.000000D+00      0.000000D+00
   z         -0.997778D+00     -0.253610D+01     -0.845952D+01

 Dipole polarizability, Alpha (input orientation).
 (esu units = cm**3 , SI units = C**2 m**2 J**-1)
 Alpha(0;0):
               (au)            (10**-24 esu)      (10**-40 SI)
   iso        0.394606D+02      0.584746D+01      0.650618D+01
   aniso      0.107307D+02      0.159013D+01      0.176926D+01
   xx         0.361335D+02      0.535443D+01      0.595760D+01
   yx         0.000000D+00      0.000000D+00      0.000000D+00
   yy         0.357218D+02      0.529342D+01      0.588972D+01
   zx        -0.945607D+00     -0.140124D+00     -0.155909D+00
   zy         0.000000D+00      0.000000D+00      0.000000D+00
   zz         0.465266D+02      0.689454D+01      0.767120D+01

 ----------------------------------------------------------------------

 Dipole orientation:
     8          0.00000000          0.00000000         -0.00000000
     1          0.93441226         -0.00000000         -1.62663502
     1          1.35717814         -0.00000000          1.20551980
    17          2.90744261         -0.00000000         -5.06130774

 Electric dipole moment (dipole orientation):
 (Debye = 10**-18 statcoulomb cm , SI units = C m)
                  (au)            (Debye)         (10**-30 SI)
   Tot        0.115069D+01      0.292476D+01      0.975594D+01
   x          0.000000D+00      0.000000D+00      0.000000D+00
   y          0.000000D+00      0.000000D+00      0.000000D+00
   z          0.115069D+01      0.292476D+01      0.975594D+01

 Dipole polarizability, Alpha (dipole orientation).
 (esu units = cm**3 , SI units = C**2 m**2 J**-1)
 Alpha(0;0):
               (au)            (10**-24 esu)      (10**-40 SI)
   iso        0.394606D+02      0.584746D+01      0.650618D+01
   aniso      0.107307D+02      0.159013D+01      0.176926D+01
   xx         0.378953D+02      0.561550D+01      0.624809D+01
   yx         0.000000D+00      0.000000D+00      0.000000D+00
   yy         0.357218D+02      0.529342D+01      0.588972D+01
   zx        -0.401262D+01     -0.594609D+00     -0.661592D+00
   zy         0.000000D+00      0.000000D+00      0.000000D+00
   zz         0.447648D+02      0.663346D+01      0.738072D+01

 ----------------------------------------------------------------------
 1\1\GINC-N2095\Freq\RMP2-FC\Aug-CC-pVTZ\Cl1H2O1(1-)\ABMCCOY\28-Oct-202
 1\1\\#P Geom=AllCheck Guess=TCheck SCRF=Check GenChk RMP2(FC)/Aug-CC-p
 VTZ Freq\\title\\-1,1\O\H,1,r1\H,1,r2,2,a1\Cl,1,r3,3,a1,2,d1,0\\r1=0.9
 9269297\r2=0.96060029\r3=3.08878425\a1=101.73823766\d1=0.\\Version=ES6
 4L-G16RevB.01\State=1-A'\HF=-535.6504166\MP2=-536.1339931\RMSD=3.875e-
 09\RMSF=1.204e-03\ZeroPoint=0.0232956\Thermal=0.0270774\Dipole=0.57316
 87,0.,-0.9977782\DipoleDeriv=-0.3358298,0.,0.0245638,0.,-0.6053396,0.,
 0.101672,0.,-1.2002209,0.1249508,0.,-0.0604959,0.,0.1649754,0.,-0.0763
 099,0.,1.1306574,0.0717843,0.,0.0193481,0.,0.2854555,0.,-0.0497827,0.,
 0.2720471,-0.8609053,0.,0.016584,0.,-0.8450913,0.,0.0244206,0.,-1.2024
 835\Polar=36.1334595,0.,35.721754,-0.9456068,0.,46.5266288\Quadrupole=
 3.6866968,1.9897791,-5.6764759,0.,-2.458125,0.\PG=CS [SG(Cl1H2O1)]\NIm
 ag=0\\0.55045677,0.,0.01238659,-0.09231159,0.,0.47595471,-0.04886379,0
 .,-0.03330528,0.06555160,0.,-0.01625710,0.,0.,0.02101549,0.02288738,0.
 ,-0.38920312,-0.01577802,0.,0.39015495,-0.50632968,0.,0.12471604,-0.00
 995569,0.,-0.00813689,0.51589121,0.,-0.00127339,0.,0.,0.00187653,0.,0.
 ,-0.00000003,0.06919064,0.,-0.05938235,0.04914642,0.,-0.00971158,-0.11
 640858,0.,0.06972782,0.00473670,0.,0.00090083,-0.00673212,0.,0.0010275
 3,0.00039416,0.,-0.00192848,0.00160126,0.,0.00514390,0.,0.,-0.00663493
 ,0.,0.,-0.00060311,0.,0.,0.00209414,0.00023357,0.,-0.02736925,-0.00006
 313,0.,0.00875975,-0.00017057,0.,-0.00063389,0.00000012,0.,0.01924339\
 \-0.00226329,0.,-0.00000211,0.00333518,0.,0.00000267,0.00000001,0.,-0.
 00000008,-0.00107191,0.,-0.00000048\\-0.00069428,0.,-0.00067063,0.0023
 2827,0.,-0.01520454,0.00062133,0.,0.00197426,0.00066660,0.,-0.00046270
 ,0.,0.,0.00095086,0.00056595,0.,0.02292896,-0.00132487,0.,-0.02228389,
 -0.00120533,0.,-0.00450319,-0.00056707,0.,0.00043364,0.00159499,0.,-0.
 00011723,0.,0.,0.00011528,0.,0.,0.00001349,-0.00298087,0.,0.00261801,-
 0.00061944,0.,0.00129027,0.00399225,0.,-0.00343610,0.00127828,0.,0.000
 20066,-0.00072086,0.,0.00032529,0.00017741,0.,-0.00039193,-0.00073482,
 0.,0.00125055,0.,0.,-0.00060344,0.,0.,-0.00001154,0.,0.,-0.00063558,0.
 00008666,0.,-0.01034243,-0.00002995,0.,-0.00193535,0.00007731,0.,-0.00
 047218,-0.00013402,0.,0.01274996,0.07086882,0.,0.00954666,0.07274330,0
 .,-0.08339283,0.00499318,0.,0.12613433,0.01413409,0.,-0.00439291,0.,0.
 ,-0.00100378,0.12222091,0.,-0.00590855,-0.13028317,0.,0.00199360,-0.07
 594957,0.,-0.19594070,-0.01918179,0.,0.00407994,0.09493086,0.,-0.00552
 054,0.,0.,0.00499380,0.,0.,0.00125235,-0.19662332,0.,0.08922016,0.0044
 5772,0.,0.00584031,0.19274291,0.,-0.09784049,0.00008757,0.,-0.00293693
 ,0.00005453,0.,0.00398232,0.00020050,0.,-0.00057731,-0.00034259,0.,0.0
 0036678,0.,0.,0.00040289,0.,0.,-0.00072560,0.,0.,-0.00004407,0.0016591
 1,0.,0.00008122,-0.00030888,0.,-0.00192537,-0.00088216,0.,0.00278002,-
 0.00046808,0.,-0.00093587,0.,0.02133920,0.,0.,0.23241031,0.,0.,-0.0223
 3604,0.,0.,0.00997999,0.,-0.21999998,-0.00323187,0.,0.,-0.20331222,0.,
 0.,0.21885664,0.,0.,0.00129708,0.,0.,-0.00701082,0.,0.,-0.03067796,0.,
 -0.01619858,0.02533722,0.,-0.00924935,0.00538228,0.,0.,-0.02483083,0.,
 0.,-0.00109178,0.,0.,0.02548830,0.,0.,-0.00030024,0.,0.,0.00026270,0.,
 0.,-0.00004153,0.,0.,-0.00064122,0.,0.00378825,0.00023069,0.,-0.006295
 08,0.00033146,0.,0.00043432,0.00007907,0.,0.,-0.00426726,0.,0.,0.00223
 512,0.,0.,-0.00004037,0.,0.,0.00207251,0.,-0.07298563,0.,0.08364020,0.
 28577307,0.,-0.20821298,0.01626723,0.,-0.12599701,0.01268372,0.,-0.041
 97347,0.,0.,0.00610052,-0.12145093,0.,0.11888241,0.10170772,0.,-0.0619
 5190,0.05823368,0.,-0.16351211,-0.02955360,0.,0.02612847,-0.02951352,0
 .,-0.04187599,0.,0.,0.03561262,0.,0.,0.00685364,-0.15794558,0.,0.09063
 351,0.02112278,0.,-0.05458253,0.13683537,0.,-0.03985052,-0.00151528,0.
 ,0.00373606,0.00060265,0.,-0.00638526,0.00083344,0.,-0.00001257,0.0000
 7919,0.,0.00020926,0.,0.,0.00026033,0.,0.,-0.00059027,0.,0.,0.00012068
 ,-0.00637656,0.,-0.00130294,0.00316651,0.,-0.00234798,0.00054827,0.,0.
 00379953,0.00266178,0.,-0.00014862,0.05016544,0.,0.21002964,0.02898086
 ,0.,-1.63502936,-0.16845827,0.,0.03165057,0.15874562,0.,-0.20258168,0.
 ,0.,0.21938670,-0.02436954,0.,1.65594809,0.02131093,0.,-1.70718086,0.1
 1606165,0.,-0.06142983,0.01724712,0.,0.00204769,-0.13358093,0.,-0.0082
 0997,0.,0.,-0.01047305,0.,0.,0.01805588,-0.00877405,0.,0.01531639,-0.0
 5076226,0.,0.01565277,0.06039729,0.,-0.02670024,0.00223118,0.,0.000798
 40,-0.00753447,0.,0.00101092,0.00027216,0.,-0.00086098,0.00503113,0.,0
 .00076200,0.,0.,-0.00633198,0.,0.,0.00062713,0.,0.,0.00494284,0.004162
 73,0.,-0.03623513,-0.00219923,0.,0.03558000,-0.00101514,0.,-0.00426893
 ,-0.00094835,0.,0.00492406,-1.94289990,0.,0.25795927,0.46068248,0.,0.3
 4170377,0.03299361,0.,0.00238564,-0.02992257,0.,0.03694755,0.,0.,-0.02
 568295,-0.02962993,0.,-0.17228463,0.02956374,0.,0.15149451,1.91084092,
 0.,-0.46243054,-0.00412750,0.,-0.00047435,-1.90728206,0.,-0.29393019,0
 .,0.,-0.01199977,0.,0.,0.30517604,-0.42976826,0.,-0.17445656,-0.032974
 93,0.,0.02409872,0.46201279,0.,0.15149735,-0.00093463,0.,-0.00063759,0
 .00105647,0.,0.00054054,0.00056864,0.,0.00073040,-0.00069048,0.,-0.000
 97663,0.,0.,0.00073517,0.,0.,0.00075391,0.,0.,-0.00051245,-0.00128429,
 0.,0.00503743,0.00102555,0.,-0.00330859,0.00089210,0.,-0.00113950,-0.0
 0063335,0.,-0.00058934,-0.00104878,0.,-0.00032812,0.00036472,0.,0.0010
 2780,0.00049035,0.,-0.00006224,-0.00085829,0.,0.00022054,0.,0.,-0.0005
 8699,-0.00052638,0.,0.00326397,0.00043238,0.,-0.00123672,0.00007996,0.
 ,-0.00032460,0.00005996,0.,0.00001984,-0.00020712,0.,-0.00035850,0.,0.
 ,0.00001903,0.,0.,0.00031853,0.00009875,0.,0.00008638,-0.00029007,0.,0
 .00032256,0.00027356,0.,-0.00023626,0.00047846,0.,0.00002212,0.0003079
 9,0.,0.00007416,0.00006720,0.,-0.00008224,-0.00085319,0.,0.00046606,0.
 ,0.,0.00034742,0.,0.,0.00002094,0.,0.,-0.00083420,0.00006291,0.,-0.004
 37815,-0.00008006,0.,-0.00234981,0.00003119,0.,-0.00017269,-0.00001404
 ,0.,0.00690116,-0.70961007,0.,0.13314669,0.22181177,0.,-0.17243840,-0.
 11305274,0.,0.01371077,0.11659819,0.,-0.03456343,0.,0.,0.04054959,-0.0
 1056473,0.,0.39698880,0.01682624,0.,-0.41868613,0.82291452,0.,-0.23568
 383,-0.00402871,0.,-0.00534451,-0.81909780,0.,-0.09782492,0.,0.,-0.006
 08897,0.,0.,0.10377322,-0.21260358,0.,-0.22535001,-0.03178432,0.,0.016
 09506,0.24346754,0.,0.21090736,-0.00025172,0.,0.00016129,0.00048326,0.
 ,-0.00091699,0.00021200,0.,0.00092036,-0.00044351,0.,-0.00075837,0.,0.
 ,0.00010280,0.,0.,0.00014067,0.,0.,0.00051489,0.00135654,0.,0.00079960
 ,0.00124731,0.,0.00560228,-0.00243921,0.,-0.00165241,-0.00016465,0.,-0
 .00474945,0.10127672,0.,0.37173193,-0.01822588,0.,-1.14838152,-0.09340
 969,0.,0.03024312,0.08804119,0.,-0.35228602,0.,0.,0.35781695,-0.012986
 63,0.,1.10777312,0.00579749,0.,-1.12297797,-0.00786434,0.,-0.01288058,
 0.00575616,0.,0.00753145,0.00211453,0.,-0.02095416,0.,0.,-0.00527804,0
 .,0.,0.02579486,0.03016566,0.,0.04232420,-0.03551138,0.,0.00214659,0.0
 0568755,0.,-0.04353839,-0.00000269,0.,0.00086334,-0.00038767,0.,-0.000
 34231,-0.00000635,0.,-0.00034184,0.00039705,0.,0.00150822,0.,0.,-0.000
 25288,0.,0.,0.00043735,0.,0.,-0.00169258,0.00104684,0.,-0.00171580,-0.
 00052923,0.,0.01305826,-0.00033842,0.,-0.00093240,-0.00017919,0.,-0.01
 041010,-0.49732620,0.,0.00506046,-0.14653386,0.,-0.55533200,-0.0353045
 8,0.,0.20716964,0.05761972,0.,-0.00612057,0.,0.,0.00660515,0.05173822,
 0.,0.62343199,-0.11567309,0.,-0.61396480,0.52901103,0.,-0.06052390,-0.
 01940597,0.,0.06242584,-0.50935626,0.,0.00143208,0.,0.,0.00050482,0.,0
 .,-0.00202920,0.08889180,0.,-0.06216532,-0.09022174,0.,-0.02472618,0.0
 0228835,0.,0.08653040,0.00361975,0.,-0.00011188,-0.00290917,0.,0.00150
 902,-0.00024881,0.,-0.00095842,-0.00046192,0.,-0.00037199,0.,0.,-0.000
 98940,0.,0.,0.00009231,0.,0.,0.00126932,0.00590383,0.,-0.00593467,-0.0
 0127481,0.,0.01525900,-0.00419029,0.,0.00036110,-0.00043873,0.,-0.0096
 8511,-1.08076317,0.,-1.09896329,0.08477131,0.,5.54344901,1.07006287,0.
 ,-0.11345921,-1.02586140,0.,1.11268628,0.,0.,-1.11969147,-0.07812275,0
 .,-5.51700158,0.06791445,0.,5.46041873,0.01055492,0.,0.02956341,-0.031
 15446,0.,0.00873781,0.02069489,0.,-0.01426919,0.,0.,0.02070146,0.,0.,-
 0.00679989,-0.01148547,0.,-0.01559749,0.04817096,0.,0.02064338,-0.0369
 1343,0.,-0.00016145,0.00014540,0.,-0.00087551,-0.01304700,0.,0.0014704
 9,-0.00009535,0.,0.00022794,0.01299725,0.,0.00054619,0.,0.,-0.01369627
 ,0.,0.,0.00036762,0.,0.,0.01278294,0.00483690,0.,-0.01084996,-0.002626
 20,0.,0.03593947,-0.00138779,0.,-0.00488444,-0.00082292,0.,-0.02020464
 ,6.55547325,0.,-1.45449580,-1.52602462,0.,-1.10177030,-0.01874499,0.,-
 0.02381766,-0.01807037,0.,-0.00291819,0.,0.,-0.01095996,0.00768668,0.,
 -0.00890788,-0.00092241,0.,0.04148512,-6.53757639,0.,1.54860937,0.0368
 5051,0.,-0.00648571,6.50176553,0.,1.45667126,0.,0.,0.01442108,0.,0.,-1
 .47045288,1.51823440,0.,1.11288707,0.02390357,0.,-0.03387027,-1.541280
 81,0.,-1.08099764,0.00084811,0.,0.00123290,-0.00003514,0.,-0.00027857,
 -0.00103965,0.,-0.00085716,0.00022665,0.,0.00074270,0.,0.,-0.00054294,
 0.,0.,-0.00063947,0.,0.,0.00043967,0.00010354,0.,-0.00220887,0.0008365
 0,0.,0.00129304,-0.00084286,0.,0.00198084,-0.00009718,0.,-0.00106482\\
 @


 IT'S WHAT A FELLER THINKS HE KNOWS THAT HURTS HIM...
                    ------
           KIN HUBBARD
 Job cpu time:       0 days  6 hours 19 minutes 32.4 seconds.
 Elapsed time:       0 days  0 hours 13 minutes 52.0 seconds.
 File lengths (MBytes):  RWF=   2354 Int=      0 D2E=      0 Chk=     48 Scr=      1
 Normal termination of Gaussian 16 at Thu Oct 28 08:27:32 2021.
