 Entering Gaussian System, Link 0=g16
 Input=ihocl-_pp-eq.gjf
 Output=ihocl-_pp-eq.log
 Initial command:
 /sw/contrib/gaussian/g16/B01/g16/l1.exe "/scr/Gau-23372.inp" -scrdir="/scr/"
 Entering Link 1 = /sw/contrib/gaussian/g16/B01/g16/l1.exe PID=     23373.
  
 Copyright (c) 1988-2017, Gaussian, Inc.  All Rights Reserved.
  
 This is part of the Gaussian(R) 16 program.  It is based on
 the Gaussian(R) 09 system (copyright 2009, Gaussian, Inc.),
 the Gaussian(R) 03 system (copyright 2003, Gaussian, Inc.),
 the Gaussian(R) 98 system (copyright 1998, Gaussian, Inc.),
 the Gaussian(R) 94 system (copyright 1995, Gaussian, Inc.),
 the Gaussian 92(TM) system (copyright 1992, Gaussian, Inc.),
 the Gaussian 90(TM) system (copyright 1990, Gaussian, Inc.),
 the Gaussian 88(TM) system (copyright 1988, Gaussian, Inc.),
 the Gaussian 86(TM) system (copyright 1986, Carnegie Mellon
 University), and the Gaussian 82(TM) system (copyright 1983,
 Carnegie Mellon University). Gaussian is a federally registered
 trademark of Gaussian, Inc.
  
 This software contains proprietary and confidential information,
 including trade secrets, belonging to Gaussian, Inc.
  
 This software is provided under written license and may be
 used, copied, transmitted, or stored only in accord with that
 written license.
  
 The following legend is applicable only to US Government
 contracts under FAR:
  
                    RESTRICTED RIGHTS LEGEND
  
 Use, reproduction and disclosure by the US Government is
 subject to restrictions as set forth in subparagraphs (a)
 and (c) of the Commercial Computer Software - Restricted
 Rights clause in FAR 52.227-19.
  
 Gaussian, Inc.
 340 Quinnipiac St., Bldg. 40, Wallingford CT 06492
  
  
 ---------------------------------------------------------------
 Warning -- This program may not be used in any manner that
 competes with the business of Gaussian, Inc. or will provide
 assistance to any competitor of Gaussian, Inc.  The licensee
 of this program is prohibited from giving any competitor of
 Gaussian, Inc. access to this program.  By using this program,
 the user acknowledges that Gaussian, Inc. is engaged in the
 business of creating and licensing software in the field of
 computational chemistry and represents and warrants to the
 licensee that it is not a competitor of Gaussian, Inc. and that
 it will not use this program in any manner prohibited above.
 ---------------------------------------------------------------
  

 Cite this work as:
 Gaussian 16, Revision B.01,
 M. J. Frisch, G. W. Trucks, H. B. Schlegel, G. E. Scuseria, 
 M. A. Robb, J. R. Cheeseman, G. Scalmani, V. Barone, 
 G. A. Petersson, H. Nakatsuji, X. Li, M. Caricato, A. V. Marenich, 
 J. Bloino, B. G. Janesko, R. Gomperts, B. Mennucci, H. P. Hratchian, 
 J. V. Ortiz, A. F. Izmaylov, J. L. Sonnenberg, D. Williams-Young, 
 F. Ding, F. Lipparini, F. Egidi, J. Goings, B. Peng, A. Petrone, 
 T. Henderson, D. Ranasinghe, V. G. Zakrzewski, J. Gao, N. Rega, 
 G. Zheng, W. Liang, M. Hada, M. Ehara, K. Toyota, R. Fukuda, 
 J. Hasegawa, M. Ishida, T. Nakajima, Y. Honda, O. Kitao, H. Nakai, 
 T. Vreven, K. Throssell, J. A. Montgomery, Jr., J. E. Peralta, 
 F. Ogliaro, M. J. Bearpark, J. J. Heyd, E. N. Brothers, K. N. Kudin, 
 V. N. Staroverov, T. A. Keith, R. Kobayashi, J. Normand, 
 K. Raghavachari, A. P. Rendell, J. C. Burant, S. S. Iyengar, 
 J. Tomasi, M. Cossi, J. M. Millam, M. Klene, C. Adamo, R. Cammi, 
 J. W. Ochterski, R. L. Martin, K. Morokuma, O. Farkas, 
 J. B. Foresman, and D. J. Fox, Gaussian, Inc., Wallingford CT, 2016.
 
 ******************************************
 Gaussian 16:  ES64L-G16RevB.01 20-Dec-2017
                22-Oct-2021 
 ******************************************
 %nproc=28
 Will use up to   28 processors via shared memory.
 %mem=120GB
 %chk=/gscratch/ilahie/mccoygrp/hocl/2nd_basis/i_hocl_pp_eq.chk
 ----------------------------------------------------
 #p opt=(z-matrix,tight) mp2/gen Pseudo=read freq=anh
 ----------------------------------------------------
 1/7=10,10=7,18=40,38=1,80=1/1,3;
 2/12=2,17=6,18=5,29=3,40=1/2;
 3/5=7,11=9,16=1,17=8,25=1,30=1,71=1/1,2,3;
 4//1;
 5/5=2,38=5/2;
 8/6=4,10=1/1;
 9/15=2,16=-3/6;
 10/5=1/2;
 6/7=2,8=2,9=2,10=2/1;
 7/12=2,29=1/1,2,3,16;
 1/7=10,10=7,18=40,80=1/3(2);
 2/29=3/2;
 99//99;
 2/29=3/2;
 3/5=7,6=1,11=9,16=1,17=8,25=1,30=1,71=1,82=7/1,2,3;
 4/5=5,16=3,69=1/1;
 5/5=2,38=5/2;
 8/6=4,10=1/1;
 9/15=2,16=-3/6;
 10/5=1/2;
 7/12=2/1,2,3,16;
 1/7=10,18=40,80=1/3(-8);
 2/29=3/2;
 6/7=2,8=2,9=2,10=2/1;
 99/9=10/99;
 Leave Link    1 at Fri Oct 22 15:24:19 2021, MaxMem= 16106127360 cpu:               2.8 elap:               0.1
 (Enter /sw/contrib/gaussian/g16/B01/g16/l101.exe)
 -----
 title
 -----
 Symbolic Z-matrix:
 Charge = -1 Multiplicity = 1
 O
 H                    1    r1
 Cl                   1    r2       2    a1
 I                    1    r3       3    a1       2    d1       0
       Variables:
  r1                    0.98795                  
  r2                    1.68763                  
  r3                    3.31057                  
  a1                  103.16625                  
  d1                    0.      -1        0.     
 
 ITRead=  0  0  0  0
 MicOpt= -1 -1 -1 -1
 NAtoms=      4 NQM=        4 NQMF=       0 NMMI=      0 NMMIF=      0
                NMic=       0 NMicF=      0.
                    Isotopes and Nuclear Properties:
 (Nuclear quadrupole moments (NQMom) in fm**2, nuclear magnetic moments (NMagM)
  in nuclear magnetons)

  Atom         1           2           3           4
 IAtWgt=          16           1          35         127
 AtmWgt=  15.9949146   1.0078250  34.9688527 126.9004000
 NucSpn=           0           1           3           5
 AtZEff=  -0.0000000  -0.0000000  -0.0000000  -0.0000000
 NQMom=    0.0000000   0.0000000  -8.1650000 -71.0000000
 NMagM=    0.0000000   2.7928460   0.8218740   2.8132800
 AtZNuc=   8.0000000   1.0000000  17.0000000  53.0000000
 Leave Link  101 at Fri Oct 22 15:24:20 2021, MaxMem= 16106127360 cpu:               2.1 elap:               0.1
 (Enter /sw/contrib/gaussian/g16/B01/g16/l103.exe)

 GradGradGradGradGradGradGradGradGradGradGradGradGradGradGradGradGradGrad
 Berny optimization.
 Initialization pass.
                       ----------------------------
                       !    Initial Parameters    !
                       ! (Angstroms and Degrees)  !
 ----------------------                            ----------------------
 !      Name          Value   Derivative information (Atomic Units)     !
 ------------------------------------------------------------------------
 !       r1          0.9879   estimate D2E/DX2                          !
 !       r2          1.6876   estimate D2E/DX2                          !
 !       r3          3.3106   estimate D2E/DX2                          !
 !       a1        103.1663   estimate D2E/DX2                          !
 !       d1          0.0      Frozen                                    !
 ------------------------------------------------------------------------
 Trust Radius=3.00D-01 FncErr=1.00D-07 GrdErr=1.00D-07 EigMax=2.50D+02 EigMin=1.00D-04
 Number of steps in this run=     20 maximum allowed number of steps=    100.
 GradGradGradGradGradGradGradGradGradGradGradGradGradGradGradGradGradGrad

 Leave Link  103 at Fri Oct 22 15:24:20 2021, MaxMem= 16106127360 cpu:               1.3 elap:               0.1
 (Enter /sw/contrib/gaussian/g16/B01/g16/l202.exe)
 ---------------------------------------------------------------------------------------------------
                            Z-MATRIX (ANGSTROMS AND DEGREES)
   CD    Cent   Atom    N1       Length/X        N2       Alpha/Y        N3        Beta/Z          J
 ---------------------------------------------------------------------------------------------------
      1      1  O 
      2      2  H        1   0.987945(     1)
      3      3  Cl       1   1.687630(     2)      2  103.166(     4)
      4      4  I        1   3.310573(     3)      3  103.166(     5)      2    0.000(     6)      0
 ---------------------------------------------------------------------------------------------------
                         Z-Matrix orientation:                         
 ---------------------------------------------------------------------
 Center     Atomic      Atomic             Coordinates (Angstroms)
 Number     Number       Type             X           Y           Z
 ---------------------------------------------------------------------
      1          8           0        0.000000    0.000000    0.000000
      2          1           0        0.000000    0.000000    0.987945
      3         17           0        1.643268    0.000000   -0.384404
      4         53           0       -0.000000    0.000000    3.310573
 ---------------------------------------------------------------------
                    Distance matrix (angstroms):
                    1          2          3          4
     1  O    0.000000
     2  H    0.987945   0.000000
     3  Cl   1.687630   2.140951   0.000000
     4  I    3.310573   2.322628   4.043907   0.000000
 Stoichiometry    ClHIO(1-)
 Framework group  CS[SG(ClHIO)]
 Deg. of freedom     5
 Full point group                 CS      NOp   2
 Largest Abelian subgroup         CS      NOp   2
 Largest concise Abelian subgroup C1      NOp   1
                         Standard orientation:                         
 ---------------------------------------------------------------------
 Center     Atomic      Atomic             Coordinates (Angstroms)
 Number     Number       Type             X           Y           Z
 ---------------------------------------------------------------------
      1          8           0        0.965514   -1.954170    0.000000
      2          1           0        0.677384   -1.009174    0.000000
      3         17           0       -0.494206   -2.801114    0.000000
      4         53           0       -0.000000    1.212481   -0.000000
 ---------------------------------------------------------------------
 Rotational constants (GHZ):          21.7123334           0.9708643           0.9293104
 Leave Link  202 at Fri Oct 22 15:24:20 2021, MaxMem= 16106127360 cpu:               0.4 elap:               0.0
 (Enter /sw/contrib/gaussian/g16/B01/g16/l301.exe)
 General basis read from cards:  (5D, 7F)
 Centers:       2      1      3
 aug-cc-pVTZ
 ****
 Centers:       4
 S 11 1.00
     Exponent=  5.5465000000D+03 Coefficients=  1.5600000000D-04
     Exponent=  8.3821400000D+02 Coefficients=  9.8600000000D-04
     Exponent=  1.8218700000D+02 Coefficients=  2.7920000000D-03
     Exponent=  3.1212300000D+01 Coefficients= -4.3251000000D-02
     Exponent=  1.9531400000D+01 Coefficients=  2.3413400000D-01
     Exponent=  8.2409900000D+00 Coefficients= -7.5094300000D-01
     Exponent=  2.1945500000D+00 Coefficients=  8.8296800000D-01
     Exponent=  1.1091100000D+00 Coefficients=  4.6206100000D-01
     Exponent=  3.7464100000D-01 Coefficients=  2.2286000000D-02
     Exponent=  1.7708000000D-01 Coefficients= -4.3530000000D-03
     Exponent=  8.1061000000D-02 Coefficients=  1.1020000000D-03
 S 11 1.00
     Exponent=  5.5465000000D+03 Coefficients= -7.3000000000D-05
     Exponent=  8.3821400000D+02 Coefficients= -5.0800000000D-04
     Exponent=  1.8218700000D+02 Coefficients= -1.1580000000D-03
     Exponent=  3.1212300000D+01 Coefficients=  1.2193000000D-02
     Exponent=  1.9531400000D+01 Coefficients= -8.7854000000D-02
     Exponent=  8.2409900000D+00 Coefficients=  3.3820000000D-01
     Exponent=  2.1945500000D+00 Coefficients= -5.7655000000D-01
     Exponent=  1.1091100000D+00 Coefficients= -4.0929800000D-01
     Exponent=  3.7464100000D-01 Coefficients=  5.6745900000D-01
     Exponent=  1.7708000000D-01 Coefficients=  6.1248900000D-01
     Exponent=  8.1061000000D-02 Coefficients=  1.4323100000D-01
 S 1 1.00
     Exponent=  3.7464100000D-01 Coefficients=  1.0000000000D+00
 S 1 1.00
     Exponent=  1.7708000000D-01 Coefficients=  1.0000000000D+00
 S 1 1.00
     Exponent=  1.0010000000D-01 Coefficients=  1.0000000000D+00
 S 1 1.00
     Exponent=  4.1200000000D-02 Coefficients=  1.0000000000D+00
 P 9 1.00
     Exponent=  1.8898800000D+02 Coefficients=  5.8500000000D-04
     Exponent=  2.1286800000D+01 Coefficients=  3.6923000000D-02
     Exponent=  1.0039600000D+01 Coefficients= -2.3532400000D-01
     Exponent=  3.4518000000D+00 Coefficients=  3.4148300000D-01
     Exponent=  1.9745600000D+00 Coefficients=  5.3478800000D-01
     Exponent=  1.0242000000D+00 Coefficients=  2.6514100000D-01
     Exponent=  4.4943700000D-01 Coefficients=  2.5787000000D-02
     Exponent=  1.8664800000D-01 Coefficients=  5.2200000000D-04
     Exponent=  7.3481000000D-02 Coefficients=  6.0600000000D-04
 P 9 1.00
     Exponent=  1.8898800000D+02 Coefficients= -2.5600000000D-04
     Exponent=  2.1286800000D+01 Coefficients= -1.1682000000D-02
     Exponent=  1.0039600000D+01 Coefficients=  8.3192000000D-02
     Exponent=  3.4518000000D+00 Coefficients= -1.5697000000D-01
     Exponent=  1.9745600000D+00 Coefficients= -2.2451800000D-01
     Exponent=  1.0242000000D+00 Coefficients= -1.1445100000D-01
     Exponent=  4.4943700000D-01 Coefficients=  3.7535600000D-01
     Exponent=  1.8664800000D-01 Coefficients=  5.7513600000D-01
     Exponent=  7.3481000000D-02 Coefficients=  2.4591700000D-01
 P 1 1.00
     Exponent=  5.9810000000D-01 Coefficients=  1.0000000000D+00
 P 1 1.00
     Exponent=  9.6180000000D-02 Coefficients=  1.0000000000D+00
 P 1 1.00
     Exponent=  3.5900000000D-02 Coefficients=  1.0000000000D+00
 D 9 1.00
     Exponent=  1.3266200000D+02 Coefficients=  5.7200000000D-04
     Exponent=  3.7605400000D+01 Coefficients=  4.4020000000D-03
     Exponent=  1.0389100000D+01 Coefficients= -4.0922000000D-02
     Exponent=  6.4901700000D+00 Coefficients=  9.9661000000D-02
     Exponent=  3.4545100000D+00 Coefficients=  3.2266300000D-01
     Exponent=  1.8441300000D+00 Coefficients=  4.0034300000D-01
     Exponent=  9.6247800000D-01 Coefficients=  2.6830600000D-01
     Exponent=  4.7285300000D-01 Coefficients=  8.4847000000D-02
     Exponent=  1.9320000000D-01 Coefficients=  7.6320000000D-03
 D 1 1.00
     Exponent=  4.7285300000D-01 Coefficients=  1.0000000000D+00
 D 1 1.00
     Exponent=  1.9320000000D-01 Coefficients=  1.0000000000D+00
 D 1 1.00
     Exponent=  7.8200000000D-02 Coefficients=  1.0000000000D+00
 F 1 1.00
     Exponent=  4.0640000000D-01 Coefficients=  1.0000000000D+00
 F 1 1.00
     Exponent=  1.8480000000D-01 Coefficients=  1.0000000000D+00
 ****
 ======================================================================================================
                                       Pseudopotential Parameters
 ======================================================================================================
  Center     Atomic      Valence      Angular      Power
  Number     Number     Electrons     Momentum     of R      Exponent        Coefficient   SO-Coeffient
 ======================================================================================================
    1          8
                                   No pseudopotential on this center.
    2          1
                                   No pseudopotential on this center.
    3         17
                                   No pseudopotential on this center.
    4         53           25
                                      G and up 
                                                     2        1.0000000        0.00000000    0.00000000
                                      S - G
                                                     2       40.0333760       49.98964900    0.00000000
                                                     2       17.3005760      281.00655600    0.00000000
                                                     2        8.8517200       61.41673900    0.00000000
                                      P - G
                                                     2       15.7201410       67.41623900    0.00000000
                                                     2       15.2082220      134.80769600    0.00000000
                                                     2        8.2941860       14.56654800    0.00000000
                                                     2        7.7539490       28.96842200    0.00000000
                                      D - G
                                                     2       13.8177510       35.53875600    0.00000000
                                                     2       13.5878050       53.33975900    0.00000000
                                                     2        6.9476300        9.71646600    0.00000000
                                                     2        6.9600990       14.97750000    0.00000000
                                      F - G
                                                     2       18.5229500      -20.17661800    0.00000000
                                                     2       18.2510350      -26.08807700    0.00000000
                                                     2        7.5579010       -0.22043400    0.00000000
                                                     2        7.5974040       -0.22164600    0.00000000
 ======================================================================================================
 Ernie: Thresh=  0.10000D-02 Tol=  0.10000D-05 Strict=F.
 Ernie:  23 primitive shells out of 166 were deleted.
 There are   139 symmetry adapted cartesian basis functions of A'  symmetry.
 There are    65 symmetry adapted cartesian basis functions of A"  symmetry.
 There are   115 symmetry adapted basis functions of A'  symmetry.
 There are    59 symmetry adapted basis functions of A"  symmetry.
   174 basis functions,   383 primitive gaussians,   204 cartesian basis functions
    26 alpha electrons       26 beta electrons
       nuclear repulsion energy       144.4108393843 Hartrees.
 IExCor=    0 DFT=F Ex=HF Corr=None ExCW=0 ScaHFX=  1.000000
 ScaDFX=  1.000000  1.000000  1.000000  1.000000 ScalE2=  1.000000  1.000000
 IRadAn=      5 IRanWt=     -1 IRanGd=            0 ICorTp=0 IEmpDi=  4
 NAtoms=    4 NActive=    4 NUniq=    4 SFac= 1.00D+00 NAtFMM=   60 NAOKFM=F Big=F
 Integral buffers will be    131072 words long.
 Raffenetti 1 integral format.
 Two-electron integral symmetry is turned on.
 Leave Link  301 at Fri Oct 22 15:24:20 2021, MaxMem= 16106127360 cpu:               2.7 elap:               0.1
 (Enter /sw/contrib/gaussian/g16/B01/g16/l302.exe)
 NPDir=0 NMtPBC=     1 NCelOv=     1 NCel=       1 NClECP=     1 NCelD=      1
         NCelK=      1 NCelE2=     1 NClLst=     1 CellRange=     0.0.
 One-electron integrals computed using PRISM.
 One-electron integral symmetry used in STVInt
   2 Symmetry operations used in ECPInt.
 ECPInt:  NShTT=    1596 NPrTT=   10643 LenC2=    1597 LenP2D=    8418.
 LDataN:  DoStor=T MaxTD1= 7 Len=  274
 NBasis=   174 RedAO= T EigKep=  2.17D-04  NBF=   115    59
 NBsUse=   174 1.00D-06 EigRej= -1.00D+00 NBFU=   115    59
 Leave Link  302 at Fri Oct 22 15:24:20 2021, MaxMem= 16106127360 cpu:               7.0 elap:               0.3
 (Enter /sw/contrib/gaussian/g16/B01/g16/l303.exe)
 DipDrv:  MaxL=1.
 Leave Link  303 at Fri Oct 22 15:24:20 2021, MaxMem= 16106127360 cpu:               1.5 elap:               0.1
 (Enter /sw/contrib/gaussian/g16/B01/g16/l401.exe)
 ExpMin= 2.53D-02 ExpMax= 4.56D+05 ExpMxC= 1.44D+03 IAcc=3 IRadAn=         5 AccDes= 0.00D+00
 Harris functional with IExCor=  205 and IRadAn=       5 diagonalized for initial guess.
 HarFok:  IExCor=  205 AccDes= 0.00D+00 IRadAn=         5 IDoV= 1 UseB2=F ITyADJ=14
 ICtDFT=  3500011 ScaDFX=  1.000000  1.000000  1.000000  1.000000
 Defaulting to unpruned grid for atomic number  53.
 FoFCou: FMM=F IPFlag=           0 FMFlag=      100000 FMFlg1=           0
         NFxFlg=           0 DoJE=T BraDBF=F KetDBF=T FulRan=T
         wScrn=  0.000000 ICntrl=       500 IOpCl=  0 I1Cent=   200000004 NGrid=           0
         NMat0=    1 NMatS0=      1 NMatT0=    0 NMatD0=    1 NMtDS0=    0 NMtDT0=    0
 Petite list used in FoFCou.
 Harris En= -831.058030491559    
 JPrj=0 DoOrth=F DoCkMO=F.
 Initial guess orbital symmetries:
       Occupied  (A') (A') (A') (A') (A') (A") (A') (A') (A") (A')
                 (A') (A') (A") (A") (A') (A') (A') (A') (A') (A')
                 (A") (A') (A') (A") (A") (A')
       Virtual   (A') (A') (A') (A") (A') (A') (A') (A") (A') (A")
                 (A') (A') (A") (A') (A') (A") (A') (A') (A") (A')
                 (A') (A') (A') (A") (A") (A') (A') (A') (A") (A')
                 (A') (A") (A') (A") (A') (A') (A") (A") (A') (A')
                 (A') (A") (A') (A") (A') (A') (A") (A') (A") (A')
                 (A') (A") (A') (A") (A') (A') (A') (A") (A') (A')
                 (A") (A') (A") (A') (A') (A') (A") (A') (A') (A")
                 (A') (A") (A") (A') (A") (A') (A') (A") (A') (A')
                 (A') (A") (A') (A') (A") (A') (A") (A') (A') (A')
                 (A") (A') (A") (A') (A") (A') (A') (A") (A') (A')
                 (A") (A') (A") (A') (A') (A") (A') (A") (A') (A')
                 (A") (A') (A") (A') (A") (A') (A') (A") (A') (A')
                 (A') (A") (A") (A') (A') (A") (A') (A') (A') (A")
                 (A') (A') (A') (A') (A") (A') (A") (A') (A") (A")
                 (A') (A') (A") (A') (A') (A') (A') (A')
 The electronic state of the initial guess is 1-A'.
 Leave Link  401 at Fri Oct 22 15:24:21 2021, MaxMem= 16106127360 cpu:               7.9 elap:               0.3
 (Enter /sw/contrib/gaussian/g16/B01/g16/l502.exe)
 Keep R1 ints in memory in symmetry-blocked form, NReq=174584607.
 FoFCou: FMM=F IPFlag=           0 FMFlag=           0 FMFlg1=           0
         NFxFlg=           0 DoJE=F BraDBF=F KetDBF=F FulRan=T
         wScrn=  0.000000 ICntrl=       600 IOpCl=  0 I1Cent=           0 NGrid=           0
         NMat0=    1 NMatS0=  15225 NMatT0=    0 NMatD0=    1 NMtDS0=    0 NMtDT0=    0
 Petite list used in FoFCou.
 Closed shell SCF:
 Using DIIS extrapolation, IDIIS=  1040.
 NGot= 16106127360 LenX= 16047361013 LenY= 16047318956
 Requested convergence on RMS density matrix=1.00D-08 within 128 cycles.
 Requested convergence on MAX density matrix=1.00D-06.
 Requested convergence on             energy=1.00D-06.
 No special actions if energy rises.

 Cycle   1  Pass 1  IDiag  1:
 E= -829.532436293836    
 DIIS: error= 2.86D-02 at cycle   1 NSaved=   1.
 NSaved= 1 IEnMin= 1 EnMin= -829.532436293836     IErMin= 1 ErrMin= 2.86D-02
 ErrMax= 2.86D-02  0.00D+00 EMaxC= 1.00D-01 BMatC= 4.55D-01 BMatP= 4.55D-01
 IDIUse=3 WtCom= 7.14D-01 WtEn= 2.86D-01
 Coeff-Com:  0.100D+01
 Coeff-En:   0.100D+01
 Coeff:      0.100D+01
 Gap=     0.401 Goal=   None    Shift=    0.000
 GapD=    0.401 DampG=2.000 DampE=0.500 DampFc=1.0000 IDamp=-1.
 RMSDP=3.65D-03 MaxDP=1.04D-01              OVMax= 1.18D-01

 Cycle   2  Pass 1  IDiag  1:
 E= -829.650291554035     Delta-E=       -0.117855260199 Rises=F Damp=F
 DIIS: error= 2.27D-02 at cycle   2 NSaved=   2.
 NSaved= 2 IEnMin= 2 EnMin= -829.650291554035     IErMin= 2 ErrMin= 2.27D-02
 ErrMax= 2.27D-02  0.00D+00 EMaxC= 1.00D-01 BMatC= 5.45D-02 BMatP= 4.55D-01
 IDIUse=3 WtCom= 7.73D-01 WtEn= 2.27D-01
 Coeff-Com:  0.195D+00 0.805D+00
 Coeff-En:   0.000D+00 0.100D+01
 Coeff:      0.150D+00 0.850D+00
 Gap=     0.294 Goal=   None    Shift=    0.000
 RMSDP=1.58D-03 MaxDP=7.60D-02 DE=-1.18D-01 OVMax= 7.85D-02

 Cycle   3  Pass 1  IDiag  1:
 E= -829.676747790588     Delta-E=       -0.026456236553 Rises=F Damp=F
 DIIS: error= 1.05D-02 at cycle   3 NSaved=   3.
 NSaved= 3 IEnMin= 3 EnMin= -829.676747790588     IErMin= 3 ErrMin= 1.05D-02
 ErrMax= 1.05D-02  0.00D+00 EMaxC= 1.00D-01 BMatC= 1.39D-02 BMatP= 5.45D-02
 IDIUse=3 WtCom= 8.95D-01 WtEn= 1.05D-01
 Coeff-Com: -0.171D-02 0.327D+00 0.675D+00
 Coeff-En:   0.000D+00 0.109D+00 0.891D+00
 Coeff:     -0.153D-02 0.304D+00 0.697D+00
 Gap=     0.303 Goal=   None    Shift=    0.000
 RMSDP=4.15D-04 MaxDP=1.87D-02 DE=-2.65D-02 OVMax= 3.58D-02

 Cycle   4  Pass 1  IDiag  1:
 E= -829.686233930640     Delta-E=       -0.009486140052 Rises=F Damp=F
 DIIS: error= 1.99D-03 at cycle   4 NSaved=   4.
 NSaved= 4 IEnMin= 4 EnMin= -829.686233930640     IErMin= 4 ErrMin= 1.99D-03
 ErrMax= 1.99D-03  0.00D+00 EMaxC= 1.00D-01 BMatC= 2.51D-04 BMatP= 1.39D-02
 IDIUse=3 WtCom= 9.80D-01 WtEn= 1.99D-02
 Coeff-Com: -0.881D-02-0.102D-02 0.113D+00 0.897D+00
 Coeff-En:   0.000D+00 0.000D+00 0.000D+00 0.100D+01
 Coeff:     -0.863D-02-0.100D-02 0.111D+00 0.899D+00
 Gap=     0.306 Goal=   None    Shift=    0.000
 RMSDP=9.42D-05 MaxDP=5.91D-03 DE=-9.49D-03 OVMax= 3.72D-03

 Cycle   5  Pass 1  IDiag  1:
 E= -829.686464866026     Delta-E=       -0.000230935386 Rises=F Damp=F
 DIIS: error= 2.73D-04 at cycle   5 NSaved=   5.
 NSaved= 5 IEnMin= 5 EnMin= -829.686464866026     IErMin= 5 ErrMin= 2.73D-04
 ErrMax= 2.73D-04  0.00D+00 EMaxC= 1.00D-01 BMatC= 1.42D-05 BMatP= 2.51D-04
 IDIUse=3 WtCom= 9.97D-01 WtEn= 2.73D-03
 Coeff-Com:  0.174D-02-0.287D-01-0.592D-01-0.371D-01 0.112D+01
 Coeff-En:   0.000D+00 0.000D+00 0.000D+00 0.000D+00 0.100D+01
 Coeff:      0.173D-02-0.286D-01-0.590D-01-0.370D-01 0.112D+01
 Gap=     0.304 Goal=   None    Shift=    0.000
 RMSDP=4.79D-05 MaxDP=2.13D-03 DE=-2.31D-04 OVMax= 2.71D-03

 Cycle   6  Pass 1  IDiag  1:
 E= -829.686497781646     Delta-E=       -0.000032915621 Rises=F Damp=F
 DIIS: error= 1.39D-04 at cycle   6 NSaved=   6.
 NSaved= 6 IEnMin= 6 EnMin= -829.686497781646     IErMin= 6 ErrMin= 1.39D-04
 ErrMax= 1.39D-04  0.00D+00 EMaxC= 1.00D-01 BMatC= 1.78D-06 BMatP= 1.42D-05
 IDIUse=3 WtCom= 9.99D-01 WtEn= 1.39D-03
 Coeff-Com:  0.111D-03 0.881D-02 0.998D-02-0.975D-01-0.286D+00 0.137D+01
 Coeff-En:   0.000D+00 0.000D+00 0.000D+00 0.000D+00 0.000D+00 0.100D+01
 Coeff:      0.111D-03 0.880D-02 0.997D-02-0.974D-01-0.286D+00 0.136D+01
 Gap=     0.305 Goal=   None    Shift=    0.000
 RMSDP=1.65D-05 MaxDP=7.18D-04 DE=-3.29D-05 OVMax= 1.37D-03

 Cycle   7  Pass 1  IDiag  1:
 E= -829.686503732946     Delta-E=       -0.000005951299 Rises=F Damp=F
 DIIS: error= 3.62D-05 at cycle   7 NSaved=   7.
 NSaved= 7 IEnMin= 7 EnMin= -829.686503732946     IErMin= 7 ErrMin= 3.62D-05
 ErrMax= 3.62D-05  0.00D+00 EMaxC= 1.00D-01 BMatC= 1.41D-07 BMatP= 1.78D-06
 IDIUse=1 WtCom= 1.00D+00 WtEn= 0.00D+00
 Coeff-Com: -0.155D-03 0.830D-03 0.412D-02 0.203D-01-0.617D-01-0.210D+00
 Coeff-Com:  0.125D+01
 Coeff:     -0.155D-03 0.830D-03 0.412D-02 0.203D-01-0.617D-01-0.210D+00
 Coeff:      0.125D+01
 Gap=     0.305 Goal=   None    Shift=    0.000
 RMSDP=5.13D-06 MaxDP=1.58D-04 DE=-5.95D-06 OVMax= 4.54D-04

 Cycle   8  Pass 1  IDiag  1:
 E= -829.686504310827     Delta-E=       -0.000000577881 Rises=F Damp=F
 DIIS: error= 1.08D-05 at cycle   8 NSaved=   8.
 NSaved= 8 IEnMin= 8 EnMin= -829.686504310827     IErMin= 8 ErrMin= 1.08D-05
 ErrMax= 1.08D-05  0.00D+00 EMaxC= 1.00D-01 BMatC= 1.97D-08 BMatP= 1.41D-07
 IDIUse=1 WtCom= 1.00D+00 WtEn= 0.00D+00
 Coeff-Com: -0.130D-04-0.128D-02-0.107D-02 0.142D-01 0.341D-01-0.193D+00
 Coeff-Com:  0.564D-01 0.109D+01
 Coeff:     -0.130D-04-0.128D-02-0.107D-02 0.142D-01 0.341D-01-0.193D+00
 Coeff:      0.564D-01 0.109D+01
 Gap=     0.305 Goal=   None    Shift=    0.000
 RMSDP=1.81D-06 MaxDP=4.86D-05 DE=-5.78D-07 OVMax= 1.79D-04

 Cycle   9  Pass 1  IDiag  1:
 E= -829.686504378178     Delta-E=       -0.000000067351 Rises=F Damp=F
 DIIS: error= 4.33D-06 at cycle   9 NSaved=   9.
 NSaved= 9 IEnMin= 9 EnMin= -829.686504378178     IErMin= 9 ErrMin= 4.33D-06
 ErrMax= 4.33D-06  0.00D+00 EMaxC= 1.00D-01 BMatC= 2.04D-09 BMatP= 1.97D-08
 IDIUse=1 WtCom= 1.00D+00 WtEn= 0.00D+00
 Coeff-Com:  0.161D-04 0.298D-03-0.624D-04-0.713D-02-0.363D-02 0.822D-01
 Coeff-Com: -0.126D+00-0.428D+00 0.148D+01
 Coeff:      0.161D-04 0.298D-03-0.624D-04-0.713D-02-0.363D-02 0.822D-01
 Coeff:     -0.126D+00-0.428D+00 0.148D+01
 Gap=     0.305 Goal=   None    Shift=    0.000
 RMSDP=8.17D-07 MaxDP=2.74D-05 DE=-6.74D-08 OVMax= 8.78D-05

 Cycle  10  Pass 1  IDiag  1:
 E= -829.686504388236     Delta-E=       -0.000000010058 Rises=F Damp=F
 DIIS: error= 1.42D-06 at cycle  10 NSaved=  10.
 NSaved=10 IEnMin=10 EnMin= -829.686504388236     IErMin=10 ErrMin= 1.42D-06
 ErrMax= 1.42D-06  0.00D+00 EMaxC= 1.00D-01 BMatC= 2.16D-10 BMatP= 2.04D-09
 IDIUse=1 WtCom= 1.00D+00 WtEn= 0.00D+00
 Coeff-Com: -0.303D-05 0.504D-04 0.108D-03 0.702D-03-0.263D-02-0.221D-02
 Coeff-Com:  0.295D-01-0.299D-02-0.382D+00 0.136D+01
 Coeff:     -0.303D-05 0.504D-04 0.108D-03 0.702D-03-0.263D-02-0.221D-02
 Coeff:      0.295D-01-0.299D-02-0.382D+00 0.136D+01
 Gap=     0.305 Goal=   None    Shift=    0.000
 RMSDP=2.51D-07 MaxDP=6.26D-06 DE=-1.01D-08 OVMax= 2.99D-05

 Cycle  11  Pass 1  IDiag  1:
 E= -829.686504389331     Delta-E=       -0.000000001096 Rises=F Damp=F
 DIIS: error= 6.00D-07 at cycle  11 NSaved=  11.
 NSaved=11 IEnMin=11 EnMin= -829.686504389331     IErMin=11 ErrMin= 6.00D-07
 ErrMax= 6.00D-07  0.00D+00 EMaxC= 1.00D-01 BMatC= 2.37D-11 BMatP= 2.16D-10
 IDIUse=1 WtCom= 1.00D+00 WtEn= 0.00D+00
 Coeff-Com: -0.209D-05-0.391D-04 0.343D-05 0.872D-03 0.483D-03-0.102D-01
 Coeff-Com:  0.145D-01 0.518D-01-0.158D+00-0.148D+00 0.125D+01
 Coeff:     -0.209D-05-0.391D-04 0.343D-05 0.872D-03 0.483D-03-0.102D-01
 Coeff:      0.145D-01 0.518D-01-0.158D+00-0.148D+00 0.125D+01
 Gap=     0.305 Goal=   None    Shift=    0.000
 RMSDP=9.45D-08 MaxDP=2.32D-06 DE=-1.10D-09 OVMax= 1.03D-05

 Cycle  12  Pass 1  IDiag  1:
 E= -829.686504389450     Delta-E=       -0.000000000118 Rises=F Damp=F
 DIIS: error= 1.55D-07 at cycle  12 NSaved=  12.
 NSaved=12 IEnMin=12 EnMin= -829.686504389450     IErMin=12 ErrMin= 1.55D-07
 ErrMax= 1.55D-07  0.00D+00 EMaxC= 1.00D-01 BMatC= 1.37D-12 BMatP= 2.37D-11
 IDIUse=1 WtCom= 1.00D+00 WtEn= 0.00D+00
 Coeff-Com:  0.316D-06-0.349D-05-0.107D-04-0.856D-04 0.247D-03 0.471D-03
 Coeff-Com: -0.285D-02-0.240D-02 0.378D-01-0.859D-01-0.115D+00 0.117D+01
 Coeff:      0.316D-06-0.349D-05-0.107D-04-0.856D-04 0.247D-03 0.471D-03
 Coeff:     -0.285D-02-0.240D-02 0.378D-01-0.859D-01-0.115D+00 0.117D+01
 Gap=     0.305 Goal=   None    Shift=    0.000
 RMSDP=2.53D-08 MaxDP=1.18D-06 DE=-1.18D-10 OVMax= 1.87D-06

 Cycle  13  Pass 1  IDiag  1:
 E= -829.686504389457     Delta-E=       -0.000000000008 Rises=F Damp=F
 DIIS: error= 4.21D-08 at cycle  13 NSaved=  13.
 NSaved=13 IEnMin=13 EnMin= -829.686504389457     IErMin=13 ErrMin= 4.21D-08
 ErrMax= 4.21D-08  0.00D+00 EMaxC= 1.00D-01 BMatC= 1.39D-13 BMatP= 1.37D-12
 IDIUse=1 WtCom= 1.00D+00 WtEn= 0.00D+00
 Coeff-Com:  0.177D-06 0.323D-05-0.552D-06-0.632D-04-0.486D-04 0.774D-03
 Coeff-Com: -0.963D-03-0.385D-02 0.940D-02 0.226D-01-0.109D+00-0.785D-01
 Coeff-Com:  0.116D+01
 Coeff:      0.177D-06 0.323D-05-0.552D-06-0.632D-04-0.486D-04 0.774D-03
 Coeff:     -0.963D-03-0.385D-02 0.940D-02 0.226D-01-0.109D+00-0.785D-01
 Coeff:      0.116D+01
 Gap=     0.305 Goal=   None    Shift=    0.000
 RMSDP=8.10D-09 MaxDP=4.59D-07 DE=-7.62D-12 OVMax= 5.59D-07

 SCF Done:  E(RHF) =  -829.686504389     A.U. after   13 cycles
            NFock= 13  Conv=0.81D-08     -V/T= 2.2850
 KE= 6.456727023128D+02 PE=-2.197187118395D+03 EE= 5.774170723087D+02
 Leave Link  502 at Fri Oct 22 15:24:23 2021, MaxMem= 16106127360 cpu:              48.1 elap:               2.5
 (Enter /sw/contrib/gaussian/g16/B01/g16/l801.exe)
 ExpMin= 2.53D-02 ExpMax= 4.56D+05 ExpMxC= 1.44D+03 IAcc=3 IRadAn=         5 AccDes= 0.00D+00
 HarFok:  IExCor=  205 AccDes= 0.00D+00 IRadAn=         5 IDoV=-2 UseB2=F ITyADJ=14
 ICtDFT= 12500011 ScaDFX=  1.000000  1.000000  1.000000  1.000000
 Defaulting to unpruned grid for atomic number  53.
 DSYEVD-2 returned Info=        1623 IAlg= 4 N=    55 NDim=    55 NE2=   292836798 trying  DSYEV.
 Largest valence mixing into a core orbital is  4.48D-04
 Largest core mixing into a valence orbital is  1.59D-04
 Range of M.O.s used for correlation:    11   174
 NBasis=   174 NAE=    26 NBE=    26 NFC=    10 NFV=     0
 NROrb=    164 NOA=    16 NOB=    16 NVA=   148 NVB=   148

 **** Warning!!: The largest alpha MO coefficient is  0.19816685D+02

 Leave Link  801 at Fri Oct 22 15:24:23 2021, MaxMem= 16106127360 cpu:               4.0 elap:               0.2
 (Enter /sw/contrib/gaussian/g16/B01/g16/l906.exe)
 Frozen-core derivative calculation, NFC=  10 NFV=   0.
 FulOut=F Deriv=T AODrv=T NAtomX=     4
   MMem=         130  MDisk=          16 MDiskD=          16
  W3Min=      922896 MinDsk=     1491158 NBas6D=         204
 NBas2D=       21411    NTT=       20910    LW2=    26219120
    MDV= 16105675385 MDiskM=      394697 NBas2p=       21411
 Fully direct method using O(ONN) memory.
 IMap=   1   2   3   4   5   6   7   8   9  10  11  12  13  14  15  16  17  18  19  20
 IMap=  21  22  23  24  25  26
 JobTyp=1 Pass  1:  I=  11 to  26 NPSUse= 28 ParTrn=T ParDer=T DoDerP=T.
 Spin components of T(2) and E(2):
     alpha-alpha T2 =       0.3134824952D-01 E2=     -0.9155807079D-01
     alpha-beta  T2 =       0.1654938474D+00 E2=     -0.4985707883D+00
     beta-beta   T2 =       0.3134824952D-01 E2=     -0.9155807079D-01
 The integrals were generated   1 times.
 ANorm=    0.1108237495D+01
 E2 =    -0.6816869299D+00 EUMP2 =    -0.83036819131937D+03
 Leave Link  906 at Fri Oct 22 15:24:38 2021, MaxMem= 16106127360 cpu:             410.3 elap:              14.8
 (Enter /sw/contrib/gaussian/g16/B01/g16/l1002.exe)
 Minotr:  Closed shell wavefunction.
          Computing MP2/KS-MP2 derivatives.
          Using Z-Vector for PSCF gradient.
          Skipping F1 and S1 gradient terms here.
          IDoAtm=1111
          Frozen-core window.
          Direct CPHF calculation.
          Differentiating once with respect to electric field.
                with respect to dipole field.
          Differentiating once with respect to nuclear coordinates.
          Using symmetry in CPHF.
          Requested convergence is 1.0D-10 RMS, and 1.0D-09 maximum.
          NewPWx=F KeepS1=T KeepF1=T KeepIn=T MapXYZ=F SortEE=F KeepMc=T.
 Keep R1 ints in memory in symmetry-blocked form, NReq=174585663.
 FoFCou: FMM=F IPFlag=           0 FMFlag=           0 FMFlg1=           0
         NFxFlg=           0 DoJE=F BraDBF=F KetDBF=F FulRan=T
         wScrn=  0.000000 ICntrl=       600 IOpCl=  0 I1Cent=           0 NGrid=           0
         NMat0=    1 NMatS0=  15225 NMatT0=    0 NMatD0=    1 NMtDS0=    0 NMtDT0=    0
 Petite list used in FoFCou.
          MDV=   16106127360 using IRadAn=       5.
          Solving linear equations separately, MaxMat=       0.
          There are     1 degrees of freedom in the 1st order CPHF.  IDoFFX=0 NUNeed=     1.
 LinEq1:  Iter=  0 NonCon=     1 RMS=2.87D-03 Max=4.50D-02 NDo=     1
 AX will form     1 AO Fock derivatives at one time.
 LinEq1:  Iter=  1 NonCon=     1 RMS=4.50D-04 Max=5.11D-03 NDo=     1
 LinEq1:  Iter=  2 NonCon=     1 RMS=1.99D-04 Max=3.65D-03 NDo=     1
 LinEq1:  Iter=  3 NonCon=     1 RMS=6.05D-05 Max=9.50D-04 NDo=     1
 LinEq1:  Iter=  4 NonCon=     1 RMS=2.82D-05 Max=8.08D-04 NDo=     1
 LinEq1:  Iter=  5 NonCon=     1 RMS=7.59D-06 Max=1.18D-04 NDo=     1
 LinEq1:  Iter=  6 NonCon=     1 RMS=1.86D-06 Max=2.18D-05 NDo=     1
 LinEq1:  Iter=  7 NonCon=     1 RMS=4.31D-07 Max=7.95D-06 NDo=     1
 LinEq1:  Iter=  8 NonCon=     1 RMS=1.04D-07 Max=2.18D-06 NDo=     1
 LinEq1:  Iter=  9 NonCon=     1 RMS=3.22D-08 Max=6.21D-07 NDo=     1
 LinEq1:  Iter= 10 NonCon=     1 RMS=9.39D-09 Max=1.69D-07 NDo=     1
 LinEq1:  Iter= 11 NonCon=     1 RMS=2.05D-09 Max=4.01D-08 NDo=     1
 LinEq1:  Iter= 12 NonCon=     1 RMS=4.58D-10 Max=7.95D-09 NDo=     1
 LinEq1:  Iter= 13 NonCon=     1 RMS=1.31D-10 Max=2.46D-09 NDo=     1
 LinEq1:  Iter= 14 NonCon=     0 RMS=2.56D-11 Max=3.68D-10 NDo=     1
 Linear equations converged to 1.000D-10 1.000D-09 after    14 iterations.
 End of Minotr F.D. properties file   721 does not exist.
 End of Minotr F.D. properties file   722 does not exist.
 End of Minotr F.D. properties file   788 does not exist.
 Leave Link 1002 at Fri Oct 22 15:24:41 2021, MaxMem= 16106127360 cpu:              46.9 elap:               2.7
 (Enter /sw/contrib/gaussian/g16/B01/g16/l601.exe)
 Copying SCF densities to generalized density rwf, IOpCl= 0 IROHF=0.

 **********************************************************************

            Population analysis using the SCF Density.

 **********************************************************************

 Orbital symmetries:
       Occupied  (A') (A') (A') (A') (A') (A") (A') (A') (A") (A')
                 (A') (A") (A') (A") (A') (A') (A') (A') (A') (A")
                 (A') (A') (A") (A') (A") (A')
       Virtual   (A') (A') (A') (A") (A') (A') (A") (A') (A') (A')
                 (A") (A') (A') (A") (A') (A") (A') (A') (A') (A")
                 (A') (A') (A") (A') (A") (A') (A') (A') (A') (A')
                 (A") (A") (A') (A") (A') (A") (A') (A') (A') (A')
                 (A") (A') (A") (A") (A') (A') (A') (A") (A") (A')
                 (A') (A") (A') (A') (A") (A') (A") (A') (A') (A')
                 (A") (A') (A") (A') (A') (A') (A") (A') (A") (A')
                 (A") (A') (A") (A') (A') (A") (A") (A') (A') (A')
                 (A') (A") (A') (A') (A') (A") (A") (A') (A') (A')
                 (A") (A') (A") (A') (A") (A') (A') (A") (A') (A')
                 (A") (A') (A") (A') (A') (A") (A') (A") (A') (A')
                 (A") (A') (A') (A") (A") (A') (A') (A") (A') (A')
                 (A') (A") (A") (A') (A") (A') (A') (A') (A') (A')
                 (A") (A') (A') (A') (A") (A') (A") (A') (A") (A")
                 (A') (A') (A") (A') (A') (A') (A') (A')
 The electronic state is 1-A'.
 Alpha  occ. eigenvalues -- -104.74274 -20.47638 -10.46217  -7.92934  -7.92663
 Alpha  occ. eigenvalues --   -7.92652  -7.47760  -5.30340  -5.30279  -5.30277
 Alpha  occ. eigenvalues --   -2.03100  -2.03060  -2.03057  -2.02993  -2.02993
 Alpha  occ. eigenvalues --   -1.24667  -0.90915  -0.64398  -0.55478  -0.45537
 Alpha  occ. eigenvalues --   -0.44698  -0.31948  -0.29316  -0.16281  -0.15273
 Alpha  occ. eigenvalues --   -0.15265
 Alpha virt. eigenvalues --    0.15222   0.17608   0.21545   0.22617   0.24016
 Alpha virt. eigenvalues --    0.24987   0.25259   0.27485   0.29583   0.30570
 Alpha virt. eigenvalues --    0.30676   0.31246   0.34699   0.37432   0.37910
 Alpha virt. eigenvalues --    0.39053   0.41997   0.42578   0.44940   0.50264
 Alpha virt. eigenvalues --    0.52831   0.54376   0.55712   0.55713   0.56808
 Alpha virt. eigenvalues --    0.58716   0.64121   0.66111   0.73952   0.75438
 Alpha virt. eigenvalues --    0.75869   0.76912   0.77296   0.79154   0.79192
 Alpha virt. eigenvalues --    0.81197   0.82205   0.82906   0.83486   0.86246
 Alpha virt. eigenvalues --    0.86923   0.87474   0.88226   0.89404   0.89910
 Alpha virt. eigenvalues --    0.93064   0.95585   0.95965   0.99560   1.01290
 Alpha virt. eigenvalues --    1.03994   1.08180   1.09100   1.11234   1.11887
 Alpha virt. eigenvalues --    1.13357   1.19434   1.19593   1.21418   1.24189
 Alpha virt. eigenvalues --    1.25725   1.32908   1.33751   1.40451   1.44466
 Alpha virt. eigenvalues --    1.49734   1.53807   1.55102   1.60162   1.60187
 Alpha virt. eigenvalues --    1.66361   1.68260   1.70843   1.73265   1.74324
 Alpha virt. eigenvalues --    1.74460   1.76223   1.77523   1.80611   1.85485
 Alpha virt. eigenvalues --    1.87602   1.90103   1.90536   1.96595   2.05208
 Alpha virt. eigenvalues --    2.05222   2.10471   2.13819   2.15949   2.29060
 Alpha virt. eigenvalues --    2.37142   2.49766   2.52133   2.54583   2.56529
 Alpha virt. eigenvalues --    2.57767   2.59041   2.67104   2.68364   2.70189
 Alpha virt. eigenvalues --    2.70917   2.72628   2.75955   2.77919   2.90146
 Alpha virt. eigenvalues --    2.96964   3.01852   3.07871   3.18129   3.20428
 Alpha virt. eigenvalues --    3.20584   3.24612   3.28319   3.29400   3.29642
 Alpha virt. eigenvalues --    3.36390   3.52094   3.53388   3.53780   3.84910
 Alpha virt. eigenvalues --    3.94020   4.31030   4.43133   4.52920   4.56884
 Alpha virt. eigenvalues --    4.61042   4.77158   4.99464   5.16189   5.40573
 Alpha virt. eigenvalues --    5.42541   5.69030   6.38883   6.57381   6.83075
 Alpha virt. eigenvalues --    6.89243   6.90169   6.97611   7.30580   7.34091
 Alpha virt. eigenvalues --    7.37664   7.43710   7.51142   7.76833   7.80002
 Alpha virt. eigenvalues --    8.36508  15.06440  59.21350
          Condensed to atoms (all electrons):
               1          2          3          4
     1  O    8.400030   0.188404   0.001907  -0.077900
     2  H    0.188404   0.427210  -0.015382   0.082315
     3  Cl   0.001907  -0.015382  16.933363   0.004974
     4  I   -0.077900   0.082315   0.004974  25.870763
 Mulliken charges:
               1
     1  O   -0.512441
     2  H    0.317453
     3  Cl   0.075139
     4  I   -0.880151
 Sum of Mulliken charges =  -1.00000
 Mulliken charges with hydrogens summed into heavy atoms:
               1
     1  O   -0.194987
     3  Cl   0.075139
     4  I   -0.880151
 Electronic spatial extent (au):  <R**2>=            892.0333
 Charge=             -1.0000 electrons
 Dipole moment (field-independent basis, Debye):
    X=             -0.5877    Y=             -2.0137    Z=              0.0000  Tot=              2.0977
 Quadrupole moment (field-independent basis, Debye-Ang):
   XX=            -53.0107   YY=            -67.2218   ZZ=            -52.7721
   XY=              2.0688   XZ=             -0.0000   YZ=             -0.0000
 Traceless Quadrupole moment (field-independent basis, Debye-Ang):
   XX=              4.6575   YY=             -9.5536   ZZ=              4.8961
   XY=              2.0688   XZ=             -0.0000   YZ=             -0.0000
 Octapole moment (field-independent basis, Debye-Ang**2):
  XXX=             -1.0923  YYY=             42.6467  ZZZ=             -0.0000  XYY=             -6.4730
  XXY=              9.0138  XXZ=             -0.0000  XZZ=              0.8018  YZZ=              9.3436
  YYZ=              0.0000  XYZ=              0.0000
 Hexadecapole moment (field-independent basis, Debye-Ang**3):
 XXXX=           -134.0650 YYYY=          -1190.7045 ZZZZ=            -84.4649 XXXY=            -12.1339
 XXXZ=             -0.0000 YYYX=             -4.2005 YYYZ=             -0.0000 ZZZX=             -0.0000
 ZZZY=              0.0000 XXYY=           -207.0215 XXZZ=            -37.4008 YYZZ=           -205.6310
 XXYZ=              0.0000 YYXZ=             -0.0000 ZZXY=             -8.1813
 N-N= 1.444108393843D+02 E-N=-2.197187118295D+03  KE= 6.456727023128D+02
 Symmetry A'   KE= 5.563615659654D+02
 Symmetry A"   KE= 8.931113634744D+01
 No NMR shielding tensors so no spin-rotation constants.
 Leave Link  601 at Fri Oct 22 15:24:42 2021, MaxMem= 16106127360 cpu:               6.2 elap:               0.3
 (Enter /sw/contrib/gaussian/g16/B01/g16/l701.exe)
 ... and contract with generalized density number  2.
 Compute integral first derivatives.
   2 Symmetry operations used in ECPInt.
 ECPInt:  NShTT=    1596 NPrTT=   10643 LenC2=    1597 LenP2D=    8418.
 LDataN:  DoStor=T MaxTD1= 8 Len=  415
 Leave Link  701 at Fri Oct 22 15:24:43 2021, MaxMem= 16106127360 cpu:              24.0 elap:               0.9
 (Enter /sw/contrib/gaussian/g16/B01/g16/l702.exe)
 L702 exits ... SP integral derivatives will be done elsewhere.
 Leave Link  702 at Fri Oct 22 15:24:43 2021, MaxMem= 16106127360 cpu:               1.0 elap:               0.1
 (Enter /sw/contrib/gaussian/g16/B01/g16/l703.exe)
 Integral derivatives from FoFJK, PRISM(SPDF).
 Compute integral first derivatives, UseDBF=F ICtDFT=           0.
 Calling FoFJK, ICntrl=  10002127 FMM=F ISym2X=1 I1Cent= 0 IOpClX= 0 NMat=1 NMatS=1 NMatT=0.
 FoFJK:  IHMeth= 1 ICntrl=10002127 DoSepK=F KAlg= 0 I1Cent=           0 FoldK=F
 IRaf=         0 NMat=       1 IRICut=       1 DoRegI=T DoRafI=F ISym2E= 1 IDoP0=0 IntGTp=1.
 FoFCou: FMM=F IPFlag=           0 FMFlag=      100000 FMFlg1=         800
         NFxFlg=           0 DoJE=F BraDBF=F KetDBF=F FulRan=T
         wScrn=  0.000000 ICntrl=  10002127 IOpCl=  0 I1Cent=           0 NGrid=           0
         NMat0=    1 NMatS0=      1 NMatT0=    0 NMatD0=    1 NMtDS0=    0 NMtDT0=    0
 Petite list used in FoFCou.
 Leave Link  703 at Fri Oct 22 15:24:45 2021, MaxMem= 16106127360 cpu:              59.1 elap:               2.1
 (Enter /sw/contrib/gaussian/g16/B01/g16/l716.exe)
 Dipole        =-2.67287140D-01-7.23995252D-01 6.92252041D-33
 ***** Axes restored to original set *****
 -------------------------------------------------------------------
 Center     Atomic                   Forces (Hartrees/Bohr)
 Number     Number              X              Y              Z
 -------------------------------------------------------------------
      1        8          -0.000189814    0.000000000   -0.014198278
      2        1           0.001292273   -0.000000000    0.013728646
      3       17          -0.000667826    0.000000000    0.000057545
      4       53          -0.000434632    0.000000000    0.000412086
 -------------------------------------------------------------------
 Cartesian Forces:  Max     0.014198278 RMS     0.005719709
 -----------------------------------------------------------------------------------------------
                       Internal Coordinate Forces (Hartree/Bohr or radian)
  Cent   Atom   N1       Length/X         N2         Alpha/Y        N3         Beta/Z          J
 -----------------------------------------------------------------------------------------------
      1  O 
      2  H        1   0.013729(     1)
      3  Cl       1  -0.000663(     2)      2  -0.002413(     4)
      4  I        1   0.000412(     3)      3   0.002719(     5)      2   0.000000(     6)     0
 -----------------------------------------------------------------------------------------------
 Internal  Forces:  Max     0.013728646 RMS     0.005806606
 Force constants in Cartesian coordinates: 
                1             2             3             4             5 
      1  0.449726D+00
      2  0.000000D+00  0.246953D-01
      3 -0.356885D-01  0.000000D+00  0.574157D+00
      4 -0.842313D-01  0.000000D+00 -0.261663D-01  0.918092D-01
      5  0.000000D+00 -0.351997D-01  0.000000D+00  0.000000D+00  0.501721D-01
      6  0.000000D+00  0.000000D+00 -0.498721D+00  0.000000D+00  0.000000D+00
      7 -0.365864D+00  0.000000D+00  0.740558D-01  0.612100D-02  0.000000D+00
      8  0.000000D+00  0.000000D+00  0.000000D+00  0.000000D+00  0.000000D+00
      9  0.356885D-01  0.000000D+00 -0.576354D-01  0.261663D-01  0.000000D+00
     10  0.369171D-03  0.000000D+00 -0.122009D-01 -0.136989D-01  0.000000D+00
     11  0.000000D+00  0.105043D-01  0.000000D+00  0.000000D+00 -0.149724D-01
     12  0.000000D+00  0.000000D+00 -0.178009D-01  0.000000D+00  0.000000D+00
                6             7             8             9            10 
      6  0.498721D+00
      7  0.000000D+00  0.356889D+00
      8  0.000000D+00  0.000000D+00  0.100000D+01
      9  0.000000D+00 -0.740558D-01  0.000000D+00  0.576354D-01
     10  0.000000D+00  0.285412D-02  0.000000D+00  0.122009D-01  0.104756D-01
     11  0.000000D+00  0.000000D+00  0.000000D+00  0.000000D+00  0.000000D+00
     12  0.000000D+00  0.000000D+00  0.000000D+00  0.000000D+00  0.000000D+00
               11            12 
     11  0.446809D-02
     12  0.000000D+00  0.178009D-01
 Force constants in internal coordinates: 
                1             2             3             4             5 
      1  0.498721D+00
      2  0.000000D+00  0.374212D+00
      3  0.000000D+00  0.000000D+00  0.178009D-01
      4  0.000000D+00  0.000000D+00  0.000000D+00  0.320000D+00
      5  0.000000D+00  0.000000D+00  0.000000D+00 -0.160000D+00  0.410000D+00
      6  0.000000D+00  0.000000D+00  0.000000D+00  0.000000D+00  0.000000D+00
                6 
      6  0.165801D+00
 Leave Link  716 at Fri Oct 22 15:24:45 2021, MaxMem= 16106127360 cpu:               1.6 elap:               0.1
 (Enter /sw/contrib/gaussian/g16/B01/g16/l103.exe)

 GradGradGradGradGradGradGradGradGradGradGradGradGradGradGradGradGradGrad
 Berny optimization.
 Search for a local minimum.
 Step number   1 out of a maximum of   20
 All quantities printed in internal units (Hartrees-Bohrs-Radians)
 Second derivative matrix not updated -- first step.
 The second derivative matrix:
                          r1        r2        r3        a1        d1
           r1           0.49872
           r2          -0.00000   0.37421
           r3          -0.00000  -0.00000   0.01780
           a1           0.00000  -0.00000   0.00000   0.41000
           d1          -0.00000   0.00000  -0.00000   0.00000   0.16580
 ITU=  0
     Eigenvalues ---    0.01780   0.37421   0.41000   0.498721000.00000
 RFO step:  Lambda=-3.88363253D-04 EMin= 1.78009176D-02
 Linear search not attempted -- first point.
 Variable       Old X    -DE/DX   Delta X   Delta X   Delta X     New X
                                 (Linear)    (Quad)   (Total)
    r1        1.86695   0.01373   0.00000   0.02751   0.02751   1.89445
    r2        3.18916  -0.00066   0.00000  -0.00177  -0.00177   3.18739
    r3        6.25608   0.00041   0.00000   0.02266   0.02266   6.27873
    a1        1.80059   0.00031   0.00000   0.00075   0.00075   1.80134
    d1        0.00000   0.00000   0.00000   0.00000   0.00000   0.00000
         Item               Value     Threshold  Converged?
 Maximum Force            0.013729     0.000015     NO 
 RMS     Force            0.006877     0.000010     NO 
 Maximum Displacement     0.027506     0.000060     NO 
 RMS     Displacement     0.015960     0.000040     NO 
 Predicted change in Energy=-1.944292D-04
 Lowest energy point so far.  Saving SCF results.
 GradGradGradGradGradGradGradGradGradGradGradGradGradGradGradGradGradGrad

 Leave Link  103 at Fri Oct 22 15:24:45 2021, MaxMem= 16106127360 cpu:               1.8 elap:               0.1
 (Enter /sw/contrib/gaussian/g16/B01/g16/l202.exe)
 ---------------------------------------------------------------------------------------------------
                            Z-MATRIX (ANGSTROMS AND DEGREES)
   CD    Cent   Atom    N1       Length/X        N2       Alpha/Y        N3        Beta/Z          J
 ---------------------------------------------------------------------------------------------------
      1      1  O 
      2      2  H        1   1.002501(     1)
      3      3  Cl       1   1.686693(     2)      2  103.209(     4)
      4      4  I        1   3.322562(     3)      3  103.209(     5)      2    0.000(     6)      0
 ---------------------------------------------------------------------------------------------------
                         Z-Matrix orientation:                         
 ---------------------------------------------------------------------
 Center     Atomic      Atomic             Coordinates (Angstroms)
 Number     Number       Type             X           Y           Z
 ---------------------------------------------------------------------
      1          8           0        0.000000    0.000000    0.000000
      2          1           0        0.000000    0.000000    1.002501
      3         17           0        1.642068    0.000000   -0.385417
      4         53           0        0.000000    0.000000    3.322562
 ---------------------------------------------------------------------
                    Distance matrix (angstroms):
                    1          2          3          4
     1  O    0.000000
     2  H    1.002501   0.000000
     3  Cl   1.686693   2.150047   0.000000
     4  I    3.322562   2.320061   4.055304   0.000000
 Stoichiometry    ClHIO(1-)
 Framework group  CS[SG(ClHIO)]
 Deg. of freedom     5
 Full point group                 CS      NOp   2
 RotChk:  IX=3 Diff= 8.26D-01
 Largest Abelian subgroup         CS      NOp   2
 Largest concise Abelian subgroup C1      NOp   1
                         Standard orientation:                         
 ---------------------------------------------------------------------
 Center     Atomic      Atomic             Coordinates (Angstroms)
 Number     Number       Type             X           Y           Z
 ---------------------------------------------------------------------
      1          8           0       -0.292979   -2.167832   -0.000000
      2          1           0       -0.000000   -1.209098   -0.000000
      3         17           0       -1.975996   -2.056531   -0.000000
      4         53           0        0.678033    1.009675    0.000000
 ---------------------------------------------------------------------
 Rotational constants (GHZ):          21.7259034           0.9649347           0.9239005
 Leave Link  202 at Fri Oct 22 15:24:45 2021, MaxMem= 16106127360 cpu:               0.4 elap:               0.0
 (Enter /sw/contrib/gaussian/g16/B01/g16/l301.exe)
 Basis read from rwf:  (5D, 7F)
 Pseudo-potential data read from rwf file.
 There are   139 symmetry adapted cartesian basis functions of A'  symmetry.
 There are    65 symmetry adapted cartesian basis functions of A"  symmetry.
 There are   115 symmetry adapted basis functions of A'  symmetry.
 There are    59 symmetry adapted basis functions of A"  symmetry.
   174 basis functions,   383 primitive gaussians,   204 cartesian basis functions
    26 alpha electrons       26 beta electrons
       nuclear repulsion energy       144.0891877333 Hartrees.
 IExCor=    0 DFT=F Ex=HF Corr=None ExCW=0 ScaHFX=  1.000000
 ScaDFX=  1.000000  1.000000  1.000000  1.000000 ScalE2=  1.000000  1.000000
 IRadAn=      5 IRanWt=     -1 IRanGd=            0 ICorTp=0 IEmpDi=  4
 NAtoms=    4 NActive=    4 NUniq=    4 SFac= 1.00D+00 NAtFMM=   60 NAOKFM=F Big=F
 Integral buffers will be    131072 words long.
 Raffenetti 1 integral format.
 Two-electron integral symmetry is turned on.
 No density basis found on file   724.
 Leave Link  301 at Fri Oct 22 15:24:45 2021, MaxMem= 16106127360 cpu:               1.8 elap:               0.1
 (Enter /sw/contrib/gaussian/g16/B01/g16/l302.exe)
 NPDir=0 NMtPBC=     1 NCelOv=     1 NCel=       1 NClECP=     1 NCelD=      1
         NCelK=      1 NCelE2=     1 NClLst=     1 CellRange=     0.0.
 One-electron integrals computed using PRISM.
 One-electron integral symmetry used in STVInt
   2 Symmetry operations used in ECPInt.
 ECPInt:  NShTT=    1596 NPrTT=   10643 LenC2=    1597 LenP2D=    8409.
 LDataN:  DoStor=T MaxTD1= 7 Len=  274
 NBasis=   174 RedAO= T EigKep=  2.23D-04  NBF=   115    59
 NBsUse=   174 1.00D-06 EigRej= -1.00D+00 NBFU=   115    59
 Leave Link  302 at Fri Oct 22 15:24:45 2021, MaxMem= 16106127360 cpu:               6.4 elap:               0.3
 (Enter /sw/contrib/gaussian/g16/B01/g16/l303.exe)
 DipDrv:  MaxL=1.
 Leave Link  303 at Fri Oct 22 15:24:45 2021, MaxMem= 16106127360 cpu:               1.3 elap:               0.1
 (Enter /sw/contrib/gaussian/g16/B01/g16/l401.exe)
 Initial guess from the checkpoint file:  "/gscratch/ilahie/mccoygrp/hocl/2nd_basis/i_hocl_pp_eq.chk"
 B after Tr=     0.000000    0.000000    0.000000
         Rot=    0.956608   -0.000000    0.000000    0.291379 Ang=  33.88 deg.
 Guess basis will be translated and rotated to current coordinates.
 JPrj=2 DoOrth=T DoCkMO=T.
 Initial guess orbital symmetries:
       Occupied  (A') (A') (A') (A') (A') (A") (A') (A') (A") (A')
                 (A') (A") (A') (A") (A') (A') (A') (A') (A') (A")
                 (A') (A') (A") (A') (A") (A')
       Virtual   (A') (A') (A') (A") (A') (A') (A") (A') (A') (A')
                 (A") (A') (A') (A") (A') (A") (A') (A') (A') (A")
                 (A') (A') (A") (A') (A") (A') (A') (A') (A') (A')
                 (A") (A") (A') (A") (A') (A") (A') (A') (A') (A')
                 (A") (A') (A") (A") (A') (A') (A') (A") (A") (A')
                 (A') (A") (A') (A') (A") (A') (A") (A') (A') (A')
                 (A") (A') (A") (A') (A') (A') (A") (A') (A") (A')
                 (A") (A') (A") (A') (A') (A") (A") (A') (A') (A')
                 (A') (A") (A') (A') (A') (A") (A") (A') (A') (A')
                 (A") (A') (A") (A') (A") (A') (A') (A") (A') (A')
                 (A") (A') (A") (A') (A') (A") (A') (A") (A') (A')
                 (A") (A') (A') (A") (A") (A') (A') (A") (A') (A')
                 (A') (A") (A") (A') (A") (A') (A') (A') (A') (A')
                 (A") (A') (A') (A') (A") (A') (A") (A') (A") (A")
                 (A') (A') (A") (A') (A') (A') (A') (A')
 The electronic state of the initial guess is 1-A'.
 Generating alternative initial guess.
 ExpMin= 2.53D-02 ExpMax= 4.56D+05 ExpMxC= 1.44D+03 IAcc=3 IRadAn=         5 AccDes= 0.00D+00
 Harris functional with IExCor=  205 and IRadAn=       5 diagonalized for initial guess.
 HarFok:  IExCor=  205 AccDes= 0.00D+00 IRadAn=         5 IDoV= 1 UseB2=F ITyADJ=14
 ICtDFT=  3500011 ScaDFX=  1.000000  1.000000  1.000000  1.000000
 Defaulting to unpruned grid for atomic number  53.
 FoFCou: FMM=F IPFlag=           0 FMFlag=      100000 FMFlg1=           0
         NFxFlg=           0 DoJE=T BraDBF=F KetDBF=T FulRan=T
         wScrn=  0.000000 ICntrl=       500 IOpCl=  0 I1Cent=   200000004 NGrid=           0
         NMat0=    1 NMatS0=      1 NMatT0=    0 NMatD0=    1 NMtDS0=    0 NMtDT0=    0
 Petite list used in FoFCou.
 Harris En= -831.057656736363    
 Leave Link  401 at Fri Oct 22 15:24:46 2021, MaxMem= 16106127360 cpu:               8.4 elap:               0.3
 (Enter /sw/contrib/gaussian/g16/B01/g16/l502.exe)
 Keep R1 ints in memory in symmetry-blocked form, NReq=174584607.
 FoFCou: FMM=F IPFlag=           0 FMFlag=           0 FMFlg1=           0
         NFxFlg=           0 DoJE=F BraDBF=F KetDBF=F FulRan=T
         wScrn=  0.000000 ICntrl=       600 IOpCl=  0 I1Cent=           0 NGrid=           0
         NMat0=    1 NMatS0=  15225 NMatT0=    0 NMatD0=    1 NMtDS0=    0 NMtDT0=    0
 Petite list used in FoFCou.
 Closed shell SCF:
 Using DIIS extrapolation, IDIIS=  1040.
 NGot= 16106127360 LenX= 16047361013 LenY= 16047318956
 Requested convergence on RMS density matrix=1.00D-08 within 128 cycles.
 Requested convergence on MAX density matrix=1.00D-06.
 Requested convergence on             energy=1.00D-06.
 No special actions if energy rises.

 Cycle   1  Pass 1  IDiag  1:
 E= -829.686008525941    
 DIIS: error= 7.72D-04 at cycle   1 NSaved=   1.
 NSaved= 1 IEnMin= 1 EnMin= -829.686008525941     IErMin= 1 ErrMin= 7.72D-04
 ErrMax= 7.72D-04  0.00D+00 EMaxC= 1.00D-01 BMatC= 9.15D-05 BMatP= 9.15D-05
 IDIUse=3 WtCom= 9.92D-01 WtEn= 7.72D-03
 Coeff-Com:  0.100D+01
 Coeff-En:   0.100D+01
 Coeff:      0.100D+01
 Gap=     0.305 Goal=   None    Shift=    0.000
 RMSDP=7.54D-05 MaxDP=3.23D-03              OVMax= 2.20D-03

 Cycle   2  Pass 1  IDiag  1:
 E= -829.686075403874     Delta-E=       -0.000066877934 Rises=F Damp=F
 DIIS: error= 1.33D-04 at cycle   2 NSaved=   2.
 NSaved= 2 IEnMin= 2 EnMin= -829.686075403874     IErMin= 2 ErrMin= 1.33D-04
 ErrMax= 1.33D-04  0.00D+00 EMaxC= 1.00D-01 BMatC= 4.13D-06 BMatP= 9.15D-05
 IDIUse=3 WtCom= 9.99D-01 WtEn= 1.33D-03
 Coeff-Com: -0.355D-01 0.104D+01
 Coeff-En:   0.000D+00 0.100D+01
 Coeff:     -0.355D-01 0.104D+01
 Gap=     0.306 Goal=   None    Shift=    0.000
 RMSDP=1.63D-05 MaxDP=7.29D-04 DE=-6.69D-05 OVMax= 1.01D-03

 Cycle   3  Pass 1  IDiag  1:
 E= -829.686079213954     Delta-E=       -0.000003810079 Rises=F Damp=F
 DIIS: error= 1.03D-04 at cycle   3 NSaved=   3.
 NSaved= 3 IEnMin= 3 EnMin= -829.686079213954     IErMin= 3 ErrMin= 1.03D-04
 ErrMax= 1.03D-04  0.00D+00 EMaxC= 1.00D-01 BMatC= 1.24D-06 BMatP= 4.13D-06
 IDIUse=3 WtCom= 9.99D-01 WtEn= 1.03D-03
 Coeff-Com: -0.538D-01 0.335D+00 0.719D+00
 Coeff-En:   0.000D+00 0.000D+00 0.100D+01
 Coeff:     -0.537D-01 0.335D+00 0.719D+00
 Gap=     0.306 Goal=   None    Shift=    0.000
 RMSDP=4.94D-06 MaxDP=1.30D-04 DE=-3.81D-06 OVMax= 3.53D-04

 Cycle   4  Pass 1  IDiag  1:
 E= -829.686080226596     Delta-E=       -0.000001012642 Rises=F Damp=F
 DIIS: error= 2.48D-05 at cycle   4 NSaved=   4.
 NSaved= 4 IEnMin= 4 EnMin= -829.686080226596     IErMin= 4 ErrMin= 2.48D-05
 ErrMax= 2.48D-05  0.00D+00 EMaxC= 1.00D-01 BMatC= 7.25D-08 BMatP= 1.24D-06
 IDIUse=1 WtCom= 1.00D+00 WtEn= 0.00D+00
 Coeff-Com: -0.377D-02-0.516D-01 0.118D+00 0.937D+00
 Coeff:     -0.377D-02-0.516D-01 0.118D+00 0.937D+00
 Gap=     0.306 Goal=   None    Shift=    0.000
 RMSDP=2.25D-06 MaxDP=1.02D-04 DE=-1.01D-06 OVMax= 1.68D-04

 Cycle   5  Pass 1  IDiag  1:
 E= -829.686080338490     Delta-E=       -0.000000111894 Rises=F Damp=F
 DIIS: error= 5.15D-06 at cycle   5 NSaved=   5.
 NSaved= 5 IEnMin= 5 EnMin= -829.686080338490     IErMin= 5 ErrMin= 5.15D-06
 ErrMax= 5.15D-06  0.00D+00 EMaxC= 1.00D-01 BMatC= 4.07D-09 BMatP= 7.25D-08
 IDIUse=1 WtCom= 1.00D+00 WtEn= 0.00D+00
 Coeff-Com:  0.365D-02-0.223D-01-0.547D-01-0.484D-01 0.112D+01
 Coeff:      0.365D-02-0.223D-01-0.547D-01-0.484D-01 0.112D+01
 Gap=     0.306 Goal=   None    Shift=    0.000
 RMSDP=9.96D-07 MaxDP=4.39D-05 DE=-1.12D-07 OVMax= 7.73D-05

 Cycle   6  Pass 1  IDiag  1:
 E= -829.686080353081     Delta-E=       -0.000000014591 Rises=F Damp=F
 DIIS: error= 1.77D-06 at cycle   6 NSaved=   6.
 NSaved= 6 IEnMin= 6 EnMin= -829.686080353081     IErMin= 6 ErrMin= 1.77D-06
 ErrMax= 1.77D-06  0.00D+00 EMaxC= 1.00D-01 BMatC= 4.66D-10 BMatP= 4.07D-09
 IDIUse=1 WtCom= 1.00D+00 WtEn= 0.00D+00
 Coeff-Com: -0.104D-03 0.582D-02-0.336D-02-0.690D-01-0.109D+00 0.118D+01
 Coeff:     -0.104D-03 0.582D-02-0.336D-02-0.690D-01-0.109D+00 0.118D+01
 Gap=     0.306 Goal=   None    Shift=    0.000
 RMSDP=3.51D-07 MaxDP=1.64D-05 DE=-1.46D-08 OVMax= 2.52D-05

 Cycle   7  Pass 1  IDiag  1:
 E= -829.686080354982     Delta-E=       -0.000000001901 Rises=F Damp=F
 DIIS: error= 8.51D-07 at cycle   7 NSaved=   7.
 NSaved= 7 IEnMin= 7 EnMin= -829.686080354982     IErMin= 7 ErrMin= 8.51D-07
 ErrMax= 8.51D-07  0.00D+00 EMaxC= 1.00D-01 BMatC= 6.69D-11 BMatP= 4.66D-10
 IDIUse=1 WtCom= 1.00D+00 WtEn= 0.00D+00
 Coeff-Com: -0.523D-03 0.279D-02 0.103D-01 0.159D-01-0.166D+00-0.892D-01
 Coeff-Com:  0.123D+01
 Coeff:     -0.523D-03 0.279D-02 0.103D-01 0.159D-01-0.166D+00-0.892D-01
 Coeff:      0.123D+01
 Gap=     0.306 Goal=   None    Shift=    0.000
 RMSDP=1.38D-07 MaxDP=4.08D-06 DE=-1.90D-09 OVMax= 1.03D-05

 Cycle   8  Pass 1  IDiag  1:
 E= -829.686080355238     Delta-E=       -0.000000000256 Rises=F Damp=F
 DIIS: error= 2.03D-07 at cycle   8 NSaved=   8.
 NSaved= 8 IEnMin= 8 EnMin= -829.686080355238     IErMin= 8 ErrMin= 2.03D-07
 ErrMax= 2.03D-07  0.00D+00 EMaxC= 1.00D-01 BMatC= 6.08D-12 BMatP= 6.69D-11
 IDIUse=1 WtCom= 1.00D+00 WtEn= 0.00D+00
 Coeff-Com:  0.699D-04-0.100D-02-0.183D-03 0.455D-02 0.230D-01-0.715D-01
 Coeff-Com: -0.157D+00 0.120D+01
 Coeff:      0.699D-04-0.100D-02-0.183D-03 0.455D-02 0.230D-01-0.715D-01
 Coeff:     -0.157D+00 0.120D+01
 Gap=     0.306 Goal=   None    Shift=    0.000
 RMSDP=3.55D-08 MaxDP=1.34D-06 DE=-2.56D-10 OVMax= 3.13D-06

 Cycle   9  Pass 1  IDiag  1:
 E= -829.686080355258     Delta-E=       -0.000000000020 Rises=F Damp=F
 DIIS: error= 8.33D-08 at cycle   9 NSaved=   9.
 NSaved= 9 IEnMin= 9 EnMin= -829.686080355258     IErMin= 9 ErrMin= 8.33D-08
 ErrMax= 8.33D-08  0.00D+00 EMaxC= 1.00D-01 BMatC= 1.05D-12 BMatP= 6.08D-12
 IDIUse=1 WtCom= 1.00D+00 WtEn= 0.00D+00
 Coeff-Com:  0.634D-04-0.365D-03-0.938D-03-0.186D-02 0.165D-01 0.233D-01
 Coeff-Com: -0.153D+00-0.143D+00 0.126D+01
 Coeff:      0.634D-04-0.365D-03-0.938D-03-0.186D-02 0.165D-01 0.233D-01
 Coeff:     -0.153D+00-0.143D+00 0.126D+01
 Gap=     0.306 Goal=   None    Shift=    0.000
 RMSDP=1.62D-08 MaxDP=4.00D-07 DE=-2.00D-11 OVMax= 1.73D-06

 Cycle  10  Pass 1  IDiag  1:
 E= -829.686080355267     Delta-E=       -0.000000000010 Rises=F Damp=F
 DIIS: error= 4.35D-08 at cycle  10 NSaved=  10.
 NSaved=10 IEnMin=10 EnMin= -829.686080355267     IErMin=10 ErrMin= 4.35D-08
 ErrMax= 4.35D-08  0.00D+00 EMaxC= 1.00D-01 BMatC= 1.26D-13 BMatP= 1.05D-12
 IDIUse=1 WtCom= 1.00D+00 WtEn= 0.00D+00
 Coeff-Com: -0.217D-04 0.163D-03 0.302D-03 0.246D-03-0.790D-02 0.662D-02
 Coeff-Com:  0.510D-01-0.140D+00-0.265D+00 0.135D+01
 Coeff:     -0.217D-04 0.163D-03 0.302D-03 0.246D-03-0.790D-02 0.662D-02
 Coeff:      0.510D-01-0.140D+00-0.265D+00 0.135D+01
 Gap=     0.306 Goal=   None    Shift=    0.000
 RMSDP=7.40D-09 MaxDP=2.50D-07 DE=-9.55D-12 OVMax= 7.85D-07

 SCF Done:  E(RHF) =  -829.686080355     A.U. after   10 cycles
            NFock= 10  Conv=0.74D-08     -V/T= 2.2850
 KE= 6.456498674818D+02 PE=-2.196534514232D+03 EE= 5.771093786619D+02
 Leave Link  502 at Fri Oct 22 15:24:48 2021, MaxMem= 16106127360 cpu:              47.6 elap:               2.3
 (Enter /sw/contrib/gaussian/g16/B01/g16/l801.exe)
 ExpMin= 2.53D-02 ExpMax= 4.56D+05 ExpMxC= 1.44D+03 IAcc=3 IRadAn=         5 AccDes= 0.00D+00
 HarFok:  IExCor=  205 AccDes= 0.00D+00 IRadAn=         5 IDoV=-2 UseB2=F ITyADJ=14
 ICtDFT= 12500011 ScaDFX=  1.000000  1.000000  1.000000  1.000000
 Defaulting to unpruned grid for atomic number  53.
 Largest valence mixing into a core orbital is  4.48D-04
 Largest core mixing into a valence orbital is  1.59D-04
 Range of M.O.s used for correlation:    11   174
 NBasis=   174 NAE=    26 NBE=    26 NFC=    10 NFV=     0
 NROrb=    164 NOA=    16 NOB=    16 NVA=   148 NVB=   148

 **** Warning!!: The largest alpha MO coefficient is  0.19767404D+02

 Leave Link  801 at Fri Oct 22 15:24:48 2021, MaxMem= 16106127360 cpu:               3.7 elap:               0.2
 (Enter /sw/contrib/gaussian/g16/B01/g16/l906.exe)
 Frozen-core derivative calculation, NFC=  10 NFV=   0.
 FulOut=F Deriv=T AODrv=T NAtomX=     4
   MMem=         130  MDisk=          16 MDiskD=          16
  W3Min=      922896 MinDsk=     1491158 NBas6D=         204
 NBas2D=       21411    NTT=       20910    LW2=    26219120
    MDV= 16105675483 MDiskM=      394697 NBas2p=       21411
 Fully direct method using O(ONN) memory.
 IMap=   1   2   3   4   5   6   7   8   9  10  11  12  13  14  15  16  17  18  19  20
 IMap=  21  22  23  24  25  26
 JobTyp=1 Pass  1:  I=  11 to  26 NPSUse= 28 ParTrn=T ParDer=T DoDerP=T.
 Spin components of T(2) and E(2):
     alpha-alpha T2 =       0.3142964850D-01 E2=     -0.9166786539D-01
     alpha-beta  T2 =       0.1658683536D+00 E2=     -0.4990095433D+00
     beta-beta   T2 =       0.3142964850D-01 E2=     -0.9166786539D-01
 The integrals were generated   1 times.
 ANorm=    0.1108479883D+01
 E2 =    -0.6823452741D+00 EUMP2 =    -0.83036842562935D+03
 Leave Link  906 at Fri Oct 22 15:25:03 2021, MaxMem= 16106127360 cpu:             402.7 elap:              14.4
 (Enter /sw/contrib/gaussian/g16/B01/g16/l1002.exe)
 Minotr:  Closed shell wavefunction.
          Computing MP2/KS-MP2 derivatives.
          Using Z-Vector for PSCF gradient.
          Skipping F1 and S1 gradient terms here.
          IDoAtm=1111
          Frozen-core window.
          Direct CPHF calculation.
          Differentiating once with respect to electric field.
                with respect to dipole field.
          Differentiating once with respect to nuclear coordinates.
          Using symmetry in CPHF.
          Requested convergence is 1.0D-10 RMS, and 1.0D-09 maximum.
          NewPWx=F KeepS1=T KeepF1=T KeepIn=T MapXYZ=F SortEE=F KeepMc=T.
 Keep R1 ints in memory in symmetry-blocked form, NReq=174585663.
 FoFCou: FMM=F IPFlag=           0 FMFlag=           0 FMFlg1=           0
         NFxFlg=           0 DoJE=F BraDBF=F KetDBF=F FulRan=T
         wScrn=  0.000000 ICntrl=       600 IOpCl=  0 I1Cent=           0 NGrid=           0
         NMat0=    1 NMatS0=  15225 NMatT0=    0 NMatD0=    1 NMtDS0=    0 NMtDT0=    0
 Petite list used in FoFCou.
          MDV=   16106127360 using IRadAn=       5.
          Solving linear equations separately, MaxMat=       0.
          There are     1 degrees of freedom in the 1st order CPHF.  IDoFFX=0 NUNeed=     1.
 LinEq1:  Iter=  0 NonCon=     1 RMS=2.89D-03 Max=4.55D-02 NDo=     1
 AX will form     1 AO Fock derivatives at one time.
 LinEq1:  Iter=  1 NonCon=     1 RMS=4.53D-04 Max=5.13D-03 NDo=     1
 LinEq1:  Iter=  2 NonCon=     1 RMS=2.00D-04 Max=3.65D-03 NDo=     1
 LinEq1:  Iter=  3 NonCon=     1 RMS=6.14D-05 Max=9.77D-04 NDo=     1
 LinEq1:  Iter=  4 NonCon=     1 RMS=2.87D-05 Max=8.12D-04 NDo=     1
 LinEq1:  Iter=  5 NonCon=     1 RMS=7.71D-06 Max=1.21D-04 NDo=     1
 LinEq1:  Iter=  6 NonCon=     1 RMS=1.89D-06 Max=2.33D-05 NDo=     1
 LinEq1:  Iter=  7 NonCon=     1 RMS=4.47D-07 Max=8.72D-06 NDo=     1
 LinEq1:  Iter=  8 NonCon=     1 RMS=1.09D-07 Max=2.31D-06 NDo=     1
 LinEq1:  Iter=  9 NonCon=     1 RMS=3.37D-08 Max=6.21D-07 NDo=     1
 LinEq1:  Iter= 10 NonCon=     1 RMS=9.79D-09 Max=1.61D-07 NDo=     1
 LinEq1:  Iter= 11 NonCon=     1 RMS=2.13D-09 Max=4.45D-08 NDo=     1
 LinEq1:  Iter= 12 NonCon=     1 RMS=4.96D-10 Max=8.96D-09 NDo=     1
 LinEq1:  Iter= 13 NonCon=     1 RMS=1.41D-10 Max=2.83D-09 NDo=     1
 LinEq1:  Iter= 14 NonCon=     0 RMS=2.69D-11 Max=3.62D-10 NDo=     1
 Linear equations converged to 1.000D-10 1.000D-09 after    14 iterations.
 End of Minotr F.D. properties file   721 does not exist.
 End of Minotr F.D. properties file   722 does not exist.
 End of Minotr F.D. properties file   788 does not exist.
 Leave Link 1002 at Fri Oct 22 15:25:05 2021, MaxMem= 16106127360 cpu:              45.7 elap:               2.5
 (Enter /sw/contrib/gaussian/g16/B01/g16/l701.exe)
 ... and contract with generalized density number  2.
 Compute integral first derivatives.
   2 Symmetry operations used in ECPInt.
 ECPInt:  NShTT=    1596 NPrTT=   10643 LenC2=    1597 LenP2D=    8409.
 LDataN:  DoStor=T MaxTD1= 8 Len=  415
 Leave Link  701 at Fri Oct 22 15:25:06 2021, MaxMem= 16106127360 cpu:              23.7 elap:               0.9
 (Enter /sw/contrib/gaussian/g16/B01/g16/l702.exe)
 L702 exits ... SP integral derivatives will be done elsewhere.
 Leave Link  702 at Fri Oct 22 15:25:06 2021, MaxMem= 16106127360 cpu:               0.5 elap:               0.0
 (Enter /sw/contrib/gaussian/g16/B01/g16/l703.exe)
 Integral derivatives from FoFJK, PRISM(SPDF).
 Compute integral first derivatives, UseDBF=F ICtDFT=           0.
 Calling FoFJK, ICntrl=  10002127 FMM=F ISym2X=1 I1Cent= 0 IOpClX= 0 NMat=1 NMatS=1 NMatT=0.
 FoFJK:  IHMeth= 1 ICntrl=10002127 DoSepK=F KAlg= 0 I1Cent=           0 FoldK=F
 IRaf=         0 NMat=       1 IRICut=       1 DoRegI=T DoRafI=F ISym2E= 1 IDoP0=0 IntGTp=1.
 FoFCou: FMM=F IPFlag=           0 FMFlag=      100000 FMFlg1=         800
         NFxFlg=           0 DoJE=F BraDBF=F KetDBF=F FulRan=T
         wScrn=  0.000000 ICntrl=  10002127 IOpCl=  0 I1Cent=           0 NGrid=           0
         NMat0=    1 NMatS0=      1 NMatT0=    0 NMatD0=    1 NMtDS0=    0 NMtDT0=    0
 Petite list used in FoFCou.
 Leave Link  703 at Fri Oct 22 15:25:08 2021, MaxMem= 16106127360 cpu:              56.8 elap:               2.1
 (Enter /sw/contrib/gaussian/g16/B01/g16/l716.exe)
 Dipole        =-6.10595327D-01-4.26851606D-01-2.11896243D-32
 ***** Axes restored to original set *****
 -------------------------------------------------------------------
 Center     Atomic                   Forces (Hartrees/Bohr)
 Number     Number              X              Y              Z
 -------------------------------------------------------------------
      1        8          -0.000848348   -0.000000000   -0.003037009
      2        1           0.001328825    0.000000000    0.003376324
      3       17          -0.000064416   -0.000000000   -0.000015453
      4       53          -0.000416062   -0.000000000   -0.000323862
 -------------------------------------------------------------------
 Cartesian Forces:  Max     0.003376324 RMS     0.001396151
 -----------------------------------------------------------------------------------------------
                       Internal Coordinate Forces (Hartree/Bohr or radian)
  Cent   Atom   N1       Length/X         N2         Alpha/Y        N3         Beta/Z          J
 -----------------------------------------------------------------------------------------------
      1  O 
      2  H        1   0.003376(     1)
      3  Cl       1  -0.000059(     2)      2  -0.002517(     4)
      4  I        1  -0.000324(     3)      3   0.002612(     5)      2  -0.000000(     6)     0
 -----------------------------------------------------------------------------------------------
 Internal  Forces:  Max     0.003376324 RMS     0.002027722
 Leave Link  716 at Fri Oct 22 15:25:08 2021, MaxMem= 16106127360 cpu:               1.6 elap:               0.1
 (Enter /sw/contrib/gaussian/g16/B01/g16/l103.exe)

 GradGradGradGradGradGradGradGradGradGradGradGradGradGradGradGradGradGrad
 Berny optimization.
 Search for a local minimum.
 Step number   2 out of a maximum of   20
 All quantities printed in internal units (Hartrees-Bohrs-Radians)
 Update second derivatives using D2CorN and points    1    2
 DE= -2.34D-04 DEPred=-1.94D-04 R= 1.21D+00
 TightC=F SS=  1.41D+00  RLast= 3.57D-02 DXNew= 5.0454D-01 1.0706D-01
 Trust test= 1.21D+00 RLast= 3.57D-02 DXMaxT set to 3.00D-01
 The second derivative matrix:
                          r1        r2        r3        a1        d1
           r1           0.42603
           r2           0.00297   0.37413
           r3          -0.02634   0.00029   0.02372
           a1          -0.00201   0.00008  -0.00074   0.40994
           d1           0.00000  -0.00000   0.00000   0.00000   0.16580
 ITU=  1  0
     Eigenvalues ---    0.02200   0.37397   0.40974   0.428121000.00000
 RFO step:  Lambda=-8.01723303D-06 EMin= 2.19983823D-02
 Quartic linear search produced a step of  0.30433.
 Variable       Old X    -DE/DX   Delta X   Delta X   Delta X     New X
                                 (Linear)    (Quad)   (Total)
    r1        1.89445   0.00338   0.00837  -0.00030   0.00807   1.90252
    r2        3.18739  -0.00006  -0.00054   0.00033  -0.00021   3.18718
    r3        6.27873  -0.00032   0.00689  -0.01863  -0.01173   6.26700
    a1        1.80134   0.00009   0.00023   0.00005   0.00028   1.80161
    d1        0.00000  -0.00000   0.00000   0.00000   0.00000   0.00000
         Item               Value     Threshold  Converged?
 Maximum Force            0.003376     0.000015     NO 
 RMS     Force            0.001697     0.000010     NO 
 Maximum Displacement     0.011732     0.000060     NO 
 RMS     Displacement     0.006370     0.000040     NO 
 Predicted change in Energy=-1.306805D-05
 Lowest energy point so far.  Saving SCF results.
 GradGradGradGradGradGradGradGradGradGradGradGradGradGradGradGradGradGrad

 Leave Link  103 at Fri Oct 22 15:25:08 2021, MaxMem= 16106127360 cpu:               1.5 elap:               0.1
 (Enter /sw/contrib/gaussian/g16/B01/g16/l202.exe)
 ---------------------------------------------------------------------------------------------------
                            Z-MATRIX (ANGSTROMS AND DEGREES)
   CD    Cent   Atom    N1       Length/X        N2       Alpha/Y        N3        Beta/Z          J
 ---------------------------------------------------------------------------------------------------
      1      1  O 
      2      2  H        1   1.006772(     1)
      3      3  Cl       1   1.686580(     2)      2  103.225(     4)
      4      4  I        1   3.316354(     3)      3  103.225(     5)      2    0.000(     6)      0
 ---------------------------------------------------------------------------------------------------
                         Z-Matrix orientation:                         
 ---------------------------------------------------------------------
 Center     Atomic      Atomic             Coordinates (Angstroms)
 Number     Number       Type             X           Y           Z
 ---------------------------------------------------------------------
      1          8           0        0.000000    0.000000    0.000000
      2          1           0        0.000000    0.000000    1.006772
      3         17           0        1.641852    0.000000   -0.385843
      4         53           0       -0.000000    0.000000    3.316354
 ---------------------------------------------------------------------
                    Distance matrix (angstroms):
                    1          2          3          4
     1  O    0.000000
     2  H    1.006772   0.000000
     3  Cl   1.686580   2.152918   0.000000
     4  I    3.316354   2.309581   4.049931   0.000000
 Stoichiometry    ClHIO(1-)
 Framework group  CS[SG(ClHIO)]
 Deg. of freedom     5
 Full point group                 CS      NOp   2
 RotChk:  IX=3 Diff= 2.86D-03
 Largest Abelian subgroup         CS      NOp   2
 Largest concise Abelian subgroup C1      NOp   1
                         Standard orientation:                         
 ---------------------------------------------------------------------
 Center     Atomic      Atomic             Coordinates (Angstroms)
 Number     Number       Type             X           Y           Z
 ---------------------------------------------------------------------
      1          8           0       -0.296176   -2.163204    0.000000
      2          1           0       -0.000000   -1.200982    0.000000
      3         17           0       -1.978884   -2.048966    0.000000
      4         53           0        0.679442    1.006397    0.000000
 ---------------------------------------------------------------------
 Rotational constants (GHZ):          21.7516052           0.9678050           0.9265783
 Leave Link  202 at Fri Oct 22 15:25:09 2021, MaxMem= 16106127360 cpu:               0.4 elap:               0.0
 (Enter /sw/contrib/gaussian/g16/B01/g16/l301.exe)
 Basis read from rwf:  (5D, 7F)
 Pseudo-potential data read from rwf file.
 There are   139 symmetry adapted cartesian basis functions of A'  symmetry.
 There are    65 symmetry adapted cartesian basis functions of A"  symmetry.
 There are   115 symmetry adapted basis functions of A'  symmetry.
 There are    59 symmetry adapted basis functions of A"  symmetry.
   174 basis functions,   383 primitive gaussians,   204 cartesian basis functions
    26 alpha electrons       26 beta electrons
       nuclear repulsion energy       144.2276239781 Hartrees.
 IExCor=    0 DFT=F Ex=HF Corr=None ExCW=0 ScaHFX=  1.000000
 ScaDFX=  1.000000  1.000000  1.000000  1.000000 ScalE2=  1.000000  1.000000
 IRadAn=      5 IRanWt=     -1 IRanGd=            0 ICorTp=0 IEmpDi=  4
 NAtoms=    4 NActive=    4 NUniq=    4 SFac= 1.00D+00 NAtFMM=   60 NAOKFM=F Big=F
 Integral buffers will be    131072 words long.
 Raffenetti 1 integral format.
 Two-electron integral symmetry is turned on.
 No density basis found on file   724.
 Leave Link  301 at Fri Oct 22 15:25:09 2021, MaxMem= 16106127360 cpu:               1.9 elap:               0.1
 (Enter /sw/contrib/gaussian/g16/B01/g16/l302.exe)
 NPDir=0 NMtPBC=     1 NCelOv=     1 NCel=       1 NClECP=     1 NCelD=      1
         NCelK=      1 NCelE2=     1 NClLst=     1 CellRange=     0.0.
 One-electron integrals computed using PRISM.
 One-electron integral symmetry used in STVInt
   2 Symmetry operations used in ECPInt.
 ECPInt:  NShTT=    1596 NPrTT=   10643 LenC2=    1597 LenP2D=    8412.
 LDataN:  DoStor=T MaxTD1= 7 Len=  274
 NBasis=   174 RedAO= T EigKep=  2.23D-04  NBF=   115    59
 NBsUse=   174 1.00D-06 EigRej= -1.00D+00 NBFU=   115    59
 Leave Link  302 at Fri Oct 22 15:25:09 2021, MaxMem= 16106127360 cpu:               7.6 elap:               0.3
 (Enter /sw/contrib/gaussian/g16/B01/g16/l303.exe)
 DipDrv:  MaxL=1.
 Leave Link  303 at Fri Oct 22 15:25:09 2021, MaxMem= 16106127360 cpu:               1.7 elap:               0.1
 (Enter /sw/contrib/gaussian/g16/B01/g16/l401.exe)
 Initial guess from the checkpoint file:  "/gscratch/ilahie/mccoygrp/hocl/2nd_basis/i_hocl_pp_eq.chk"
 B after Tr=    -0.000000   -0.000000    0.000000
         Rot=    0.999999    0.000000   -0.000000    0.001200 Ang=   0.14 deg.
 Guess basis will be translated and rotated to current coordinates.
 JPrj=2 DoOrth=T DoCkMO=T.
 Initial guess orbital symmetries:
       Occupied  (A') (A') (A') (A') (A') (A") (A') (A') (A") (A')
[...]
      5(1)                    72.208     72.333      1.31027115      1.28443036
      6(1)                   693.029    667.220     14.89586902     15.09596546

 Overtones
 ---------
   Mode(n)                  E(harm)   E(anharm)                      I(anharm)
      1(2)                  6081.909   5156.078                      5.16238991
      2(2)                  2779.019   2650.814                    384.47189440
      3(2)                  1547.498   1518.260                      0.26184457
      4(2)                   409.435    399.787                      0.05078652
      5(2)                   144.416    145.304                      0.02444157
      6(2)                  1386.059   1284.573                     46.04876526

 Combination Bands
 -----------------
   Mode(n)     Mode(n)      E(harm)   E(anharm)                      I(anharm)
      2(1)        1(1)      4430.464   4126.315                      0.52295942
      3(1)        1(1)      3814.704   3512.876                      0.83466298
      3(1)        2(1)      2163.258   2103.959                      2.46026389
      4(1)        1(1)      3245.672   2971.824                     57.31956491
      4(1)        2(1)      1594.227   1545.869                      3.39056687
      4(1)        3(1)       978.466    964.870                      0.00297152
      5(1)        1(1)      3113.163   2826.443                     81.89346281
      5(1)        2(1)      1461.718   1418.848                      3.17073145
      5(1)        3(1)       845.957    834.466                      0.02678557
      5(1)        4(1)       276.926    274.159                      0.24636212
      6(1)        1(1)      3733.984   3466.236                      0.24839647
      6(1)        2(1)      2082.539   2013.265                      0.04194540
      6(1)        3(1)      1466.778   1429.166                      0.02690141
      6(1)        4(1)       897.747    860.514                      0.19004248
      6(1)        5(1)       765.237    737.089                      0.00462056

 Units: Transition energies (E) in cm^-1
        Dipole strengths (DS) in 10^-40 esu^2.cm^2

 Fundamental Bands
 -----------------
   Mode(n)                  E(harm)   E(anharm)       DS(harm)      DS(anharm)
      1(1)                  3040.955   2749.506   3012.95015840   2836.49813649
      2(1)                  1389.509   1355.332     16.16760978     78.07706227
      3(1)                   773.749    762.665     44.31645179     46.21550796
      4(1)                   204.717    202.355    205.50568602    247.31819209
      5(1)                    72.208     72.333     72.39062662     70.84040718
      6(1)                   693.029    667.220     85.74753165     90.26083805

 Overtones
 ---------
   Mode(n)                  E(harm)   E(anharm)                     DS(anharm)
      1(2)                  6081.909   5156.078                      3.99428177
      2(2)                  2779.019   2650.814                    578.61908284
      3(2)                  1547.498   1518.260                      0.68802617
      4(2)                   409.435    399.787                      0.50678889
      5(2)                   144.416    145.304                      0.67105760
      6(2)                  1386.059   1284.573                    143.01009128

 Combination Bands
 -----------------
   Mode(n)     Mode(n)      E(harm)   E(anharm)                     DS(anharm)
      2(1)        1(1)      4430.464   4126.315                      0.50560688
      3(1)        1(1)      3814.704   3512.876                      0.94788516
      3(1)        2(1)      2163.258   2103.959                      4.66500204
      4(1)        1(1)      3245.672   2971.824                     76.94620240
      4(1)        2(1)      1594.227   1545.869                      8.74997906
      4(1)        3(1)       978.466    964.870                      0.01228619
      5(1)        1(1)      3113.163   2826.443                    115.58896473
      5(1)        2(1)      1461.718   1418.848                      8.91519637
      5(1)        3(1)       845.957    834.466                      0.12805587
      5(1)        4(1)       276.926    274.159                      3.58491211
      6(1)        1(1)      3733.984   3466.236                      0.28588723
      6(1)        2(1)      2082.539   2013.265                      0.08311718
      6(1)        3(1)      1466.778   1429.166                      0.07509309
      6(1)        4(1)       897.747    860.514                      0.88104918
      6(1)        5(1)       765.237    737.089                      0.02500819

 Leave Link  717 at Fri Oct 22 16:22:38 2021, MaxMem= 16106127360 cpu:               8.5 elap:               0.3
 (Enter /sw/contrib/gaussian/g16/B01/g16/l103.exe)

 GradGradGradGradGradGradGradGradGradGradGradGradGradGradGradGradGradGrad
 Berny optimization.
 Search for a local minimum.
 Step number   1 out of a maximum of    2
 All quantities printed in internal units (Hartrees-Bohrs-Radians)
 Second derivative matrix not updated -- analytic derivatives used.
 The second derivative matrix:
                          r1        r2        r3        a1        d1
           r1           0.33048
           r2          -0.00452   0.26463
           r3           0.00897  -0.00180   0.02282
           a1           0.00416   0.05264   0.00206   0.19230
           d1           0.00000   0.00000   0.00000   0.00000   0.06184
 ITU=  0
     Eigenvalues ---    0.02251   0.16444   0.29223   0.331061000.00000
 Angle between quadratic step and forces=  27.76 degrees.
 Linear search not attempted -- first point.
 Variable       Old X    -DE/DX   Delta X   Delta X   Delta X     New X
                                 (Linear)    (Quad)   (Total)
    r1        1.90487   0.00001   0.00000   0.00004   0.00004   1.90490
    r2        3.18713  -0.00000   0.00000  -0.00002  -0.00002   3.18712
    r3        6.25994   0.00000   0.00000   0.00003   0.00003   6.25997
    a1        1.80181   0.00001   0.00000   0.00006   0.00006   1.80187
    d1        0.00000  -0.00000   0.00000   0.00000   0.00000   0.00000
         Item               Value     Threshold  Converged?
 Maximum Force            0.000012     0.000015     YES
 RMS     Force            0.000009     0.000010     YES
 Maximum Displacement     0.000065     0.000060     NO 
 RMS     Displacement     0.000037     0.000040     YES
 Predicted change in Energy=-6.308709D-10
                       ----------------------------
                       ! Non-Optimized Parameters !
                       ! (Angstroms and Degrees)  !
 ----------------------                            ----------------------
 !      Name          Value   Derivative information (Atomic Units)     !
 ------------------------------------------------------------------------
 !       r1          1.008    -DE/DX =    0.0                           !
 !       r2          1.6865   -DE/DX =    0.0                           !
 !       r3          3.3126   -DE/DX =    0.0                           !
 !       a1        103.2398   -DE/DX =    0.0                           !
 !       d1          0.0      -DE/DX =    0.0                           !
 ------------------------------------------------------------------------
 GradGradGradGradGradGradGradGradGradGradGradGradGradGradGradGradGradGrad

 Leave Link  103 at Fri Oct 22 16:22:39 2021, MaxMem= 16106127360 cpu:               1.2 elap:               0.1
 (Enter /sw/contrib/gaussian/g16/B01/g16/l9999.exe)

 ----------------------------------------------------------------------

 Electric dipole moment (input orientation):
 (Debye = 10**-18 statcoulomb cm , SI units = C m)
                  (au)            (Debye)         (10**-30 SI)
   Tot        0.722276D+00      0.183584D+01      0.612371D+01
   x          0.454027D+00      0.115402D+01      0.384940D+01
   y          0.000000D+00      0.000000D+00      0.000000D+00
   z         -0.561731D+00     -0.142778D+01     -0.476255D+01

 Dipole polarizability, Alpha (input orientation).
 (esu units = cm**3 , SI units = C**2 m**2 J**-1)
 Alpha(0;0):
               (au)            (10**-24 esu)      (10**-40 SI)
   iso        0.807480D+02      0.119656D+02      0.133136D+02
   aniso      0.261432D+02      0.387403D+01      0.431044D+01
   xx         0.780996D+02      0.115732D+02      0.128769D+02
   yx         0.000000D+00      0.000000D+00      0.000000D+00
   yy         0.697086D+02      0.103298D+02      0.114934D+02
   zx        -0.834880D+01     -0.123716D+01     -0.137653D+01
   zy         0.000000D+00      0.000000D+00      0.000000D+00
   zz         0.944359D+02      0.139940D+02      0.155704D+02

 ----------------------------------------------------------------------

 Dipole orientation:
     8          0.00000000          0.00000000         -0.00000000
     1          1.19741239          0.00000000         -1.48146132
    17          1.95414464         -0.00000000          2.51776397
    53          3.93503549         -0.00000000         -4.86850055

 Electric dipole moment (dipole orientation):
 (Debye = 10**-18 statcoulomb cm , SI units = C m)
                  (au)            (Debye)         (10**-30 SI)
   Tot        0.722276D+00      0.183584D+01      0.612371D+01
   x          0.000000D+00      0.000000D+00      0.000000D+00
   y          0.000000D+00      0.000000D+00      0.000000D+00
   z          0.722276D+00      0.183584D+01      0.612371D+01

 Dipole polarizability, Alpha (dipole orientation).
 (esu units = cm**3 , SI units = C**2 m**2 J**-1)
 Alpha(0;0):
               (au)            (10**-24 esu)      (10**-40 SI)
   iso        0.807480D+02      0.119656D+02      0.133136D+02
   aniso      0.261432D+02      0.387403D+01      0.431044D+01
   xx         0.763917D+02      0.113201D+02      0.125953D+02
   yx         0.000000D+00      0.000000D+00      0.000000D+00
   yy         0.697086D+02      0.103298D+02      0.114934D+02
   zx        -0.623572D+01     -0.924038D+00     -0.102813D+01
   zy         0.000000D+00      0.000000D+00      0.000000D+00
   zz         0.961439D+02      0.142470D+02      0.158520D+02

 ----------------------------------------------------------------------
 1\1\GINC-N2206\Freq\RMP2-FC\Gen\Cl1H1I1O1(1-)\ABMCCOY\22-Oct-2021\1\\#
 P Geom=AllCheck Guess=TCheck SCRF=Check GenChk RMP2(FC)/ChkBas Freq\\t
 itle\\-1,1\O\H,1,r1\Cl,1,r2,2,a1\I,1,r3,3,a1,2,d1,0\\r1=1.00801301\r2=
 1.68655815\r3=3.31261561\a1=103.23605304\d1=0.\\Version=ES64L-G16RevB.
 01\State=1-A'\HF=-829.6855892\MP2=-830.3684462\RMSD=1.279e-09\RMSF=5.0
 46e-04\ZeroPoint=0.0140658\Thermal=0.0184505\Dipole=0.454027,0.,-0.561
 7308\DipoleDeriv=-0.4198404,0.,0.1129861,0.,-0.2621042,0.,0.3210488,0.
 ,-1.2102604,0.0342137,0.,-0.0372876,0.,0.1126381,0.,-0.3289921,0.,1.47
 44019,0.157199,0.,-0.0758859,0.,-0.0688461,0.,-0.0809096,0.,-0.0735126
 ,-0.7715723,0.,0.0001874,0.,-0.7816878,0.,0.0888529,0.,-1.1906289\Pola
 r=78.0996091,0.,69.7086158,-8.348803,0.,94.435923\Quadrupole=3.4471543
 ,3.5374176,-6.9845719,0.,1.5353897,0.\PG=CS [SG(Cl1H1I1O1)]\NImag=0\\0
 .26045011,0.,0.00791864,-0.03938941,0.,0.40951275,-0.04092790,0.,-0.03
 778342,0.06989998,0.,-0.01188406,0.,0.,0.01780584,0.00590570,0.,-0.339
 21697,-0.00109882,0.,0.33048151,-0.22181573,0.,0.07614504,-0.02384880,
 0.,-0.00469912,0.24438687,0.,0.00031122,0.,0.,-0.00044921,0.,0.,0.0000
 0070,0.03166894,0.,-0.03872371,0.03819364,0.,-0.00023602,-0.06954857,0
 .,0.03917615,0.00229353,0.,0.00102779,-0.00512328,0.,-0.00010776,0.001
 27765,0.,-0.00031400,0.00155210,0.,0.00365420,0.,0.,-0.00547257,0.,0.,
 0.00013729,0.,0.,0.00168108,0.00181477,0.,-0.03157207,0.00068860,0.,0.
 00897148,-0.00189734,0.,-0.00021642,-0.00060602,0.,0.02281701\\0.00096
 539,0.,0.00001038,-0.00139361,0.,-0.00001234,0.00000228,0.,0.00000324,
 0.00042594,0.,-0.00000128\\0.00368995,0.,0.00084641,-0.00297495,0.,-0.
 00694898,0.00135965,0.,0.01188754,0.00068825,0.,-0.00059748,0.,0.,0.00
 010861,0.01063369,0.,0.00338960,-0.01123727,0.,-0.00323976,-0.00514705
 ,0.,-0.00786813,-0.00211776,0.,0.00005926,0.00737902,0.,-0.00039732,0.
 ,0.,0.00048786,0.,0.,-0.00008456,-0.00818235,0.,0.00511262,-0.00038522
 ,0.,0.00012088,0.00824661,0.,-0.00516703,0.00009746,0.,-0.00104446,0.0
 0006986,0.,0.00054432,-0.00011421,0.,0.00032096,-0.00005310,0.,0.00014
 839,0.,0.,0.00000101,0.,0.,-0.00000598,0.,0.,-0.00014342,0.00052361,0.
 ,-0.00155325,-0.00026505,0.,-0.00027072,-0.00043774,0.,-0.00006648,0.0
 0017919,0.,0.00189045,-0.00469543,0.,-0.00287591,0.00700300,0.,-0.0062
 4862,-0.00120715,0.,-0.02096629,-0.00172787,0.,0.00123561,0.,0.,-0.000
 46530,-0.02063765,0.,0.02194952,0.01966566,0.,-0.01805578,0.00529180,0
 .,0.01239831,0.00323390,0.,0.00172442,-0.00904868,0.,0.00084828,0.,0.,
 -0.00064138,0.,0.,-0.00027067,0.01430152,0.,-0.00744718,0.00062526,0.,
 -0.00093582,-0.01441003,0.,0.00856858,0.00061079,0.,0.00156499,-0.0002
 9888,0.,-0.00075242,0.00052299,0.,-0.00051674,-0.00083490,0.,0.0007920
 2,0.,0.,-0.00012893,0.,0.,0.00006377,0.,0.,-0.00072686,-0.00066686,0.,
 -0.00825372,0.00067537,0.,-0.00295793,0.00028731,0.,-0.00018558,-0.000
 29582,0.,0.01139724,0.,0.01234258,0.,0.,0.20483328,0.,0.,-0.02389133,0
 .,0.,0.00089209,0.,-0.19850482,0.00713922,0.,0.,-0.17987651,0.,0.,0.18
 564001,0.,0.,0.01153707,0.,0.,-0.00784109,0.,0.,-0.01268034,0.,-0.0113
 9876,0.01687117,0.,-0.00042988,-0.00432012,0.,0.,-0.01735898,0.,0.,0.0
 0584387,0.,0.,0.01163568,0.,0.,0.00001169,0.,0.,-0.00019021,0.,0.,0.00
 012929,0.,0.,-0.00055433,0.,0.00507030,-0.00011906,0.,-0.00533361,0.00
 062415,0.,-0.00012057,0.00004924,0.,0.,-0.00759778,0.,0.,0.00702094,0.
 ,0.,0.00019296,0.,0.,0.00038388,0.,0.18464413,0.,-0.02198649,-0.075496
 49,0.,0.01229749,0.00221804,0.,0.01477809,0.00774059,0.,-0.00096959,0.
 ,0.,0.00022820,0.02391296,0.,-0.01290917,-0.02363390,0.,0.01079080,-0.
 18667880,0.,0.06035690,-0.00975557,0.,-0.00011504,0.19640996,0.,0.0229
 6959,0.,0.,0.00085408,0.,0.,-0.02369269,0.04908259,0.,0.00050588,0.009
 79139,0.,0.00033483,-0.05894426,0.,-0.00178582,-0.00018337,0.,0.000361
 50,-0.00020306,0.,-0.00016402,0.00002441,0.,0.00007028,0.00036202,0.,-
 0.00001351,0.,0.,-0.00011269,0.,0.,-0.00013098,0.,0.,0.00025717,0.0025
 0094,0.,0.00010579,-0.00093558,0.,0.00178354,-0.00129759,0.,0.00094511
 ,-0.00026776,0.,-0.00283445,-0.01968444,0.,0.03441255,0.13071713,0.,-0
 .04179386,0.01552059,0.,-0.14490769,0.01769865,0.,-0.02282594,0.,0.,0.
 00561281,-0.13434045,0.,0.02097700,0.11746974,0.,0.01313708,0.00578169
 ,0.,0.00853463,-0.03380097,0.,0.02378774,0.02736746,0.,-0.01132410,0.,
 0.,0.01728986,0.,0.,-0.00607904,0.01122880,0.,0.01765162,0.02028332,0.
 ,-0.03209652,-0.03217051,0.,0.01369071,-0.00161784,0.,0.00565593,0.000
 58172,0.,-0.00691704,0.00065182,0.,0.00065839,0.00038429,0.,-0.0002625
 0,0.,0.,-0.00007672,0.,0.,0.00011329,0.,0.,0.00022593,-0.00760548,0.,0
 .00316524,0.00715463,0.,-0.00201756,-0.00015187,0.,0.00075419,0.000602
 73,0.,-0.00190186,0.16321304,0.,0.17849609,-0.00732084,0.,-1.51106161,
 -0.13722372,0.,0.03107428,0.12275474,0.,-0.18258032,0.,0.,0.18758232,-
 0.02147066,0.,1.53241992,0.00225863,0.,-1.55881745,-0.02813580,0.,-0.0
 2547549,0.02156914,0.,0.02002987,0.00572409,0.,0.00277775,0.,0.,0.0004
 9755,0.,0.,-0.00322032,0.02265673,0.,0.02066290,-0.03118151,0.,-0.0052
 3682,0.00985904,0.,-0.01612909,0.00214647,0.,0.00172205,-0.00710016,0.
 ,-0.00081784,0.00084257,0.,-0.00133426,0.00411111,0.,0.00130647,0.,0.,
 -0.00549956,0.,0.,-0.00005498,0.,0.,0.00424807,0.00613477,0.,-0.042021
 21,-0.00215140,0.,0.03163436,-0.00441341,0.,0.00070302,0.00043004,0.,0
 .00968383,-0.00388194,0.,0.00071469,0.00193647,0.,-0.00245670,-0.00107
 552,0.,0.00009924,0.00076955,0.,-0.00018702,0.,0.,0.00022445,-0.000353
 42,0.,0.00308842,0.00041429,0.,-0.00322041,0.00495275,0.,-0.00191982,0
 .00029173,0.,-0.00004639,-0.00518244,0.,-0.00050772,0.,0.,-0.00005467,
 0.,0.,0.00054669,-0.00164151,0.,-0.00080199,-0.00041101,0.,0.00006424,
 0.00193082,0.,0.00094105,0.00000472,0.,-0.00011589,0.00001424,0.,-0.00
 001449,-0.00006202,0.,0.00012179,0.00004306,0.,-0.00001992,0.,0.,0.000
 01724,0.,0.,0.00001543,0.,0.,-0.00001275,0.00005844,0.,0.00017029,-0.0
 0010252,0.,0.00006774,0.00003548,0.,-0.00020302,0.00000860,0.,-0.00003
 500,-0.01104131,0.,0.00119652,0.00260219,0.,-0.00885746,-0.00263341,0.
 ,0.00176365,0.00128913,0.,-0.00002703,0.,0.,-0.00027084,0.00129843,0.,
 0.01210579,-0.00121537,0.,-0.00973790,0.01344573,0.,-0.00518017,0.0009
 8280,0.,-0.00016385,-0.01448456,0.,-0.00128921,0.,0.,-0.00016752,0.,0.
 ,0.00141504,-0.00348644,0.,-0.00164131,-0.00143388,0.,0.00038812,0.005
 05622,0.,0.00170169,0.00022899,0.,0.00081433,0.00036147,0.,0.00008079,
 0.00005499,0.,-0.00013573,-0.00064545,0.,0.00011973,0.,0.,0.00046538,0
 .,0.,0.00004077,0.,0.,-0.00062588,-0.00041419,0.,-0.00160703,0.0008856
 1,0.,-0.00275601,0.00028797,0.,-0.00044905,-0.00075939,0.,0.00481210,0
 .08404204,0.,0.31986660,-0.02231543,0.,-1.02318628,-0.07250317,0.,0.03
 628048,0.06757278,0.,-0.30329774,0.,0.,0.29344906,-0.00223847,0.,0.996
 73238,-0.01216853,0.,-1.00693815,-0.01110872,0.,-0.01464680,0.00581870
 ,0.,0.01452779,0.00506700,0.,-0.01537016,0.,0.,0.00708593,0.,0.,0.0084
 0504,0.02284824,0.,0.02716420,-0.02287297,0.,-0.00853116,0.00073978,0.
 ,-0.01826435,-0.00043015,0.,0.00068175,-0.00088831,0.,-0.00012078,0.00
 022262,0.,-0.00071500,0.00109584,0.,-0.00119870,0.,0.,0.00276275,0.,0.
 ,-0.00012149,0.,0.,-0.00144256,0.00170566,0.,-0.00071035,-0.00123898,0
 .,0.01873696,-0.00062072,0.,-0.00036891,0.00015404,0.,-0.01765773,0.14
 985191,0.00000002,-0.01954468,-0.03964800,0.,-0.03223832,-0.00288615,-
 0.00000001,0.00139435,0.00450955,-0.00000001,-0.00322921,-0.00000002,0
 .,0.00223173,-0.00382161,-0.00000001,0.01978171,-0.00269972,0.00000003
 ,-0.01788678,-0.14722161,0.,0.03805174,-0.00159453,0.00000002,0.006878
 81,0.14910830,0.,0.02278017,0.00000001,0.00000002,0.00105976,-0.000000
 02,0.,-0.02381968,0.04237888,0.,0.01261755,0.00121397,0.,-0.00173034,-
 0.04360547,0.,-0.01142486,0.00025586,0.,0.00020192,-0.00002887,0.,-0.0
 0035748,-0.00029316,0.,0.00001273,0.00006617,0.,-0.00000625,0.,0.,-0.0
 0006227,0.,0.,-0.00002128,0.,0.,0.00008980,0.00109071,0.,-0.00016093,0
 .00009143,0.,-0.00016463,-0.00132497,0.,0.00053703,0.00014281,0.,-0.00
 021144,0.14248382,0.,0.04521519,-0.04159887,0.,-0.94608107,-0.13981264
 ,0.,0.07104815,0.14307318,0.,-0.06474145,0.,0.,0.06388758,-0.02195961,
 0.,0.90548004,-0.03016696,0.,-0.89500076,-0.00612321,0.,-0.02923094,0.
 00065515,0.,0.05096518,0.00495558,0.,0.02046944,0.,0.,0.00158412,0.,0.
 ,-0.02232262,0.05679616,0.,0.04215038,-0.03621399,0.,-0.03020501,-0.02
 012719,0.,-0.01002813,0.00345202,0.,-0.00021832,-0.00391571,0.,0.00116
 140,0.00051192,0.,-0.00045502,-0.00004823,0.,-0.00094317,0.,0.,-0.0007
 3025,0.,0.,0.00026828,0.,0.,0.00140514,0.00676233,0.,-0.00154938,-0.00
 466717,0.,0.01972575,-0.00160709,0.,-0.00191784,-0.00048806,0.,-0.0162
 5853,-0.98553874,0.,-1.01432951,0.02804521,0.,5.13063181,0.95355847,0.
 ,-0.01698558,-0.92848245,0.,1.02116396,0.,0.,-1.01210358,-0.00659516,0
 .,-5.14881730,-0.00033063,0.,5.17712947,0.03311830,0.,-0.01066910,-0.0
 1679157,0.,0.00696227,-0.01584055,0.,-0.00630521,0.,0.,-0.00019081,0.,
 0.,0.00677996,-0.02311564,0.,0.00121634,0.01424547,0.,0.00360907,0.009
 03695,0.,-0.00722174,-0.00113802,0.,-0.00039052,-0.00828446,0.,-0.0000
 3647,-0.00048697,0.,-0.00016672,0.00990945,0.,-0.00052920,0.,0.,-0.008
 86956,0.,0.,-0.00028504,0.,0.,0.00968380,0.00166558,0.,0.01696913,0.00
 307077,0.,-0.03192123,-0.00533005,0.,0.00239579,0.00059370,0.,0.012556
 30\\@


 SIC AS THE CAWSE OF EWERY THING IS, SIC WILBE THE EFFECT.
 -- PROVERBS AND REASONS OF THE YEAR 1585
           AS REPRINTED IN PAISLEY MAGAZINE 1828.
 Job cpu time:       1 days  1 hours 56 minutes 52.1 seconds.
 Elapsed time:       0 days  0 hours 56 minutes 14.5 seconds.
 File lengths (MBytes):  RWF=   7351 Int=      0 D2E=      0 Chk=     48 Scr=      1
 Normal termination of Gaussian 16 at Fri Oct 22 16:22:40 2021.
