 Entering Gaussian System, Link 0=g16
 Input=ihoh-_pp-eq.gjf
 Output=ihoh-_pp-eq.log
 Initial command:
 /sw/contrib/gaussian/g16/B01/g16/l1.exe "/scr/Gau-7225.inp" -scrdir="/scr/"
 Entering Link 1 = /sw/contrib/gaussian/g16/B01/g16/l1.exe PID=      7226.
  
 Copyright (c) 1988-2017, Gaussian, Inc.  All Rights Reserved.
  
 This is part of the Gaussian(R) 16 program.  It is based on
 the Gaussian(R) 09 system (copyright 2009, Gaussian, Inc.),
 the Gaussian(R) 03 system (copyright 2003, Gaussian, Inc.),
 the Gaussian(R) 98 system (copyright 1998, Gaussian, Inc.),
 the Gaussian(R) 94 system (copyright 1995, Gaussian, Inc.),
 the Gaussian 92(TM) system (copyright 1992, Gaussian, Inc.),
 the Gaussian 90(TM) system (copyright 1990, Gaussian, Inc.),
 the Gaussian 88(TM) system (copyright 1988, Gaussian, Inc.),
 the Gaussian 86(TM) system (copyright 1986, Carnegie Mellon
 University), and the Gaussian 82(TM) system (copyright 1983,
 Carnegie Mellon University). Gaussian is a federally registered
 trademark of Gaussian, Inc.
  
 This software contains proprietary and confidential information,
 including trade secrets, belonging to Gaussian, Inc.
  
 This software is provided under written license and may be
 used, copied, transmitted, or stored only in accord with that
 written license.
  
 The following legend is applicable only to US Government
 contracts under FAR:
  
                    RESTRICTED RIGHTS LEGEND
  
 Use, reproduction and disclosure by the US Government is
 subject to restrictions as set forth in subparagraphs (a)
 and (c) of the Commercial Computer Software - Restricted
 Rights clause in FAR 52.227-19.
  
 Gaussian, Inc.
 340 Quinnipiac St., Bldg. 40, Wallingford CT 06492
  
  
 ---------------------------------------------------------------
 Warning -- This program may not be used in any manner that
 competes with the business of Gaussian, Inc. or will provide
 assistance to any competitor of Gaussian, Inc.  The licensee
 of this program is prohibited from giving any competitor of
 Gaussian, Inc. access to this program.  By using this program,
 the user acknowledges that Gaussian, Inc. is engaged in the
 business of creating and licensing software in the field of
 computational chemistry and represents and warrants to the
 licensee that it is not a competitor of Gaussian, Inc. and that
 it will not use this program in any manner prohibited above.
 ---------------------------------------------------------------
  

 Cite this work as:
 Gaussian 16, Revision B.01,
 M. J. Frisch, G. W. Trucks, H. B. Schlegel, G. E. Scuseria, 
 M. A. Robb, J. R. Cheeseman, G. Scalmani, V. Barone, 
 G. A. Petersson, H. Nakatsuji, X. Li, M. Caricato, A. V. Marenich, 
 J. Bloino, B. G. Janesko, R. Gomperts, B. Mennucci, H. P. Hratchian, 
 J. V. Ortiz, A. F. Izmaylov, J. L. Sonnenberg, D. Williams-Young, 
 F. Ding, F. Lipparini, F. Egidi, J. Goings, B. Peng, A. Petrone, 
 T. Henderson, D. Ranasinghe, V. G. Zakrzewski, J. Gao, N. Rega, 
 G. Zheng, W. Liang, M. Hada, M. Ehara, K. Toyota, R. Fukuda, 
 J. Hasegawa, M. Ishida, T. Nakajima, Y. Honda, O. Kitao, H. Nakai, 
 T. Vreven, K. Throssell, J. A. Montgomery, Jr., J. E. Peralta, 
 F. Ogliaro, M. J. Bearpark, J. J. Heyd, E. N. Brothers, K. N. Kudin, 
 V. N. Staroverov, T. A. Keith, R. Kobayashi, J. Normand, 
 K. Raghavachari, A. P. Rendell, J. C. Burant, S. S. Iyengar, 
 J. Tomasi, M. Cossi, J. M. Millam, M. Klene, C. Adamo, R. Cammi, 
 J. W. Ochterski, R. L. Martin, K. Morokuma, O. Farkas, 
 J. B. Foresman, and D. J. Fox, Gaussian, Inc., Wallingford CT, 2016.
 
 ******************************************
 Gaussian 16:  ES64L-G16RevB.01 20-Dec-2017
                22-Oct-2021 
 ******************************************
 %nproc=28
 Will use up to   28 processors via shared memory.
 %mem=120GB
 %chk=/gscratch/ilahie/mccoygrp/hocl/2nd_basis/i_hoh_pp_eq.chk
 ----------------------------------------------------
 #p opt=(z-matrix,tight) mp2/gen Pseudo=read freq=anh
 ----------------------------------------------------
 1/7=10,10=7,18=40,38=1,80=1/1,3;
 2/12=2,17=6,18=5,29=3,40=1/2;
 3/5=7,11=9,16=1,17=8,25=1,30=1,71=1/1,2,3;
 4//1;
 5/5=2,38=5/2;
 8/6=4,10=1/1;
 9/15=2,16=-3/6;
 10/5=1/2;
 6/7=2,8=2,9=2,10=2/1;
 7/12=2,29=1/1,2,3,16;
 1/7=10,10=7,18=40,80=1/3(2);
 2/29=3/2;
 99//99;
 2/29=3/2;
 3/5=7,6=1,11=9,16=1,17=8,25=1,30=1,71=1,82=7/1,2,3;
 4/5=5,16=3,69=1/1;
 5/5=2,38=5/2;
 8/6=4,10=1/1;
 9/15=2,16=-3/6;
 10/5=1/2;
 7/12=2/1,2,3,16;
 1/7=10,18=40,80=1/3(-8);
 2/29=3/2;
 6/7=2,8=2,9=2,10=2/1;
 99/9=10/99;
 Leave Link    1 at Fri Oct 22 15:25:05 2021, MaxMem= 16106127360 cpu:               3.3 elap:               0.1
 (Enter /sw/contrib/gaussian/g16/B01/g16/l101.exe)
 -----
 title
 -----
 Symbolic Z-matrix:
 Charge = -1 Multiplicity = 1
 O
 H                    1    r1
 H                    1    r2       2    a1
 I                    1    r3       3    a1       2    d1       0
       Variables:
  r1                    0.98795                  
  r2                    1.68763                  
  r3                    3.31057                  
  a1                  103.16625                  
  d1                    0.      -1        0.     
 
 ITRead=  0  0  0  0
 MicOpt= -1 -1 -1 -1
 NAtoms=      4 NQM=        4 NQMF=       0 NMMI=      0 NMMIF=      0
                NMic=       0 NMicF=      0.
                    Isotopes and Nuclear Properties:
 (Nuclear quadrupole moments (NQMom) in fm**2, nuclear magnetic moments (NMagM)
  in nuclear magnetons)

  Atom         1           2           3           4
 IAtWgt=          16           1           1         127
 AtmWgt=  15.9949146   1.0078250   1.0078250 126.9004000
 NucSpn=           0           1           1           5
 AtZEff=  -0.0000000  -0.0000000  -0.0000000  -0.0000000
 NQMom=    0.0000000   0.0000000   0.0000000 -71.0000000
 NMagM=    0.0000000   2.7928460   2.7928460   2.8132800
 AtZNuc=   8.0000000   1.0000000   1.0000000  53.0000000
 Leave Link  101 at Fri Oct 22 15:25:05 2021, MaxMem= 16106127360 cpu:               3.5 elap:               0.2
 (Enter /sw/contrib/gaussian/g16/B01/g16/l103.exe)

 GradGradGradGradGradGradGradGradGradGradGradGradGradGradGradGradGradGrad
 Berny optimization.
 Initialization pass.
                       ----------------------------
                       !    Initial Parameters    !
                       ! (Angstroms and Degrees)  !
 ----------------------                            ----------------------
 !      Name          Value   Derivative information (Atomic Units)     !
 ------------------------------------------------------------------------
 !       r1          0.9879   estimate D2E/DX2                          !
 !       r2          1.6876   estimate D2E/DX2                          !
 !       r3          3.3106   estimate D2E/DX2                          !
 !       a1        103.1663   estimate D2E/DX2                          !
 !       d1          0.0      Frozen                                    !
 ------------------------------------------------------------------------
 Trust Radius=3.00D-01 FncErr=1.00D-07 GrdErr=1.00D-07 EigMax=2.50D+02 EigMin=1.00D-04
 Number of steps in this run=     20 maximum allowed number of steps=    100.
 GradGradGradGradGradGradGradGradGradGradGradGradGradGradGradGradGradGrad

 Leave Link  103 at Fri Oct 22 15:25:05 2021, MaxMem= 16106127360 cpu:               1.5 elap:               0.1
 (Enter /sw/contrib/gaussian/g16/B01/g16/l202.exe)
 ---------------------------------------------------------------------------------------------------
                            Z-MATRIX (ANGSTROMS AND DEGREES)
   CD    Cent   Atom    N1       Length/X        N2       Alpha/Y        N3        Beta/Z          J
 ---------------------------------------------------------------------------------------------------
      1      1  O 
      2      2  H        1   0.987945(     1)
      3      3  H        1   1.687630(     2)      2  103.166(     4)
      4      4  I        1   3.310573(     3)      3  103.166(     5)      2    0.000(     6)      0
 ---------------------------------------------------------------------------------------------------
                         Z-Matrix orientation:                         
 ---------------------------------------------------------------------
 Center     Atomic      Atomic             Coordinates (Angstroms)
 Number     Number       Type             X           Y           Z
 ---------------------------------------------------------------------
      1          8           0        0.000000    0.000000    0.000000
      2          1           0        0.000000    0.000000    0.987945
      3          1           0        1.643268    0.000000   -0.384404
      4         53           0       -0.000000    0.000000    3.310573
 ---------------------------------------------------------------------
                    Distance matrix (angstroms):
                    1          2          3          4
     1  O    0.000000
     2  H    0.987945   0.000000
     3  H    1.687630   2.140951   0.000000
     4  I    3.310573   2.322628   4.043907   0.000000
 Stoichiometry    H2IO(1-)
 Framework group  CS[SG(H2IO)]
 Deg. of freedom     5
 Full point group                 CS      NOp   2
 Largest Abelian subgroup         CS      NOp   2
 Largest concise Abelian subgroup C1      NOp   1
                         Standard orientation:                         
 ---------------------------------------------------------------------
 Center     Atomic      Atomic             Coordinates (Angstroms)
 Number     Number       Type             X           Y           Z
 ---------------------------------------------------------------------
      1          8           0        0.026084    2.794665   -0.000000
      2          1           0        0.026084    1.806720   -0.000000
      3          1           0       -1.617184    3.179069   -0.000000
      4         53           0        0.026084   -0.515908    0.000000
 ---------------------------------------------------------------------
 Rotational constants (GHZ):         200.0709790           2.9616661           2.9184639
 Leave Link  202 at Fri Oct 22 15:25:05 2021, MaxMem= 16106127360 cpu:               3.4 elap:               0.1
 (Enter /sw/contrib/gaussian/g16/B01/g16/l301.exe)
 General basis read from cards:  (5D, 7F)
 Centers:       2      3      1
 aug-cc-pVTZ
 ****
 Centers:       4
 S 11 1.00
     Exponent=  5.5465000000D+03 Coefficients=  1.5600000000D-04
     Exponent=  8.3821400000D+02 Coefficients=  9.8600000000D-04
     Exponent=  1.8218700000D+02 Coefficients=  2.7920000000D-03
     Exponent=  3.1212300000D+01 Coefficients= -4.3251000000D-02
     Exponent=  1.9531400000D+01 Coefficients=  2.3413400000D-01
     Exponent=  8.2409900000D+00 Coefficients= -7.5094300000D-01
     Exponent=  2.1945500000D+00 Coefficients=  8.8296800000D-01
     Exponent=  1.1091100000D+00 Coefficients=  4.6206100000D-01
     Exponent=  3.7464100000D-01 Coefficients=  2.2286000000D-02
     Exponent=  1.7708000000D-01 Coefficients= -4.3530000000D-03
     Exponent=  8.1061000000D-02 Coefficients=  1.1020000000D-03
 S 11 1.00
     Exponent=  5.5465000000D+03 Coefficients= -7.3000000000D-05
     Exponent=  8.3821400000D+02 Coefficients= -5.0800000000D-04
     Exponent=  1.8218700000D+02 Coefficients= -1.1580000000D-03
     Exponent=  3.1212300000D+01 Coefficients=  1.2193000000D-02
     Exponent=  1.9531400000D+01 Coefficients= -8.7854000000D-02
     Exponent=  8.2409900000D+00 Coefficients=  3.3820000000D-01
     Exponent=  2.1945500000D+00 Coefficients= -5.7655000000D-01
     Exponent=  1.1091100000D+00 Coefficients= -4.0929800000D-01
     Exponent=  3.7464100000D-01 Coefficients=  5.6745900000D-01
     Exponent=  1.7708000000D-01 Coefficients=  6.1248900000D-01
     Exponent=  8.1061000000D-02 Coefficients=  1.4323100000D-01
 S 1 1.00
     Exponent=  3.7464100000D-01 Coefficients=  1.0000000000D+00
 S 1 1.00
     Exponent=  1.7708000000D-01 Coefficients=  1.0000000000D+00
 S 1 1.00
     Exponent=  1.0010000000D-01 Coefficients=  1.0000000000D+00
 S 1 1.00
     Exponent=  4.1200000000D-02 Coefficients=  1.0000000000D+00
 P 9 1.00
     Exponent=  1.8898800000D+02 Coefficients=  5.8500000000D-04
     Exponent=  2.1286800000D+01 Coefficients=  3.6923000000D-02
     Exponent=  1.0039600000D+01 Coefficients= -2.3532400000D-01
     Exponent=  3.4518000000D+00 Coefficients=  3.4148300000D-01
     Exponent=  1.9745600000D+00 Coefficients=  5.3478800000D-01
     Exponent=  1.0242000000D+00 Coefficients=  2.6514100000D-01
     Exponent=  4.4943700000D-01 Coefficients=  2.5787000000D-02
     Exponent=  1.8664800000D-01 Coefficients=  5.2200000000D-04
     Exponent=  7.3481000000D-02 Coefficients=  6.0600000000D-04
 P 9 1.00
     Exponent=  1.8898800000D+02 Coefficients= -2.5600000000D-04
     Exponent=  2.1286800000D+01 Coefficients= -1.1682000000D-02
     Exponent=  1.0039600000D+01 Coefficients=  8.3192000000D-02
     Exponent=  3.4518000000D+00 Coefficients= -1.5697000000D-01
     Exponent=  1.9745600000D+00 Coefficients= -2.2451800000D-01
     Exponent=  1.0242000000D+00 Coefficients= -1.1445100000D-01
     Exponent=  4.4943700000D-01 Coefficients=  3.7535600000D-01
     Exponent=  1.8664800000D-01 Coefficients=  5.7513600000D-01
     Exponent=  7.3481000000D-02 Coefficients=  2.4591700000D-01
 P 1 1.00
     Exponent=  5.9810000000D-01 Coefficients=  1.0000000000D+00
 P 1 1.00
     Exponent=  9.6180000000D-02 Coefficients=  1.0000000000D+00
 P 1 1.00
     Exponent=  3.5900000000D-02 Coefficients=  1.0000000000D+00
 D 9 1.00
     Exponent=  1.3266200000D+02 Coefficients=  5.7200000000D-04
     Exponent=  3.7605400000D+01 Coefficients=  4.4020000000D-03
     Exponent=  1.0389100000D+01 Coefficients= -4.0922000000D-02
     Exponent=  6.4901700000D+00 Coefficients=  9.9661000000D-02
     Exponent=  3.4545100000D+00 Coefficients=  3.2266300000D-01
     Exponent=  1.8441300000D+00 Coefficients=  4.0034300000D-01
     Exponent=  9.6247800000D-01 Coefficients=  2.6830600000D-01
     Exponent=  4.7285300000D-01 Coefficients=  8.4847000000D-02
     Exponent=  1.9320000000D-01 Coefficients=  7.6320000000D-03
 D 1 1.00
     Exponent=  4.7285300000D-01 Coefficients=  1.0000000000D+00
 D 1 1.00
     Exponent=  1.9320000000D-01 Coefficients=  1.0000000000D+00
 D 1 1.00
     Exponent=  7.8200000000D-02 Coefficients=  1.0000000000D+00
 F 1 1.00
     Exponent=  4.0640000000D-01 Coefficients=  1.0000000000D+00
 F 1 1.00
     Exponent=  1.8480000000D-01 Coefficients=  1.0000000000D+00
 ****
 ======================================================================================================
                                       Pseudopotential Parameters
 ======================================================================================================
  Center     Atomic      Valence      Angular      Power
  Number     Number     Electrons     Momentum     of R      Exponent        Coefficient   SO-Coeffient
 ======================================================================================================
    1          8
                                   No pseudopotential on this center.
    2          1
                                   No pseudopotential on this center.
    3          1
                                   No pseudopotential on this center.
    4         53           25
                                      G and up 
                                                     2        1.0000000        0.00000000    0.00000000
                                      S - G
                                                     2       40.0333760       49.98964900    0.00000000
                                                     2       17.3005760      281.00655600    0.00000000
                                                     2        8.8517200       61.41673900    0.00000000
                                      P - G
                                                     2       15.7201410       67.41623900    0.00000000
                                                     2       15.2082220      134.80769600    0.00000000
                                                     2        8.2941860       14.56654800    0.00000000
                                                     2        7.7539490       28.96842200    0.00000000
                                      D - G
                                                     2       13.8177510       35.53875600    0.00000000
                                                     2       13.5878050       53.33975900    0.00000000
                                                     2        6.9476300        9.71646600    0.00000000
                                                     2        6.9600990       14.97750000    0.00000000
                                      F - G
                                                     2       18.5229500      -20.17661800    0.00000000
                                                     2       18.2510350      -26.08807700    0.00000000
                                                     2        7.5579010       -0.22043400    0.00000000
                                                     2        7.5974040       -0.22164600    0.00000000
 ======================================================================================================
 Ernie: Thresh=  0.10000D-02 Tol=  0.10000D-05 Strict=F.
 Ernie:  10 primitive shells out of 113 were deleted.
 There are   117 symmetry adapted cartesian basis functions of A'  symmetry.
 There are    53 symmetry adapted cartesian basis functions of A"  symmetry.
 There are    98 symmetry adapted basis functions of A'  symmetry.
 There are    49 symmetry adapted basis functions of A"  symmetry.
   147 basis functions,   296 primitive gaussians,   170 cartesian basis functions
    18 alpha electrons       18 beta electrons
       nuclear repulsion energy        47.9769949877 Hartrees.
 IExCor=    0 DFT=F Ex=HF Corr=None ExCW=0 ScaHFX=  1.000000
 ScaDFX=  1.000000  1.000000  1.000000  1.000000 ScalE2=  1.000000  1.000000
 IRadAn=      5 IRanWt=     -1 IRanGd=            0 ICorTp=0 IEmpDi=  4
 NAtoms=    4 NActive=    4 NUniq=    4 SFac= 1.00D+00 NAtFMM=   60 NAOKFM=F Big=F
 Integral buffers will be    131072 words long.
 Raffenetti 1 integral format.
 Two-electron integral symmetry is turned on.
 Leave Link  301 at Fri Oct 22 15:25:06 2021, MaxMem= 16106127360 cpu:               3.2 elap:               0.1
 (Enter /sw/contrib/gaussian/g16/B01/g16/l302.exe)
 NPDir=0 NMtPBC=     1 NCelOv=     1 NCel=       1 NClECP=     1 NCelD=      1
         NCelK=      1 NCelE2=     1 NClLst=     1 CellRange=     0.0.
 One-electron integrals computed using PRISM.
 One-electron integral symmetry used in STVInt
   2 Symmetry operations used in ECPInt.
 ECPInt:  NShTT=    1225 NPrTT=    5557 LenC2=    1226 LenP2D=    4922.
 LDataN:  DoStor=T MaxTD1= 7 Len=  274
 NBasis=   147 RedAO= T EigKep=  2.96D-04  NBF=    98    49
 NBsUse=   147 1.00D-06 EigRej= -1.00D+00 NBFU=    98    49
 Leave Link  302 at Fri Oct 22 15:25:06 2021, MaxMem= 16106127360 cpu:               6.8 elap:               0.3
 (Enter /sw/contrib/gaussian/g16/B01/g16/l303.exe)
 DipDrv:  MaxL=1.
 Leave Link  303 at Fri Oct 22 15:25:06 2021, MaxMem= 16106127360 cpu:               1.1 elap:               0.1
 (Enter /sw/contrib/gaussian/g16/B01/g16/l401.exe)
 ExpMin= 2.53D-02 ExpMax= 1.53D+04 ExpMxC= 5.22D+02 IAcc=3 IRadAn=         5 AccDes= 0.00D+00
 Harris functional with IExCor=  205 and IRadAn=       5 diagonalized for initial guess.
 HarFok:  IExCor=  205 AccDes= 0.00D+00 IRadAn=         5 IDoV= 1 UseB2=F ITyADJ=14
 ICtDFT=  3500011 ScaDFX=  1.000000  1.000000  1.000000  1.000000
 Defaulting to unpruned grid for atomic number  53.
 FoFCou: FMM=F IPFlag=           0 FMFlag=      100000 FMFlg1=           0
         NFxFlg=           0 DoJE=T BraDBF=F KetDBF=T FulRan=T
         wScrn=  0.000000 ICntrl=       500 IOpCl=  0 I1Cent=   200000004 NGrid=           0
         NMat0=    1 NMatS0=      1 NMatT0=    0 NMatD0=    1 NMtDS0=    0 NMtDT0=    0
 Petite list used in FoFCou.
 Harris En= -372.564891168613    
 JPrj=0 DoOrth=F DoCkMO=F.
 Initial guess orbital symmetries:
       Occupied  (A') (A') (A') (A') (A") (A') (A') (A") (A') (A")
                 (A') (A') (A') (A') (A") (A') (A') (A")
       Virtual   (A') (A') (A') (A') (A") (A') (A') (A") (A') (A')
                 (A") (A') (A") (A') (A') (A") (A') (A') (A') (A')
                 (A") (A') (A') (A') (A") (A') (A") (A') (A") (A')
                 (A') (A") (A') (A") (A') (A') (A') (A") (A") (A')
                 (A') (A") (A') (A') (A') (A") (A') (A") (A') (A')
                 (A") (A') (A') (A") (A') (A') (A") (A') (A") (A')
                 (A') (A") (A") (A') (A") (A') (A') (A') (A') (A')
                 (A") (A') (A") (A') (A") (A') (A') (A') (A") (A')
                 (A') (A") (A") (A') (A") (A') (A') (A') (A') (A")
                 (A') (A") (A') (A') (A') (A") (A') (A') (A") (A')
                 (A") (A") (A') (A") (A') (A") (A') (A') (A') (A')
                 (A') (A') (A") (A') (A') (A") (A") (A') (A') (A")
                 (A') (A") (A') (A") (A') (A') (A') (A') (A')
 The electronic state of the initial guess is 1-A'.
 Leave Link  401 at Fri Oct 22 15:25:06 2021, MaxMem= 16106127360 cpu:               6.4 elap:               0.3
 (Enter /sw/contrib/gaussian/g16/B01/g16/l502.exe)
 Keep R1 ints in memory in symmetry-blocked form, NReq=117093950.
 FoFCou: FMM=F IPFlag=           0 FMFlag=           0 FMFlg1=           0
         NFxFlg=           0 DoJE=F BraDBF=F KetDBF=F FulRan=T
         wScrn=  0.000000 ICntrl=       600 IOpCl=  0 I1Cent=           0 NGrid=           0
         NMat0=    1 NMatS0=  10878 NMatT0=    0 NMatD0=    1 NMtDS0=    0 NMtDT0=    0
 Petite list used in FoFCou.
 Closed shell SCF:
 Using DIIS extrapolation, IDIIS=  1040.
 NGot= 16106127360 LenX= 16076045352 LenY= 16076016011
 Requested convergence on RMS density matrix=1.00D-08 within 128 cycles.
 Requested convergence on MAX density matrix=1.00D-06.
 Requested convergence on             energy=1.00D-06.
 No special actions if energy rises.

 Cycle   1  Pass 1  IDiag  1:
 E= -370.393737860037    
 DIIS: error= 3.46D-02 at cycle   1 NSaved=   1.
 NSaved= 1 IEnMin= 1 EnMin= -370.393737860037     IErMin= 1 ErrMin= 3.46D-02
 ErrMax= 3.46D-02  0.00D+00 EMaxC= 1.00D-01 BMatC= 4.18D-01 BMatP= 4.18D-01
 IDIUse=3 WtCom= 6.54D-01 WtEn= 3.46D-01
 Coeff-Com:  0.100D+01
 Coeff-En:   0.100D+01
 Coeff:      0.100D+01
 Gap=     0.261 Goal=   None    Shift=    0.000
 GapD=    0.261 DampG=1.000 DampE=0.500 DampFc=0.5000 IDamp=-1.
 Damping current iteration by 5.00D-01
 RMSDP=4.65D-03 MaxDP=1.12D-01              OVMax= 3.18D-01

 Cycle   2  Pass 1  IDiag  1:
 E= -370.505775805282     Delta-E=       -0.112037945245 Rises=F Damp=T
 DIIS: error= 1.43D-02 at cycle   2 NSaved=   2.
 NSaved= 2 IEnMin= 2 EnMin= -370.505775805282     IErMin= 2 ErrMin= 1.43D-02
 ErrMax= 1.43D-02  0.00D+00 EMaxC= 1.00D-01 BMatC= 5.97D-02 BMatP= 4.18D-01
 IDIUse=3 WtCom= 8.57D-01 WtEn= 1.43D-01
 Coeff-Com: -0.157D+00 0.116D+01
 Coeff-En:   0.000D+00 0.100D+01
 Coeff:     -0.134D+00 0.113D+01
 Gap=     0.295 Goal=   None    Shift=    0.000
 RMSDP=1.77D-03 MaxDP=7.18D-02 DE=-1.12D-01 OVMax= 2.08D-01

 Cycle   3  Pass 1  IDiag  1:
 E= -370.632267803424     Delta-E=       -0.126491998142 Rises=F Damp=F
 DIIS: error= 7.46D-03 at cycle   3 NSaved=   3.
 NSaved= 3 IEnMin= 3 EnMin= -370.632267803424     IErMin= 3 ErrMin= 7.46D-03
 ErrMax= 7.46D-03  0.00D+00 EMaxC= 1.00D-01 BMatC= 9.63D-03 BMatP= 5.97D-02
 IDIUse=3 WtCom= 9.25D-01 WtEn= 7.46D-02
 Coeff-Com: -0.143D+00 0.318D+00 0.825D+00
 Coeff-En:   0.000D+00 0.000D+00 0.100D+01
 Coeff:     -0.132D+00 0.294D+00 0.838D+00
 Gap=     0.258 Goal=   None    Shift=    0.000
 RMSDP=6.74D-04 MaxDP=2.93D-02 DE=-1.26D-01 OVMax= 6.23D-02

 Cycle   4  Pass 1  IDiag  1:
 E= -370.641898307505     Delta-E=       -0.009630504080 Rises=F Damp=F
 DIIS: error= 2.66D-03 at cycle   4 NSaved=   4.
 NSaved= 4 IEnMin= 4 EnMin= -370.641898307505     IErMin= 4 ErrMin= 2.66D-03
 ErrMax= 2.66D-03  0.00D+00 EMaxC= 1.00D-01 BMatC= 6.63D-04 BMatP= 9.63D-03
 IDIUse=3 WtCom= 9.73D-01 WtEn= 2.66D-02
 Coeff-Com:  0.256D-01-0.884D-01 0.419D-01 0.102D+01
 Coeff-En:   0.000D+00 0.000D+00 0.000D+00 0.100D+01
 Coeff:      0.250D-01-0.861D-01 0.408D-01 0.102D+01
 Gap=     0.265 Goal=   None    Shift=    0.000
 RMSDP=2.06D-04 MaxDP=1.04D-02 DE=-9.63D-03 OVMax= 1.31D-02

 Cycle   5  Pass 1  IDiag  1:
 E= -370.642996274869     Delta-E=       -0.001097967364 Rises=F Damp=F
 DIIS: error= 1.06D-03 at cycle   5 NSaved=   5.
 NSaved= 5 IEnMin= 5 EnMin= -370.642996274869     IErMin= 5 ErrMin= 1.06D-03
 ErrMax= 1.06D-03  0.00D+00 EMaxC= 1.00D-01 BMatC= 9.98D-05 BMatP= 6.63D-04
 IDIUse=3 WtCom= 9.89D-01 WtEn= 1.06D-02
 Coeff-Com:  0.301D-01-0.485D-01-0.122D+00-0.237D+00 0.138D+01
 Coeff-En:   0.000D+00 0.000D+00 0.000D+00 0.000D+00 0.100D+01
 Coeff:      0.298D-01-0.480D-01-0.121D+00-0.235D+00 0.137D+01
 Gap=     0.265 Goal=   None    Shift=    0.000
 RMSDP=1.29D-04 MaxDP=3.33D-03 DE=-1.10D-03 OVMax= 1.22D-02

 Cycle   6  Pass 1  IDiag  1:
 E= -370.643301254943     Delta-E=       -0.000304980074 Rises=F Damp=F
 DIIS: error= 2.53D-04 at cycle   6 NSaved=   6.
 NSaved= 6 IEnMin= 6 EnMin= -370.643301254943     IErMin= 6 ErrMin= 2.53D-04
 ErrMax= 2.53D-04  0.00D+00 EMaxC= 1.00D-01 BMatC= 7.53D-06 BMatP= 9.98D-05
 IDIUse=3 WtCom= 9.97D-01 WtEn= 2.53D-03
 Coeff-Com: -0.709D-02 0.139D-01 0.308D-01-0.795D-01-0.204D+00 0.125D+01
 Coeff-En:   0.000D+00 0.000D+00 0.000D+00 0.000D+00 0.000D+00 0.100D+01
 Coeff:     -0.707D-02 0.139D-01 0.307D-01-0.793D-01-0.204D+00 0.125D+01
 Gap=     0.267 Goal=   None    Shift=    0.000
 RMSDP=4.50D-05 MaxDP=1.12D-03 DE=-3.05D-04 OVMax= 3.41D-03

 Cycle   7  Pass 1  IDiag  1:
 E= -370.643325988705     Delta-E=       -0.000024733762 Rises=F Damp=F
 DIIS: error= 6.53D-05 at cycle   7 NSaved=   7.
 NSaved= 7 IEnMin= 7 EnMin= -370.643325988705     IErMin= 7 ErrMin= 6.53D-05
 ErrMax= 6.53D-05  0.00D+00 EMaxC= 1.00D-01 BMatC= 5.16D-07 BMatP= 7.53D-06
 IDIUse=1 WtCom= 1.00D+00 WtEn= 0.00D+00
 Coeff-Com:  0.177D-02-0.415D-02-0.728D-02 0.470D-01-0.187D-01-0.391D+00
 Coeff-Com:  0.137D+01
 Coeff:      0.177D-02-0.415D-02-0.728D-02 0.470D-01-0.187D-01-0.391D+00
 Coeff:      0.137D+01
 Gap=     0.267 Goal=   None    Shift=    0.000
 RMSDP=1.53D-05 MaxDP=3.88D-04 DE=-2.47D-05 OVMax= 1.18D-03

 Cycle   8  Pass 1  IDiag  1:
 E= -370.643328787851     Delta-E=       -0.000002799146 Rises=F Damp=F
 DIIS: error= 3.66D-05 at cycle   8 NSaved=   8.
 NSaved= 8 IEnMin= 8 EnMin= -370.643328787851     IErMin= 8 ErrMin= 3.66D-05
 ErrMax= 3.66D-05  0.00D+00 EMaxC= 1.00D-01 BMatC= 1.33D-07 BMatP= 5.16D-07
 IDIUse=1 WtCom= 1.00D+00 WtEn= 0.00D+00
 Coeff-Com:  0.664D-03-0.113D-02-0.609D-03-0.656D-02 0.329D-01-0.307D-01
 Coeff-Com: -0.489D+00 0.149D+01
 Coeff:      0.664D-03-0.113D-02-0.609D-03-0.656D-02 0.329D-01-0.307D-01
 Coeff:     -0.489D+00 0.149D+01
 Gap=     0.267 Goal=   None    Shift=    0.000
 RMSDP=6.20D-06 MaxDP=1.61D-04 DE=-2.80D-06 OVMax= 6.32D-04

 Cycle   9  Pass 1  IDiag  1:
 E= -370.643329406060     Delta-E=       -0.000000618209 Rises=F Damp=F
 DIIS: error= 1.09D-05 at cycle   9 NSaved=   9.
 NSaved= 9 IEnMin= 9 EnMin= -370.643329406060     IErMin= 9 ErrMin= 1.09D-05
 ErrMax= 1.09D-05  0.00D+00 EMaxC= 1.00D-01 BMatC= 1.45D-08 BMatP= 1.33D-07
 IDIUse=1 WtCom= 1.00D+00 WtEn= 0.00D+00
 Coeff-Com: -0.453D-03 0.978D-03 0.129D-02-0.806D-02-0.967D-04 0.849D-01
 Coeff-Com: -0.138D+00-0.442D+00 0.150D+01
 Coeff:     -0.453D-03 0.978D-03 0.129D-02-0.806D-02-0.967D-04 0.849D-01
 Coeff:     -0.138D+00-0.442D+00 0.150D+01
 Gap=     0.267 Goal=   None    Shift=    0.000
 RMSDP=2.55D-06 MaxDP=7.13D-05 DE=-6.18D-07 OVMax= 3.28D-04

 Cycle  10  Pass 1  IDiag  1:
 E= -370.643329501453     Delta-E=       -0.000000095393 Rises=F Damp=F
 DIIS: error= 2.84D-06 at cycle  10 NSaved=  10.
 NSaved=10 IEnMin=10 EnMin= -370.643329501453     IErMin=10 ErrMin= 2.84D-06
 ErrMax= 2.84D-06  0.00D+00 EMaxC= 1.00D-01 BMatC= 1.56D-09 BMatP= 1.45D-08
 IDIUse=1 WtCom= 1.00D+00 WtEn= 0.00D+00
 Coeff-Com: -0.442D-05-0.214D-04-0.252D-03 0.200D-02-0.251D-02-0.982D-02
 Coeff-Com:  0.473D-01 0.112D-01-0.365D+00 0.132D+01
 Coeff:     -0.442D-05-0.214D-04-0.252D-03 0.200D-02-0.251D-02-0.982D-02
 Coeff:      0.473D-01 0.112D-01-0.365D+00 0.132D+01
 Gap=     0.267 Goal=   None    Shift=    0.000
 RMSDP=7.99D-07 MaxDP=2.41D-05 DE=-9.54D-08 OVMax= 5.89D-05

 Cycle  11  Pass 1  IDiag  1:
 E= -370.643329507063     Delta-E=       -0.000000005610 Rises=F Damp=F
 DIIS: error= 8.18D-07 at cycle  11 NSaved=  11.
 NSaved=11 IEnMin=11 EnMin= -370.643329507063     IErMin=11 ErrMin= 8.18D-07
 ErrMax= 8.18D-07  0.00D+00 EMaxC= 1.00D-01 BMatC= 6.53D-11 BMatP= 1.56D-09
 IDIUse=1 WtCom= 1.00D+00 WtEn= 0.00D+00
 Coeff-Com:  0.188D-04-0.351D-04 0.281D-04 0.564D-04-0.463D-04-0.259D-02
 Coeff-Com:  0.144D-02 0.170D-01-0.123D-01-0.313D+00 0.131D+01
 Coeff:      0.188D-04-0.351D-04 0.281D-04 0.564D-04-0.463D-04-0.259D-02
 Coeff:      0.144D-02 0.170D-01-0.123D-01-0.313D+00 0.131D+01
 Gap=     0.267 Goal=   None    Shift=    0.000
 RMSDP=2.51D-07 MaxDP=9.44D-06 DE=-5.61D-09 OVMax= 2.34D-05

 Cycle  12  Pass 1  IDiag  1:
 E= -370.643329507509     Delta-E=       -0.000000000445 Rises=F Damp=F
 DIIS: error= 2.24D-07 at cycle  12 NSaved=  12.
 NSaved=12 IEnMin=12 EnMin= -370.643329507509     IErMin=12 ErrMin= 2.24D-07
 ErrMax= 2.24D-07  0.00D+00 EMaxC= 1.00D-01 BMatC= 5.25D-12 BMatP= 6.53D-11
 IDIUse=1 WtCom= 1.00D+00 WtEn= 0.00D+00
 Coeff-Com: -0.854D-07 0.142D-05 0.198D-04-0.125D-03 0.144D-03 0.665D-03
 Coeff-Com: -0.256D-02-0.380D-02 0.278D-01-0.872D-01-0.374D-01 0.110D+01
 Coeff:     -0.854D-07 0.142D-05 0.198D-04-0.125D-03 0.144D-03 0.665D-03
 Coeff:     -0.256D-02-0.380D-02 0.278D-01-0.872D-01-0.374D-01 0.110D+01
 Gap=     0.267 Goal=   None    Shift=    0.000
 RMSDP=6.38D-08 MaxDP=2.42D-06 DE=-4.45D-10 OVMax= 5.74D-06

 Cycle  13  Pass 1  IDiag  1:
 E= -370.643329507537     Delta-E=       -0.000000000028 Rises=F Damp=F
 DIIS: error= 6.26D-08 at cycle  13 NSaved=  13.
 NSaved=13 IEnMin=13 EnMin= -370.643329507537     IErMin=13 ErrMin= 6.26D-08
 ErrMax= 6.26D-08  0.00D+00 EMaxC= 1.00D-01 BMatC= 5.15D-13 BMatP= 5.25D-12
 IDIUse=1 WtCom= 1.00D+00 WtEn= 0.00D+00
 Coeff-Com: -0.926D-06 0.133D-05-0.956D-05 0.121D-04 0.374D-04 0.142D-03
 Coeff-Com: -0.905D-04-0.149D-02 0.121D-03 0.379D-01-0.167D+00 0.441D-01
 Coeff-Com:  0.109D+01
 Coeff:     -0.926D-06 0.133D-05-0.956D-05 0.121D-04 0.374D-04 0.142D-03
 Coeff:     -0.905D-04-0.149D-02 0.121D-03 0.379D-01-0.167D+00 0.441D-01
 Coeff:      0.109D+01
 Gap=     0.267 Goal=   None    Shift=    0.000
 RMSDP=2.01D-08 MaxDP=7.36D-07 DE=-2.80D-11 OVMax= 1.79D-06

 Cycle  14  Pass 1  IDiag  1:
 E= -370.643329507540     Delta-E=       -0.000000000003 Rises=F Damp=F
 DIIS: error= 6.20D-09 at cycle  14 NSaved=  14.
 NSaved=14 IEnMin=14 EnMin= -370.643329507540     IErMin=14 ErrMin= 6.20D-09
 ErrMax= 6.20D-09  0.00D+00 EMaxC= 1.00D-01 BMatC= 9.88D-15 BMatP= 5.15D-13
 IDIUse=1 WtCom= 1.00D+00 WtEn= 0.00D+00
 Coeff-Com: -0.915D-07 0.184D-06 0.200D-05-0.811D-06-0.171D-04-0.793D-05
 Coeff-Com:  0.171D-04 0.468D-03-0.908D-03-0.389D-02 0.284D-01-0.371D-01
 Coeff-Com: -0.197D+00 0.121D+01
 Coeff:     -0.915D-07 0.184D-06 0.200D-05-0.811D-06-0.171D-04-0.793D-05
 Coeff:      0.171D-04 0.468D-03-0.908D-03-0.389D-02 0.284D-01-0.371D-01
 Coeff:     -0.197D+00 0.121D+01
 Gap=     0.267 Goal=   None    Shift=    0.000
 RMSDP=2.91D-09 MaxDP=9.21D-08 DE=-3.30D-12 OVMax= 1.55D-07

 SCF Done:  E(RHF) =  -370.643329508     A.U. after   14 cycles
            NFock= 14  Conv=0.29D-08     -V/T= 2.9888
 KE= 1.863676432758D+02 PE=-9.091304869659D+02 EE= 3.041425191947D+02
 Leave Link  502 at Fri Oct 22 15:25:08 2021, MaxMem= 16106127360 cpu:              44.2 elap:               2.1
 (Enter /sw/contrib/gaussian/g16/B01/g16/l801.exe)
 ExpMin= 2.53D-02 ExpMax= 1.53D+04 ExpMxC= 5.22D+02 IAcc=3 IRadAn=         5 AccDes= 0.00D+00
 HarFok:  IExCor=  205 AccDes= 0.00D+00 IRadAn=         5 IDoV=-2 UseB2=F ITyADJ=14
 ICtDFT= 12500011 ScaDFX=  1.000000  1.000000  1.000000  1.000000
 Defaulting to unpruned grid for atomic number  53.
 Largest valence mixing into a core orbital is  1.35D-04
 Largest core mixing into a valence orbital is  2.79D-05
 Range of M.O.s used for correlation:     6   147
 NBasis=   147 NAE=    18 NBE=    18 NFC=     5 NFV=     0
 NROrb=    142 NOA=    13 NOB=    13 NVA=   129 NVB=   129

 **** Warning!!: The largest alpha MO coefficient is  0.15513646D+02

 Leave Link  801 at Fri Oct 22 15:25:09 2021, MaxMem= 16106127360 cpu:               2.6 elap:               0.2
 (Enter /sw/contrib/gaussian/g16/B01/g16/l906.exe)
 Frozen-core derivative calculation, NFC=   5 NFV=   0.
 FulOut=F Deriv=T AODrv=T NAtomX=     4
   MMem=         225  MDisk=          13 MDiskD=          13
  W3Min=      449820 MinDsk=      818995 NBas6D=         170
 NBas2D=       14925    NTT=       14535    LW2=    26219120
    MDV= 16105819481 MDiskM=      473641 NBas2p=       14925
 Fully direct method using O(ONN) memory.
 IMap=   1   2   3   4   5   6   7   8   9  10  11  12  13  14  15  16  17  18
 JobTyp=1 Pass  1:  I=   6 to  18 NPSUse= 28 ParTrn=T ParDer=T DoDerP=T.
 Spin components of T(2) and E(2):
     alpha-alpha T2 =       0.2455033923D-01 E2=     -0.6961674517D-01
     alpha-beta  T2 =       0.1487452202D+00 E2=     -0.3897972883D+00
     beta-beta   T2 =       0.2455033923D-01 E2=     -0.6961674517D-01
 The integrals were generated   1 times.
 ANorm=    0.1094461465D+01
 E2 =    -0.5290307786D+00 EUMP2 =    -0.37117236028617D+03
 Leave Link  906 at Fri Oct 22 15:25:15 2021, MaxMem= 16106127360 cpu:             175.4 elap:               6.4
 (Enter /sw/contrib/gaussian/g16/B01/g16/l1002.exe)
 Minotr:  Closed shell wavefunction.
          Computing MP2/KS-MP2 derivatives.
          Using Z-Vector for PSCF gradient.
          Skipping F1 and S1 gradient terms here.
          IDoAtm=1111
          Frozen-core window.
          Direct CPHF calculation.
          Differentiating once with respect to electric field.
                with respect to dipole field.
          Differentiating once with respect to nuclear coordinates.
          Using symmetry in CPHF.
          Requested convergence is 1.0D-10 RMS, and 1.0D-09 maximum.
          NewPWx=F KeepS1=T KeepF1=T KeepIn=T MapXYZ=F SortEE=F KeepMc=T.
 Keep R1 ints in memory in symmetry-blocked form, NReq=117097042.
 FoFCou: FMM=F IPFlag=           0 FMFlag=           0 FMFlg1=           0
         NFxFlg=           0 DoJE=F BraDBF=F KetDBF=F FulRan=T
         wScrn=  0.000000 ICntrl=       600 IOpCl=  0 I1Cent=           0 NGrid=           0
         NMat0=    1 NMatS0=  10878 NMatT0=    0 NMatD0=    1 NMtDS0=    0 NMtDT0=    0
 Petite list used in FoFCou.
          MDV=   16106127360 using IRadAn=       5.
          Solving linear equations separately, MaxMat=       0.
          There are     1 degrees of freedom in the 1st order CPHF.  IDoFFX=0 NUNeed=     1.
 LinEq1:  Iter=  0 NonCon=     1 RMS=4.55D-03 Max=8.60D-02 NDo=     1
 AX will form     1 AO Fock derivatives at one time.
 LinEq1:  Iter=  1 NonCon=     1 RMS=1.06D-03 Max=1.47D-02 NDo=     1
 LinEq1:  Iter=  2 NonCon=     1 RMS=9.97D-04 Max=2.90D-02 NDo=     1
 LinEq1:  Iter=  3 NonCon=     1 RMS=2.00D-04 Max=2.03D-03 NDo=     1
 LinEq1:  Iter=  4 NonCon=     1 RMS=7.83D-05 Max=9.98D-04 NDo=     1
 LinEq1:  Iter=  5 NonCon=     1 RMS=1.90D-05 Max=3.44D-04 NDo=     1
 LinEq1:  Iter=  6 NonCon=     1 RMS=4.26D-06 Max=6.48D-05 NDo=     1
 LinEq1:  Iter=  7 NonCon=     1 RMS=1.29D-06 Max=2.33D-05 NDo=     1
 LinEq1:  Iter=  8 NonCon=     1 RMS=3.64D-07 Max=5.88D-06 NDo=     1
 LinEq1:  Iter=  9 NonCon=     1 RMS=9.37D-08 Max=9.88D-07 NDo=     1
 LinEq1:  Iter= 10 NonCon=     1 RMS=1.52D-08 Max=1.49D-07 NDo=     1
 LinEq1:  Iter= 11 NonCon=     1 RMS=3.04D-09 Max=4.18D-08 NDo=     1
 LinEq1:  Iter= 12 NonCon=     1 RMS=8.83D-10 Max=1.13D-08 NDo=     1
 LinEq1:  Iter= 13 NonCon=     1 RMS=2.33D-10 Max=2.51D-09 NDo=     1
 LinEq1:  Iter= 14 NonCon=     0 RMS=3.84D-11 Max=4.11D-10 NDo=     1
 Linear equations converged to 1.000D-10 1.000D-09 after    14 iterations.
 End of Minotr F.D. properties file   721 does not exist.
 End of Minotr F.D. properties file   722 does not exist.
 End of Minotr F.D. properties file   788 does not exist.
 Leave Link 1002 at Fri Oct 22 15:25:17 2021, MaxMem= 16106127360 cpu:              37.8 elap:               1.8
 (Enter /sw/contrib/gaussian/g16/B01/g16/l601.exe)
 Copying SCF densities to generalized density rwf, IOpCl= 0 IROHF=0.

 **********************************************************************

            Population analysis using the SCF Density.

 **********************************************************************

 Orbital symmetries:
       Occupied  (A') (A') (A') (A') (A") (A') (A') (A") (A") (A')
                 (A') (A') (A') (A") (A') (A') (A') (A")
       Virtual   (A') (A') (A') (A') (A") (A') (A') (A") (A') (A')
                 (A') (A") (A') (A') (A") (A") (A') (A') (A') (A")
                 (A') (A') (A') (A') (A') (A") (A') (A') (A") (A')
                 (A") (A') (A") (A') (A') (A") (A') (A") (A') (A")
                 (A') (A") (A') (A') (A') (A") (A") (A') (A') (A")
                 (A') (A') (A') (A") (A') (A') (A") (A') (A") (A')
                 (A') (A") (A') (A") (A') (A") (A') (A') (A') (A')
                 (A") (A') (A") (A') (A") (A') (A') (A') (A") (A')
                 (A') (A") (A") (A') (A") (A') (A') (A') (A') (A')
                 (A") (A') (A") (A') (A') (A") (A') (A') (A") (A")
                 (A") (A') (A') (A") (A') (A') (A") (A') (A') (A')
                 (A') (A') (A") (A') (A') (A") (A") (A') (A') (A")
                 (A") (A') (A') (A") (A') (A') (A') (A') (A')
 The electronic state is 1-A'.
 Alpha  occ. eigenvalues --  -20.44906  -7.46925  -5.29495  -5.29449  -5.29445
 Alpha  occ. eigenvalues --   -2.02252  -2.02219  -2.02215  -2.02169  -2.02169
 Alpha  occ. eigenvalues --   -1.11991  -0.63305  -0.47584  -0.34861  -0.30907
 Alpha  occ. eigenvalues --   -0.15088  -0.14468  -0.14443
 Alpha virt. eigenvalues --    0.12223   0.16748   0.19512   0.22975   0.24563
 Alpha virt. eigenvalues --    0.25395   0.28276   0.29367   0.32018   0.32630
 Alpha virt. eigenvalues --    0.36222   0.36727   0.37263   0.39565   0.39893
 Alpha virt. eigenvalues --    0.40834   0.44208   0.44915   0.46928   0.55327
 Alpha virt. eigenvalues --    0.56800   0.58666   0.66772   0.69466   0.76352
 Alpha virt. eigenvalues --    0.77398   0.77559   0.79380   0.79659   0.79953
 Alpha virt. eigenvalues --    0.80481   0.83428   0.84288   0.85008   0.87762
 Alpha virt. eigenvalues --    0.88050   0.88384   0.89813   0.91948   0.92174
 Alpha virt. eigenvalues --    0.94954   0.97472   0.97731   1.00244   1.02985
 Alpha virt. eigenvalues --    1.03649   1.10666   1.11941   1.15889   1.16084
 Alpha virt. eigenvalues --    1.16891   1.22154   1.25336   1.29098   1.33293
 Alpha virt. eigenvalues --    1.37518   1.39177   1.48212   1.55288   1.57976
 Alpha virt. eigenvalues --    1.65502   1.72184   1.72344   1.74982   1.75009
 Alpha virt. eigenvalues --    1.76376   1.77445   1.79037   1.80366   1.87189
 Alpha virt. eigenvalues --    1.90769   1.94159   2.05415   2.05906   2.10891
 Alpha virt. eigenvalues --    2.13134   2.16398   2.27979   2.35020   2.45100
 Alpha virt. eigenvalues --    2.51023   2.54862   2.57324   2.61574   2.65551
 Alpha virt. eigenvalues --    2.67581   2.72559   2.80484   2.94168   3.01048
 Alpha virt. eigenvalues --    3.01968   3.29519   3.30530   3.33276   3.75179
 Alpha virt. eigenvalues --    4.00402   4.01726   4.13561   4.13760   4.27474
 Alpha virt. eigenvalues --    4.28001   4.28687   4.38616   4.44610   4.52242
 Alpha virt. eigenvalues --    4.55391   4.57663   4.69363   4.73993   4.96276
 Alpha virt. eigenvalues --    5.21485   5.38554   5.46227   5.56929   6.45746
 Alpha virt. eigenvalues --    6.81707   6.86364   6.87363   6.93934   7.26569
 Alpha virt. eigenvalues --    7.35946   7.37722   7.40519   7.52815   7.66961
 Alpha virt. eigenvalues --    7.77049   8.16367  14.45446  59.22109
          Condensed to atoms (all electrons):
               1          2          3          4
     1  O    8.218811   0.230704   0.209989  -0.076597
     2  H    0.230704   0.366269   0.008081   0.057516
     3  H    0.209989   0.008081   0.612857   0.005960
     4  I   -0.076597   0.057516   0.005960  25.930753
 Mulliken charges:
               1
     1  O   -0.582909
     2  H    0.337429
     3  H    0.163112
     4  I   -0.917633
 Sum of Mulliken charges =  -1.00000
 Mulliken charges with hydrogens summed into heavy atoms:
               1
     1  O   -0.082367
     4  I   -0.917633
 Electronic spatial extent (au):  <R**2>=            402.0831
 Charge=             -1.0000 electrons
 Dipole moment (field-independent basis, Debye):
    X=             -1.2907    Y=             -0.3124    Z=              0.0000  Tot=              1.3279
 Quadrupole moment (field-independent basis, Debye-Ang):
   XX=            -38.2771   YY=            -51.7786   ZZ=            -41.7939
   XY=             -4.2992   XZ=              0.0000   YZ=              0.0000
 Traceless Quadrupole moment (field-independent basis, Debye-Ang):
   XX=              5.6728   YY=             -7.8288   ZZ=              2.1560
   XY=             -4.2992   XZ=              0.0000   YZ=              0.0000
 Octapole moment (field-independent basis, Debye-Ang**2):
  XXX=             -2.4137  YYY=            -44.7001  ZZZ=              0.0000  XYY=            -14.0416
  XXY=              5.0314  XXZ=             -0.0000  XZZ=              1.0782  YZZ=             -6.2747
  YYZ=              0.0000  XYZ=              0.0000
 Hexadecapole moment (field-independent basis, Debye-Ang**3):
 XXXX=            -79.8174 YYYY=           -583.6257 ZZZZ=            -73.3027 XXXY=              0.7057
 XXXZ=             -0.0000 YYYX=            -32.1798 YYYZ=              0.0000 ZZZX=             -0.0000
 ZZZY=              0.0000 XXYY=            -66.6325 XXZZ=            -27.3698 YYZZ=            -99.9207
 XXYZ=              0.0000 YYXZ=              0.0000 ZZXY=              6.3781
 N-N= 4.797699498773D+01 E-N=-9.091304868094D+02  KE= 1.863676432758D+02
 Symmetry A'   KE= 1.430974759134D+02
 Symmetry A"   KE= 4.327016736249D+01
 No NMR shielding tensors so no spin-rotation constants.
 Leave Link  601 at Fri Oct 22 15:25:17 2021, MaxMem= 16106127360 cpu:               4.5 elap:               0.2
 (Enter /sw/contrib/gaussian/g16/B01/g16/l701.exe)
 ... and contract with generalized density number  2.
 Compute integral first derivatives.
   2 Symmetry operations used in ECPInt.
 ECPInt:  NShTT=    1225 NPrTT=    5557 LenC2=    1226 LenP2D=    4922.
 LDataN:  DoStor=T MaxTD1= 8 Len=  415
 Leave Link  701 at Fri Oct 22 15:25:18 2021, MaxMem= 16106127360 cpu:              22.3 elap:               0.8
 (Enter /sw/contrib/gaussian/g16/B01/g16/l702.exe)
 L702 exits ... SP integral derivatives will be done elsewhere.
 Leave Link  702 at Fri Oct 22 15:25:18 2021, MaxMem= 16106127360 cpu:               0.6 elap:               0.0
 (Enter /sw/contrib/gaussian/g16/B01/g16/l703.exe)
 Integral derivatives from FoFJK, PRISM(SPDF).
 Compute integral first derivatives, UseDBF=F ICtDFT=           0.
 Calling FoFJK, ICntrl=  10002127 FMM=F ISym2X=1 I1Cent= 0 IOpClX= 0 NMat=1 NMatS=1 NMatT=0.
 FoFJK:  IHMeth= 1 ICntrl=10002127 DoSepK=F KAlg= 0 I1Cent=           0 FoldK=F
 IRaf=         0 NMat=       1 IRICut=       1 DoRegI=T DoRafI=F ISym2E= 1 IDoP0=0 IntGTp=1.
 FoFCou: FMM=F IPFlag=           0 FMFlag=      100000 FMFlg1=         800
         NFxFlg=           0 DoJE=F BraDBF=F KetDBF=F FulRan=T
         wScrn=  0.000000 ICntrl=  10002127 IOpCl=  0 I1Cent=           0 NGrid=           0
         NMat0=    1 NMatS0=      1 NMatT0=    0 NMatD0=    1 NMtDS0=    0 NMtDT0=    0
 Petite list used in FoFCou.
 Leave Link  703 at Fri Oct 22 15:25:19 2021, MaxMem= 16106127360 cpu:              32.0 elap:               1.2
 (Enter /sw/contrib/gaussian/g16/B01/g16/l716.exe)
 Dipole        =-6.36051307D-01-1.10484251D-01 5.59682752D-33
 ***** Axes restored to original set *****
 -------------------------------------------------------------------
 Center     Atomic                   Forces (Hartrees/Bohr)
 Number     Number              X              Y              Z
 -------------------------------------------------------------------
      1        8           0.079143916   -0.000000000   -0.042065655
      2        1           0.013941608    0.000000000    0.006146881
      3        1          -0.092988713    0.000000000    0.029939301
      4       53          -0.000096811    0.000000000    0.005979474
 -------------------------------------------------------------------
 Cartesian Forces:  Max     0.092988713 RMS     0.038562133
 -----------------------------------------------------------------------------------------------
                       Internal Coordinate Forces (Hartree/Bohr or radian)
  Cent   Atom   N1       Length/X         N2         Alpha/Y        N3         Beta/Z          J
 -----------------------------------------------------------------------------------------------
      1  O 
      2  H        1   0.006147(     1)
      3  H        1  -0.097364(     2)      2  -0.026028(     4)
      4  I        1   0.005979(     3)      3   0.000606(     5)      2   0.000000(     6)     0
 -----------------------------------------------------------------------------------------------
 Internal  Forces:  Max     0.097363837 RMS     0.041293848
 Force constants in Cartesian coordinates: 
                1             2             3             4             5 
      1  0.162103D+00
      2  0.000000D+00  0.225948D-01
      3  0.241132D-01  0.000000D+00  0.550291D+00
      4 -0.842313D-01  0.000000D+00 -0.261663D-01  0.918092D-01
      5  0.000000D+00 -0.322057D-01  0.000000D+00  0.000000D+00  0.459046D-01
      6  0.000000D+00  0.000000D+00 -0.498721D+00  0.000000D+00  0.000000D+00
      7 -0.815680D-01  0.000000D+00  0.986178D-02  0.612100D-02  0.000000D+00
      8  0.000000D+00  0.000000D+00  0.000000D+00  0.000000D+00  0.000000D+00
      9 -0.241132D-01  0.000000D+00 -0.337698D-01  0.261663D-01  0.000000D+00
     10  0.369618D-02  0.000000D+00 -0.780859D-02 -0.136989D-01  0.000000D+00
     11  0.000000D+00  0.961087D-02  0.000000D+00  0.000000D+00 -0.136989D-01
     12  0.000000D+00  0.000000D+00 -0.178009D-01  0.000000D+00  0.000000D+00
                6             7             8             9            10 
      6  0.498721D+00
      7  0.000000D+00  0.736204D-01
      8  0.000000D+00  0.000000D+00  0.100000D+01
      9  0.000000D+00 -0.986178D-02  0.000000D+00  0.337698D-01
     10  0.000000D+00  0.182664D-02  0.000000D+00  0.780859D-02  0.817609D-02
     11  0.000000D+00  0.000000D+00  0.000000D+00  0.000000D+00  0.000000D+00
     12  0.000000D+00  0.000000D+00  0.000000D+00  0.000000D+00  0.000000D+00
               11            12 
     11  0.408805D-02
     12  0.000000D+00  0.178009D-01
 Force constants in internal coordinates: 
                1             2             3             4             5 
      1  0.498721D+00
      2  0.000000D+00  0.759273D-01
      3  0.000000D+00  0.000000D+00  0.178009D-01
      4  0.000000D+00  0.000000D+00  0.000000D+00  0.320000D+00
      5  0.000000D+00  0.000000D+00  0.000000D+00 -0.160000D+00  0.320000D+00
      6  0.000000D+00  0.000000D+00  0.000000D+00  0.000000D+00  0.000000D+00
                6 
      6  0.151699D+00
 Leave Link  716 at Fri Oct 22 15:25:19 2021, MaxMem= 16106127360 cpu:               0.9 elap:               0.1
 (Enter /sw/contrib/gaussian/g16/B01/g16/l103.exe)

 GradGradGradGradGradGradGradGradGradGradGradGradGradGradGradGradGradGrad
 Berny optimization.
 Search for a local minimum.
 Step number   1 out of a maximum of   20
 All quantities printed in internal units (Hartrees-Bohrs-Radians)
 Second derivative matrix not updated -- first step.
 The second derivative matrix:
                          r1        r2        r3        a1        d1
           r1           0.49872
           r2          -0.00000   0.07593
           r3          -0.00000   0.00000   0.01780
           a1          -0.00000  -0.00000   0.00000   0.32000
           d1           0.00000   0.00000   0.00000   0.00000   0.15170
 ITU=  0
     Eigenvalues ---    0.01780   0.07593   0.32000   0.498721000.00000
 RFO step:  Lambda=-6.80093503D-02 EMin= 1.78009176D-02
 Linear search not attempted -- first point.
 Maximum step size (   0.300) exceeded in Quadratic search.
    -- Step size scaled by   0.439
 Variable       Old X    -DE/DX   Delta X   Delta X   Delta X     New X
                                 (Linear)    (Quad)   (Total)
    r1        1.86695   0.00615   0.00000   0.00476   0.00476   1.87171
    r2        3.18916  -0.09736   0.00000  -0.29701  -0.29701   2.89215
    r3        6.25608   0.00598   0.00000   0.03060   0.03060   6.28667
    a1        1.80059  -0.02542   0.00000  -0.02877  -0.02877   1.77182
    d1        0.00000   0.00000   0.00000   0.00000   0.00000   0.00000
         Item               Value     Threshold  Converged?
 Maximum Force            0.097364     0.000015     NO 
 RMS     Force            0.050496     0.000010     NO 
 Maximum Displacement     0.297008     0.000060     NO 
 RMS     Displacement     0.134164     0.000040     NO 
 Predicted change in Energy=-2.636608D-02
 Lowest energy point so far.  Saving SCF results.
 GradGradGradGradGradGradGradGradGradGradGradGradGradGradGradGradGradGrad

 Leave Link  103 at Fri Oct 22 15:25:19 2021, MaxMem= 16106127360 cpu:               1.5 elap:               0.1
 (Enter /sw/contrib/gaussian/g16/B01/g16/l202.exe)
 ---------------------------------------------------------------------------------------------------
                            Z-MATRIX (ANGSTROMS AND DEGREES)
   CD    Cent   Atom    N1       Length/X        N2       Alpha/Y        N3        Beta/Z          J
 ---------------------------------------------------------------------------------------------------
      1      1  O 
      2      2  H        1   0.990466(     1)
      3      3  H        1   1.530460(     2)      2  101.518(     4)
      4      4  I        1   3.326764(     3)      3  101.518(     5)      2    0.000(     6)      0
 ---------------------------------------------------------------------------------------------------
                         Z-Matrix orientation:                         
 ---------------------------------------------------------------------
 Center     Atomic      Atomic             Coordinates (Angstroms)
 Number     Number       Type             X           Y           Z
 ---------------------------------------------------------------------
      1          8           0        0.000000    0.000000    0.000000
      2          1           0        0.000000    0.000000    0.990466
      3          1           0        1.499640    0.000000   -0.305594
      4         53           0        0.000000    0.000000    3.326764
 ---------------------------------------------------------------------
                    Distance matrix (angstroms):
                    1          2          3          4
     1  O    0.000000
     2  H    0.990466   0.000000
     3  H    1.530460   1.982093   0.000000
     4  I    3.326764   2.336298   3.929751   0.000000
 Stoichiometry    H2IO(1-)
 Framework group  CS[SG(H2IO)]
 Deg. of freedom     5
 Full point group                 CS      NOp   2
 RotChk:  IX=0 Diff= 1.14D-14
 Largest Abelian subgroup         CS      NOp   2
 Largest concise Abelian subgroup C1      NOp   1
                         Standard orientation:                         
 ---------------------------------------------------------------------
 Center     Atomic      Atomic             Coordinates (Angstroms)
 Number     Number       Type             X           Y           Z
 ---------------------------------------------------------------------
      1          8           0        0.023804    2.809577   -0.000000
      2          1           0        0.023804    1.819112   -0.000000
      3          1           0       -1.475837    3.115171   -0.000000
      4         53           0        0.023804   -0.517187    0.000000
 ---------------------------------------------------------------------
 Rotational constants (GHZ):         239.4352832           2.9424724           2.9067507
 Leave Link  202 at Fri Oct 22 15:25:19 2021, MaxMem= 16106127360 cpu:               0.6 elap:               0.0
 (Enter /sw/contrib/gaussian/g16/B01/g16/l301.exe)
 Basis read from rwf:  (5D, 7F)
 Pseudo-potential data read from rwf file.
 There are   117 symmetry adapted cartesian basis functions of A'  symmetry.
 There are    53 symmetry adapted cartesian basis functions of A"  symmetry.
 There are    98 symmetry adapted basis functions of A'  symmetry.
 There are    49 symmetry adapted basis functions of A"  symmetry.
   147 basis functions,   296 primitive gaussians,   170 cartesian basis functions
    18 alpha electrons       18 beta electrons
       nuclear repulsion energy        48.1496277780 Hartrees.
 IExCor=    0 DFT=F Ex=HF Corr=None ExCW=0 ScaHFX=  1.000000
 ScaDFX=  1.000000  1.000000  1.000000  1.000000 ScalE2=  1.000000  1.000000
 IRadAn=      5 IRanWt=     -1 IRanGd=            0 ICorTp=0 IEmpDi=  4
 NAtoms=    4 NActive=    4 NUniq=    4 SFac= 1.00D+00 NAtFMM=   60 NAOKFM=F Big=F
 Integral buffers will be    131072 words long.
 Raffenetti 1 integral format.
 Two-electron integral symmetry is turned on.
 No density basis found on file   724.
 Leave Link  301 at Fri Oct 22 15:25:19 2021, MaxMem= 16106127360 cpu:               2.5 elap:               0.1
 (Enter /sw/contrib/gaussian/g16/B01/g16/l302.exe)
 NPDir=0 NMtPBC=     1 NCelOv=     1 NCel=       1 NClECP=     1 NCelD=      1
         NCelK=      1 NCelE2=     1 NClLst=     1 CellRange=     0.0.
 One-electron integrals computed using PRISM.
 One-electron integral symmetry used in STVInt
   2 Symmetry operations used in ECPInt.
 ECPInt:  NShTT=    1225 NPrTT=    5557 LenC2=    1226 LenP2D=    4934.
 LDataN:  DoStor=T MaxTD1= 7 Len=  274
 NBasis=   147 RedAO= T EigKep=  2.94D-04  NBF=    98    49
 NBsUse=   147 1.00D-06 EigRej= -1.00D+00 NBFU=    98    49
 Leave Link  302 at Fri Oct 22 15:25:20 2021, MaxMem= 16106127360 cpu:               6.0 elap:               0.2
 (Enter /sw/contrib/gaussian/g16/B01/g16/l303.exe)
 DipDrv:  MaxL=1.
 Leave Link  303 at Fri Oct 22 15:25:20 2021, MaxMem= 16106127360 cpu:               0.9 elap:               0.1
 (Enter /sw/contrib/gaussian/g16/B01/g16/l401.exe)
 Initial guess from the checkpoint file:  "/gscratch/ilahie/mccoygrp/hocl/2nd_basis/i_hoh_pp_eq.chk"
 B after Tr=     0.000000   -0.000000    0.000000
         Rot=    0.999998    0.000000    0.000000    0.001899 Ang=   0.22 deg.
 Guess basis will be translated and rotated to current coordinates.
 JPrj=2 DoOrth=T DoCkMO=T.
 Initial guess orbital symmetries:
       Occupied  (A') (A') (A') (A') (A") (A') (A') (A") (A") (A')
                 (A') (A') (A') (A") (A') (A') (A') (A")
       Virtual   (A') (A') (A') (A') (A") (A') (A') (A") (A') (A')
                 (A') (A") (A') (A') (A") (A") (A') (A') (A') (A")
                 (A') (A') (A') (A') (A') (A") (A') (A') (A") (A')
                 (A") (A') (A") (A') (A') (A") (A') (A") (A') (A")
                 (A') (A") (A') (A') (A') (A") (A") (A') (A') (A")
                 (A') (A') (A') (A") (A') (A') (A") (A') (A") (A')
                 (A') (A") (A') (A") (A') (A") (A') (A') (A') (A')
                 (A") (A') (A") (A') (A") (A') (A') (A') (A") (A')
                 (A') (A") (A") (A') (A") (A') (A') (A') (A') (A')
                 (A") (A') (A") (A') (A') (A") (A') (A') (A") (A")
                 (A") (A') (A') (A") (A') (A') (A") (A') (A') (A')
                 (A') (A') (A") (A') (A') (A") (A") (A') (A') (A")
                 (A") (A') (A') (A") (A') (A') (A') (A') (A')
 The electronic state of the initial guess is 1-A'.
 Generating alternative initial guess.
 ExpMin= 2.53D-02 ExpMax= 1.53D+04 ExpMxC= 5.22D+02 IAcc=3 IRadAn=         5 AccDes= 0.00D+00
 Harris functional with IExCor=  205 and IRadAn=       5 diagonalized for initial guess.
 HarFok:  IExCor=  205 AccDes= 0.00D+00 IRadAn=         5 IDoV= 1 UseB2=F ITyADJ=14
 ICtDFT=  3500011 ScaDFX=  1.000000  1.000000  1.000000  1.000000
 Defaulting to unpruned grid for atomic number  53.
 FoFCou: FMM=F IPFlag=           0 FMFlag=      100000 FMFlg1=           0
         NFxFlg=           0 DoJE=T BraDBF=F KetDBF=T FulRan=T
         wScrn=  0.000000 ICntrl=       500 IOpCl=  0 I1Cent=   200000004 NGrid=           0
         NMat0=    1 NMatS0=      1 NMatT0=    0 NMatD0=    1 NMtDS0=    0 NMtDT0=    0
 Petite list used in FoFCou.
 Harris En= -372.587548456018    
 Leave Link  401 at Fri Oct 22 15:25:20 2021, MaxMem= 16106127360 cpu:               8.3 elap:               0.3
 (Enter /sw/contrib/gaussian/g16/B01/g16/l502.exe)
 Keep R1 ints in memory in symmetry-blocked form, NReq=117094302.
 FoFCou: FMM=F IPFlag=           0 FMFlag=           0 FMFlg1=           0
         NFxFlg=           0 DoJE=F BraDBF=F KetDBF=F FulRan=T
         wScrn=  0.000000 ICntrl=       600 IOpCl=  0 I1Cent=           0 NGrid=           0
         NMat0=    1 NMatS0=  10878 NMatT0=    0 NMatD0=    1 NMtDS0=    0 NMtDT0=    0
 Petite list used in FoFCou.
 Closed shell SCF:
 Using DIIS extrapolation, IDIIS=  1040.
 NGot= 16106127360 LenX= 16076045352 LenY= 16076016011
 Requested convergence on RMS density matrix=1.00D-08 within 128 cycles.
 Requested convergence on MAX density matrix=1.00D-06.
 Requested convergence on             energy=1.00D-06.
 No special actions if energy rises.

 Cycle   1  Pass 1  IDiag  1:
 E= -370.679832070085    
 DIIS: error= 2.35D-03 at cycle   1 NSaved=   1.
 NSaved= 1 IEnMin= 1 EnMin= -370.679832070085     IErMin= 1 ErrMin= 2.35D-03
 ErrMax= 2.35D-03  0.00D+00 EMaxC= 1.00D-01 BMatC= 1.05D-03 BMatP= 1.05D-03
 IDIUse=3 WtCom= 9.76D-01 WtEn= 2.35D-02
 Coeff-Com:  0.100D+01
 Coeff-En:   0.100D+01
 Coeff:      0.100D+01
 Gap=     0.353 Goal=   None    Shift=    0.000
 GapD=    0.353 DampG=1.000 DampE=1.000 DampFc=1.0000 IDamp=-1.
 RMSDP=1.84D-04 MaxDP=5.83D-03              OVMax= 2.42D-02

 Cycle   2  Pass 1  IDiag  1:
 E= -370.681227584445     Delta-E=       -0.001395514360 Rises=F Damp=F
 DIIS: error= 1.48D-03 at cycle   2 NSaved=   2.
 NSaved= 2 IEnMin= 2 EnMin= -370.681227584445     IErMin= 2 ErrMin= 1.48D-03
 ErrMax= 1.48D-03  0.00D+00 EMaxC= 1.00D-01 BMatC= 2.55D-04 BMatP= 1.05D-03
 IDIUse=3 WtCom= 9.85D-01 WtEn= 1.48D-02
 Coeff-Com:  0.159D+00 0.841D+00
 Coeff-En:   0.000D+00 0.100D+01
 Coeff:      0.156D+00 0.844D+00
 Gap=     0.274 Goal=   None    Shift=    0.000
 RMSDP=8.20D-05 MaxDP=2.43D-03 DE=-1.40D-03 OVMax= 5.84D-03

 Cycle   3  Pass 1  IDiag  1:
 E= -370.681473963878     Delta-E=       -0.000246379433 Rises=F Damp=F
 DIIS: error= 7.61D-04 at cycle   3 NSaved=   3.
 NSaved= 3 IEnMin= 3 EnMin= -370.681473963878     IErMin= 3 ErrMin= 7.61D-04
 ErrMax= 7.61D-04  0.00D+00 EMaxC= 1.00D-01 BMatC= 5.49D-05 BMatP= 2.55D-04
 IDIUse=3 WtCom= 9.92D-01 WtEn= 7.61D-03
 Coeff-Com: -0.105D+00 0.258D+00 0.847D+00
 Coeff-En:   0.000D+00 0.000D+00 0.100D+01
 Coeff:     -0.104D+00 0.256D+00 0.848D+00
 Gap=     0.273 Goal=   None    Shift=    0.000
 RMSDP=4.26D-05 MaxDP=1.76D-03 DE=-2.46D-04 OVMax= 7.36D-03

 Cycle   4  Pass 1  IDiag  1:
 E= -370.681576721804     Delta-E=       -0.000102757926 Rises=F Damp=F
 DIIS: error= 2.65D-04 at cycle   4 NSaved=   4.
 NSaved= 4 IEnMin= 4 EnMin= -370.681576721804     IErMin= 4 ErrMin= 2.65D-04
 ErrMax= 2.65D-04  0.00D+00 EMaxC= 1.00D-01 BMatC= 7.65D-06 BMatP= 5.49D-05
 IDIUse=3 WtCom= 9.97D-01 WtEn= 2.65D-03
 Coeff-Com:  0.128D-01-0.222D+00-0.148D+00 0.136D+01
 Coeff-En:   0.000D+00 0.000D+00 0.000D+00 0.100D+01
 Coeff:      0.128D-01-0.221D+00-0.148D+00 0.136D+01
 Gap=     0.272 Goal=   None    Shift=    0.000
 RMSDP=3.40D-05 MaxDP=8.65D-04 DE=-1.03D-04 OVMax= 3.51D-03

 Cycle   5  Pass 1  IDiag  1:
 E= -370.681600107659     Delta-E=       -0.000023385855 Rises=F Damp=F
 DIIS: error= 5.96D-05 at cycle   5 NSaved=   5.
 NSaved= 5 IEnMin= 5 EnMin= -370.681600107659     IErMin= 5 ErrMin= 5.96D-05
 ErrMax= 5.96D-05  0.00D+00 EMaxC= 1.00D-01 BMatC= 3.44D-07 BMatP= 7.65D-06
 IDIUse=1 WtCom= 1.00D+00 WtEn= 0.00D+00
 Coeff-Com:  0.101D-01-0.169D-01-0.639D-01-0.108D+00 0.118D+01
 Coeff:      0.101D-01-0.169D-01-0.639D-01-0.108D+00 0.118D+01
 Gap=     0.272 Goal=   None    Shift=    0.000
 RMSDP=1.06D-05 MaxDP=2.94D-04 DE=-2.34D-05 OVMax= 1.06D-03

 Cycle   6  Pass 1  IDiag  1:
 E= -370.681601646899     Delta-E=       -0.000001539241 Rises=F Damp=F
 DIIS: error= 1.37D-05 at cycle   6 NSaved=   6.
 NSaved= 6 IEnMin= 6 EnMin= -370.681601646899     IErMin= 6 ErrMin= 1.37D-05
 ErrMax= 1.37D-05  0.00D+00 EMaxC= 1.00D-01 BMatC= 2.49D-08 BMatP= 3.44D-07
 IDIUse=1 WtCom= 1.00D+00 WtEn= 0.00D+00
 Coeff-Com: -0.314D-02 0.171D-01 0.269D-01-0.744D-01-0.239D+00 0.127D+01
 Coeff:     -0.314D-02 0.171D-01 0.269D-01-0.744D-01-0.239D+00 0.127D+01
 Gap=     0.272 Goal=   None    Shift=    0.000
 RMSDP=2.95D-06 MaxDP=1.07D-04 DE=-1.54D-06 OVMax= 1.89D-04

 Cycle   7  Pass 1  IDiag  1:
 E= -370.681601743412     Delta-E=       -0.000000096513 Rises=F Damp=F
 DIIS: error= 4.47D-06 at cycle   7 NSaved=   7.
 NSaved= 7 IEnMin= 7 EnMin= -370.681601743412     IErMin= 7 ErrMin= 4.47D-06
 ErrMax= 4.47D-06  0.00D+00 EMaxC= 1.00D-01 BMatC= 2.42D-09 BMatP= 2.49D-08
 IDIUse=1 WtCom= 1.00D+00 WtEn= 0.00D+00
 Coeff-Com: -0.869D-03 0.263D-02 0.574D-02-0.581D-03-0.767D-01 0.359D-01
 Coeff-Com:  0.103D+01
 Coeff:     -0.869D-03 0.263D-02 0.574D-02-0.581D-03-0.767D-01 0.359D-01
 Coeff:      0.103D+01
 Gap=     0.272 Goal=   None    Shift=    0.000
 RMSDP=7.70D-07 MaxDP=2.46D-05 DE=-9.65D-08 OVMax= 4.95D-05

 Cycle   8  Pass 1  IDiag  1:
 E= -370.681601752885     Delta-E=       -0.000000009473 Rises=F Damp=F
 DIIS: error= 2.67D-06 at cycle   8 NSaved=   8.
 NSaved= 8 IEnMin= 8 EnMin= -370.681601752885     IErMin= 8 ErrMin= 2.67D-06
 ErrMax= 2.67D-06  0.00D+00 EMaxC= 1.00D-01 BMatC= 5.91D-10 BMatP= 2.42D-09
 IDIUse=1 WtCom= 1.00D+00 WtEn= 0.00D+00
 Coeff-Com:  0.716D-03-0.297D-02-0.560D-02 0.851D-02 0.716D-01-0.239D+00
 Coeff-Com: -0.291D+00 0.146D+01
 Coeff:      0.716D-03-0.297D-02-0.560D-02 0.851D-02 0.716D-01-0.239D+00
 Coeff:     -0.291D+00 0.146D+01
 Gap=     0.272 Goal=   None    Shift=    0.000
 RMSDP=4.99D-07 MaxDP=1.71D-05 DE=-9.47D-09 OVMax= 4.41D-05

 Cycle   9  Pass 1  IDiag  1:
 E= -370.681601756108     Delta-E=       -0.000000003224 Rises=F Damp=F
 DIIS: error= 9.27D-07 at cycle   9 NSaved=   9.
 NSaved= 9 IEnMin= 9 EnMin= -370.681601756108     IErMin= 9 ErrMin= 9.27D-07
 ErrMax= 9.27D-07  0.00D+00 EMaxC= 1.00D-01 BMatC= 7.62D-11 BMatP= 5.91D-10
 IDIUse=1 WtCom= 1.00D+00 WtEn= 0.00D+00
 Coeff-Com: -0.159D-03 0.793D-03 0.163D-02-0.454D-02-0.152D-01 0.910D-01
 Coeff-Com: -0.641D-01-0.560D+00 0.155D+01
 Coeff:     -0.159D-03 0.793D-03 0.163D-02-0.454D-02-0.152D-01 0.910D-01
 Coeff:     -0.641D-01-0.560D+00 0.155D+01
 Gap=     0.272 Goal=   None    Shift=    0.000
 RMSDP=1.82D-07 MaxDP=5.30D-06 DE=-3.22D-09 OVMax= 2.00D-05

 Cycle  10  Pass 1  IDiag  1:
 E= -370.681601756512     Delta-E=       -0.000000000404 Rises=F Damp=F
 DIIS: error= 1.09D-07 at cycle  10 NSaved=  10.
 NSaved=10 IEnMin=10 EnMin= -370.681601756512     IErMin=10 ErrMin= 1.09D-07
 ErrMax= 1.09D-07  0.00D+00 EMaxC= 1.00D-01 BMatC= 2.78D-12 BMatP= 7.62D-11
 IDIUse=1 WtCom= 1.00D+00 WtEn= 0.00D+00
 Coeff-Com: -0.471D-04 0.201D-03 0.397D-03-0.589D-03-0.528D-02 0.189D-01
 Coeff-Com:  0.180D-01-0.112D+00 0.644D-01 0.102D+01
 Coeff:     -0.471D-04 0.201D-03 0.397D-03-0.589D-03-0.528D-02 0.189D-01
 Coeff:      0.180D-01-0.112D+00 0.644D-01 0.102D+01
 Gap=     0.272 Goal=   None    Shift=    0.000
 RMSDP=3.07D-08 MaxDP=7.46D-07 DE=-4.04D-10 OVMax= 1.88D-06

 Cycle  11  Pass 1  IDiag  1:
 E= -370.681601756520     Delta-E=       -0.000000000008 Rises=F Damp=F
 DIIS: error= 3.43D-08 at cycle  11 NSaved=  11.
 NSaved=11 IEnMin=11 EnMin= -370.681601756520     IErMin=11 ErrMin= 3.43D-08
 ErrMax= 3.43D-08  0.00D+00 EMaxC= 1.00D-01 BMatC= 2.48D-13 BMatP= 2.78D-12
 IDIUse=1 WtCom= 1.00D+00 WtEn= 0.00D+00
 Coeff-Com:  0.152D-04-0.834D-04-0.160D-03 0.520D-03 0.124D-02-0.859D-02
 Coeff-Com:  0.755D-02 0.533D-01-0.154D+00 0.285D-01 0.107D+01
 Coeff:      0.152D-04-0.834D-04-0.160D-03 0.520D-03 0.124D-02-0.859D-02
 Coeff:      0.755D-02 0.533D-01-0.154D+00 0.285D-01 0.107D+01
 Gap=     0.272 Goal=   None    Shift=    0.000
 RMSDP=1.07D-08 MaxDP=3.52D-07 DE=-7.56D-12 OVMax= 4.68D-07

 Cycle  12  Pass 1  IDiag  1:
 E= -370.681601756520     Delta-E=       -0.000000000000 Rises=F Damp=F
 DIIS: error= 1.01D-08 at cycle  12 NSaved=  12.
 NSaved=12 IEnMin=12 EnMin= -370.681601756520     IErMin=12 ErrMin= 1.01D-08
 ErrMax= 1.01D-08  0.00D+00 EMaxC= 1.00D-01 BMatC= 1.23D-14 BMatP= 2.48D-13
 IDIUse=1 WtCom= 1.00D+00 WtEn= 0.00D+00
 Coeff-Com:  0.118D-05-0.427D-05-0.486D-05-0.154D-04 0.122D-03-0.279D-04
 Coeff-Com: -0.202D-02-0.325D-03 0.146D-01-0.554D-01-0.157D+00 0.120D+01
 Coeff:      0.118D-05-0.427D-05-0.486D-05-0.154D-04 0.122D-03-0.279D-04
 Coeff:     -0.202D-02-0.325D-03 0.146D-01-0.554D-01-0.157D+00 0.120D+01
 Gap=     0.272 Goal=   None    Shift=    0.000
 RMSDP=2.95D-09 MaxDP=7.79D-08 DE=-1.14D-13 OVMax= 1.55D-07

 SCF Done:  E(RHF) =  -370.681601757     A.U. after   12 cycles
            NFock= 12  Conv=0.29D-08     -V/T= 2.9887
 KE= 1.863894169230D+02 PE=-9.095872741258D+02 EE= 3.043666276684D+02
 Leave Link  502 at Fri Oct 22 15:25:22 2021, MaxMem= 16106127360 cpu:              36.2 elap:               1.6
 (Enter /sw/contrib/gaussian/g16/B01/g16/l801.exe)
 ExpMin= 2.53D-02 ExpMax= 1.53D+04 ExpMxC= 5.22D+02 IAcc=3 IRadAn=         5 AccDes= 0.00D+00
 HarFok:  IExCor=  205 AccDes= 0.00D+00 IRadAn=         5 IDoV=-2 UseB2=F ITyADJ=14
 ICtDFT= 12500011 ScaDFX=  1.000000  1.000000  1.000000  1.000000
 Defaulting to unpruned grid for atomic number  53.
 Largest valence mixing into a core orbital is  1.35D-04
 Largest core mixing into a valence orbital is  2.73D-05
 Range of M.O.s used for correlation:     6   147
 NBasis=   147 NAE=    18 NBE=    18 NFC=     5 NFV=     0
 NROrb=    142 NOA=    13 NOB=    13 NVA=   129 NVB=   129

 **** Warning!!: The largest alpha MO coefficient is  0.14853676D+02

 Leave Link  801 at Fri Oct 22 15:25:22 2021, MaxMem= 16106127360 cpu:               2.1 elap:               0.1
 (Enter /sw/contrib/gaussian/g16/B01/g16/l906.exe)
 Frozen-core derivative calculation, NFC=   5 NFV=   0.
 FulOut=F Deriv=T AODrv=T NAtomX=     4
   MMem=         225  MDisk=          13 MDiskD=          13
  W3Min=      449820 MinDsk=      818995 NBas6D=         170
 NBas2D=       14925    NTT=       14535    LW2=    26219120
    MDV= 16105819411 MDiskM=      473641 NBas2p=       14925
 Fully direct method using O(ONN) memory.
 IMap=   1   2   3   4   5   6   7   8   9  10  11  12  13  14  15  16  17  18
 JobTyp=1 Pass  1:  I=   6 to  18 NPSUse= 28 ParTrn=T ParDer=T DoDerP=T.
 Spin components of T(2) and E(2):
     alpha-alpha T2 =       0.2413562174D-01 E2=     -0.6957656044D-01
     alpha-beta  T2 =       0.1382301059D+00 E2=     -0.3836996667D+00
     beta-beta   T2 =       0.2413562174D-01 E2=     -0.6957656044D-01
 The integrals were generated   1 times.
 ANorm=    0.1089266427D+01
 E2 =    -0.5228527875D+00 EUMP2 =    -0.37120445454406D+03
 Leave Link  906 at Fri Oct 22 15:25:28 2021, MaxMem= 16106127360 cpu:             175.0 elap:               6.3
 (Enter /sw/contrib/gaussian/g16/B01/g16/l1002.exe)
 Minotr:  Closed shell wavefunction.
          Computing MP2/KS-MP2 derivatives.
          Using Z-Vector for PSCF gradient.
          Skipping F1 and S1 gradient terms here.
          IDoAtm=1111
          Frozen-core window.
          Direct CPHF calculation.
          Differentiating once with respect to electric field.
                with respect to dipole field.
          Differentiating once with respect to nuclear coordinates.
          Using symmetry in CPHF.
          Requested convergence is 1.0D-10 RMS, and 1.0D-09 maximum.
          NewPWx=F KeepS1=T KeepF1=T KeepIn=T MapXYZ=F SortEE=F KeepMc=T.
 Keep R1 ints in memory in symmetry-blocked form, NReq=117097306.
 FoFCou: FMM=F IPFlag=           0 FMFlag=           0 FMFlg1=           0
         NFxFlg=           0 DoJE=F BraDBF=F KetDBF=F FulRan=T
         wScrn=  0.000000 ICntrl=       600 IOpCl=  0 I1Cent=           0 NGrid=           0
         NMat0=    1 NMatS0=  10878 NMatT0=    0 NMatD0=    1 NMtDS0=    0 NMtDT0=    0
 Petite list used in FoFCou.
          MDV=   16106127360 using IRadAn=       5.
          Solving linear equations separately, MaxMat=       0.
          There are     1 degrees of freedom in the 1st order CPHF.  IDoFFX=0 NUNeed=     1.
 LinEq1:  Iter=  0 NonCon=     1 RMS=4.00D-03 Max=8.01D-02 NDo=     1
 AX will form     1 AO Fock derivatives at one time.
 LinEq1:  Iter=  1 NonCon=     1 RMS=8.48D-04 Max=1.16D-02 NDo=     1
 LinEq1:  Iter=  2 NonCon=     1 RMS=6.19D-04 Max=1.83D-02 NDo=     1
 LinEq1:  Iter=  3 NonCon=     1 RMS=1.56D-04 Max=1.60D-03 NDo=     1
 LinEq1:  Iter=  4 NonCon=     1 RMS=6.36D-05 Max=7.79D-04 NDo=     1
 LinEq1:  Iter=  5 NonCon=     1 RMS=1.42D-05 Max=2.41D-04 NDo=     1
 LinEq1:  Iter=  6 NonCon=     1 RMS=3.07D-06 Max=4.97D-05 NDo=     1
 LinEq1:  Iter=  7 NonCon=     1 RMS=8.72D-07 Max=1.47D-05 NDo=     1
 LinEq1:  Iter=  8 NonCon=     1 RMS=2.56D-07 Max=3.72D-06 NDo=     1
 LinEq1:  Iter=  9 NonCon=     1 RMS=7.12D-08 Max=7.73D-07 NDo=     1
 LinEq1:  Iter= 10 NonCon=     1 RMS=1.18D-08 Max=1.28D-07 NDo=     1
 LinEq1:  Iter= 11 NonCon=     1 RMS=2.39D-09 Max=2.78D-08 NDo=     1
 LinEq1:  Iter= 12 NonCon=     1 RMS=6.94D-10 Max=1.04D-08 NDo=     1
 LinEq1:  Iter= 13 NonCon=     1 RMS=1.77D-10 Max=1.81D-09 NDo=     1
 LinEq1:  Iter= 14 NonCon=     0 RMS=2.96D-11 Max=3.79D-10 NDo=     1
 Linear equations converged to 1.000D-10 1.000D-09 after    14 iterations.
 End of Minotr F.D. properties file   721 does not exist.
 End of Minotr F.D. properties file   722 does not exist.
 End of Minotr F.D. properties file   788 does not exist.
 Leave Link 1002 at Fri Oct 22 15:25:30 2021, MaxMem= 16106127360 cpu:              39.5 elap:               1.8
 (Enter /sw/contrib/gaussian/g16/B01/g16/l701.exe)
 ... and contract with generalized density number  2.
 Compute integral first derivatives.
   2 Symmetry operations used in ECPInt.
 ECPInt:  NShTT=    1225 NPrTT=    5557 LenC2=    1226 LenP2D=    4934.
 LDataN:  DoStor=T MaxTD1= 8 Len=  415
 Leave Link  701 at Fri Oct 22 15:25:31 2021, MaxMem= 16106127360 cpu:              19.7 elap:               0.7
 (Enter /sw/contrib/gaussian/g16/B01/g16/l702.exe)
 L702 exits ... SP integral derivatives will be done elsewhere.
 Leave Link  702 at Fri Oct 22 15:25:31 2021, MaxMem= 16106127360 cpu:               0.5 elap:               0.0
 (Enter /sw/contrib/gaussian/g16/B01/g16/l703.exe)
 Integral derivatives from FoFJK, PRISM(SPDF).
 Compute integral first derivatives, UseDBF=F ICtDFT=           0.
 Calling FoFJK, ICntrl=  10002127 FMM=F ISym2X=1 I1Cent= 0 IOpClX= 0 NMat=1 NMatS=1 NMatT=0.
 FoFJK:  IHMeth= 1 ICntrl=10002127 DoSepK=F KAlg= 0 I1Cent=           0 FoldK=F
 IRaf=         0 NMat=       1 IRICut=       1 DoRegI=T DoRafI=F ISym2E= 1 IDoP0=0 IntGTp=1.
 FoFCou: FMM=F IPFlag=           0 FMFlag=      100000 FMFlg1=         800
         NFxFlg=           0 DoJE=F BraDBF=F KetDBF=F FulRan=T
         wScrn=  0.000000 ICntrl=  10002127 IOpCl=  0 I1Cent=           0 NGrid=           0
         NMat0=    1 NMatS0=      1 NMatT0=    0 NMatD0=    1 NMtDS0=    0 NMtDT0=    0
 Petite list used in FoFCou.
 Leave Link  703 at Fri Oct 22 15:25:32 2021, MaxMem= 16106127360 cpu:              30.2 elap:               1.1
 (Enter /sw/contrib/gaussian/g16/B01/g16/l716.exe)
 Dipole        =-6.07582579D-01-1.14760794D-01 5.27040209D-33
 ***** Axes restored to original set *****
 -------------------------------------------------------------------
 Center     Atomic                   Forces (Hartrees/Bohr)
 Number     Number              X              Y              Z
 -------------------------------------------------------------------
      1        8           0.096989943   -0.000000000   -0.038089813
      2        1           0.011368446   -0.000000000    0.002652397
      3        1          -0.108517857    0.000000000    0.029975846
      4       53           0.000159468   -0.000000000    0.005461569
 -------------------------------------------------------------------
 Cartesian Forces:  Max     0.108517857 RMS     0.044439744
 -----------------------------------------------------------------------------------------------
                       Internal Coordinate Forces (Hartree/Bohr or radian)
  Cent   Atom   N1       Length/X         N2         Alpha/Y        N3         Beta/Z          J
 -----------------------------------------------------------------------------------------------
      1  O 
      2  H        1   0.002652(     1)
      3  H        1  -0.112318(     2)      2  -0.021278(     4)
      4  I        1   0.005462(     3)      3  -0.001003(     5)      2  -0.000000(     6)     0
 -----------------------------------------------------------------------------------------------
 Internal  Forces:  Max     0.112317968 RMS     0.046736792
 Leave Link  716 at Fri Oct 22 15:25:32 2021, MaxMem= 16106127360 cpu:               0.8 elap:               0.1
 (Enter /sw/contrib/gaussian/g16/B01/g16/l103.exe)

 GradGradGradGradGradGradGradGradGradGradGradGradGradGradGradGradGradGrad
 Berny optimization.
 Search for a local minimum.
 Step number   2 out of a maximum of   20
 All quantities printed in internal units (Hartrees-Bohrs-Radians)
 Update second derivatives using D2CorN and points    1    2
 DE= -3.21D-02 DEPred=-2.64D-02 R= 1.22D+00
 TightC=F SS=  1.41D+00  RLast= 3.00D-01 DXNew= 5.0454D-01 9.0000D-01
 Trust test= 1.22D+00 RLast= 3.00D-01 DXMaxT set to 5.05D-01
 The second derivative matrix:
                          r1        r2        r3        a1        d1
           r1           0.49878
           r2          -0.00085  -0.04784
           r3           0.00019   0.00642   0.01779
           a1          -0.00002  -0.01600   0.00104   0.31806
           d1           0.00000  -0.00000   0.00000  -0.00000   0.15170
 ITU=  1  0
     Eigenvalues ---   -0.04917   0.01841   0.31876   0.498781000.00000
 Eigenvalue     1 is  -4.92D-02 should be greater than     0.000000 Eigenvector:
                          r2        r3        a1        r1        d1
   1                    0.99442  -0.09601   0.04360   0.00159   0.00000
 RFO step:  Lambda=-1.40740491D-01 EMin=-4.91654881D-02
 Skip linear search -- no minimum in search direction.
 Maximum step size (   0.505) exceeded in Quadratic search.
    -- Step size scaled by   0.504
 Variable       Old X    -DE/DX   Delta X   Delta X   Delta X     New X
                                 (Linear)    (Quad)   (Total)
    r1        1.87171   0.00265   0.00000   0.00144   0.00144   1.87314
    r2        2.89215  -0.11232   0.00000  -0.50189  -0.50189   2.39026
    r3        6.28667   0.00546   0.00000   0.03135   0.03135   6.31803
    a1        1.77182  -0.02228   0.00000  -0.04101  -0.04101   1.73081
    d1        0.00000  -0.00000   0.00000   0.00000   0.00000   0.00000
         Item               Value     Threshold  Converged?
 Maximum Force            0.112318     0.000015     NO 
 RMS     Force            0.057334     0.000010     NO 
 Maximum Displacement     0.501888     0.000060     NO 
 RMS     Displacement     0.225636     0.000040     NO 
 Predicted change in Energy=-6.363975D-02
 Lowest energy point so far.  Saving SCF results.
 GradGradGradGradGradGradGradGradGradGradGradGradGradGradGradGradGradGrad

 Leave Link  103 at Fri Oct 22 15:25:32 2021, MaxMem= 16106127360 cpu:               0.5 elap:               0.0
 (Enter /sw/contrib/gaussian/g16/B01/g16/l202.exe)
 ---------------------------------------------------------------------------------------------------
                            Z-MATRIX (ANGSTROMS AND DEGREES)
   CD    Cent   Atom    N1       Length/X        N2       Alpha/Y        N3        Beta/Z          J
 ---------------------------------------------------------------------------------------------------
      1      1  O 
      2      2  H        1   0.991225(     1)
      3      3  H        1   1.264873(     2)      2   99.168(     4)
      4      4  I        1   3.343355(     3)      3   99.168(     5)      2    0.000(     6)      0
 ---------------------------------------------------------------------------------------------------
                         Z-Matrix orientation:                         
 ---------------------------------------------------------------------
 Center     Atomic      Atomic             Coordinates (Angstroms)
 Number     Number       Type             X           Y           Z
 ---------------------------------------------------------------------
      1          8           0        0.000000    0.000000    0.000000
      2          1           0        0.000000    0.000000    0.991225
      3          1           0        1.248714    0.000000   -0.201538
      4         53           0       -0.000000    0.000000    3.343355
 ---------------------------------------------------------------------
                    Distance matrix (angstroms):
                    1          2          3          4
     1  O    0.000000
     2  H    0.991225   0.000000
     3  H    1.264873   1.726838   0.000000
     4  I    3.343355   2.352130   3.758397   0.000000
 Stoichiometry    H2IO(1-)
 Framework group  CS[SG(H2IO)]
 Deg. of freedom     5
 Full point group                 CS      NOp   2
 RotChk:  IX=0 Diff= 3.85D-14
 Largest Abelian subgroup         CS      NOp   2
 Largest concise Abelian subgroup C1      NOp   1
                         Standard orientation:                         
 ---------------------------------------------------------------------
 Center     Atomic      Atomic             Coordinates (Angstroms)
 Number     Number       Type             X           Y           Z
 ---------------------------------------------------------------------
      1          8           0        0.019821    2.825199    0.000000
      2          1           0        0.019821    1.833973    0.000000
      3          1           0       -1.228893    3.026736    0.000000
      4         53           0        0.019821   -0.518157   -0.000000
 ---------------------------------------------------------------------
 Rotational constants (GHZ):         343.8786227           2.9253561           2.9006801
 Leave Link  202 at Fri Oct 22 15:25:32 2021, MaxMem= 16106127360 cpu:               1.2 elap:               0.1
 (Enter /sw/contrib/gaussian/g16/B01/g16/l301.exe)
 Basis read from rwf:  (5D, 7F)
 Pseudo-potential data read from rwf file.
 There are   117 symmetry adapted cartesian basis functions of A'  symmetry.
 There are    53 symmetry adapted cartesian basis functions of A"  symmetry.
 There are    98 symmetry adapted basis functions of A'  symmetry.
 There are    49 symmetry adapted basis functions of A"  symmetry.
   147 basis functions,   296 primitive gaussians,   170 cartesian basis functions
    18 alpha electrons       18 beta electrons
       nuclear repulsion energy        48.7241197940 Hartrees.
 IExCor=    0 DFT=F Ex=HF Corr=None ExCW=0 ScaHFX=  1.000000
 ScaDFX=  1.000000  1.000000  1.000000  1.000000 ScalE2=  1.000000  1.000000
 IRadAn=      5 IRanWt=     -1 IRanGd=            0 ICorTp=0 IEmpDi=  4
 NAtoms=    4 NActive=    4 NUniq=    4 SFac= 1.00D+00 NAtFMM=   60 NAOKFM=F Big=F
[...]
      3(1)                  1651.121   1604.329     39.97798046     33.51316862
      4(1)                   340.682    321.981     72.36769248     68.11706239
      5(1)                   145.836    141.194      4.44984223      5.06875204
      6(1)                   634.447    613.724     24.47951228     26.61278384

 Overtones
 ---------
   Mode(n)                  E(harm)   E(anharm)                      I(anharm)
      1(2)                  7782.635   7264.909                      0.97366493
      2(2)                  6965.367   6291.383                      0.08048985
      3(2)                  3302.241   3176.621                     45.97603508
      4(2)                   681.364    619.064                      9.11425721
      5(2)                   291.672    278.786                      0.13625919
      6(2)                  1268.894   1184.780                     39.65261532

 Combination Bands
 -----------------
   Mode(n)     Mode(n)      E(harm)   E(anharm)                      I(anharm)
      2(1)        1(1)      7374.001   6949.752                      0.56788772
      3(1)        1(1)      5542.438   5296.665                      3.02061530
      3(1)        2(1)      5133.804   4850.275                      5.11856744
      4(1)        1(1)      4231.999   4027.496                      0.40935763
      4(1)        2(1)      3823.366   3618.616                      0.28296214
      4(1)        3(1)      1991.802   1914.105                     33.17789522
      5(1)        1(1)      4037.154   3852.061                      0.03855058
      5(1)        2(1)      3628.520   3413.511                     13.54257737
      5(1)        3(1)      1796.957   1745.396                      0.17539980
      5(1)        4(1)       486.518    459.019                      0.01543204
      6(1)        1(1)      4525.764   4323.494                      0.11609122
      6(1)        2(1)      4117.131   3909.473                      0.13498587
      6(1)        3(1)      2285.568   2236.692                      0.15424087
      6(1)        4(1)       975.129    936.416                      0.00311380
      6(1)        5(1)       780.283    748.038                      0.04151470

 Units: Transition energies (E) in cm^-1
        Dipole strengths (DS) in 10^-40 esu^2.cm^2

 Fundamental Bands
 -----------------
   Mode(n)                  E(harm)   E(anharm)       DS(harm)      DS(anharm)
      1(1)                  3891.318   3710.659     53.58360594     37.91513604
      2(1)                  3482.684   3263.443   1136.61534127   1178.83595794
      3(1)                  1651.121   1604.329     96.59384444     83.33539929
      4(1)                   340.682    321.981    847.42868003    843.98056715
      5(1)                   145.836    141.194    121.72703157    143.21627887
      6(1)                   634.447    613.724    153.92703405    172.99157184

 Overtones
 ---------
   Mode(n)                  E(harm)   E(anharm)                     DS(anharm)
      1(2)                  7782.635   7264.909                      0.53467116
      2(2)                  6965.367   6291.383                      0.05103903
      3(2)                  3302.241   3176.621                     57.73955802
      4(2)                   681.364    619.064                     58.73446169
      5(2)                   291.672    278.786                      1.94985449
      6(2)                  1268.894   1184.780                    133.51856937

 Combination Bands
 -----------------
   Mode(n)     Mode(n)      E(harm)   E(anharm)                     DS(anharm)
      2(1)        1(1)      7374.001   6949.752                      0.32598722
      3(1)        1(1)      5542.438   5296.665                      2.27509896
      3(1)        2(1)      5133.804   4850.275                      4.21007174
      4(1)        1(1)      4231.999   4027.496                      0.40548536
      4(1)        2(1)      3823.366   3618.616                      0.31195594
      4(1)        3(1)      1991.802   1914.105                     69.14971055
      5(1)        1(1)      4037.154   3852.061                      0.03992503
      5(1)        2(1)      3628.520   3413.511                     15.82732031
      5(1)        3(1)      1796.957   1745.396                      0.40090600
      5(1)        4(1)       486.518    459.019                      0.13412192
      6(1)        1(1)      4525.764   4323.494                      0.10712035
      6(1)        2(1)      4117.131   3909.473                      0.13774552
      6(1)        3(1)      2285.568   2236.692                      0.27510637
      6(1)        4(1)       975.129    936.416                      0.01326567
      6(1)        5(1)       780.283    748.038                      0.22140425

 Leave Link  717 at Fri Oct 22 15:55:29 2021, MaxMem= 16106127360 cpu:               7.3 elap:               0.3
 (Enter /sw/contrib/gaussian/g16/B01/g16/l103.exe)

 GradGradGradGradGradGradGradGradGradGradGradGradGradGradGradGradGradGrad
 Berny optimization.
 Search for a local minimum.
 Step number   1 out of a maximum of    2
 All quantities printed in internal units (Hartrees-Bohrs-Radians)
 Second derivative matrix not updated -- analytic derivatives used.
 The second derivative matrix:
                          r1        r2        r3        a1        d1
           r1           0.43665
           r2          -0.00644   0.54242
           r3           0.00404   0.00016   0.01278
           a1           0.02383   0.03353   0.00006   0.14403
           d1           0.00000   0.00000   0.00000   0.00000   0.04741
 ITU=  0
     Eigenvalues ---    0.01274   0.13925   0.43849   0.545411000.00000
 Angle between quadratic step and forces=  62.07 degrees.
 Linear search not attempted -- first point.
 Variable       Old X    -DE/DX   Delta X   Delta X   Delta X     New X
                                 (Linear)    (Quad)   (Total)
    r1        1.85659   0.00000   0.00000   0.00000   0.00000   1.85659
    r2        1.81614   0.00000   0.00000   0.00000   0.00000   1.81614
    r3        6.62975   0.00000   0.00000   0.00002   0.00002   6.62977
    a1        1.77672   0.00000   0.00000   0.00001   0.00001   1.77673
    d1        0.00000   0.00000   0.00000   0.00000   0.00000   0.00000
         Item               Value     Threshold  Converged?
 Maximum Force            0.000001     0.000015     YES
 RMS     Force            0.000001     0.000010     YES
 Maximum Displacement     0.000016     0.000060     YES
 RMS     Displacement     0.000008     0.000040     YES
 Predicted change in Energy=-5.503011D-12
 Optimization completed.
    -- Stationary point found.
                       ----------------------------
                       !   Optimized Parameters   !
                       ! (Angstroms and Degrees)  !
 ----------------------                            ----------------------
 !      Name          Value   Derivative information (Atomic Units)     !
 ------------------------------------------------------------------------
 !       r1          0.9825   -DE/DX =    0.0                           !
 !       r2          0.9611   -DE/DX =    0.0                           !
 !       r3          3.5083   -DE/DX =    0.0                           !
 !       a1        101.7988   -DE/DX =    0.0                           !
 !       d1          0.0      -DE/DX =    0.0                           !
 ------------------------------------------------------------------------
 GradGradGradGradGradGradGradGradGradGradGradGradGradGradGradGradGradGrad

 Leave Link  103 at Fri Oct 22 15:55:30 2021, MaxMem= 16106127360 cpu:               2.8 elap:               0.1
 (Enter /sw/contrib/gaussian/g16/B01/g16/l9999.exe)

 ----------------------------------------------------------------------

 Electric dipole moment (input orientation):
 (Debye = 10**-18 statcoulomb cm , SI units = C m)
                  (au)            (Debye)         (10**-30 SI)
   Tot        0.524434D+00      0.133298D+01      0.444634D+01
   x          0.524413D+00      0.133292D+01      0.444616D+01
   y          0.000000D+00      0.000000D+00      0.000000D+00
   z          0.472252D-02      0.120034D-01      0.400392D-01

 Dipole polarizability, Alpha (input orientation).
 (esu units = cm**3 , SI units = C**2 m**2 J**-1)
 Alpha(0;0):
               (au)            (10**-24 esu)      (10**-40 SI)
   iso        0.689311D+02      0.102145D+02      0.113652D+02
   aniso      0.139598D+02      0.206863D+01      0.230166D+01
   xx         0.647445D+02      0.959414D+01      0.106749D+02
   yx         0.000000D+00      0.000000D+00      0.000000D+00
   yy         0.639746D+02      0.948006D+01      0.105480D+02
   zx        -0.145352D+01     -0.215390D+00     -0.239654D+00
   zy         0.000000D+00      0.000000D+00      0.000000D+00
   zz         0.780743D+02      0.115694D+02      0.128727D+02

 ----------------------------------------------------------------------

 Dipole orientation:
     8          0.00000000         -0.00000000          0.00000000
     1         -1.85651263         -0.00000000          0.01671853
     1          0.38734881          0.00000000          1.77434946
    53         -6.62948059         -0.00000000          0.05970074

 Electric dipole moment (dipole orientation):
 (Debye = 10**-18 statcoulomb cm , SI units = C m)
                  (au)            (Debye)         (10**-30 SI)
   Tot        0.524434D+00      0.133298D+01      0.444634D+01
   x          0.000000D+00      0.000000D+00      0.000000D+00
   y          0.000000D+00      0.000000D+00      0.000000D+00
   z          0.524434D+00      0.133298D+01      0.444634D+01

 Dipole polarizability, Alpha (dipole orientation).
 (esu units = cm**3 , SI units = C**2 m**2 J**-1)
 Alpha(0;0):
               (au)            (10**-24 esu)      (10**-40 SI)
   iso        0.689311D+02      0.102145D+02      0.113652D+02
   aniso      0.139598D+02      0.206863D+01      0.230166D+01
   xx         0.780994D+02      0.115731D+02      0.128768D+02
   yx         0.000000D+00      0.000000D+00      0.000000D+00
   yy         0.639746D+02      0.948006D+01      0.105480D+02
   zx         0.133326D+01      0.197569D+00      0.219825D+00
   zy         0.000000D+00      0.000000D+00      0.000000D+00
   zz         0.647194D+02      0.959043D+01      0.106708D+02

 ----------------------------------------------------------------------
 1\1\GINC-N2112\Freq\RMP2-FC\Gen\H2I1O1(1-)\ABMCCOY\22-Oct-2021\1\\#P G
 eom=AllCheck Guess=TCheck SCRF=Check GenChk RMP2(FC)/ChkBas Freq\\titl
 e\\-1,1\O\H,1,r1\H,1,r2,2,a1\I,1,r3,3,a1,2,d1,0\\r1=0.98246401\r2=0.96
 105853\r3=3.5083123\a1=101.79878177\d1=0.\\Version=ES64L-G16RevB.01\St
 ate=1-A'\HF=-370.8167594\MP2=-371.31378\RMSD=1.166e-09\RMSF=1.116e-03\
 ZeroPoint=0.0231145\Thermal=0.0271139\Dipole=0.5244127,0.,0.0047225\Di
 poleDeriv=-0.3012698,0.,0.0305079,0.,-0.5477764,0.,0.1025391,0.,-1.179
 7821,0.0945615,0.,-0.058491,0.,0.1349307,0.,-0.0600172,0.,0.9948668,0.
 0899556,0.,0.0071459,0.,0.2791111,0.,-0.0659768,0.,0.2942412,-0.883247
 3,0.,0.0208372,0.,-0.8662654,0.,0.0234549,0.,-1.1093259\Polar=64.74449
 68,0.,63.9746444,-1.4535246,0.,78.0742604\Quadrupole=3.5371029,1.80979
 31,-5.3468959,0.,-3.5690777,0.\PG=CS [SG(H2I1O1)]\NImag=0\\0.54830685,
 0.,0.01023637,-0.09283148,0.,0.50622958,-0.04651636,0.,-0.03324858,0.0
 6004095,0.,-0.01240025,0.,0.,0.01469835,0.02522859,0.,-0.42915848,-0.0
 1693111,0.,0.43664998,-0.50480237,0.,0.12557720,-0.00954795,0.,-0.0089
 8279,0.51418116,0.,-0.00123924,0.,0.,0.00172164,0.,0.,-0.00000036,0.06
 810082,0.,-0.06031837,0.04986780,0.,-0.01152808,-0.11674743,0.,0.07191
 159,0.00301188,0.,0.00050286,-0.00397664,0.,0.00068531,0.00016916,0.,-
 0.00122119,0.00079560,0.,0.00340313,0.,0.,-0.00401974,0.,0.,-0.0004820
 4,0.,0.,0.00109865,-0.00049794,0.,-0.01675273,0.00031189,0.,0.00403658
 ,0.00015303,0.,-0.00006514,0.00003302,0.,0.01278130\\-0.00220310,0.,-0
 .00000005,0.00306066,0.,-0.00000043,-0.00000061,0.,0.00000069,-0.00085
 695,0.,-0.00000021\\0.00000917,0.,-0.00029014,0.00209650,0.,-0.0092174
 6,0.00050517,0.,0.00246766,0.00040003,0.,-0.00024895,0.,0.,0.00040153,
 0.00171099,0.,0.01172075,-0.00218831,0.,-0.01099199,-0.00113724,0.,-0.
 00463187,-0.00059871,0.,0.00031362,0.00164364,0.,-0.00008856,0.,0.,0.0
 0009008,0.,0.,0.00001298,-0.00367720,0.,0.00234846,-0.00034318,0.,0.00
 075554,0.00419646,0.,-0.00294488,0.00062290,0.,0.00006772,-0.00030649,
 0.,0.00016369,0.00009232,0.,-0.00017608,-0.00040873,0.,0.00062765,0.,0
 .,-0.00024266,0.,0.,-0.00001451,0.,0.,-0.00037048,-0.00013029,0.,-0.00
 485175,0.00006383,0.,-0.00148431,0.00012179,0.,-0.00015912,-0.00005533
 ,0.,0.00649518,0.07172921,0.,0.00692813,0.04732257,0.,-0.08024670,0.00
 383675,0.,0.14368163,0.01458534,0.,-0.00293191,0.,0.,-0.00097495,0.141
 47678,0.,-0.00502442,-0.14756987,0.,-0.00303630,-0.07571433,0.,-0.1894
 3167,-0.01832066,0.,0.00398261,0.09398248,0.,-0.00419684,0.,0.,0.00362
 552,0.,0.,0.00104871,-0.18981319,0.,0.08541631,0.00377818,0.,0.0089882
 8,0.18626690,0.,-0.09608053,0.00014836,0.,-0.00157253,-0.00010143,0.,0
 .00211048,0.00005251,0.,-0.00023189,-0.00009945,0.,0.00020062,0.,0.,0.
 00028135,0.,0.,-0.00047739,0.,0.,-0.00000458,0.00101383,0.,-0.00014519
 ,0.00011007,0.,-0.00092756,-0.00081784,0.,0.00167595,-0.00030606,0.,-0
 .00060320,0.,0.02239567,0.,0.,0.25577499,0.,0.,-0.02297615,0.,0.,0.010
 16370,0.,-0.24166975,-0.00282738,0.,0.,-0.22861654,0.,0.,0.24170214,0.
 ,0.,0.00077708,0.,0.,-0.00742386,0.,0.,-0.03225756,0.,-0.01600335,0.02
 584377,0.,-0.00996390,0.00638002,0.,0.,-0.02489038,0.,0.,-0.00107564,0
 .,0.,0.02578299,0.,0.,-0.00019660,0.,0.,0.00008753,0.,0.,0.00003378,0.
 ,0.,-0.00030181,0.,0.00189811,-0.00004024,0.,-0.00312170,0.00026676,0.
 ,0.00018304,0.00007529,0.,0.,-0.00226808,0.,0.,0.00104325,0.,0.,0.0001
 8427,0.,0.,0.00104056,0.,-0.07442465,0.,0.08673063,0.30469742,0.,-0.21
 307888,0.01717480,0.,-0.13739563,0.01380894,0.,-0.04354905,0.,0.,0.007
 11392,-0.13717635,0.,0.12195108,0.11307420,0.,-0.06695723,0.05823217,0
 .,-0.16936791,-0.03137310,0.,0.02750032,-0.02733737,0.,-0.04331026,0.,
 0.,0.03641755,0.,0.,0.00723319,-0.16350456,0.,0.09219865,0.02205215,0.
 ,-0.05341465,0.14147654,0.,-0.04189555,-0.00098232,0.,0.00206612,0.000
 38936,0.,-0.00339818,0.00047830,0.,-0.00002413,0.00011467,0.,0.0001286
 8,0.,0.,0.00001758,0.,0.,-0.00034048,0.,0.,0.00019422,-0.00401651,0.,-
 0.00107086,0.00226928,0.,-0.00157920,0.00039105,0.,0.00311154,0.001356
 18,0.,-0.00046148,-0.00420373,0.,0.24422556,0.04936954,0.,-1.73844368,
 -0.19142969,0.,0.03125570,0.17797468,0.,-0.22558255,0.,0.,0.24027735,-
 0.02433803,0.,1.75700207,0.02239663,0.,-1.79633497,0.19420501,0.,-0.08
 112365,0.01742530,0.,0.00127017,-0.21190079,0.,-0.01908827,0.,0.,-0.01
 157603,0.,0.,0.03022654,-0.02781388,0.,0.00757400,-0.05210336,0.,0.014
 99857,0.08052652,0.,-0.01974875,0.00142841,0.,0.00049841,-0.00397030,0
 .,0.00067123,0.00027048,0.,-0.00060929,0.00227141,0.,0.00044526,0.,0.,
 -0.00311878,0.,0.,0.00043776,0.,0.,0.00223576,0.00278237,0.,-0.0261323
 9,-0.00154897,0.,0.02433432,-0.00067305,0.,-0.00282383,-0.00056035,0.,
 0.00462190,-1.94183309,0.,0.24427603,0.45939529,0.,0.42358884,0.044119
 21,0.,0.00146301,-0.04003221,0.,0.04884226,0.,0.,-0.03814465,-0.030396
 98,0.,-0.25690147,0.02969914,0.,0.23551835,1.89840070,0.,-0.46042570,-
 0.00487280,0.,0.00032140,-1.89387092,0.,-0.29238327,0.,0.,-0.01129372,
 0.,0.,0.30320581,-0.42791055,0.,-0.17184971,-0.03196808,0.,0.02470980,
 0.45948453,0.,0.14798157,-0.00068682,0.,-0.00043260,0.00078580,0.,0.00
 037644,0.00034301,0.,0.00039410,-0.00044200,0.,-0.00073502,0.,0.,0.000
 59610,0.,0.,0.00047118,0.,0.,-0.00033226,-0.00108776,0.,0.00516233,0.0
 0080594,0.,-0.00332669,0.00061976,0.,-0.00084166,-0.00033794,0.,-0.000
 99398,-0.00089931,0.,-0.00044143,0.00027194,0.,-0.00031731,0.00027661,
 0.,-0.00008151,-0.00038836,0.,0.00027841,0.,0.,-0.00041417,-0.00022981
 ,0.,0.00186870,0.00020139,0.,-0.00103970,0.00045714,0.,-0.00018694,-0.
 00000994,0.,0.00000052,-0.00047772,0.,0.00000615,0.,0.,-0.00001699,0.,
 0.,0.00000432,-0.00003932,0.,0.00001553,-0.00008682,0.,0.00011184,0.00
 015657,0.,-0.00009314,0.00016555,0.,-0.00000348,0.00012169,0.,0.000027
 89,0.00003052,0.,-0.00003043,-0.00031776,0.,0.00015686,0.,0.,0.0001527
 5,0.,0.,0.00000652,0.,0.,-0.00031613,-0.00000283,0.,-0.00156696,-0.000
 03306,0.,-0.00094072,0.00002986,0.,-0.00003426,0.00000604,0.,0.0025418
 7,-0.63215990,0.,0.13587192,0.21104798,0.,-0.27242996,-0.13944450,0.,0
 .01314809,0.13968363,0.,-0.04429880,0.,0.,0.05053197,-0.01084550,0.,0.
 48325923,0.01905122,0.,-0.50310685,0.77203970,0.,-0.22427584,-0.001568
 30,0.,-0.00787281,-0.77022260,0.,-0.09084548,0.,0.,-0.00654189,0.,0.,0
 .09716195,-0.20111308,0.,-0.20996251,-0.03203348,0.,0.01526038,0.23307
 121,0.,0.19578625,-0.00043528,0.,0.00007978,0.00132916,0.,-0.00033292,
 -0.00024879,0.,0.00007536,-0.00064508,0.,-0.00072764,0.,0.,0.00030872,
 0.,0.,0.00022542,0.,0.,0.00019351,0.00091056,0.,-0.00086678,-0.0001657
 9,0.,0.00458733,-0.00092255,0.,-0.00108415,0.00017778,0.,-0.00263646,0
 .11267818,0.,0.40716030,-0.01818255,0.,-1.25698063,-0.10517335,0.,0.03
 101550,0.09933291,0.,-0.38351701,0.,0.,0.38394274,-0.01375941,0.,1.218
 94467,0.00541667,0.,-1.23338220,-0.00732819,0.,-0.01343407,0.00564205,
 0.,0.00849233,0.00172396,0.,-0.02138444,0.,0.,-0.00461105,0.,0.,0.0259
 7172,0.03069492,0.,0.04251050,-0.03566838,0.,0.00233888,0.00533269,0.,
 -0.04384649,-0.00017664,0.,0.00060112,0.00019839,0.,-0.00014960,-0.000
 03781,0.,-0.00035922,0.00001605,0.,-0.00225884,0.,0.,0.00418531,0.,0.,
 0.00002377,0.,0.,-0.00195024,0.00124704,0.,-0.00447455,-0.00076381,0.,
 0.01209873,-0.00039095,0.,-0.00100289,-0.00009228,0.,-0.00662137,-0.53
 770992,0.,0.00883807,-0.14426548,0.,-0.56539476,-0.04301132,0.,0.21187
 759,0.06735090,0.,-0.00669034,0.,0.,0.00718541,0.05736618,0.,0.6441835
 7,-0.12176401,0.,-0.63068858,0.57875104,0.,-0.06757952,-0.02267111,0.,
 0.06334902,-0.55584212,0.,-0.00182793,0.,0.,0.00022992,0.,0.,0.0014084
 2,0.08306913,0.,-0.07284842,-0.08952910,0.,-0.02472336,0.00723767,0.,0
 .09704802,0.00197019,0.,-0.00003258,-0.00166848,0.,0.00104880,-0.00023
 781,0.,-0.00077770,-0.00006389,0.,-0.00031981,0.,0.,-0.00072498,0.,0.,
 0.00018959,0.,0.,0.00085520,0.00383015,0.,-0.00594041,-0.00058446,0.,0
 .01122843,-0.00300717,0.,0.00052374,-0.00023852,0.,-0.00581180,-1.1131
 7729,0.,-1.19605511,0.07132547,0.,5.85184359,1.15127223,0.,-0.11585832
 ,-1.11304876,0.,1.19950092,0.,0.,-1.21445446,-0.07276296,0.,-5.8202027
 1,0.06410048,0.,5.76108433,-0.03861297,0.,0.04526840,-0.03068586,0.,0.
 00757250,0.06933455,0.,-0.00395340,0.,0.,0.02256603,0.,0.,-0.01888085,
 -0.00213429,0.,-0.01356403,0.05399420,0.,0.02046485,-0.05195973,0.,-0.
 00321164,0.00051803,0.,-0.00073554,-0.00753762,0.,0.00108997,-0.000035
 72,0.,0.00009984,0.00705531,0.,0.00050757,0.,0.,-0.00761249,0.,0.,0.00
 026822,0.,0.,0.00683669,0.00357176,0.,-0.01807688,-0.00223634,0.,0.038
 65365,-0.00088116,0.,-0.00368920,-0.00045425,0.,-0.01688763,6.46754384
 ,0.,-1.45458677,-1.50437577,0.,-1.03108305,-0.00441434,0.,-0.02774203,
 -0.03126242,0.,0.01186878,0.,0.,-0.02394463,0.00212995,0.,-0.06535148,
 0.00540578,0.,0.09690907,-6.46365976,0.,1.53117470,0.03588193,0.,-0.00
 730094,6.42830319,0.,1.44219392,0.,0.,0.01255137,0.,0.,-1.45433441,1.5
 0246746,0.,1.09902401,0.02168275,0.,-0.03329982,-1.52343172,0.,-1.0674
 5848,0.00053024,0.,0.00094310,-0.00020518,0.,-0.00023480,-0.00052536,0
 .,-0.00071849,0.00020030,0.,0.00052406,0.,0.,-0.00047552,0.,0.,-0.0004
 1088,0.,0.,0.00036234,-0.00022166,0.,-0.00258951,0.00065352,0.,0.00174
 234,-0.00044205,0.,0.00173427,0.00001019,0.,-0.00088717\\@


 WHEN YOU'VE SEEN ONE NUCLEAR WAR YOU'VE SEEN THEM ALL.
 Job cpu time:       0 days 11 hours 59 minutes 17.6 seconds.
 Elapsed time:       0 days  0 hours 26 minutes  3.7 seconds.
 File lengths (MBytes):  RWF=   3354 Int=      0 D2E=      0 Chk=     48 Scr=      1
 Normal termination of Gaussian 16 at Fri Oct 22 15:55:30 2021.
