 Entering Gaussian System, Link 0=g16
 Input=hocl_rOH_s.gjf
 Output=hocl_rOH_s.log
 Initial command:
 /sw/contrib/gaussian/g16/B01/g16/l1.exe "/scr/Gau-31549.inp" -scrdir="/scr/"
 Entering Link 1 = /sw/contrib/gaussian/g16/B01/g16/l1.exe PID=     31550.
  
 Copyright (c) 1988-2017, Gaussian, Inc.  All Rights Reserved.
  
 This is part of the Gaussian(R) 16 program.  It is based on
 the Gaussian(R) 09 system (copyright 2009, Gaussian, Inc.),
 the Gaussian(R) 03 system (copyright 2003, Gaussian, Inc.),
 the Gaussian(R) 98 system (copyright 1998, Gaussian, Inc.),
 the Gaussian(R) 94 system (copyright 1995, Gaussian, Inc.),
 the Gaussian 92(TM) system (copyright 1992, Gaussian, Inc.),
 the Gaussian 90(TM) system (copyright 1990, Gaussian, Inc.),
 the Gaussian 88(TM) system (copyright 1988, Gaussian, Inc.),
 the Gaussian 86(TM) system (copyright 1986, Carnegie Mellon
 University), and the Gaussian 82(TM) system (copyright 1983,
 Carnegie Mellon University). Gaussian is a federally registered
 trademark of Gaussian, Inc.
  
 This software contains proprietary and confidential information,
 including trade secrets, belonging to Gaussian, Inc.
  
 This software is provided under written license and may be
 used, copied, transmitted, or stored only in accord with that
 written license.
  
 The following legend is applicable only to US Government
 contracts under FAR:
  
                    RESTRICTED RIGHTS LEGEND
  
 Use, reproduction and disclosure by the US Government is
 subject to restrictions as set forth in subparagraphs (a)
 and (c) of the Commercial Computer Software - Restricted
 Rights clause in FAR 52.227-19.
  
 Gaussian, Inc.
 340 Quinnipiac St., Bldg. 40, Wallingford CT 06492
  
  
 ---------------------------------------------------------------
 Warning -- This program may not be used in any manner that
 competes with the business of Gaussian, Inc. or will provide
 assistance to any competitor of Gaussian, Inc.  The licensee
 of this program is prohibited from giving any competitor of
 Gaussian, Inc. access to this program.  By using this program,
 the user acknowledges that Gaussian, Inc. is engaged in the
 business of creating and licensing software in the field of
 computational chemistry and represents and warrants to the
 licensee that it is not a competitor of Gaussian, Inc. and that
 it will not use this program in any manner prohibited above.
 ---------------------------------------------------------------
  

 Cite this work as:
 Gaussian 16, Revision B.01,
 M. J. Frisch, G. W. Trucks, H. B. Schlegel, G. E. Scuseria, 
 M. A. Robb, J. R. Cheeseman, G. Scalmani, V. Barone, 
 G. A. Petersson, H. Nakatsuji, X. Li, M. Caricato, A. V. Marenich, 
 J. Bloino, B. G. Janesko, R. Gomperts, B. Mennucci, H. P. Hratchian, 
 J. V. Ortiz, A. F. Izmaylov, J. L. Sonnenberg, D. Williams-Young, 
 F. Ding, F. Lipparini, F. Egidi, J. Goings, B. Peng, A. Petrone, 
 T. Henderson, D. Ranasinghe, V. G. Zakrzewski, J. Gao, N. Rega, 
 G. Zheng, W. Liang, M. Hada, M. Ehara, K. Toyota, R. Fukuda, 
 J. Hasegawa, M. Ishida, T. Nakajima, Y. Honda, O. Kitao, H. Nakai, 
 T. Vreven, K. Throssell, J. A. Montgomery, Jr., J. E. Peralta, 
 F. Ogliaro, M. J. Bearpark, J. J. Heyd, E. N. Brothers, K. N. Kudin, 
 V. N. Staroverov, T. A. Keith, R. Kobayashi, J. Normand, 
 K. Raghavachari, A. P. Rendell, J. C. Burant, S. S. Iyengar, 
 J. Tomasi, M. Cossi, J. M. Millam, M. Klene, C. Adamo, R. Cammi, 
 J. W. Ochterski, R. L. Martin, K. Morokuma, O. Farkas, 
 J. B. Foresman, and D. J. Fox, Gaussian, Inc., Wallingford CT, 2016.
 
 ******************************************
 Gaussian 16:  ES64L-G16RevB.01 20-Dec-2017
                16-Nov-2021 
 ******************************************
 %nproc=28
 Will use up to   28 processors via shared memory.
 %mem=120GB
 %chk=/gscratch/ilahie/mccoygrp/coire_hocl/rOH_s_oop_0/hocl/hocl_rOH_s.chk
 -------------------------------------------------
 #p opt=(z-matrix) mp2/aug-cc-pvtz density=current
 -------------------------------------------------
 1/10=7,18=40,38=1/1,3;
 2/12=2,17=6,18=5,29=3,40=1/2;
 3/5=16,6=1,7=10,11=9,25=1,30=1,71=1/1,2,3;
 4//1;
 5/5=2,38=5/2;
 8/6=4,10=1/1;
 9/15=2,16=-3/6;
 10/5=1/2;
 6/7=2,8=2,9=2,10=2,22=-1/1;
 7/12=2,29=1/1,2,3,16;
 1/10=7,18=40/3(2);
 2/29=3/2;
 99//99;
 2/29=3/2;
 3/5=16,6=1,7=10,11=9,25=1,30=1,71=1/1,2,3;
 4/5=5,16=3,69=1/1;
 5/5=2,38=5/2;
 8/6=4,10=1/1;
 9/15=2,16=-3/6;
 10/5=1/2;
 7/12=2/1,2,3,16;
 1/18=40/3(-8);
 2/29=3/2;
 6/7=2,8=2,9=2,10=2,22=-1/1;
 99/9=10/99;
 Leave Link    1 at Tue Nov 16 15:48:50 2021, MaxMem= 16106127360 cpu:               1.6 elap:               0.1
 (Enter /sw/contrib/gaussian/g16/B01/g16/l101.exe)
 -----
 title
 -----
 Symbolic Z-matrix:
 Charge =  0 Multiplicity = 1
 O
 Cl                   1    rOCl
 H                    1    rOH      2    aHOCl
       Variables:
  rOCl                  1.697   -1        0.     
  rOH                   0.6    Scan 28    0.05   
  aHOCl               102.4843  -1        0.     
 
 ITRead=  0  0  0
 MicOpt= -1 -1 -1
 NAtoms=      3 NQM=        3 NQMF=       0 NMMI=      0 NMMIF=      0
                NMic=       0 NMicF=      0.
                    Isotopes and Nuclear Properties:
 (Nuclear quadrupole moments (NQMom) in fm**2, nuclear magnetic moments (NMagM)
  in nuclear magnetons)

  Atom         1           2           3
 IAtWgt=          16          35           1
 AtmWgt=  15.9949146  34.9688527   1.0078250
 NucSpn=           0           3           1
 AtZEff=  -0.0000000  -0.0000000  -0.0000000
 NQMom=    0.0000000  -8.1650000   0.0000000
 NMagM=    0.0000000   0.8218740   2.7928460
 AtZNuc=   8.0000000  17.0000000   1.0000000
 Leave Link  101 at Tue Nov 16 15:48:50 2021, MaxMem= 16106127360 cpu:               2.1 elap:               0.1
 (Enter /sw/contrib/gaussian/g16/B01/g16/l103.exe)

 GradGradGradGradGradGradGradGradGradGradGradGradGradGradGradGradGradGrad
 Berny optimization.
 Initialization pass.
                       ----------------------------
                       !    Initial Parameters    !
                       ! (Angstroms and Degrees)  !
 ----------------------                            ----------------------
 !      Name          Value   Derivative information (Atomic Units)     !
 ------------------------------------------------------------------------
 !      rOCl         1.697    Frozen                                    !
 !       rOH         0.6      Scan                                      !
 !      aHOCl      102.4843   Frozen                                    !
 ------------------------------------------------------------------------
 Trust Radius=3.00D-01 FncErr=1.00D-07 GrdErr=1.00D-07 EigMax=2.50D+02 EigMin=1.00D-04
 Number of optimizations in scan=  29
 Number of steps in this run=     20 maximum allowed number of steps=    100.
 GradGradGradGradGradGradGradGradGradGradGradGradGradGradGradGradGradGrad

 Leave Link  103 at Tue Nov 16 15:48:50 2021, MaxMem= 16106127360 cpu:               0.7 elap:               0.1
 (Enter /sw/contrib/gaussian/g16/B01/g16/l202.exe)
 ---------------------------------------------------------------------------------------------------
                            Z-MATRIX (ANGSTROMS AND DEGREES)
   CD    Cent   Atom    N1       Length/X        N2       Alpha/Y        N3        Beta/Z          J
 ---------------------------------------------------------------------------------------------------
      1      1  O 
      2      2  Cl       1   1.697002(     1)
      3      3  H        1   0.600000(     2)      2  102.484(     3)
 ---------------------------------------------------------------------------------------------------
                         Z-Matrix orientation:                         
 ---------------------------------------------------------------------
 Center     Atomic      Atomic             Coordinates (Angstroms)
 Number     Number       Type             X           Y           Z
 ---------------------------------------------------------------------
      1          8           0        0.000000    0.000000    0.000000
      2         17           0        0.000000    0.000000    1.697002
      3          1           0        0.585813    0.000000   -0.129703
 ---------------------------------------------------------------------
                    Distance matrix (angstroms):
                    1          2          3
     1  O    0.000000
     2  Cl   1.697002   0.000000
     3  H    0.600000   1.918340   0.000000
 Stoichiometry    ClHO
 Framework group  CS[SG(ClHO)]
 Deg. of freedom     3
 Full point group                 CS      NOp   2
 Largest Abelian subgroup         CS      NOp   2
 Largest concise Abelian subgroup C1      NOp   1
                         Standard orientation:                         
 ---------------------------------------------------------------------
 Center     Atomic      Atomic             Coordinates (Angstroms)
 Number     Number       Type             X           Y           Z
 ---------------------------------------------------------------------
      1          8           0        0.022531    1.104589   -0.000000
      2         17           0        0.022531   -0.592412    0.000000
      3          1           0       -0.563282    1.234293   -0.000000
 ---------------------------------------------------------------------
 Rotational constants (GHZ):        1568.9449186          15.1866345          15.0410444
 Leave Link  202 at Tue Nov 16 15:48:50 2021, MaxMem= 16106127360 cpu:               0.5 elap:               0.0
 (Enter /sw/contrib/gaussian/g16/B01/g16/l301.exe)
 Standard basis: Aug-CC-pVTZ (5D, 7F)
 Ernie: Thresh=  0.10000D-02 Tol=  0.10000D-05 Strict=F.
 Ernie:  16 primitive shells out of 105 were deleted.
 There are    95 symmetry adapted cartesian basis functions of A'  symmetry.
 There are    44 symmetry adapted cartesian basis functions of A"  symmetry.
 There are    79 symmetry adapted basis functions of A'  symmetry.
 There are    40 symmetry adapted basis functions of A"  symmetry.
   119 basis functions,   213 primitive gaussians,   139 cartesian basis functions
    13 alpha electrons       13 beta electrons
       nuclear repulsion energy        54.1541522153 Hartrees.
 IExCor=    0 DFT=F Ex=HF Corr=None ExCW=0 ScaHFX=  1.000000
 ScaDFX=  1.000000  1.000000  1.000000  1.000000 ScalE2=  1.000000  1.000000
 IRadAn=      5 IRanWt=     -1 IRanGd=            0 ICorTp=0 IEmpDi=  4
 NAtoms=    3 NActive=    3 NUniq=    3 SFac= 1.00D+00 NAtFMM=   60 NAOKFM=F Big=F
 Integral buffers will be    131072 words long.
 Raffenetti 1 integral format.
 Two-electron integral symmetry is turned on.
 Leave Link  301 at Tue Nov 16 15:48:50 2021, MaxMem= 16106127360 cpu:               1.8 elap:               0.1
 (Enter /sw/contrib/gaussian/g16/B01/g16/l302.exe)
 NPDir=0 NMtPBC=     1 NCelOv=     1 NCel=       1 NClECP=     1 NCelD=      1
         NCelK=      1 NCelE2=     1 NClLst=     1 CellRange=     0.0.
 One-electron integrals computed using PRISM.
 One-electron integral symmetry used in STVInt
 NBasis=   119 RedAO= T EigKep=  1.49D-04  NBF=    79    40
 NBsUse=   119 1.00D-06 EigRej= -1.00D+00 NBFU=    79    40
 Leave Link  302 at Tue Nov 16 15:48:50 2021, MaxMem= 16106127360 cpu:               4.7 elap:               0.2
 (Enter /sw/contrib/gaussian/g16/B01/g16/l303.exe)
 DipDrv:  MaxL=1.
 Leave Link  303 at Tue Nov 16 15:48:50 2021, MaxMem= 16106127360 cpu:               0.9 elap:               0.1
 (Enter /sw/contrib/gaussian/g16/B01/g16/l401.exe)
 ExpMin= 2.53D-02 ExpMax= 4.56D+05 ExpMxC= 1.44D+03 IAcc=3 IRadAn=         5 AccDes= 0.00D+00
 Harris functional with IExCor=  205 and IRadAn=       5 diagonalized for initial guess.
 HarFok:  IExCor=  205 AccDes= 0.00D+00 IRadAn=         5 IDoV= 1 UseB2=F ITyADJ=14
 ICtDFT=  3500011 ScaDFX=  1.000000  1.000000  1.000000  1.000000
 FoFCou: FMM=F IPFlag=           0 FMFlag=      100000 FMFlg1=           0
         NFxFlg=           0 DoJE=T BraDBF=F KetDBF=T FulRan=T
         wScrn=  0.000000 ICntrl=       500 IOpCl=  0 I1Cent=   200000004 NGrid=           0
         NMat0=    1 NMatS0=      1 NMatT0=    0 NMatD0=    1 NMtDS0=    0 NMtDT0=    0
 Petite list used in FoFCou.
 Harris En= -534.258767903848    
 JPrj=0 DoOrth=F DoCkMO=F.
 Initial guess orbital symmetries:
       Occupied  (A') (A') (A') (A') (A') (A") (A') (A') (A') (A')
                 (A") (A') (A")
       Virtual   (A') (A') (A') (A') (A") (A') (A') (A") (A') (A')
                 (A") (A') (A') (A") (A') (A") (A') (A') (A') (A")
                 (A') (A') (A') (A") (A') (A") (A') (A") (A') (A')
                 (A") (A') (A") (A') (A') (A') (A") (A") (A') (A')
                 (A") (A') (A') (A') (A") (A') (A") (A') (A") (A')
                 (A') (A') (A") (A') (A') (A") (A') (A') (A") (A')
                 (A") (A') (A') (A") (A") (A") (A') (A') (A") (A')
                 (A') (A') (A") (A') (A') (A") (A') (A") (A') (A')
                 (A') (A") (A') (A") (A") (A') (A') (A') (A") (A')
                 (A') (A') (A") (A') (A') (A") (A") (A') (A") (A')
                 (A') (A') (A") (A') (A') (A')
 The electronic state of the initial guess is 1-A'.
 Leave Link  401 at Tue Nov 16 15:48:51 2021, MaxMem= 16106127360 cpu:               5.8 elap:               0.3
 (Enter /sw/contrib/gaussian/g16/B01/g16/l502.exe)
 Keep R1 ints in memory in symmetry-blocked form, NReq=39275832.
 FoFCou: FMM=F IPFlag=           0 FMFlag=           0 FMFlg1=           0
         NFxFlg=           0 DoJE=F BraDBF=F KetDBF=F FulRan=T
         wScrn=  0.000000 ICntrl=       600 IOpCl=  0 I1Cent=           0 NGrid=           0
         NMat0=    1 NMatS0=   7140 NMatT0=    0 NMatD0=    1 NMtDS0=    0 NMtDT0=    0
 Petite list used in FoFCou.
 Closed shell SCF:
 Using DIIS extrapolation, IDIIS=  1040.
 NGot= 16106127360 LenX= 16093150889 LenY= 16093131127
 Requested convergence on RMS density matrix=1.00D-08 within 128 cycles.
 Requested convergence on MAX density matrix=1.00D-06.
 Requested convergence on             energy=1.00D-06.
 No special actions if energy rises.

 Cycle   1  Pass 1  IDiag  1:
 E= -534.399609661555    
 DIIS: error= 3.37D-02 at cycle   1 NSaved=   1.
 NSaved= 1 IEnMin= 1 EnMin= -534.399609661555     IErMin= 1 ErrMin= 3.37D-02
 ErrMax= 3.37D-02  0.00D+00 EMaxC= 1.00D-01 BMatC= 4.81D-01 BMatP= 4.81D-01
 IDIUse=3 WtCom= 6.63D-01 WtEn= 3.37D-01
 Coeff-Com:  0.100D+01
 Coeff-En:   0.100D+01
 Coeff:      0.100D+01
 Gap=     0.611 Goal=   None    Shift=    0.000
 GapD=    0.611 DampG=2.000 DampE=0.500 DampFc=1.0000 IDamp=-1.
 RMSDP=3.41D-03 MaxDP=9.21D-02              OVMax= 1.92D-01

 Cycle   2  Pass 1  IDiag  1:
 E= -534.507583861197     Delta-E=       -0.107974199643 Rises=F Damp=F
 DIIS: error= 3.17D-02 at cycle   2 NSaved=   2.
 NSaved= 2 IEnMin= 2 EnMin= -534.507583861197     IErMin= 2 ErrMin= 3.17D-02
 ErrMax= 3.17D-02  0.00D+00 EMaxC= 1.00D-01 BMatC= 1.38D-01 BMatP= 4.81D-01
 IDIUse=3 WtCom= 6.83D-01 WtEn= 3.17D-01
 Coeff-Com:  0.319D+00 0.681D+00
 Coeff-En:   0.226D+00 0.774D+00
 Coeff:      0.289D+00 0.711D+00
 Gap=     0.616 Goal=   None    Shift=    0.000
 RMSDP=1.71D-03 MaxDP=4.89D-02 DE=-1.08D-01 OVMax= 1.13D-01

 Cycle   3  Pass 1  IDiag  1:
 E= -534.591879208158     Delta-E=       -0.084295346961 Rises=F Damp=F
 DIIS: error= 6.79D-03 at cycle   3 NSaved=   3.
 NSaved= 3 IEnMin= 3 EnMin= -534.591879208158     IErMin= 3 ErrMin= 6.79D-03
 ErrMax= 6.79D-03  0.00D+00 EMaxC= 1.00D-01 BMatC= 7.76D-03 BMatP= 1.38D-01
 IDIUse=3 WtCom= 9.32D-01 WtEn= 6.79D-02
 Coeff-Com: -0.267D-01 0.161D+00 0.866D+00
 Coeff-En:   0.000D+00 0.000D+00 0.100D+01
 Coeff:     -0.249D-01 0.150D+00 0.875D+00
 Gap=     0.498 Goal=   None    Shift=    0.000
 RMSDP=3.88D-04 MaxDP=1.25D-02 DE=-8.43D-02 OVMax= 3.13D-02

 Cycle   4  Pass 1  IDiag  1:
 E= -534.597419536639     Delta-E=       -0.005540328481 Rises=F Damp=F
 DIIS: error= 1.17D-03 at cycle   4 NSaved=   4.
 NSaved= 4 IEnMin= 4 EnMin= -534.597419536639     IErMin= 4 ErrMin= 1.17D-03
 ErrMax= 1.17D-03  0.00D+00 EMaxC= 1.00D-01 BMatC= 1.13D-04 BMatP= 7.76D-03
 IDIUse=3 WtCom= 9.88D-01 WtEn= 1.17D-02
 Coeff-Com: -0.220D-02-0.347D-01-0.487D-01 0.109D+01
 Coeff-En:   0.000D+00 0.000D+00 0.000D+00 0.100D+01
 Coeff:     -0.217D-02-0.343D-01-0.482D-01 0.108D+01
 Gap=     0.493 Goal=   None    Shift=    0.000
 RMSDP=7.04D-05 MaxDP=1.60D-03 DE=-5.54D-03 OVMax= 4.52D-03

 Cycle   5  Pass 1  IDiag  1:
 E= -534.597583143268     Delta-E=       -0.000163606629 Rises=F Damp=F
 DIIS: error= 3.23D-04 at cycle   5 NSaved=   5.
 NSaved= 5 IEnMin= 5 EnMin= -534.597583143268     IErMin= 5 ErrMin= 3.23D-04
 ErrMax= 3.23D-04  0.00D+00 EMaxC= 1.00D-01 BMatC= 1.19D-05 BMatP= 1.13D-04
 IDIUse=3 WtCom= 9.97D-01 WtEn= 3.23D-03
 Coeff-Com:  0.272D-02-0.149D-01-0.686D-01-0.603D-01 0.114D+01
 Coeff-En:   0.000D+00 0.000D+00 0.000D+00 0.000D+00 0.100D+01
 Coeff:      0.272D-02-0.148D-01-0.684D-01-0.601D-01 0.114D+01
 Gap=     0.492 Goal=   None    Shift=    0.000
 RMSDP=3.69D-05 MaxDP=9.59D-04 DE=-1.64D-04 OVMax= 2.73D-03

 Cycle   6  Pass 1  IDiag  1:
 E= -534.597614301289     Delta-E=       -0.000031158021 Rises=F Damp=F
 DIIS: error= 1.28D-04 at cycle   6 NSaved=   6.
 NSaved= 6 IEnMin= 6 EnMin= -534.597614301289     IErMin= 6 ErrMin= 1.28D-04
 ErrMax= 1.28D-04  0.00D+00 EMaxC= 1.00D-01 BMatC= 1.62D-06 BMatP= 1.19D-05
 IDIUse=3 WtCom= 9.99D-01 WtEn= 1.28D-03
 Coeff-Com: -0.599D-03 0.652D-02 0.272D-01-0.970D-01-0.385D+00 0.145D+01
 Coeff-En:   0.000D+00 0.000D+00 0.000D+00 0.000D+00 0.000D+00 0.100D+01
 Coeff:     -0.599D-03 0.652D-02 0.271D-01-0.968D-01-0.384D+00 0.145D+01
 Gap=     0.492 Goal=   None    Shift=    0.000
 RMSDP=2.04D-05 MaxDP=4.92D-04 DE=-3.12D-05 OVMax= 1.46D-03

 Cycle   7  Pass 1  IDiag  1:
 E= -534.597620326456     Delta-E=       -0.000006025167 Rises=F Damp=F
 DIIS: error= 3.29D-05 at cycle   7 NSaved=   7.
 NSaved= 7 IEnMin= 7 EnMin= -534.597620326456     IErMin= 7 ErrMin= 3.29D-05
 ErrMax= 3.29D-05  0.00D+00 EMaxC= 1.00D-01 BMatC= 1.04D-07 BMatP= 1.62D-06
 IDIUse=1 WtCom= 1.00D+00 WtEn= 0.00D+00
 Coeff-Com: -0.485D-04-0.443D-03-0.481D-03 0.359D-01-0.596D-01-0.223D+00
 Coeff-Com:  0.125D+01
 Coeff:     -0.485D-04-0.443D-03-0.481D-03 0.359D-01-0.596D-01-0.223D+00
 Coeff:      0.125D+01
 Gap=     0.492 Goal=   None    Shift=    0.000
 RMSDP=5.62D-06 MaxDP=1.17D-04 DE=-6.03D-06 OVMax= 4.91D-04

 Cycle   8  Pass 1  IDiag  1:
 E= -534.597620735510     Delta-E=       -0.000000409055 Rises=F Damp=F
 DIIS: error= 1.32D-05 at cycle   8 NSaved=   8.
 NSaved= 8 IEnMin= 8 EnMin= -534.597620735510     IErMin= 8 ErrMin= 1.32D-05
 ErrMax= 1.32D-05  0.00D+00 EMaxC= 1.00D-01 BMatC= 1.01D-08 BMatP= 1.04D-07
 IDIUse=1 WtCom= 1.00D+00 WtEn= 0.00D+00
 Coeff-Com:  0.103D-04-0.366D-03-0.127D-02 0.484D-02 0.227D-01-0.732D-01
 Coeff-Com: -0.139D+00 0.119D+01
 Coeff:      0.103D-04-0.366D-03-0.127D-02 0.484D-02 0.227D-01-0.732D-01
 Coeff:     -0.139D+00 0.119D+01
 Gap=     0.492 Goal=   None    Shift=    0.000
 RMSDP=1.85D-06 MaxDP=4.77D-05 DE=-4.09D-07 OVMax= 1.80D-04

 Cycle   9  Pass 1  IDiag  1:
 E= -534.597620780899     Delta-E=       -0.000000045389 Rises=F Damp=F
 DIIS: error= 6.14D-06 at cycle   9 NSaved=   9.
 NSaved= 9 IEnMin= 9 EnMin= -534.597620780899     IErMin= 9 ErrMin= 6.14D-06
 ErrMax= 6.14D-06  0.00D+00 EMaxC= 1.00D-01 BMatC= 1.81D-09 BMatP= 1.01D-08
 IDIUse=1 WtCom= 1.00D+00 WtEn= 0.00D+00
 Coeff-Com:  0.182D-04 0.159D-03 0.293D-03-0.723D-02 0.127D-02 0.621D-01
 Coeff-Com: -0.115D+00-0.592D+00 0.165D+01
 Coeff:      0.182D-04 0.159D-03 0.293D-03-0.723D-02 0.127D-02 0.621D-01
 Coeff:     -0.115D+00-0.592D+00 0.165D+01
 Gap=     0.492 Goal=   None    Shift=    0.000
 RMSDP=1.13D-06 MaxDP=3.07D-05 DE=-4.54D-08 OVMax= 1.11D-04

 Cycle  10  Pass 1  IDiag  1:
 E= -534.597620791435     Delta-E=       -0.000000010536 Rises=F Damp=F
 DIIS: error= 1.14D-06 at cycle  10 NSaved=  10.
 NSaved=10 IEnMin=10 EnMin= -534.597620791435     IErMin=10 ErrMin= 1.14D-06
 ErrMax= 1.14D-06  0.00D+00 EMaxC= 1.00D-01 BMatC= 1.04D-10 BMatP= 1.81D-09
 IDIUse=1 WtCom= 1.00D+00 WtEn= 0.00D+00
 Coeff-Com: -0.622D-05 0.516D-05 0.447D-04 0.160D-02-0.298D-02-0.793D-02
 Coeff-Com:  0.433D-01 0.139D-01-0.349D+00 0.130D+01
 Coeff:     -0.622D-05 0.516D-05 0.447D-04 0.160D-02-0.298D-02-0.793D-02
 Coeff:      0.433D-01 0.139D-01-0.349D+00 0.130D+01
 Gap=     0.492 Goal=   None    Shift=    0.000
 RMSDP=2.19D-07 MaxDP=6.20D-06 DE=-1.05D-08 OVMax= 2.17D-05

 Cycle  11  Pass 1  IDiag  1:
 E= -534.597620791861     Delta-E=       -0.000000000426 Rises=F Damp=F
 DIIS: error= 1.68D-07 at cycle  11 NSaved=  11.
 NSaved=11 IEnMin=11 EnMin= -534.597620791861     IErMin=11 ErrMin= 1.68D-07
 ErrMax= 1.68D-07  0.00D+00 EMaxC= 1.00D-01 BMatC= 2.61D-12 BMatP= 1.04D-10
 IDIUse=1 WtCom= 1.00D+00 WtEn= 0.00D+00
 Coeff-Com: -0.261D-07-0.698D-05-0.160D-04 0.103D-03 0.222D-03-0.170D-02
 Coeff-Com:  0.294D-03 0.235D-01-0.329D-01-0.164D+00 0.117D+01
 Coeff:     -0.261D-07-0.698D-05-0.160D-04 0.103D-03 0.222D-03-0.170D-02
 Coeff:      0.294D-03 0.235D-01-0.329D-01-0.164D+00 0.117D+01
 Gap=     0.492 Goal=   None    Shift=    0.000
 RMSDP=3.34D-08 MaxDP=9.06D-07 DE=-4.26D-10 OVMax= 2.98D-06

 Cycle  12  Pass 1  IDiag  1:
 E= -534.597620791871     Delta-E=       -0.000000000010 Rises=F Damp=F
 DIIS: error= 4.85D-08 at cycle  12 NSaved=  12.
 NSaved=12 IEnMin=12 EnMin= -534.597620791871     IErMin=12 ErrMin= 4.85D-08
 ErrMax= 4.85D-08  0.00D+00 EMaxC= 1.00D-01 BMatC= 1.61D-13 BMatP= 2.61D-12
 IDIUse=1 WtCom= 1.00D+00 WtEn= 0.00D+00
 Coeff-Com:  0.285D-06 0.152D-05 0.166D-05-0.110D-03 0.112D-03 0.767D-03
 Coeff-Com: -0.209D-02-0.695D-02 0.269D-01-0.318D-01-0.256D+00 0.127D+01
 Coeff:      0.285D-06 0.152D-05 0.166D-05-0.110D-03 0.112D-03 0.767D-03
 Coeff:     -0.209D-02-0.695D-02 0.269D-01-0.318D-01-0.256D+00 0.127D+01
 Gap=     0.492 Goal=   None    Shift=    0.000
 RMSDP=6.26D-09 MaxDP=1.51D-07 DE=-1.00D-11 OVMax= 4.67D-07

 SCF Done:  E(RHF) =  -534.597620792     A.U. after   12 cycles
            NFock= 12  Conv=0.63D-08     -V/T= 1.9971
 KE= 5.361724858777D+02 PE=-1.381514232106D+03 EE= 2.565899732216D+02
 Leave Link  502 at Tue Nov 16 15:48:51 2021, MaxMem= 16106127360 cpu:              18.7 elap:               0.8
 (Enter /sw/contrib/gaussian/g16/B01/g16/l801.exe)
 ExpMin= 2.53D-02 ExpMax= 4.56D+05 ExpMxC= 1.44D+03 IAcc=3 IRadAn=         5 AccDes= 0.00D+00
 HarFok:  IExCor=  205 AccDes= 0.00D+00 IRadAn=         5 IDoV=-2 UseB2=F ITyADJ=14
 ICtDFT= 12500011 ScaDFX=  1.000000  1.000000  1.000000  1.000000
 Largest valence mixing into a core orbital is  4.10D-04
 Largest core mixing into a valence orbital is  1.42D-04
 Range of M.O.s used for correlation:     7   119
 NBasis=   119 NAE=    13 NBE=    13 NFC=     6 NFV=     0
 NROrb=    113 NOA=     7 NOB=     7 NVA=   106 NVB=   106

 **** Warning!!: The largest alpha MO coefficient is  0.21942551D+02

 Leave Link  801 at Tue Nov 16 15:48:52 2021, MaxMem= 16106127360 cpu:               1.7 elap:               0.1
 (Enter /sw/contrib/gaussian/g16/B01/g16/l906.exe)
 Frozen-core derivative calculation, NFC=   6 NFV=   0.
 FulOut=F Deriv=T AODrv=T NAtomX=     3
   MMem=         410  MDisk=           7 MDiskD=           7
  W3Min=      215033 MinDsk=      467278 NBas6D=         139
 NBas2D=       10066    NTT=        9730    LW2=     3500000
    MDV= 16105909725 MDiskM=      579277 NBas2p=       10066
 Fully direct method using O(ONN) memory.
 IMap=   1   2   3   4   5   6   7   8   9  10  11  12  13
 JobTyp=1 Pass  1:  I=   7 to  13 NPSUse= 28 ParTrn=T ParDer=T DoDerP=T.
 Spin components of T(2) and E(2):
     alpha-alpha T2 =       0.1558519097D-01 E2=     -0.5336140887D-01
     alpha-beta  T2 =       0.9059328779D-01 E2=     -0.3275649461D+00
     beta-beta   T2 =       0.1558519097D-01 E2=     -0.5336140887D-01
 The integrals were generated   1 times.
 ANorm=    0.1059133452D+01
 E2 =    -0.4342877638D+00 EUMP2 =    -0.53503190855568D+03
 Leave Link  906 at Tue Nov 16 15:48:54 2021, MaxMem= 16106127360 cpu:              78.2 elap:               2.8
 (Enter /sw/contrib/gaussian/g16/B01/g16/l1002.exe)
 Minotr:  Closed shell wavefunction.
          Computing MP2/KS-MP2 derivatives.
          Using Z-Vector for PSCF gradient.
          Skipping F1 and S1 gradient terms here.
          IDoAtm=111
          Frozen-core window.
          Direct CPHF calculation.
          Differentiating once with respect to electric field.
                with respect to dipole field.
          Differentiating once with respect to nuclear coordinates.
          Using symmetry in CPHF.
          Requested convergence is 1.0D-10 RMS, and 1.0D-09 maximum.
          NewPWx=F KeepS1=T KeepF1=T KeepIn=T MapXYZ=F SortEE=F KeepMc=T.
 Keep R1 ints in memory in symmetry-blocked form, NReq=39276950.
 FoFCou: FMM=F IPFlag=           0 FMFlag=           0 FMFlg1=           0
         NFxFlg=           0 DoJE=F BraDBF=F KetDBF=F FulRan=T
         wScrn=  0.000000 ICntrl=       600 IOpCl=  0 I1Cent=           0 NGrid=           0
         NMat0=    1 NMatS0=   7140 NMatT0=    0 NMatD0=    1 NMtDS0=    0 NMtDT0=    0
 Petite list used in FoFCou.
          MDV=   16106127360 using IRadAn=       5.
          Solving linear equations separately, MaxMat=       0.
          There are     1 degrees of freedom in the 1st order CPHF.  IDoFFX=0 NUNeed=     1.
 LinEq1:  Iter=  0 NonCon=     1 RMS=3.50D-03 Max=4.51D-02 NDo=     1
 AX will form     1 AO Fock derivatives at one time.
 LinEq1:  Iter=  1 NonCon=     1 RMS=4.75D-04 Max=4.80D-03 NDo=     1
 LinEq1:  Iter=  2 NonCon=     1 RMS=1.41D-04 Max=2.00D-03 NDo=     1
 LinEq1:  Iter=  3 NonCon=     1 RMS=3.32D-05 Max=3.30D-04 NDo=     1
 LinEq1:  Iter=  4 NonCon=     1 RMS=1.67D-05 Max=2.24D-04 NDo=     1
 LinEq1:  Iter=  5 NonCon=     1 RMS=4.86D-06 Max=6.91D-05 NDo=     1
 LinEq1:  Iter=  6 NonCon=     1 RMS=1.17D-06 Max=1.26D-05 NDo=     1
 LinEq1:  Iter=  7 NonCon=     1 RMS=2.46D-07 Max=3.44D-06 NDo=     1
 LinEq1:  Iter=  8 NonCon=     1 RMS=5.15D-08 Max=6.81D-07 NDo=     1
 LinEq1:  Iter=  9 NonCon=     1 RMS=1.09D-08 Max=8.91D-08 NDo=     1
 LinEq1:  Iter= 10 NonCon=     1 RMS=2.58D-09 Max=2.39D-08 NDo=     1
 LinEq1:  Iter= 11 NonCon=     1 RMS=5.79D-10 Max=5.79D-09 NDo=     1
 LinEq1:  Iter= 12 NonCon=     1 RMS=1.20D-10 Max=8.67D-10 NDo=     1
 LinEq1:  Iter= 13 NonCon=     0 RMS=1.89D-11 Max=1.78D-10 NDo=     1
 Linear equations converged to 1.000D-10 1.000D-09 after    13 iterations.
 End of Minotr F.D. properties file   721 does not exist.
 End of Minotr F.D. properties file   722 does not exist.
 End of Minotr F.D. properties file   788 does not exist.
 Leave Link 1002 at Tue Nov 16 15:48:55 2021, MaxMem= 16106127360 cpu:              20.7 elap:               0.9
 (Enter /sw/contrib/gaussian/g16/B01/g16/l601.exe)
 Copying SCF densities to generalized density rwf, IOpCl= 0 IROHF=0.

 **********************************************************************

            Population analysis using the MP2 Density.

 **********************************************************************

 Orbital symmetries:
       Occupied  (A') (A') (A') (A') (A') (A") (A') (A') (A') (A")
                 (A') (A') (A")
       Virtual   (A') (A') (A') (A") (A') (A') (A') (A") (A') (A')
                 (A") (A') (A') (A') (A") (A") (A') (A') (A') (A")
                 (A') (A') (A') (A") (A') (A") (A') (A') (A") (A')
                 (A") (A') (A") (A') (A') (A") (A') (A") (A') (A')
                 (A") (A') (A') (A') (A") (A') (A") (A') (A") (A')
                 (A') (A') (A") (A') (A') (A") (A') (A') (A") (A')
                 (A") (A') (A') (A") (A") (A") (A') (A') (A") (A')
                 (A') (A") (A') (A') (A") (A') (A') (A") (A') (A')
                 (A') (A") (A') (A") (A") (A') (A') (A') (A") (A')
                 (A') (A') (A") (A') (A') (A") (A") (A') (A') (A")
                 (A') (A') (A") (A') (A') (A')
 The electronic state is 1-A'.
 Alpha  occ. eigenvalues -- -104.90557 -20.60608 -10.62427  -8.09144  -8.08831
 Alpha  occ. eigenvalues --   -8.08814  -1.56571  -1.11112  -0.80278  -0.63099
 Alpha  occ. eigenvalues --   -0.62139  -0.48643  -0.45868
 Alpha virt. eigenvalues --    0.03369   0.05672   0.10844   0.11397   0.13296
 Alpha virt. eigenvalues --    0.15611   0.16820   0.17631   0.18385   0.26502
 Alpha virt. eigenvalues --    0.28051   0.30785   0.33826   0.39173   0.39406
 Alpha virt. eigenvalues --    0.41573   0.43304   0.49298   0.49593   0.61309
 Alpha virt. eigenvalues --    0.62799   0.66979   0.72540   0.73632   0.75763
 Alpha virt. eigenvalues --    0.78257   0.81641   0.86455   0.87022   0.92648
 Alpha virt. eigenvalues --    0.93322   0.93769   0.94793   0.95762   0.99489
 Alpha virt. eigenvalues --    1.03435   1.03549   1.09120   1.16270   1.22160
 Alpha virt. eigenvalues --    1.23786   1.25735   1.36718   1.41975   1.45410
 Alpha virt. eigenvalues --    1.49057   1.50417   1.55497   1.74463   1.75368
 Alpha virt. eigenvalues --    1.79804   1.83635   2.20155   2.25913   2.29826
 Alpha virt. eigenvalues --    2.32898   2.35709   2.40064   2.42118   2.45573
 Alpha virt. eigenvalues --    2.48991   2.50652   2.54497   2.54928   2.59269
 Alpha virt. eigenvalues --    2.62695   2.64873   2.84573   2.92192   2.98741
 Alpha virt. eigenvalues --    2.99679   3.04810   3.04942   3.12677   3.16045
 Alpha virt. eigenvalues --    3.16694   3.33636   3.37042   3.39689   3.84448
 Alpha virt. eigenvalues --    4.21540   4.34779   4.56629   4.63308   4.85027
 Alpha virt. eigenvalues --    4.85662   4.89703   5.34765   5.81092   5.95242
 Alpha virt. eigenvalues --    6.29251   6.42577   6.71693   6.72500   6.81344
 Alpha virt. eigenvalues --    6.90092   6.92068   6.95782   7.05675   7.14965
 Alpha virt. eigenvalues --    7.67097   9.22657   9.25228   9.30331  11.01281
 Alpha virt. eigenvalues --   22.04862
          Condensed to atoms (all electrons):
               1          2          3
     1  O    7.969332  -0.037095   0.247122
     2  Cl  -0.037095  16.880164  -0.016165
     3  H    0.247122  -0.016165   0.762778
 Mulliken charges:
               1
     1  O   -0.179360
     2  Cl   0.173095
     3  H    0.006264
 Sum of Mulliken charges =   0.00000
 Mulliken charges with hydrogens summed into heavy atoms:
               1
     1  O   -0.173095
     2  Cl   0.173095
 Electronic spatial extent (au):  <R**2>=            102.5401
 Charge=              0.0000 electrons
 Dipole moment (field-independent basis, Debye):
    X=             -1.1116    Y=             -0.1530    Z=             -0.0000  Tot=              1.1221
 Quadrupole moment (field-independent basis, Debye-Ang):
   XX=            -17.7053   YY=            -16.7727   ZZ=            -18.9987
   XY=             -1.9191   XZ=              0.0000   YZ=              0.0000
 Traceless Quadrupole moment (field-independent basis, Debye-Ang):
   XX=              0.1202   YY=              1.0529   ZZ=             -1.1731
   XY=             -1.9191   XZ=              0.0000   YZ=              0.0000
 Octapole moment (field-independent basis, Debye-Ang**2):
  XXX=             -1.0979  YYY=              1.1386  ZZZ=             -0.0000  XYY=             -2.6393
  XXY=              2.5521  XXZ=             -0.0000  XZZ=             -0.2209  YZZ=              1.0805
  YYZ=             -0.0000  XYZ=              0.0000
 Hexadecapole moment (field-independent basis, Debye-Ang**3):
 XXXX=            -18.9913 YYYY=            -77.6443 ZZZZ=            -20.0243 XXXY=             -0.4868
 XXXZ=              0.0000 YYYX=             -3.3928 YYYZ=              0.0000 ZZZX=             -0.0000
 ZZZY=              0.0000 XXYY=            -16.5354 XXZZ=             -6.5536 YYZZ=            -18.7009
 XXYZ=              0.0000 YYXZ=              0.0000 ZZXY=              0.0292
 N-N= 5.415415221528D+01 E-N=-1.381646409214D+03  KE= 5.366227865017D+02
 Symmetry A'   KE= 4.857567594613D+02
 Symmetry A"   KE= 5.086602704041D+01
 No NMR shielding tensors so no spin-rotation constants.
 Leave Link  601 at Tue Nov 16 15:48:55 2021, MaxMem= 16106127360 cpu:               4.2 elap:               0.2
 (Enter /sw/contrib/gaussian/g16/B01/g16/l701.exe)
 ... and contract with generalized density number  2.
 Compute integral first derivatives.
 Leave Link  701 at Tue Nov 16 15:48:56 2021, MaxMem= 16106127360 cpu:               6.2 elap:               0.3
 (Enter /sw/contrib/gaussian/g16/B01/g16/l702.exe)
 L702 exits ... SP integral derivatives will be done elsewhere.
 Leave Link  702 at Tue Nov 16 15:48:56 2021, MaxMem= 16106127360 cpu:               1.0 elap:               0.1
 (Enter /sw/contrib/gaussian/g16/B01/g16/l703.exe)
 Integral derivatives from FoFJK, PRISM(SPDF).
 Compute integral first derivatives, UseDBF=F ICtDFT=           0.
 Calling FoFJK, ICntrl=  10002127 FMM=F ISym2X=1 I1Cent= 0 IOpClX= 0 NMat=1 NMatS=1 NMatT=0.
 FoFJK:  IHMeth= 1 ICntrl=10002127 DoSepK=F KAlg= 0 I1Cent=           0 FoldK=F
 IRaf=         0 NMat=       1 IRICut=       1 DoRegI=T DoRafI=F ISym2E= 1 IDoP0=0 IntGTp=1.
 FoFCou: FMM=F IPFlag=           0 FMFlag=      100000 FMFlg1=         800
         NFxFlg=           0 DoJE=F BraDBF=F KetDBF=F FulRan=T
         wScrn=  0.000000 ICntrl=  10002127 IOpCl=  0 I1Cent=           0 NGrid=           0
         NMat0=    1 NMatS0=      1 NMatT0=    0 NMatD0=    1 NMtDS0=    0 NMtDT0=    0
 Petite list used in FoFCou.
 Leave Link  703 at Tue Nov 16 15:48:57 2021, MaxMem= 16106127360 cpu:              25.7 elap:               1.0
 (Enter /sw/contrib/gaussian/g16/B01/g16/l716.exe)
 Dipole        =-4.37350634D-01-6.01886628D-02-9.99498138D-33
 ***** Axes restored to original set *****
 -------------------------------------------------------------------
 Center     Atomic                   Forces (Hartrees/Bohr)
 Number     Number              X              Y              Z
 -------------------------------------------------------------------
      1        8          -1.524516760    0.000000000    0.352749770
      2       17          -0.001036339   -0.000000000   -0.011979070
      3        1           1.525553100   -0.000000000   -0.340770700
 -------------------------------------------------------------------
 Cartesian Forces:  Max     1.525553100 RMS     0.737274655
 -----------------------------------------------------------------------------------------------
                       Internal Coordinate Forces (Hartree/Bohr or radian)
  Cent   Atom   N1       Length/X         N2         Alpha/Y        N3         Beta/Z          J
 -----------------------------------------------------------------------------------------------
      1  O 
      2  Cl       1  -0.011979(     1)
      3  H        1   1.563147(     2)      2   0.003324(     3)
 -----------------------------------------------------------------------------------------------
 Internal  Forces:  Max     1.563146934 RMS     0.902511843
 Force constants in Cartesian coordinates: 
                1             2             3             4             5 
      1  0.349914D+01
      2  0.000000D+00  0.100000D+01
      3 -0.696560D+00  0.000000D+00  0.650729D+00
      4 -0.250705D-01  0.000000D+00 -0.429632D-01  0.155581D-01
      5  0.000000D+00  0.000000D+00  0.000000D+00  0.000000D+00  0.100000D+01
      6  0.000000D+00  0.000000D+00 -0.362536D+00  0.000000D+00  0.000000D+00
      7 -0.347407D+01  0.000000D+00  0.739523D+00  0.951236D-02  0.000000D+00
      8  0.000000D+00  0.000000D+00  0.000000D+00  0.000000D+00  0.000000D+00
      9  0.696560D+00  0.000000D+00 -0.288193D+00  0.429632D-01  0.000000D+00
                6             7             8             9 
      6  0.362536D+00
      7  0.000000D+00  0.346456D+01
      8  0.000000D+00  0.000000D+00  0.100000D+01
      9  0.000000D+00 -0.739523D+00  0.000000D+00  0.288193D+00
 Force constants in internal coordinates: 
                1             2             3 
      1  0.362536D+00
      2  0.000000D+00  0.362830D+01
      3  0.000000D+00  0.000000D+00  0.160000D+00
 Leave Link  716 at Tue Nov 16 15:48:57 2021, MaxMem= 16106127360 cpu:               1.7 elap:               0.1
 (Enter /sw/contrib/gaussian/g16/B01/g16/l103.exe)

 GradGradGradGradGradGradGradGradGradGradGradGradGradGradGradGradGradGrad
 Berny optimization.
 Search for a local minimum.
 Step number   1 out of a maximum of   20 on scan point     1 out of    29
 All quantities printed in internal units (Hartrees-Bohrs-Radians)
 Second derivative matrix not updated -- first step.
 The second derivative matrix:
                         rOCl       rOH      aHOCl
           rOCl         0.36254
           rOH          0.00000   3.62830
           aHOCl       -0.00000   0.00000   0.16000
 ITU=  0
     Eigenvalues --- 1000.000001000.000001000.00000
 RFO step:  Lambda= 0.00000000D+00 EMin= 1.00000000D+03
 Linear search not attempted -- first point.
 Variable       Old X    -DE/DX   Delta X   Delta X   Delta X     New X
                                 (Linear)    (Quad)   (Total)
   rOCl       3.20687  -0.01198   0.00000   0.00000   0.00000   3.20687
   rOH        1.13384   1.56315   0.00000   0.00000   0.00000   1.13384
  aHOCl       1.78869   0.00332   0.00000   0.00000   0.00000   1.78869
         Item               Value     Threshold  Converged?
 Maximum Force            0.000000     0.000450     YES
 RMS     Force            0.000000     0.000300     YES
 Maximum Displacement     0.000000     0.001800     YES
 RMS     Displacement     0.000000     0.001200     YES
 Predicted change in Energy=-0.000000D+00
 Optimization completed.
    -- Stationary point found.
                       ----------------------------
                       !   Optimized Parameters   !
                       ! (Angstroms and Degrees)  !
 ----------------------                            ----------------------
 !      Name          Value   Derivative information (Atomic Units)     !
 ------------------------------------------------------------------------
 !      rOCl         1.697    -DE/DX =   -0.012                         !
 !       rOH         0.6      -DE/DX =    1.5631                        !
 !      aHOCl      102.4843   -DE/DX =    0.0033                        !
 ------------------------------------------------------------------------
 Lowest energy point so far.  Saving SCF results.
 GradGradGradGradGradGradGradGradGradGradGradGradGradGradGradGradGradGrad

 Leave Link  103 at Tue Nov 16 15:48:57 2021, MaxMem= 16106127360 cpu:               2.2 elap:               0.1
 (Enter /sw/contrib/gaussian/g16/B01/g16/l202.exe)
 ---------------------------------------------------------------------------------------------------
                            Z-MATRIX (ANGSTROMS AND DEGREES)
   CD    Cent   Atom    N1       Length/X        N2       Alpha/Y        N3        Beta/Z          J
 ---------------------------------------------------------------------------------------------------
      1      1  O 
      2      2  Cl       1   1.697002(     1)
      3      3  H        1   0.650000(     2)      2  102.484(     3)
 ---------------------------------------------------------------------------------------------------
                         Z-Matrix orientation:                         
 ---------------------------------------------------------------------
 Center     Atomic      Atomic             Coordinates (Angstroms)
 Number     Number       Type             X           Y           Z
 ---------------------------------------------------------------------
      1          8           0        0.000000    0.000000    0.000000
      2         17           0        0.000000    0.000000    1.697002
      3          1           0        0.634631    0.000000   -0.140512
 ---------------------------------------------------------------------
                    Distance matrix (angstroms):
                    1          2          3
     1  O    0.000000
     2  Cl   1.697002   0.000000
     3  H    0.650000   1.944020   0.000000
 Stoichiometry    ClHO
 Framework group  CS[SG(ClHO)]
 Deg. of freedom     3
 Full point group                 CS      NOp   2
 RotChk:  IX=0 Diff= 2.22D-16
 Largest Abelian subgroup         CS      NOp   2
 Largest concise Abelian subgroup C1      NOp   1
                         Standard orientation:                         
 ---------------------------------------------------------------------
 Center     Atomic      Atomic             Coordinates (Angstroms)
 Number     Number       Type             X           Y           Z
 ---------------------------------------------------------------------
      1          8           0        0.024409    1.104174   -0.000000
      2         17           0        0.024409   -0.592828   -0.000000
      3          1           0       -0.610222    1.244685    0.000000
 ---------------------------------------------------------------------
 Rotational constants (GHZ):        1338.1007845          15.1724669          15.0023581
 Leave Link  202 at Tue Nov 16 15:48:57 2021, MaxMem= 16106127360 cpu:               1.9 elap:               0.1
 (Enter /sw/contrib/gaussian/g16/B01/g16/l301.exe)
 Standard basis: Aug-CC-pVTZ (5D, 7F)
 Ernie: Thresh=  0.10000D-02 Tol=  0.10000D-05 Strict=F.
 Ernie:  16 primitive shells out of 105 were deleted.
 There are    95 symmetry adapted cartesian basis functions of A'  symmetry.
 There are    44 symmetry adapted cartesian basis functions of A"  symmetry.
 There are    79 symmetry adapted basis functions of A'  symmetry.
 There are    40 symmetry adapted basis functions of A"  symmetry.
   119 basis functions,   213 primitive gaussians,   139 cartesian basis functions
    13 alpha electrons       13 beta electrons
       nuclear repulsion energy        53.5494601452 Hartrees.
 IExCor=    0 DFT=F Ex=HF Corr=None ExCW=0 ScaHFX=  1.000000
 ScaDFX=  1.000000  1.000000  1.000000  1.000000 ScalE2=  1.000000  1.000000
 IRadAn=      5 IRanWt=     -1 IRanGd=            0 ICorTp=0 IEmpDi=  4
 NAtoms=    3 NActive=    3 NUniq=    3 SFac= 1.00D+00 NAtFMM=   60 NAOKFM=F Big=F
 Integral buffers will be    131072 words long.
 Raffenetti 1 integral format.
 Two-electron integral symmetry is turned on.
 Leave Link  301 at Tue Nov 16 15:48:57 2021, MaxMem= 16106127360 cpu:               2.0 elap:               0.1
 (Enter /sw/contrib/gaussian/g16/B01/g16/l302.exe)
 NPDir=0 NMtPBC=     1 NCelOv=     1 NCel=       1 NClECP=     1 NCelD=      1
         NCelK=      1 NCelE2=     1 NClLst=     1 CellRange=     0.0.
 One-electron integrals computed using PRISM.
 One-electron integral symmetry used in STVInt
 NBasis=   119 RedAO= T EigKep=  1.62D-04  NBF=    79    40
 NBsUse=   119 1.00D-06 EigRej= -1.00D+00 NBFU=    79    40
 Leave Link  302 at Tue Nov 16 15:48:57 2021, MaxMem= 16106127360 cpu:               4.0 elap:               0.2
 (Enter /sw/contrib/gaussian/g16/B01/g16/l303.exe)
 DipDrv:  MaxL=1.
 Leave Link  303 at Tue Nov 16 15:48:58 2021, MaxMem= 16106127360 cpu:               0.7 elap:               0.0
 (Enter /sw/contrib/gaussian/g16/B01/g16/l401.exe)
 Initial guess from the checkpoint file:  "/gscratch/ilahie/mccoygrp/coire_hocl/rOH_s_oop_0/hocl/hocl_rOH_s.chk"
 B after Tr=     0.000000   -0.000000   -0.000000
         Rot=    0.999999   -0.000000   -0.000000   -0.001537 Ang=  -0.18 deg.
 Guess basis will be translated and rotated to current coordinates.
 JPrj=2 DoOrth=T DoCkMO=T.
 Initial guess orbital symmetries:
       Occupied  (A') (A') (A') (A') (A') (A") (A') (A') (A') (A")
                 (A') (A') (A")
       Virtual   (A') (A') (A') (A") (A') (A') (A') (A") (A') (A')
                 (A") (A') (A') (A') (A") (A") (A') (A') (A') (A")
                 (A') (A') (A') (A") (A') (A") (A') (A') (A") (A')
                 (A") (A') (A") (A') (A') (A") (A') (A") (A') (A')
                 (A") (A') (A') (A') (A") (A') (A") (A') (A") (A')
                 (A') (A') (A") (A') (A') (A") (A') (A') (A") (A')
                 (A") (A') (A') (A") (A") (A") (A') (A') (A") (A')
                 (A') (A") (A') (A') (A") (A') (A') (A") (A') (A')
                 (A') (A") (A') (A") (A") (A') (A') (A') (A") (A')
                 (A') (A') (A") (A') (A') (A") (A") (A') (A') (A")
                 (A') (A') (A") (A') (A') (A')
 The electronic state of the initial guess is 1-A'.
 Generating alternative initial guess.
 ExpMin= 2.53D-02 ExpMax= 4.56D+05 ExpMxC= 1.44D+03 IAcc=3 IRadAn=         5 AccDes= 0.00D+00
 Harris functional with IExCor=  205 and IRadAn=       5 diagonalized for initial guess.
 HarFok:  IExCor=  205 AccDes= 0.00D+00 IRadAn=         5 IDoV= 1 UseB2=F ITyADJ=14
 ICtDFT=  3500011 ScaDFX=  1.000000  1.000000  1.000000  1.000000
 FoFCou: FMM=F IPFlag=           0 FMFlag=      100000 FMFlg1=           0
         NFxFlg=           0 DoJE=T BraDBF=F KetDBF=T FulRan=T
         wScrn=  0.000000 ICntrl=       500 IOpCl=  0 I1Cent=   200000004 NGrid=           0
         NMat0=    1 NMatS0=      1 NMatT0=    0 NMatD0=    1 NMtDS0=    0 NMtDT0=    0
 Petite list used in FoFCou.
 Harris En= -534.359323575525    
 Leave Link  401 at Tue Nov 16 15:48:58 2021, MaxMem= 16106127360 cpu:               7.3 elap:               0.3
 (Enter /sw/contrib/gaussian/g16/B01/g16/l502.exe)
 Keep R1 ints in memory in symmetry-blocked form, NReq=39275744.
 FoFCou: FMM=F IPFlag=           0 FMFlag=           0 FMFlg1=           0
         NFxFlg=           0 DoJE=F BraDBF=F KetDBF=F FulRan=T
         wScrn=  0.000000 ICntrl=       600 IOpCl=  0 I1Cent=           0 NGrid=           0
         NMat0=    1 NMatS0=   7140 NMatT0=    0 NMatD0=    1 NMtDS0=    0 NMtDT0=    0
 Petite list used in FoFCou.
 Closed shell SCF:
 Using DIIS extrapolation, IDIIS=  1040.
 NGot= 16106127360 LenX= 16093150889 LenY= 16093131127
 Requested convergence on RMS density matrix=1.00D-08 within 128 cycles.
 Requested convergence on MAX density matrix=1.00D-06.
 Requested convergence on             energy=1.00D-06.
 No special actions if energy rises.

 Cycle   1  Pass 1  IDiag  1:
 E= -534.716136997244    
 DIIS: error= 8.79D-03 at cycle   1 NSaved=   1.
 NSaved= 1 IEnMin= 1 EnMin= -534.716136997244     IErMin= 1 ErrMin= 8.79D-03
 ErrMax= 8.79D-03  0.00D+00 EMaxC= 1.00D-01 BMatC= 7.20D-03 BMatP= 7.20D-03
 IDIUse=3 WtCom= 9.12D-01 WtEn= 8.79D-02
 Coeff-Com:  0.100D+01
 Coeff-En:   0.100D+01
 Coeff:      0.100D+01
 Gap=     0.505 Goal=   None    Shift=    0.000
 GapD=    0.505 DampG=2.000 DampE=1.000 DampFc=2.0000 IDamp=-1.
 RMSDP=8.05D-04 MaxDP=3.06D-02              OVMax= 1.24D-02

 Cycle   2  Pass 1  IDiag  1:
 E= -534.719071862586     Delta-E=       -0.002934865342 Rises=F Damp=F
 DIIS: error= 1.28D-03 at cycle   2 NSaved=   2.
 NSaved= 2 IEnMin= 2 EnMin= -534.719071862586     IErMin= 2 ErrMin= 1.28D-03
 ErrMax= 1.28D-03  0.00D+00 EMaxC= 1.00D-01 BMatC= 2.47D-04 BMatP= 7.20D-03
 IDIUse=3 WtCom= 9.87D-01 WtEn= 1.28D-02
 Coeff-Com:  0.179D-01 0.982D+00
 Coeff-En:   0.000D+00 0.100D+01
 Coeff:      0.177D-01 0.982D+00
 Gap=     0.490 Goal=   None    Shift=    0.000
 RMSDP=7.91D-05 MaxDP=2.06D-03 DE=-2.93D-03 OVMax= 5.43D-03

 Cycle   3  Pass 1  IDiag  1:
 E= -534.719187905727     Delta-E=       -0.000116043141 Rises=F Damp=F
 DIIS: error= 6.63D-04 at cycle   3 NSaved=   3.
 NSaved= 3 IEnMin= 3 EnMin= -534.719187905727     IErMin= 3 ErrMin= 6.63D-04
 ErrMax= 6.63D-04  0.00D+00 EMaxC= 1.00D-01 BMatC= 6.71D-05 BMatP= 2.47D-04
 IDIUse=3 WtCom= 9.93D-01 WtEn= 6.63D-03
 Coeff-Com: -0.274D-01 0.308D+00 0.719D+00
 Coeff-En:   0.000D+00 0.000D+00 0.100D+01
 Coeff:     -0.272D-01 0.306D+00 0.721D+00
 Gap=     0.490 Goal=   None    Shift=    0.000
 RMSDP=3.75D-05 MaxDP=1.01D-03 DE=-1.16D-04 OVMax= 2.13D-03

 Cycle   4  Pass 1  IDiag  1:
 E= -534.719229475858     Delta-E=       -0.000041570130 Rises=F Damp=F
 DIIS: error= 1.09D-04 at cycle   4 NSaved=   4.
 NSaved= 4 IEnMin= 4 EnMin= -534.719229475858     IErMin= 4 ErrMin= 1.09D-04
 ErrMax= 1.09D-04  0.00D+00 EMaxC= 1.00D-01 BMatC= 1.77D-06 BMatP= 6.71D-05
 IDIUse=3 WtCom= 9.99D-01 WtEn= 1.09D-03
 Coeff-Com: -0.281D-02-0.345D-01 0.752D-01 0.962D+00
 Coeff-En:   0.000D+00 0.000D+00 0.000D+00 0.100D+01
 Coeff:     -0.281D-02-0.344D-01 0.752D-01 0.962D+00
 Gap=     0.490 Goal=   None    Shift=    0.000
 RMSDP=7.31D-06 MaxDP=2.35D-04 DE=-4.16D-05 OVMax= 5.18D-04

 Cycle   5  Pass 1  IDiag  1:
 E= -534.719231303550     Delta-E=       -0.000001827692 Rises=F Damp=F
 DIIS: error= 3.11D-05 at cycle   5 NSaved=   5.
 NSaved= 5 IEnMin= 5 EnMin= -534.719231303550     IErMin= 5 ErrMin= 3.11D-05
 ErrMax= 3.11D-05  0.00D+00 EMaxC= 1.00D-01 BMatC= 8.89D-08 BMatP= 1.77D-06
 IDIUse=1 WtCom= 1.00D+00 WtEn= 0.00D+00
 Coeff-Com:  0.159D-02-0.151D-01-0.479D-01-0.306D-01 0.109D+01
 Coeff:      0.159D-02-0.151D-01-0.479D-01-0.306D-01 0.109D+01
 Gap=     0.490 Goal=   None    Shift=    0.000
 RMSDP=2.59D-06 MaxDP=6.48D-05 DE=-1.83D-06 OVMax= 1.69D-04

 Cycle   6  Pass 1  IDiag  1:
 E= -534.719231434760     Delta-E=       -0.000000131210 Rises=F Damp=F
 DIIS: error= 6.67D-06 at cycle   6 NSaved=   6.
 NSaved= 6 IEnMin= 6 EnMin= -534.719231434760     IErMin= 6 ErrMin= 6.67D-06
 ErrMax= 6.67D-06  0.00D+00 EMaxC= 1.00D-01 BMatC= 4.06D-09 BMatP= 8.89D-08
 IDIUse=1 WtCom= 1.00D+00 WtEn= 0.00D+00
 Coeff-Com:  0.124D-04 0.219D-02-0.166D-02-0.321D-01-0.101D+00 0.113D+01
 Coeff:      0.124D-04 0.219D-02-0.166D-02-0.321D-01-0.101D+00 0.113D+01
 Gap=     0.490 Goal=   None    Shift=    0.000
 RMSDP=8.28D-07 MaxDP=1.87D-05 DE=-1.31D-07 OVMax= 5.22D-05

 Cycle   7  Pass 1  IDiag  1:
 E= -534.719231444962     Delta-E=       -0.000000010202 Rises=F Damp=F
 DIIS: error= 2.09D-06 at cycle   7 NSaved=   7.
 NSaved= 7 IEnMin= 7 EnMin= -534.719231444962     IErMin= 7 ErrMin= 2.09D-06
 ErrMax= 2.09D-06  0.00D+00 EMaxC= 1.00D-01 BMatC= 4.56D-10 BMatP= 4.06D-09
 IDIUse=1 WtCom= 1.00D+00 WtEn= 0.00D+00
 Coeff-Com: -0.140D-03 0.104D-02 0.408D-02 0.907D-02-0.931D-01-0.113D+00
 Coeff-Com:  0.119D+01
 Coeff:     -0.140D-03 0.104D-02 0.408D-02 0.907D-02-0.931D-01-0.113D+00
 Coeff:      0.119D+01
 Gap=     0.490 Goal=   None    Shift=    0.000
 RMSDP=2.80D-07 MaxDP=7.05D-06 DE=-1.02D-08 OVMax= 1.73D-05

 Cycle   8  Pass 1  IDiag  1:
 E= -534.719231446222     Delta-E=       -0.000000001261 Rises=F Damp=F
 DIIS: error= 6.26D-07 at cycle   8 NSaved=   8.
 NSaved= 8 IEnMin= 8 EnMin= -534.719231446222     IErMin= 8 ErrMin= 6.26D-07
 ErrMax= 6.26D-07  0.00D+00 EMaxC= 1.00D-01 BMatC= 3.66D-11 BMatP= 4.56D-10
 IDIUse=1 WtCom= 1.00D+00 WtEn= 0.00D+00
 Coeff-Com:  0.142D-04-0.285D-03-0.378D-03 0.168D-02 0.178D-01-0.567D-01
 Coeff-Com: -0.206D+00 0.124D+01
 Coeff:      0.142D-04-0.285D-03-0.378D-03 0.168D-02 0.178D-01-0.567D-01
 Coeff:     -0.206D+00 0.124D+01
 Gap=     0.490 Goal=   None    Shift=    0.000
 RMSDP=8.96D-08 MaxDP=1.58D-06 DE=-1.26D-09 OVMax= 6.11D-06

 Cycle   9  Pass 1  IDiag  1:
 E= -534.719231446344     Delta-E=       -0.000000000122 Rises=F Damp=F
 DIIS: error= 1.80D-07 at cycle   9 NSaved=   9.
 NSaved= 9 IEnMin= 9 EnMin= -534.719231446344     IErMin= 9 ErrMin= 1.80D-07
 ErrMax= 1.80D-07  0.00D+00 EMaxC= 1.00D-01 BMatC= 3.59D-12 BMatP= 3.66D-11
 IDIUse=1 WtCom= 1.00D+00 WtEn= 0.00D+00
 Coeff-Com:  0.100D-04-0.675D-04-0.292D-03-0.783D-03 0.557D-02 0.188D-01
 Coeff-Com: -0.996D-01-0.104D+00 0.118D+01
 Coeff:      0.100D-04-0.675D-04-0.292D-03-0.783D-03 0.557D-02 0.188D-01
 Coeff:     -0.996D-01-0.104D+00 0.118D+01
 Gap=     0.490 Goal=   None    Shift=    0.000
 RMSDP=3.29D-08 MaxDP=8.35D-07 DE=-1.22D-10 OVMax= 2.85D-06

 Cycle  10  Pass 1  IDiag  1:
 E= -534.719231446359     Delta-E=       -0.000000000015 Rises=F Damp=F
 DIIS: error= 7.59D-08 at cycle  10 NSaved=  10.
 NSaved=10 IEnMin=10 EnMin= -534.719231446359     IErMin=10 ErrMin= 7.59D-08
 ErrMax= 7.59D-08  0.00D+00 EMaxC= 1.00D-01 BMatC= 4.98D-13 BMatP= 3.59D-12
 IDIUse=1 WtCom= 1.00D+00 WtEn= 0.00D+00
 Coeff-Com: -0.657D-05 0.572D-04 0.200D-03 0.320D-03-0.538D-02 0.832D-03
 Coeff-Com:  0.637D-01-0.102D+00-0.455D+00 0.150D+01
 Coeff:     -0.657D-05 0.572D-04 0.200D-03 0.320D-03-0.538D-02 0.832D-03
 Coeff:      0.637D-01-0.102D+00-0.455D+00 0.150D+01
 Gap=     0.490 Goal=   None    Shift=    0.000
 RMSDP=1.63D-08 MaxDP=4.68D-07 DE=-1.51D-11 OVMax= 1.62D-06

 Cycle  11  Pass 1  IDiag  1:
 E= -534.719231446363     Delta-E=       -0.000000000004 Rises=F Damp=F
 DIIS: error= 2.72D-08 at cycle  11 NSaved=  11.
 NSaved=11 IEnMin=11 EnMin= -534.719231446363     IErMin=11 ErrMin= 2.72D-08
 ErrMax= 2.72D-08  0.00D+00 EMaxC= 1.00D-01 BMatC= 4.37D-14 BMatP= 4.98D-13
 IDIUse=1 WtCom= 1.00D+00 WtEn= 0.00D+00
 Coeff-Com:  0.886D-06-0.110D-04-0.239D-04-0.243D-04 0.920D-03-0.102D-02
 Coeff-Com: -0.123D-01 0.380D-01 0.499D-01-0.509D+00 0.143D+01
 Coeff:      0.886D-06-0.110D-04-0.239D-04-0.243D-04 0.920D-03-0.102D-02
 Coeff:     -0.123D-01 0.380D-01 0.499D-01-0.509D+00 0.143D+01
 Gap=     0.490 Goal=   None    Shift=    0.000
 RMSDP=5.41D-09 MaxDP=1.54D-07 DE=-3.64D-12 OVMax= 5.65D-07

 SCF Done:  E(RHF) =  -534.719231446     A.U. after   11 cycles
            NFock= 11  Conv=0.54D-08     -V/T= 1.9979
 KE= 5.358448731190D+02 PE=-1.380341799841D+03 EE= 2.562282351310D+02
 Leave Link  502 at Tue Nov 16 15:48:59 2021, MaxMem= 16106127360 cpu:              33.2 elap:               1.3
 (Enter /sw/contrib/gaussian/g16/B01/g16/l801.exe)
 ExpMin= 2.53D-02 ExpMax= 4.56D+05 ExpMxC= 1.44D+03 IAcc=3 IRadAn=         5 AccDes= 0.00D+00
 HarFok:  IExCor=  205 AccDes= 0.00D+00 IRadAn=         5 IDoV=-2 UseB2=F ITyADJ=14
 ICtDFT= 12500011 ScaDFX=  1.000000  1.000000  1.000000  1.000000
 Largest valence mixing into a core orbital is  4.10D-04
 Largest core mixing into a valence orbital is  1.43D-04
 Range of M.O.s used for correlation:     7   119
 NBasis=   119 NAE=    13 NBE=    13 NFC=     6 NFV=     0
 NROrb=    113 NOA=     7 NOB=     7 NVA=   106 NVB=   106

 **** Warning!!: The largest alpha MO coefficient is  0.19615631D+02

 Leave Link  801 at Tue Nov 16 15:48:59 2021, MaxMem= 16106127360 cpu:               1.9 elap:               0.1
 (Enter /sw/contrib/gaussian/g16/B01/g16/l906.exe)
 Frozen-core derivative calculation, NFC=   6 NFV=   0.
 FulOut=F Deriv=T AODrv=T NAtomX=     3
   MMem=         410  MDisk=           7 MDiskD=           7
  W3Min=      215033 MinDsk=      467278 NBas6D=         139
 NBas2D=       10066    NTT=        9730    LW2=     3500000
    MDV= 16105909767 MDiskM=      579277 NBas2p=       10066
 Fully direct method using O(ONN) memory.
 IMap=   1   2   3   4   5   6   7   8   9  10  11  12  13
 JobTyp=1 Pass  1:  I=   7 to  13 NPSUse= 28 ParTrn=T ParDer=T DoDerP=T.
 Spin components of T(2) and E(2):
     alpha-alpha T2 =       0.1578209802D-01 E2=     -0.5360492059D-01
     alpha-beta  T2 =       0.9148716711D-01 E2=     -0.3286586810D+00
     beta-beta   T2 =       0.1578209802D-01 E2=     -0.5360492059D-01
 The integrals were generated   1 times.
 ANorm=    0.1059741177D+01
 E2 =    -0.4358685222D+00 EUMP2 =    -0.53515509996857D+03
 Leave Link  906 at Tue Nov 16 15:49:02 2021, MaxMem= 16106127360 cpu:              74.9 elap:               2.7
 (Enter /sw/contrib/gaussian/g16/B01/g16/l1002.exe)
 Minotr:  Closed shell wavefunction.
          Computing MP2/KS-MP2 derivatives.
          Using Z-Vector for PSCF gradient.
          Skipping F1 and S1 gradient terms here.
          IDoAtm=111
          Frozen-core window.
          Direct CPHF calculation.
          Differentiating once with respect to electric field.
                with respect to dipole field.
          Differentiating once with respect to nuclear coordinates.
          Using symmetry in CPHF.
          Requested convergence is 1.0D-10 RMS, and 1.0D-09 maximum.
          NewPWx=F KeepS1=T KeepF1=T KeepIn=T MapXYZ=F SortEE=F KeepMc=T.
 Keep R1 ints in memory in symmetry-blocked form, NReq=39276818.
 FoFCou: FMM=F IPFlag=           0 FMFlag=           0 FMFlg1=           0
         NFxFlg=           0 DoJE=F BraDBF=F KetDBF=F FulRan=T
         wScrn=  0.000000 ICntrl=       600 IOpCl=  0 I1Cent=           0 NGrid=           0
         NMat0=    1 NMatS0=   7140 NMatT0=    0 NMatD0=    1 NMtDS0=    0 NMtDT0=    0
 Petite list used in FoFCou.
          MDV=   16106127360 using IRadAn=       5.
          Solving linear equations separately, MaxMat=       0.
          There are     1 degrees of freedom in the 1st order CPHF.  IDoFFX=0 NUNeed=     1.
 LinEq1:  Iter=  0 NonCon=     1 RMS=3.53D-03 Max=4.54D-02 NDo=     1
 AX will form     1 AO Fock derivatives at one time.
 LinEq1:  Iter=  1 NonCon=     1 RMS=4.76D-04 Max=5.25D-03 NDo=     1
 LinEq1:  Iter=  2 NonCon=     1 RMS=1.43D-04 Max=2.03D-03 NDo=     1
 LinEq1:  Iter=  3 NonCon=     1 RMS=3.01D-05 Max=3.38D-04 NDo=     1
 LinEq1:  Iter=  4 NonCon=     1 RMS=1.32D-05 Max=1.31D-04 NDo=     1
 LinEq1:  Iter=  5 NonCon=     1 RMS=5.15D-06 Max=7.48D-05 NDo=     1
 LinEq1:  Iter=  6 NonCon=     1 RMS=1.32D-06 Max=1.56D-05 NDo=     1
 LinEq1:  Iter=  7 NonCon=     1 RMS=3.17D-07 Max=4.83D-06 NDo=     1
 LinEq1:  Iter=  8 NonCon=     1 RMS=6.26D-08 Max=6.43D-07 NDo=     1
 LinEq1:  Iter=  9 NonCon=     1 RMS=1.27D-08 Max=1.06D-07 NDo=     1
 LinEq1:  Iter= 10 NonCon=     1 RMS=2.89D-09 Max=2.66D-08 NDo=     1
 LinEq1:  Iter= 11 NonCon=     1 RMS=6.42D-10 Max=6.20D-09 NDo=     1
 LinEq1:  Iter= 12 NonCon=     1 RMS=1.31D-10 Max=9.50D-10 NDo=     1
 LinEq1:  Iter= 13 NonCon=     0 RMS=2.06D-11 Max=2.02D-10 NDo=     1
 Linear equations converged to 1.000D-10 1.000D-09 after    13 iterations.
 End of Minotr F.D. properties file   721 does not exist.
 End of Minotr F.D. properties file   722 does not exist.
 End of Minotr F.D. properties file   788 does not exist.
 Leave Link 1002 at Tue Nov 16 15:49:03 2021, MaxMem= 16106127360 cpu:              20.6 elap:               0.9
 (Enter /sw/contrib/gaussian/g16/B01/g16/l701.exe)
 ... and contract with generalized density number  2.
 Compute integral first derivatives.
 Leave Link  701 at Tue Nov 16 15:49:03 2021, MaxMem= 16106127360 cpu:               4.1 elap:               0.2
 (Enter /sw/contrib/gaussian/g16/B01/g16/l702.exe)
 L702 exits ... SP integral derivatives will be done elsewhere.
 Leave Link  702 at Tue Nov 16 15:49:03 2021, MaxMem= 16106127360 cpu:               0.6 elap:               0.0
 (Enter /sw/contrib/gaussian/g16/B01/g16/l703.exe)
 Integral derivatives from FoFJK, PRISM(SPDF).
 Compute integral first derivatives, UseDBF=F ICtDFT=           0.
 Calling FoFJK, ICntrl=  10002127 FMM=F ISym2X=1 I1Cent= 0 IOpClX= 0 NMat=1 NMatS=1 NMatT=0.
 FoFJK:  IHMeth= 1 ICntrl=10002127 DoSepK=F KAlg= 0 I1Cent=           0 FoldK=F
 IRaf=         0 NMat=       1 IRICut=       1 DoRegI=T DoRafI=F ISym2E= 1 IDoP0=0 IntGTp=1.
 FoFCou: FMM=F IPFlag=           0 FMFlag=      100000 FMFlg1=         800
         NFxFlg=           0 DoJE=F BraDBF=F KetDBF=F FulRan=T
         wScrn=  0.000000 ICntrl=  10002127 IOpCl=  0 I1Cent=           0 NGrid=           0
         NMat0=    1 NMatS0=      1 NMatT0=    0 NMatD0=    1 NMtDS0=    0 NMtDT0=    0
 Petite list used in FoFCou.
 Leave Link  703 at Tue Nov 16 15:49:04 2021, MaxMem= 16106127360 cpu:              21.5 elap:               0.8
 (Enter /sw/contrib/gaussian/g16/B01/g16/l716.exe)
 Dipole        =-4.55978378D-01-3.51933919D-02 4.01500302D-34
 ***** Axes restored to original set *****
 -------------------------------------------------------------------
 Center     Atomic                   Forces (Hartrees/Bohr)
 Number     Number              X              Y              Z
 -------------------------------------------------------------------
      1        8          -1.046091244    0.000000000    0.244354223
      2       17          -0.001026805   -0.000000000   -0.009769043
      3        1           1.047118049   -0.000000000   -0.234585180
 -------------------------------------------------------------------
 Cartesian Forces:  Max     1.047118049 RMS     0.506139943
 -----------------------------------------------------------------------------------------------
                       Internal Coordinate Forces (Hartree/Bohr or radian)
  Cent   Atom   N1       Length/X         N2         Alpha/Y        N3         Beta/Z          J
 -----------------------------------------------------------------------------------------------
      1  O 
      2  Cl       1  -0.009769(     1)
      3  H        1   1.073070(     2)      2   0.003293(     3)
 -----------------------------------------------------------------------------------------------
 Internal  Forces:  Max     1.073070002 RMS     0.619565844
 Leave Link  716 at Tue Nov 16 15:49:04 2021, MaxMem= 16106127360 cpu:               0.9 elap:               0.1
 (Enter /sw/contrib/gaussian/g16/B01/g16/l103.exe)

 GradGradGradGradGradGradGradGradGradGradGradGradGradGradGradGradGradGrad
 Berny optimization.
 Search for a local minimum.
 Step number   1 out of a maximum of   20 on scan point     2 out of    29
 All quantities printed in internal units (Hartrees-Bohrs-Radians)
 Second derivative matrix not updated -- first step.
 The second derivative matrix:
                         rOCl       rOH      aHOCl
           rOCl         0.36254
           rOH          0.00000   3.62830
           aHOCl       -0.00000   0.00000   0.16000
 ITU=  0
     Eigenvalues --- 1000.000001000.000001000.00000
 RFO step:  Lambda= 0.00000000D+00 EMin= 1.00000000D+03
 Linear search not attempted -- first point.
 Variable       Old X    -DE/DX   Delta X   Delta X   Delta X     New X
                                 (Linear)    (Quad)   (Total)
   rOCl       3.20687  -0.00977   0.00000   0.00000   0.00000   3.20687
   rOH        1.22832   1.07307   0.00000   0.00000   0.00000   1.22832
  aHOCl       1.78869   0.00329   0.00000   0.00000   0.00000   1.78869
         Item               Value     Threshold  Converged?
 Maximum Force            0.000000     0.000450     YES
 RMS     Force            0.000000     0.000300     YES
 Maximum Displacement     0.000000     0.001800     YES
 RMS     Displacement     0.000000     0.001200     YES
 Predicted change in Energy=-0.000000D+00
 Optimization completed.
    -- Stationary point found.
                       ----------------------------
                       !   Optimized Parameters   !
                       ! (Angstroms and Degrees)  !
 ----------------------                            ----------------------
 !      Name          Value   Derivative information (Atomic Units)     !
 ------------------------------------------------------------------------
 !      rOCl         1.697    -DE/DX =   -0.0098                        !
 !       rOH         0.65     -DE/DX =    1.0731                        !
 !      aHOCl      102.4843   -DE/DX =    0.0033                        !
 ------------------------------------------------------------------------
 Lowest energy point so far.  Saving SCF results.
 GradGradGradGradGradGradGradGradGradGradGradGradGradGradGradGradGradGrad

 Leave Link  103 at Tue Nov 16 15:49:04 2021, MaxMem= 16106127360 cpu:               0.5 elap:               0.0
 (Enter /sw/contrib/gaussian/g16/B01/g16/l202.exe)
 ---------------------------------------------------------------------------------------------------
                            Z-MATRIX (ANGSTROMS AND DEGREES)
   CD    Cent   Atom    N1       Length/X        N2       Alpha/Y        N3        Beta/Z          J
 ---------------------------------------------------------------------------------------------------
      1      1  O 
      2      2  Cl       1   1.697002(     1)
      3      3  H        1   0.700000(     2)      2  102.484(     3)
 ---------------------------------------------------------------------------------------------------
                         Z-Matrix orientation:                         
 ---------------------------------------------------------------------
 Center     Atomic      Atomic             Coordinates (Angstroms)
 Number     Number       Type             X           Y           Z
 ---------------------------------------------------------------------
      1          8           0        0.000000    0.000000    0.000000
      2         17           0        0.000000    0.000000    1.697002
      3          1           0        0.683449    0.000000   -0.151320
 ---------------------------------------------------------------------
                    Distance matrix (angstroms):
                    1          2          3
     1  O    0.000000
     2  Cl   1.697002   0.000000
     3  H    0.700000   1.970633   0.000000
 Stoichiometry    ClHO
 Framework group  CS[SG(ClHO)]
 Deg. of freedom     3
 Full point group                 CS      NOp   2
 RotChk:  IX=0 Diff= 1.43D-17
 Largest Abelian subgroup         CS      NOp   2
 Largest concise Abelian subgroup C1      NOp   1
                         Standard orientation:                         
 ---------------------------------------------------------------------
 Center     Atomic      Atomic             Coordinates (Angstroms)
 Number     Number       Type             X           Y           Z
 ---------------------------------------------------------------------
      1          8           0        0.026286    1.103758   -0.000000
      2         17           0        0.026286   -0.593244    0.000000
      3          1           0       -0.657162    1.255078   -0.000000
 ---------------------------------------------------------------------
 Rotational constants (GHZ):        1154.8672638          15.1580588          14.9616812
 Leave Link  202 at Tue Nov 16 15:49:04 2021, MaxMem= 16106127360 cpu:               0.5 elap:               0.0
 (Enter /sw/contrib/gaussian/g16/B01/g16/l301.exe)
 Standard basis: Aug-CC-pVTZ (5D, 7F)
 Ernie: Thresh=  0.10000D-02 Tol=  0.10000D-05 Strict=F.
 Ernie:  16 primitive shells out of 105 were deleted.
 There are    95 symmetry adapted cartesian basis functions of A'  symmetry.
 There are    44 symmetry adapted cartesian basis functions of A"  symmetry.
 There are    79 symmetry adapted basis functions of A'  symmetry.
 There are    40 symmetry adapted basis functions of A"  symmetry.
   119 basis functions,   213 primitive gaussians,   139 cartesian basis functions
    13 alpha electrons       13 beta electrons
       nuclear repulsion energy        53.0217532771 Hartrees.
 IExCor=    0 DFT=F Ex=HF Corr=None ExCW=0 ScaHFX=  1.000000
 ScaDFX=  1.000000  1.000000  1.000000  1.000000 ScalE2=  1.000000  1.000000
 IRadAn=      5 IRanWt=     -1 IRanGd=            0 ICorTp=0 IEmpDi=  4
 NAtoms=    3 NActive=    3 NUniq=    3 SFac= 1.00D+00 NAtFMM=   60 NAOKFM=F Big=F
 Integral buffers will be    131072 words long.
 Raffenetti 1 integral format.
 Two-electron integral symmetry is turned on.
 Leave Link  301 at Tue Nov 16 15:49:04 2021, MaxMem= 16106127360 cpu:               2.5 elap:               0.1
 (Enter /sw/contrib/gaussian/g16/B01/g16/l302.exe)
 NPDir=0 NMtPBC=     1 NCelOv=     1 NCel=       1 NClECP=     1 NCelD=      1
         NCelK=      1 NCelE2=     1 NClLst=     1 CellRange=     0.0.
 One-electron integrals computed using PRISM.
 One-electron integral symmetry used in STVInt
 NBasis=   119 RedAO= T EigKep=  1.79D-04  NBF=    79    40
 NBsUse=   119 1.00D-06 EigRej= -1.00D+00 NBFU=    79    40
 Leave Link  302 at Tue Nov 16 15:49:04 2021, MaxMem= 16106127360 cpu:               3.9 elap:               0.2
 (Enter /sw/contrib/gaussian/g16/B01/g16/l303.exe)
 DipDrv:  MaxL=1.
 Leave Link  303 at Tue Nov 16 15:49:04 2021, MaxMem= 16106127360 cpu:               0.8 elap:               0.1
 (Enter /sw/contrib/gaussian/g16/B01/g16/l401.exe)
 Initial guess from the checkpoint file:  "/gscratch/ilahie/mccoygrp/coire_hocl/rOH_s_oop_0/hocl/hocl_rOH_s.chk"
 B after Tr=     0.000000   -0.000000   -0.000000
         Rot=    0.999999   -0.000000   -0.000000   -0.001529 Ang=  -0.18 deg.
 Guess basis will be translated and rotated to current coordinates.
 JPrj=2 DoOrth=T DoCkMO=T.
 Initial guess orbital symmetries:
       Occupied  (A') (A') (A') (A') (A') (A") (A') (A') (A') (A")
                 (A') (A') (A")
       Virtual   (A') (A') (A') (A") (A') (A') (A') (A") (A') (A')
                 (A") (A') (A') (A') (A") (A") (A') (A') (A') (A")
                 (A') (A') (A') (A") (A') (A") (A') (A') (A") (A')
                 (A") (A') (A") (A') (A') (A") (A') (A") (A') (A')
                 (A") (A') (A') (A') (A") (A') (A") (A') (A") (A')
                 (A') (A') (A") (A') (A') (A") (A') (A') (A") (A')
                 (A") (A') (A') (A") (A") (A') (A") (A') (A") (A')
                 (A') (A") (A') (A') (A') (A") (A') (A") (A') (A')
                 (A') (A") (A") (A') (A") (A') (A') (A') (A") (A')
                 (A') (A') (A') (A") (A') (A") (A') (A") (A') (A")
                 (A') (A") (A') (A') (A') (A')
 The electronic state of the initial guess is 1-A'.
 Generating alternative initial guess.
 ExpMin= 2.53D-02 ExpMax= 4.56D+05 ExpMxC= 1.44D+03 IAcc=3 IRadAn=         5 AccDes= 0.00D+00
 Harris functional with IExCor=  205 and IRadAn=       5 diagonalized for initial guess.
 HarFok:  IExCor=  205 AccDes= 0.00D+00 IRadAn=         5 IDoV= 1 UseB2=F ITyADJ=14
 ICtDFT=  3500011 ScaDFX=  1.000000  1.000000  1.000000  1.000000
 FoFCou: FMM=F IPFlag=           0 FMFlag=      100000 FMFlg1=           0
         NFxFlg=           0 DoJE=T BraDBF=F KetDBF=T FulRan=T
         wScrn=  0.000000 ICntrl=       500 IOpCl=  0 I1Cent=   200000004 NGrid=           0
         NMat0=    1 NMatS0=      1 NMatT0=    0 NMatD0=    1 NMtDS0=    0 NMtDT0=    0
 Petite list used in FoFCou.
 Harris En= -534.426885305240    
 Leave Link  401 at Tue Nov 16 15:49:05 2021, MaxMem= 16106127360 cpu:               6.5 elap:               0.3
 (Enter /sw/contrib/gaussian/g16/B01/g16/l502.exe)
 Keep R1 ints in memory in symmetry-blocked form, NReq=39275700.
 FoFCou: FMM=F IPFlag=           0 FMFlag=           0 FMFlg1=           0
         NFxFlg=           0 DoJE=F BraDBF=F KetDBF=F FulRan=T
         wScrn=  0.000000 ICntrl=       600 IOpCl=  0 I1Cent=           0 NGrid=           0
         NMat0=    1 NMatS0=   7140 NMatT0=    0 NMatD0=    1 NMtDS0=    0 NMtDT0=    0
 Petite list used in FoFCou.
 Closed shell SCF:
 Using DIIS extrapolation, IDIIS=  1040.
 NGot= 16106127360 LenX= 16093150889 LenY= 16093131127
 Requested convergence on RMS density matrix=1.00D-08 within 128 cycles.
 Requested convergence on MAX density matrix=1.00D-06.
 Requested convergence on             energy=1.00D-06.
 No special actions if energy rises.

 Cycle   1  Pass 1  IDiag  1:
 E= -534.799089213702    
 DIIS: error= 6.88D-03 at cycle   1 NSaved=   1.
 NSaved= 1 IEnMin= 1 EnMin= -534.799089213702     IErMin= 1 ErrMin= 6.88D-03
 ErrMax= 6.88D-03  0.00D+00 EMaxC= 1.00D-01 BMatC= 5.40D-03 BMatP= 5.40D-03
 IDIUse=3 WtCom= 9.31D-01 WtEn= 6.88D-02
 Coeff-Com:  0.100D+01
 Coeff-En:   0.100D+01
 Coeff:      0.100D+01
 Gap=     0.503 Goal=   None    Shift=    0.000
 GapD=    0.503 DampG=2.000 DampE=1.000 DampFc=2.0000 IDamp=-1.
 RMSDP=6.07D-04 MaxDP=2.33D-02              OVMax= 1.07D-02

 Cycle   2  Pass 1  IDiag  1:
 E= -534.801425252541     Delta-E=       -0.002336038839 Rises=F Damp=F
 DIIS: error= 1.01D-03 at cycle   2 NSaved=   2.
 NSaved= 2 IEnMin= 2 EnMin= -534.801425252541     IErMin= 2 ErrMin= 1.01D-03
 ErrMax= 1.01D-03  0.00D+00 EMaxC= 1.00D-01 BMatC= 1.62D-04 BMatP= 5.40D-03
 IDIUse=3 WtCom= 9.90D-01 WtEn= 1.01D-02
 Coeff-Com:  0.250D-02 0.998D+00
 Coeff-En:   0.000D+00 0.100D+01
 Coeff:      0.247D-02 0.998D+00
 Gap=     0.487 Goal=   None    Shift=    0.000
 RMSDP=6.51D-05 MaxDP=1.60D-03 DE=-2.34D-03 OVMax= 4.15D-03

 Cycle   3  Pass 1  IDiag  1:
 E= -534.801505579367     Delta-E=       -0.000080326826 Rises=F Damp=F
 DIIS: error= 5.28D-04 at cycle   3 NSaved=   3.
 NSaved= 3 IEnMin= 3 EnMin= -534.801505579367     IErMin= 3 ErrMin= 5.28D-04
 ErrMax= 5.28D-04  0.00D+00 EMaxC= 1.00D-01 BMatC= 4.07D-05 BMatP= 1.62D-04
 IDIUse=3 WtCom= 9.95D-01 WtEn= 5.28D-03
 Coeff-Com: -0.266D-01 0.297D+00 0.730D+00
 Coeff-En:   0.000D+00 0.000D+00 0.100D+01
 Coeff:     -0.265D-01 0.295D+00 0.731D+00
 Gap=     0.487 Goal=   None    Shift=    0.000
 RMSDP=3.00D-05 MaxDP=7.16D-04 DE=-8.03D-05 OVMax= 1.74D-03

 Cycle   4  Pass 1  IDiag  1:
 E= -534.801531398868     Delta-E=       -0.000025819501 Rises=F Damp=F
 DIIS: error= 1.03D-04 at cycle   4 NSaved=   4.
 NSaved= 4 IEnMin= 4 EnMin= -534.801531398868     IErMin= 4 ErrMin= 1.03D-04
 ErrMax= 1.03D-04  0.00D+00 EMaxC= 1.00D-01 BMatC= 1.62D-06 BMatP= 4.07D-05
 IDIUse=3 WtCom= 9.99D-01 WtEn= 1.03D-03
 Coeff-Com: -0.282D-02-0.356D-01 0.106D+00 0.932D+00
 Coeff-En:   0.000D+00 0.000D+00 0.000D+00 0.100D+01
 Coeff:     -0.282D-02-0.355D-01 0.106D+00 0.932D+00
 Gap=     0.487 Goal=   None    Shift=    0.000
 RMSDP=6.87D-06 MaxDP=2.26D-04 DE=-2.58D-05 OVMax= 4.94D-04

 Cycle   5  Pass 1  IDiag  1:
 E= -534.801533000972     Delta-E=       -0.000001602103 Rises=F Damp=F
 DIIS: error= 3.03D-05 at cycle   5 NSaved=   5.
 NSaved= 5 IEnMin= 5 EnMin= -534.801533000972     IErMin= 5 ErrMin= 3.03D-05
 ErrMax= 3.03D-05  0.00D+00 EMaxC= 1.00D-01 BMatC= 7.45D-08 BMatP= 1.62D-06
 IDIUse=1 WtCom= 1.00D+00 WtEn= 0.00D+00
 Coeff-Com:  0.168D-02-0.172D-01-0.497D-01-0.151D-01 0.108D+01
 Coeff:      0.168D-02-0.172D-01-0.497D-01-0.151D-01 0.108D+01
 Gap=     0.487 Goal=   None    Shift=    0.000
 RMSDP=2.55D-06 MaxDP=6.20D-05 DE=-1.60D-06 OVMax= 1.70D-04

 Cycle   6  Pass 1  IDiag  1:
 E= -534.801533118049     Delta-E=       -0.000000117077 Rises=F Damp=F
 DIIS: error= 7.83D-06 at cycle   6 NSaved=   6.
 NSaved= 6 IEnMin= 6 EnMin= -534.801533118049     IErMin= 6 ErrMin= 7.83D-06
 ErrMax= 7.83D-06  0.00D+00 EMaxC= 1.00D-01 BMatC= 3.82D-09 BMatP= 7.45D-08
 IDIUse=1 WtCom= 1.00D+00 WtEn= 0.00D+00
 Coeff-Com:  0.279D-04 0.205D-02-0.266D-02-0.320D-01-0.107D+00 0.114D+01
 Coeff:      0.279D-04 0.205D-02-0.266D-02-0.320D-01-0.107D+00 0.114D+01
 Gap=     0.487 Goal=   None    Shift=    0.000
 RMSDP=8.85D-07 MaxDP=2.27D-05 DE=-1.17D-07 OVMax= 5.59D-05

 Cycle   7  Pass 1  IDiag  1:
 E= -534.801533128715     Delta-E=       -0.000000010666 Rises=F Damp=F
 DIIS: error= 2.35D-06 at cycle   7 NSaved=   7.
 NSaved= 7 IEnMin= 7 EnMin= -534.801533128715     IErMin= 7 ErrMin= 2.35D-06
 ErrMax= 2.35D-06  0.00D+00 EMaxC= 1.00D-01 BMatC= 5.15D-10 BMatP= 3.82D-09
 IDIUse=1 WtCom= 1.00D+00 WtEn= 0.00D+00
 Coeff-Com: -0.170D-03 0.124D-02 0.552D-02 0.107D-01-0.107D+00-0.139D+00
 Coeff-Com:  0.123D+01
 Coeff:     -0.170D-03 0.124D-02 0.552D-02 0.107D-01-0.107D+00-0.139D+00
 Coeff:      0.123D+01
 Gap=     0.487 Goal=   None    Shift=    0.000
 RMSDP=3.52D-07 MaxDP=9.02D-06 DE=-1.07D-08 OVMax= 2.29D-05

 Cycle   8  Pass 1  IDiag  1:
 E= -534.801533130330     Delta-E=       -0.000000001616 Rises=F Damp=F
 DIIS: error= 8.19D-07 at cycle   8 NSaved=   8.
 NSaved= 8 IEnMin= 8 EnMin= -534.801533130330     IErMin= 8 ErrMin= 8.19D-07
 ErrMax= 8.19D-07  0.00D+00 EMaxC= 1.00D-01 BMatC= 4.91D-11 BMatP= 5.15D-10
 IDIUse=1 WtCom= 1.00D+00 WtEn= 0.00D+00
 Coeff-Com:  0.213D-04-0.391D-03-0.466D-03 0.164D-02 0.224D-01-0.520D-01
 Coeff-Com: -0.261D+00 0.129D+01
 Coeff:      0.213D-04-0.391D-03-0.466D-03 0.164D-02 0.224D-01-0.520D-01
 Coeff:     -0.261D+00 0.129D+01
 Gap=     0.487 Goal=   None    Shift=    0.000
 RMSDP=1.27D-07 MaxDP=2.82D-06 DE=-1.62D-09 OVMax= 1.05D-05

 Cycle   9  Pass 1  IDiag  1:
 E= -534.801533130534     Delta-E=       -0.000000000204 Rises=F Damp=F
 DIIS: error= 2.72D-07 at cycle   9 NSaved=   9.
 NSaved= 9 IEnMin= 9 EnMin= -534.801533130534     IErMin= 9 ErrMin= 2.72D-07
 ErrMax= 2.72D-07  0.00D+00 EMaxC= 1.00D-01 BMatC= 6.35D-12 BMatP= 4.91D-11
 IDIUse=1 WtCom= 1.00D+00 WtEn= 0.00D+00
 Coeff-Com:  0.125D-04-0.794D-04-0.382D-03-0.109D-02 0.583D-02 0.282D-01
 Coeff-Com: -0.106D+00-0.185D+00 0.126D+01
 Coeff:      0.125D-04-0.794D-04-0.382D-03-0.109D-02 0.583D-02 0.282D-01
 Coeff:     -0.106D+00-0.185D+00 0.126D+01
 Gap=     0.487 Goal=   None    Shift=    0.000
 RMSDP=5.37D-08 MaxDP=1.45D-06 DE=-2.04D-10 OVMax= 5.18D-06

 Cycle  10  Pass 1  IDiag  1:
 E= -534.801533130568     Delta-E=       -0.000000000034 Rises=F Damp=F
 DIIS: error= 9.72D-08 at cycle  10 NSaved=  10.
 NSaved=10 IEnMin=10 EnMin= -534.801533130568     IErMin=10 ErrMin= 9.72D-08
 ErrMax= 9.72D-08  0.00D+00 EMaxC= 1.00D-01 BMatC= 9.48D-13 BMatP= 6.35D-12
 IDIUse=1 WtCom= 1.00D+00 WtEn= 0.00D+00
 Coeff-Com: -0.965D-05 0.846D-04 0.315D-03 0.453D-03-0.741D-02-0.107D-02
 Coeff-Com:  0.842D-01-0.130D+00-0.482D+00 0.154D+01
 Coeff:     -0.965D-05 0.846D-04 0.315D-03 0.453D-03-0.741D-02-0.107D-02
 Coeff:      0.842D-01-0.130D+00-0.482D+00 0.154D+01
 Gap=     0.487 Goal=   None    Shift=    0.000
 RMSDP=2.57D-08 MaxDP=7.30D-07 DE=-3.38D-11 OVMax= 2.62D-06

 Cycle  11  Pass 1  IDiag  1:
 E= -534.801533130572     Delta-E=       -0.000000000004 Rises=F Damp=F
 DIIS: error= 2.61D-08 at cycle  11 NSaved=  11.
 NSaved=11 IEnMin=11 EnMin= -534.801533130572     IErMin=11 ErrMin= 2.61D-08
 ErrMax= 2.61D-08  0.00D+00 EMaxC= 1.00D-01 BMatC= 4.75D-14 BMatP= 9.48D-13
 IDIUse=1 WtCom= 1.00D+00 WtEn= 0.00D+00
 Coeff-Com:  0.111D-05-0.138D-04-0.317D-04-0.292D-04 0.110D-02-0.114D-02
 Coeff-Com: -0.132D-01 0.419D-01 0.313D-01-0.391D+00 0.133D+01
 Coeff:      0.111D-05-0.138D-04-0.317D-04-0.292D-04 0.110D-02-0.114D-02
 Coeff:     -0.132D-01 0.419D-01 0.313D-01-0.391D+00 0.133D+01
 Gap=     0.487 Goal=   None    Shift=    0.000
 RMSDP=5.49D-09 MaxDP=1.44D-07 DE=-3.52D-12 OVMax= 5.50D-07

 SCF Done:  E(RHF) =  -534.801533131     A.U. after   11 cycles
            NFock= 11  Conv=0.55D-08     -V/T= 1.9986
 KE= 5.355725396884D+02 PE=-1.379292686888D+03 EE= 2.558968607923D+02
 Leave Link  502 at Tue Nov 16 15:49:05 2021, MaxMem= 16106127360 cpu:              16.7 elap:               0.7
 (Enter /sw/contrib/gaussian/g16/B01/g16/l801.exe)
 ExpMin= 2.53D-02 ExpMax= 4.56D+05 ExpMxC= 1.44D+03 IAcc=3 IRadAn=         5 AccDes= 0.00D+00
 HarFok:  IExCor=  205 AccDes= 0.00D+00 IRadAn=         5 IDoV=-2 UseB2=F ITyADJ=14
 ICtDFT= 12500011 ScaDFX=  1.000000  1.000000  1.000000  1.000000
 Largest valence mixing into a core orbital is  4.09D-04
 Largest core mixing into a valence orbital is  1.43D-04
 Range of M.O.s used for correlation:     7   119
 NBasis=   119 NAE=    13 NBE=    13 NFC=     6 NFV=     0
 NROrb=    113 NOA=     7 NOB=     7 NVA=   106 NVB=   106

 **** Warning!!: The largest alpha MO coefficient is  0.17639297D+02

 Leave Link  801 at Tue Nov 16 15:49:06 2021, MaxMem= 16106127360 cpu:               1.3 elap:               0.1
 (Enter /sw/contrib/gaussian/g16/B01/g16/l906.exe)
 Frozen-core derivative calculation, NFC=   6 NFV=   0.
 FulOut=F Deriv=T AODrv=T NAtomX=     3
   MMem=         410  MDisk=           7 MDiskD=           7
  W3Min=      215033 MinDsk=      467278 NBas6D=         139
 NBas2D=       10066    NTT=        9730    LW2=     3500000
    MDV= 16105909767 MDiskM=      579277 NBas2p=       10066
 Fully direct method using O(ONN) memory.
 IMap=   1   2   3   4   5   6   7   8   9  10  11  12  13
 JobTyp=1 Pass  1:  I=   7 to  13 NPSUse= 28 ParTrn=T ParDer=T DoDerP=T.
 Spin components of T(2) and E(2):
     alpha-alpha T2 =       0.1599380725D-01 E2=     -0.5387747049D-01
     alpha-beta  T2 =       0.9247502867D-01 E2=     -0.3298984359D+00
     beta-beta   T2 =       0.1599380725D-01 E2=     -0.5387747049D-01
 The integrals were generated   1 times.
 ANorm=    0.1060406829D+01
 E2 =    -0.4376533769D+00 EUMP2 =    -0.53523918650746D+03
 Leave Link  906 at Tue Nov 16 15:49:08 2021, MaxMem= 16106127360 cpu:              74.5 elap:               2.7
 (Enter /sw/contrib/gaussian/g16/B01/g16/l1002.exe)
 Minotr:  Closed shell wavefunction.
          Computing MP2/KS-MP2 derivatives.
          Using Z-Vector for PSCF gradient.
          Skipping F1 and S1 gradient terms here.
          IDoAtm=111
          Frozen-core window.
          Direct CPHF calculation.
          Differentiating once with respect to electric field.
                with respect to dipole field.
          Differentiating once with respect to nuclear coordinates.
          Using symmetry in CPHF.
          Requested convergence is 1.0D-10 RMS, and 1.0D-09 maximum.
          NewPWx=F KeepS1=T KeepF1=T KeepIn=T MapXYZ=F SortEE=F KeepMc=T.
[...]
          Using Z-Vector for PSCF gradient.
          Skipping F1 and S1 gradient terms here.
          IDoAtm=111
          Frozen-core window.
          Direct CPHF calculation.
          Differentiating once with respect to electric field.
                with respect to dipole field.
          Differentiating once with respect to nuclear coordinates.
          Using symmetry in CPHF.
          Requested convergence is 1.0D-10 RMS, and 1.0D-09 maximum.
          NewPWx=F KeepS1=T KeepF1=T KeepIn=T MapXYZ=F SortEE=F KeepMc=T.
 Keep R1 ints in memory in symmetry-blocked form, NReq=39274794.
 FoFCou: FMM=F IPFlag=           0 FMFlag=           0 FMFlg1=           0
         NFxFlg=           0 DoJE=F BraDBF=F KetDBF=F FulRan=T
         wScrn=  0.000000 ICntrl=       600 IOpCl=  0 I1Cent=           0 NGrid=           0
         NMat0=    1 NMatS0=   7140 NMatT0=    0 NMatD0=    1 NMtDS0=    0 NMtDT0=    0
 Petite list used in FoFCou.
          MDV=   16106127360 using IRadAn=       5.
          Solving linear equations separately, MaxMat=       0.
          There are     1 degrees of freedom in the 1st order CPHF.  IDoFFX=0 NUNeed=     1.
 LinEq1:  Iter=  0 NonCon=     1 RMS=7.58D-03 Max=1.41D-01 NDo=     1
 AX will form     1 AO Fock derivatives at one time.
 LinEq1:  Iter=  1 NonCon=     1 RMS=1.60D-03 Max=2.74D-02 NDo=     1
 LinEq1:  Iter=  2 NonCon=     1 RMS=5.90D-04 Max=8.61D-03 NDo=     1
 LinEq1:  Iter=  3 NonCon=     1 RMS=3.64D-04 Max=4.25D-03 NDo=     1
 LinEq1:  Iter=  4 NonCon=     1 RMS=1.41D-04 Max=1.31D-03 NDo=     1
 LinEq1:  Iter=  5 NonCon=     1 RMS=3.85D-05 Max=4.09D-04 NDo=     1
 LinEq1:  Iter=  6 NonCon=     1 RMS=9.81D-06 Max=1.37D-04 NDo=     1
 LinEq1:  Iter=  7 NonCon=     1 RMS=3.14D-06 Max=3.69D-05 NDo=     1
 LinEq1:  Iter=  8 NonCon=     1 RMS=7.90D-07 Max=1.00D-05 NDo=     1
 LinEq1:  Iter=  9 NonCon=     1 RMS=1.80D-07 Max=2.47D-06 NDo=     1
 LinEq1:  Iter= 10 NonCon=     1 RMS=3.93D-08 Max=3.51D-07 NDo=     1
 LinEq1:  Iter= 11 NonCon=     1 RMS=7.68D-09 Max=8.49D-08 NDo=     1
 LinEq1:  Iter= 12 NonCon=     1 RMS=2.02D-09 Max=2.16D-08 NDo=     1
 LinEq1:  Iter= 13 NonCon=     1 RMS=4.40D-10 Max=5.51D-09 NDo=     1
 LinEq1:  Iter= 14 NonCon=     0 RMS=5.80D-11 Max=6.89D-10 NDo=     1
 Linear equations converged to 1.000D-10 1.000D-09 after    14 iterations.
 End of Minotr F.D. properties file   721 does not exist.
 End of Minotr F.D. properties file   722 does not exist.
 End of Minotr F.D. properties file   788 does not exist.
 Leave Link 1002 at Tue Nov 16 15:52:02 2021, MaxMem= 16106127360 cpu:              22.2 elap:               1.2
 (Enter /sw/contrib/gaussian/g16/B01/g16/l701.exe)
 ... and contract with generalized density number  2.
 Compute integral first derivatives.
 Leave Link  701 at Tue Nov 16 15:52:03 2021, MaxMem= 16106127360 cpu:               4.7 elap:               0.2
 (Enter /sw/contrib/gaussian/g16/B01/g16/l702.exe)
 L702 exits ... SP integral derivatives will be done elsewhere.
 Leave Link  702 at Tue Nov 16 15:52:03 2021, MaxMem= 16106127360 cpu:               0.5 elap:               0.0
 (Enter /sw/contrib/gaussian/g16/B01/g16/l703.exe)
 Integral derivatives from FoFJK, PRISM(SPDF).
 Compute integral first derivatives, UseDBF=F ICtDFT=           0.
 Calling FoFJK, ICntrl=  10002127 FMM=F ISym2X=1 I1Cent= 0 IOpClX= 0 NMat=1 NMatS=1 NMatT=0.
 FoFJK:  IHMeth= 1 ICntrl=10002127 DoSepK=F KAlg= 0 I1Cent=           0 FoldK=F
 IRaf=         0 NMat=       1 IRICut=       1 DoRegI=T DoRafI=F ISym2E= 1 IDoP0=0 IntGTp=1.
 FoFCou: FMM=F IPFlag=           0 FMFlag=      100000 FMFlg1=         800
         NFxFlg=           0 DoJE=F BraDBF=F KetDBF=F FulRan=T
         wScrn=  0.000000 ICntrl=  10002127 IOpCl=  0 I1Cent=           0 NGrid=           0
         NMat0=    1 NMatS0=      1 NMatT0=    0 NMatD0=    1 NMtDS0=    0 NMtDT0=    0
 Petite list used in FoFCou.
 Leave Link  703 at Tue Nov 16 15:52:04 2021, MaxMem= 16106127360 cpu:              24.0 elap:               0.9
 (Enter /sw/contrib/gaussian/g16/B01/g16/l716.exe)
 Dipole        =-6.27857669D-01 6.15886975D-03 1.13071879D-31
 ***** Axes restored to original set *****
 -------------------------------------------------------------------
 Center     Atomic                   Forces (Hartrees/Bohr)
 Number     Number              X              Y              Z
 -------------------------------------------------------------------
      1        8           0.050457397    0.000000000   -0.000377518
      2       17          -0.001617281   -0.000000000   -0.009030543
      3        1          -0.048840115   -0.000000000    0.009408060
 -------------------------------------------------------------------
 Cartesian Forces:  Max     0.050457397 RMS     0.023814389
 -----------------------------------------------------------------------------------------------
                       Internal Coordinate Forces (Hartree/Bohr or radian)
  Cent   Atom   N1       Length/X         N2         Alpha/Y        N3         Beta/Z          J
 -----------------------------------------------------------------------------------------------
      1  O 
      2  Cl       1  -0.009031(     1)
      3  H        1  -0.049719(     2)      2   0.005186(     3)
 -----------------------------------------------------------------------------------------------
 Internal  Forces:  Max     0.049719064 RMS     0.029328227
 Leave Link  716 at Tue Nov 16 15:52:04 2021, MaxMem= 16106127360 cpu:               0.8 elap:               0.1
 (Enter /sw/contrib/gaussian/g16/B01/g16/l103.exe)

 GradGradGradGradGradGradGradGradGradGradGradGradGradGradGradGradGradGrad
 Berny optimization.
 Search for a local minimum.
 Step number   1 out of a maximum of   20 on scan point    29 out of    29
 All quantities printed in internal units (Hartrees-Bohrs-Radians)
 Second derivative matrix not updated -- first step.
 The second derivative matrix:
                         rOCl       rOH      aHOCl
           rOCl         0.36254
           rOH          0.00000   3.62830
           aHOCl       -0.00000   0.00000   0.16000
 ITU=  0
     Eigenvalues --- 1000.000001000.000001000.00000
 RFO step:  Lambda= 0.00000000D+00 EMin= 1.00000000D+03
 Linear search not attempted -- first point.
 Variable       Old X    -DE/DX   Delta X   Delta X   Delta X     New X
                                 (Linear)    (Quad)   (Total)
   rOCl       3.20687  -0.00903   0.00000   0.00000   0.00000   3.20687
   rOH        3.77945  -0.04972   0.00000   0.00000   0.00000   3.77945
  aHOCl       1.78869   0.00519   0.00000   0.00000   0.00000   1.78869
         Item               Value     Threshold  Converged?
 Maximum Force            0.000000     0.000450     YES
 RMS     Force            0.000000     0.000300     YES
 Maximum Displacement     0.000000     0.001800     YES
 RMS     Displacement     0.000000     0.001200     YES
 Predicted change in Energy=-0.000000D+00
 Optimization completed.
    -- Stationary point found.
                       ----------------------------
                       !   Optimized Parameters   !
                       ! (Angstroms and Degrees)  !
 ----------------------                            ----------------------
 !      Name          Value   Derivative information (Atomic Units)     !
 ------------------------------------------------------------------------
 !      rOCl         1.697    -DE/DX =   -0.009                         !
 !       rOH         2.0      -DE/DX =   -0.0497                        !
 !      aHOCl      102.4843   -DE/DX =    0.0052                        !
 ------------------------------------------------------------------------
 Lowest energy point so far.  Saving SCF results.
 Summary of Optimized Potential Surface Scan (add -535.0 to energies):
                           1         2         3         4         5
     Eigenvalues --    -0.03191  -0.15510  -0.23919  -0.29551  -0.33200
           rOCl         1.69700   1.69700   1.69700   1.69700   1.69700
           rOH          0.60000   0.65000   0.70000   0.75000   0.80000
           aHOCl      102.48430 102.48430 102.48430 102.48430 102.48430
                           6         7         8         9        10
     Eigenvalues --    -0.35426  -0.36630  -0.37102  -0.37051  -0.36632
           rOCl         1.69700   1.69700   1.69700   1.69700   1.69700
           rOH          0.85000   0.90000   0.95000   1.00000   1.05000
           aHOCl      102.48430 102.48430 102.48430 102.48430 102.48430
                          11        12        13        14        15
     Eigenvalues --    -0.35956  -0.35107  -0.34147  -0.33122  -0.32066
           rOCl         1.69700   1.69700   1.69700   1.69700   1.69700
           rOH          1.10000   1.15000   1.20000   1.25000   1.30000
           aHOCl      102.48430 102.48430 102.48430 102.48430 102.48430
                          16        17        18        19        20
     Eigenvalues --    -0.31004  -0.29956  -0.28934  -0.27949  -0.27006
           rOCl         1.69700   1.69700   1.69700   1.69700   1.69700
           rOH          1.35000   1.40000   1.45000   1.50000   1.55000
           aHOCl      102.48430 102.48430 102.48430 102.48430 102.48430
                          21        22        23        24        25
     Eigenvalues --    -0.26110  -0.25264  -0.24470  -0.23727  -0.23037
           rOCl         1.69700   1.69700   1.69700   1.69700   1.69700
           rOH          1.60000   1.65000   1.70000   1.75000   1.80000
           aHOCl      102.48430 102.48430 102.48430 102.48430 102.48430
                          26        27        28        29
     Eigenvalues --    -0.22398  -0.21809  -0.21270  -0.20777
           rOCl         1.69700   1.69700   1.69700   1.69700
           rOH          1.85000   1.90000   1.95000   2.00000
           aHOCl      102.48430 102.48430 102.48430 102.48430
 Largest change from initial coordinates is atom    3       1.346 Angstoms.
 GradGradGradGradGradGradGradGradGradGradGradGradGradGradGradGradGradGrad

 Leave Link  103 at Tue Nov 16 15:52:04 2021, MaxMem= 16106127360 cpu:              10.0 elap:               0.4
 (Enter /sw/contrib/gaussian/g16/B01/g16/l202.exe)
 ---------------------------------------------------------------------------------------------------
                            Z-MATRIX (ANGSTROMS AND DEGREES)
   CD    Cent   Atom    N1       Length/X        N2       Alpha/Y        N3        Beta/Z          J
 ---------------------------------------------------------------------------------------------------
      1      1  O 
      2      2  Cl       1   1.697002(     1)
      3      3  H        1   2.000000(     2)      2  102.484(     3)
 ---------------------------------------------------------------------------------------------------
                         Z-Matrix orientation:                         
 ---------------------------------------------------------------------
 Center     Atomic      Atomic             Coordinates (Angstroms)
 Number     Number       Type             X           Y           Z
 ---------------------------------------------------------------------
      1          8           0        0.000000    0.000000    0.000000
      2         17           0        0.000000    0.000000    1.697002
      3          1           0        1.952711    0.000000   -0.432344
 ---------------------------------------------------------------------
                    Distance matrix (angstroms):
                    1          2          3
     1  O    0.000000
     2  Cl   1.697002   0.000000
     3  H    2.000000   2.889151   0.000000
 Stoichiometry    ClHO
 Framework group  CS[SG(ClHO)]
 Deg. of freedom     3
 Full point group                 CS      NOp   2
 RotChk:  IX=0 Diff= 3.14D-17
 Largest Abelian subgroup         CS      NOp   2
 Largest concise Abelian subgroup C1      NOp   1
                         Standard orientation:                         
 ---------------------------------------------------------------------
 Center     Atomic      Atomic             Coordinates (Angstroms)
 Number     Number       Type             X           Y           Z
 ---------------------------------------------------------------------
      1          8           0        0.075104    1.092949   -0.000000
      2         17           0        0.075104   -0.604052    0.000000
      3          1           0       -1.877606    1.525293    0.000000
 ---------------------------------------------------------------------
 Rotational constants (GHZ):         146.1153816          14.6762740          13.3366956
 Leave Link  202 at Tue Nov 16 15:52:04 2021, MaxMem= 16106127360 cpu:               0.4 elap:               0.0
 (Enter /sw/contrib/gaussian/g16/B01/g16/l601.exe)
 Copying SCF densities to generalized density rwf, IOpCl= 0 IROHF=0.

 **********************************************************************

            Population analysis using the MP2 Density.

 **********************************************************************

 Orbital symmetries:
       Occupied  (A') (A') (A') (A') (A') (A") (A') (A') (A") (A')
                 (A') (A") (A')
       Virtual   (A') (A') (A') (A") (A') (A') (A') (A') (A") (A')
                 (A") (A') (A') (A') (A") (A') (A") (A') (A') (A')
                 (A") (A') (A') (A") (A') (A') (A") (A') (A") (A')
                 (A") (A') (A") (A') (A") (A') (A') (A') (A") (A')
                 (A') (A") (A') (A') (A") (A') (A") (A') (A") (A')
                 (A') (A') (A') (A") (A') (A") (A') (A") (A') (A")
                 (A') (A') (A') (A") (A') (A") (A') (A") (A') (A')
                 (A") (A') (A') (A") (A') (A") (A') (A') (A") (A')
                 (A') (A") (A') (A") (A') (A") (A') (A') (A") (A')
                 (A') (A') (A') (A") (A") (A') (A') (A") (A') (A')
                 (A") (A') (A") (A') (A') (A')
 The electronic state is 1-A'.
 Alpha  occ. eigenvalues -- -104.88782 -20.67752 -10.60650  -8.07349  -8.07084
 Alpha  occ. eigenvalues --   -8.07054  -1.34397  -1.02794  -0.60133  -0.58868
 Alpha  occ. eigenvalues --   -0.55446  -0.43724  -0.40367
 Alpha virt. eigenvalues --   -0.07696   0.05105   0.07543   0.11766   0.11810
 Alpha virt. eigenvalues --    0.14573   0.16089   0.17775   0.18990   0.22572
 Alpha virt. eigenvalues --    0.23914   0.27102   0.29743   0.34565   0.37038
 Alpha virt. eigenvalues --    0.38648   0.42821   0.45836   0.50695   0.58140
 Alpha virt. eigenvalues --    0.62131   0.64457   0.67869   0.71791   0.75276
 Alpha virt. eigenvalues --    0.77516   0.78697   0.79847   0.81525   0.83242
 Alpha virt. eigenvalues --    0.90671   0.93435   0.94819   0.97136   0.97996
 Alpha virt. eigenvalues --    0.99045   1.01456   1.02216   1.05197   1.05906
 Alpha virt. eigenvalues --    1.09536   1.15532   1.17528   1.20181   1.25498
 Alpha virt. eigenvalues --    1.26376   1.32737   1.45996   1.52617   1.53923
 Alpha virt. eigenvalues --    1.65980   1.74049   2.04186   2.13938   2.16541
 Alpha virt. eigenvalues --    2.24944   2.25729   2.31075   2.31708   2.34079
 Alpha virt. eigenvalues --    2.36933   2.40387   2.46643   2.50562   2.54011
 Alpha virt. eigenvalues --    2.54923   2.57506   2.61045   2.62304   2.88743
 Alpha virt. eigenvalues --    2.93126   2.97004   3.05621   3.06040   3.06421
 Alpha virt. eigenvalues --    3.09091   3.13502   3.26369   3.37027   3.38024
 Alpha virt. eigenvalues --    3.64589   3.78626   3.79342   3.85009   3.93584
 Alpha virt. eigenvalues --    4.01459   4.05213   4.08530   4.31029   4.36121
 Alpha virt. eigenvalues --    4.66622   5.04993   6.10001   6.55107   6.58361
 Alpha virt. eigenvalues --    6.59558   6.64212   6.76425   6.79239   6.88833
 Alpha virt. eigenvalues --    7.05086   7.08658   7.15812   7.17393   7.55556
 Alpha virt. eigenvalues --   11.53092
          Condensed to atoms (all electrons):
               1          2          3
     1  O    8.316020  -0.045224   0.117816
     2  Cl  -0.045224  16.888859  -0.029610
     3  H    0.117816  -0.029610   0.709158
 Mulliken charges:
               1
     1  O   -0.388612
     2  Cl   0.185975
     3  H    0.202637
 Sum of Mulliken charges =  -0.00000
 Mulliken charges with hydrogens summed into heavy atoms:
               1
     1  O   -0.185975
     2  Cl   0.185975
 Electronic spatial extent (au):  <R**2>=            117.4110
 Charge=             -0.0000 electrons
 Dipole moment (field-independent basis, Debye):
    X=             -1.5959    Y=              0.0157    Z=              0.0000  Tot=              1.5959
 Quadrupole moment (field-independent basis, Debye-Ang):
   XX=            -15.4661   YY=            -17.6783   ZZ=            -20.2972
   XY=             -2.6961   XZ=              0.0000   YZ=              0.0000
 Traceless Quadrupole moment (field-independent basis, Debye-Ang):
   XX=              2.3478   YY=              0.1356   ZZ=             -2.4833
   XY=             -2.6961   XZ=              0.0000   YZ=              0.0000
 Octapole moment (field-independent basis, Debye-Ang**2):
  XXX=             -5.1995  YYY=             -1.5209  ZZZ=             -0.0000  XYY=             -2.9881
  XXY=              5.9821  XXZ=              0.0000  XZZ=              0.8376  YZZ=             -0.4958
  YYZ=              0.0000  XYZ=             -0.0000
 Hexadecapole moment (field-independent basis, Debye-Ang**3):
 XXXX=            -28.6407 YYYY=            -93.8218 ZZZZ=            -22.5020 XXXY=             -1.2472
 XXXZ=              0.0000 YYYX=              3.1994 YYYZ=              0.0000 ZZZX=              0.0000
 ZZZY=              0.0000 XXYY=            -15.6307 XXZZ=            -11.1716 YYZZ=            -22.5072
 XXYZ=              0.0000 YYXZ=              0.0000 ZZXY=              3.4954
 N-N= 4.763940886419D+01 E-N=-1.368355691501D+03  KE= 5.348725504476D+02
 Symmetry A'   KE= 4.840385899332D+02
 Symmetry A"   KE= 5.083396051445D+01
 No NMR shielding tensors so no spin-rotation constants.
 Leave Link  601 at Tue Nov 16 15:52:04 2021, MaxMem= 16106127360 cpu:               3.7 elap:               0.2
 (Enter /sw/contrib/gaussian/g16/B01/g16/l9999.exe)
 1\1\GINC-N2183\Scan\RMP2-FC\Aug-CC-pVTZ\Cl1H1O1\CGAVINH\16-Nov-2021\1\
 \#p opt=(z-matrix) mp2/aug-cc-pvtz density=current\\title\\0,1\O\Cl,1,
 rOCl\H,1,rOH,2,aHOCl\\rOCl=1.69700154,s,-1000,0.\rOH=2.,s,28,0.05\aHOC
 l=102.48429983,s,-1000,0.\\Version=ES64L-G16RevB.01\State=1-A'\HF=-534
 .5976208,-534.7192314,-534.8015331,-534.855908,-534.8903053,-534.91035
 44,-534.920089,-534.9224245,-534.9194807,-534.9128054,-534.9035332,-53
 4.8925005,-534.8803262,-534.8674694,-534.8542703,-534.840979,-534.8277
 783,-534.8147994,-534.8021352,-534.7898502,-534.7779874,-534.7665744,-
 534.7556271,-534.7451522,-534.7351499,-534.725615,-534.7165382,-534.70
 7907,-534.6997069\MP2=-535.0319086,-535.1551,-535.2391865,-535.2955119
 ,-535.3319992,-535.3542569,-535.3662984,-535.3710178,-535.3705147,-535
 .3663213,-535.3595631,-535.3510729,-535.3414702,-535.3312168,-535.3206
 558,-535.3100412,-535.2995587,-535.2893421,-535.2794864,-535.2700576,-
 535.2610998,-535.2526409,-535.2446967,-535.2372735,-535.2303705,-535.2
 239812,-535.2180945,-535.2126962,-535.207769\RMSD=6.260e-09,5.414e-09,
 5.493e-09,4.841e-09,4.535e-09,4.444e-09,4.501e-09,4.724e-09,5.125e-09,
 5.678e-09,6.353e-09,7.113e-09,7.901e-09,8.647e-09,9.288e-09,9.778e-09,
 2.047e-09,2.183e-09,2.296e-09,2.376e-09,9.689e-09,9.246e-09,8.652e-09,
 7.828e-09,6.625e-09,5.413e-09,4.894e-09,4.119e-09,3.655e-09\PG=CS [SG(
 Cl1H1O1)]\\@


 Where a calculator on the ENIAC is equipped with 18,000
 vacuum tubes and weighs 30 tons, computers inthe future
 may  have only 1,000 vacuum tubes and weigh only 1 1/2 tons.
              ---Popular Mechanics, March 1949
 Job cpu time:       0 days  1 hours 20 minutes  8.3 seconds.
 Elapsed time:       0 days  0 hours  3 minutes 12.1 seconds.
 File lengths (MBytes):  RWF=     10 Int=      0 D2E=      0 Chk=      8 Scr=      1
 Normal termination of Gaussian 16 at Tue Nov 16 15:52:04 2021.
