title                                                                   
SP        RMP2-FC                                                     Aug-CC-pVTZ         
Number of atoms                            I                4
Info1-9                                    I   N=           9
          20          20           0           0           0         110
           1           2           1
Full Title                                 C   N=           1
title       
Route                                      C   N=           5
#p pop=NBO SP NoSymm mp2/aug-cc-pvtz density=current        
Charge                                     I               -1
Multiplicity                               I                1
Number of electrons                        I               44
Number of alpha electrons                  I               22
Number of beta electrons                   I               22
Number of basis functions                  I              169
Number of independent functions            I              169
Number of point charges in /Mol/           I                0
Number of translation vectors              I                0
Atomic numbers                             I   N=           4
           8          17          17           1
Nuclear charges                            R   N=           4
  8.00000000E+00  1.70000000E+01  1.70000000E+01  1.00000000E+00
Current cartesian coordinates              R   N=          12
  0.00000000E+00  0.00000000E+00  0.00000000E+00  3.17993552E+00  0.00000000E+00
  0.00000000E+00 -1.28420055E+00 -5.33670436E+00  0.00000000E+00 -3.31586171E-01
 -1.37796030E+00  0.00000000E+00
Number of symbols in /Mol/                 I                0
Force Field                                I                0
Atom Types                                 C   N=           4
                                                
Int Atom Types                             I   N=           4
           0           0           0           0
MM charges                                 R   N=           4
  0.00000000E+00  0.00000000E+00  0.00000000E+00  0.00000000E+00
Integer atomic weights                     I   N=           4
          16          35          35           1
Real atomic weights                        R   N=           4
  1.59949146E+01  3.49688527E+01  3.49688527E+01  1.00782504E+00
Atom fragment info                         I   N=           4
           0           0           0           0
Atom residue num                           I   N=           4
           0           0           0           0
Nuclear spins                              I   N=           4
           0           3           3           1
Nuclear ZEff                               R   N=           4
 -5.60000000E+00 -1.42400000E+01 -1.42400000E+01 -1.00000000E+00
Nuclear ZNuc                               R   N=           4
  8.00000000E+00  1.70000000E+01  1.70000000E+01  1.00000000E+00
Nuclear QMom                               R   N=           4
  0.00000000E+00 -8.16500000E+00 -8.16500000E+00  0.00000000E+00
Nuclear GFac                               R   N=           4
  0.00000000E+00  8.21874000E-01  8.21874000E-01  2.79284600E+00
MicOpt                                     I   N=           4
          -1          -1          -1          -1
Number of residues                         I                0
Number of secondary structures             I                0
Number of contracted shells                I               55
Number of primitive shells                 I              140
Pure/Cartesian d shells                    I                0
Pure/Cartesian f shells                    I                0
Highest angular momentum                   I                3
Largest degree of contraction              I               11
Shell types                                I   N=          55
           0           0           0           0           0           1
           1           1           1          -2          -2          -2
          -3          -3           0           0           0           0
           0           0           1           1           1           1
           1          -2          -2          -2          -3          -3
           0           0           0           0           0           0
           1           1           1           1           1          -2
          -2          -2          -3          -3           0           0
           0           0           1           1           1          -2
          -2
Number of primitives per shell             I   N=          55
           7           6           1           1           1           3
           1           1           1           1           1           1
           1           1          11           9           8           1
           1           1           6           6           1           1
           1           1           1           1           1           1
          11           9           8           1           1           1
           6           6           1           1           1           1
           1           1           1           1           3           1
           1           1           1           1           1           1
           1
Shell to atom map                          I   N=          55
           1           1           1           1           1           1
           1           1           1           1           1           1
           1           1           2           2           2           2
           2           2           2           2           2           2
           2           2           2           2           2           2
           3           3           3           3           3           3
           3           3           3           3           3           3
           3           3           3           3           4           4
           4           4           4           4           4           4
           4
Primitive exponents                        R   N=         140
  1.53300000E+04  2.29900000E+03  5.22400000E+02  1.47300000E+02  4.75500000E+01
  1.67600000E+01  6.20700000E+00  5.22400000E+02  1.47300000E+02  4.75500000E+01
  1.67600000E+01  6.20700000E+00  6.88200000E-01  1.75200000E+00  2.38400000E-01
  7.37600000E-02  3.44600000E+01  7.74900000E+00  2.28000000E+00  7.15600000E-01
  2.14000000E-01  5.97400000E-02  2.31400000E+00  6.45000000E-01  2.14000000E-01
  1.42800000E+00  5.00000000E-01  4.56100000E+05  6.83300000E+04  1.55500000E+04
  4.40500000E+03  1.43900000E+03  5.20400000E+02  2.03100000E+02  8.39600000E+01
  3.62000000E+01  1.58300000E+01  6.33400000E+00  4.40500000E+03  1.43900000E+03
  5.20400000E+02  2.03100000E+02  8.39600000E+01  3.62000000E+01  1.58300000E+01
  6.33400000E+00  2.69400000E+00  1.43900000E+03  2.03100000E+02  8.39600000E+01
  3.62000000E+01  1.58300000E+01  6.33400000E+00  2.69400000E+00  4.31300000E-01
  9.76800000E-01  1.62500000E-01  5.91000000E-02  6.63300000E+02  1.56800000E+02
  4.99800000E+01  1.84200000E+01  7.24000000E+00  2.92200000E+00  1.56800000E+02
  4.99800000E+01  1.84200000E+01  7.24000000E+00  2.92200000E+00  3.81800000E-01
  1.02200000E+00  1.30100000E-01  4.19000000E-02  1.04600000E+00  3.44000000E-01
  1.35000000E-01  7.06000000E-01  3.12000000E-01  4.56100000E+05  6.83300000E+04
  1.55500000E+04  4.40500000E+03  1.43900000E+03  5.20400000E+02  2.03100000E+02
  8.39600000E+01  3.62000000E+01  1.58300000E+01  6.33400000E+00  4.40500000E+03
  1.43900000E+03  5.20400000E+02  2.03100000E+02  8.39600000E+01  3.62000000E+01
  1.58300000E+01  6.33400000E+00  2.69400000E+00  1.43900000E+03  2.03100000E+02
  8.39600000E+01  3.62000000E+01  1.58300000E+01  6.33400000E+00  2.69400000E+00
  4.31300000E-01  9.76800000E-01  1.62500000E-01  5.91000000E-02  6.63300000E+02
  1.56800000E+02  4.99800000E+01  1.84200000E+01  7.24000000E+00  2.92200000E+00
  1.56800000E+02  4.99800000E+01  1.84200000E+01  7.24000000E+00  2.92200000E+00
  3.81800000E-01  1.02200000E+00  1.30100000E-01  4.19000000E-02  1.04600000E+00
  3.44000000E-01  1.35000000E-01  7.06000000E-01  3.12000000E-01  3.38700000E+01
  5.09500000E+00  1.15900000E+00  3.25800000E-01  1.02700000E-01  2.52600000E-02
  1.40700000E+00  3.88000000E-01  1.02000000E-01  1.05700000E+00  2.47000000E-01
Contraction coefficients                   R   N=         140
  5.19808943E-04  4.02025621E-03  2.07128267E-02  8.10105536E-02  2.35962985E-01
  4.42653446E-01  3.57064423E-01 -4.42115008E-05 -1.22591041E-03 -1.05517725E-02
 -6.74452633E-02 -1.71198607E-01  1.07329856E+00  1.00000000E+00  1.00000000E+00
  1.00000000E+00  4.11634896E-02  2.57762836E-01  8.02419274E-01  1.00000000E+00
  1.00000000E+00  1.00000000E+00  1.00000000E+00  1.00000000E+00  1.00000000E+00
  1.00000000E+00  1.00000000E+00  4.93229477E-05  3.83207967E-04  2.00947816E-03
  8.38950124E-03  2.94843950E-02  8.78759948E-02  2.11589759E-01  3.65611554E-01
  3.41246350E-01  1.02162570E-01  2.14249949E-03 -2.21747925E-06 -1.71189708E-04
 -1.27922846E-03 -9.32956265E-03 -3.98910062E-02 -1.05536085E-01  9.36202446E-03
  5.10511140E-01  5.73150737E-01  4.03949245E-06  2.12481765E-04  8.59484452E-04
  4.63248159E-03  4.47343490E-04 -7.38438245E-02 -3.62271994E-01  1.16620337E+00
  1.00000000E+00  1.00000000E+00  1.00000000E+00  2.47206402E-03  1.97550234E-02
  9.09917355E-02  2.63187834E-01  4.49078073E-01  3.60183072E-01  3.03427809E-05
 -1.22475826E-03 -6.01429772E-03 -2.76401323E-02  4.35105612E-04  1.00307272E+00
  1.00000000E+00  1.00000000E+00  1.00000000E+00  1.00000000E+00  1.00000000E+00
  1.00000000E+00  1.00000000E+00  1.00000000E+00  4.93229477E-05  3.83207967E-04
  2.00947816E-03  8.38950124E-03  2.94843950E-02  8.78759948E-02  2.11589759E-01
  3.65611554E-01  3.41246350E-01  1.02162570E-01  2.14249949E-03 -2.21747925E-06
 -1.71189708E-04 -1.27922846E-03 -9.32956265E-03 -3.98910062E-02 -1.05536085E-01
  9.36202446E-03  5.10511140E-01  5.73150737E-01  4.03949245E-06  2.12481765E-04
  8.59484452E-04  4.63248159E-03  4.47343490E-04 -7.38438245E-02 -3.62271994E-01
  1.16620337E+00  1.00000000E+00  1.00000000E+00  1.00000000E+00  2.47206402E-03
  1.97550234E-02  9.09917355E-02  2.63187834E-01  4.49078073E-01  3.60183072E-01
  3.03427809E-05 -1.22475826E-03 -6.01429772E-03 -2.76401323E-02  4.35105612E-04
  1.00307272E+00  1.00000000E+00  1.00000000E+00  1.00000000E+00  1.00000000E+00
  1.00000000E+00  1.00000000E+00  1.00000000E+00  1.00000000E+00  2.54948632E-02
  1.90362766E-01  8.52162022E-01  1.00000000E+00  1.00000000E+00  1.00000000E+00
  1.00000000E+00  1.00000000E+00  1.00000000E+00  1.00000000E+00  1.00000000E+00
Coordinates of each shell                  R   N=         165
  0.00000000E+00  0.00000000E+00  0.00000000E+00  0.00000000E+00  0.00000000E+00
  0.00000000E+00  0.00000000E+00  0.00000000E+00  0.00000000E+00  0.00000000E+00
  0.00000000E+00  0.00000000E+00  0.00000000E+00  0.00000000E+00  0.00000000E+00
  0.00000000E+00  0.00000000E+00  0.00000000E+00  0.00000000E+00  0.00000000E+00
  0.00000000E+00  0.00000000E+00  0.00000000E+00  0.00000000E+00  0.00000000E+00
  0.00000000E+00  0.00000000E+00  0.00000000E+00  0.00000000E+00  0.00000000E+00
  0.00000000E+00  0.00000000E+00  0.00000000E+00  0.00000000E+00  0.00000000E+00
  0.00000000E+00  0.00000000E+00  0.00000000E+00  0.00000000E+00  0.00000000E+00
  0.00000000E+00  0.00000000E+00  3.17993552E+00  0.00000000E+00  0.00000000E+00
  3.17993552E+00  0.00000000E+00  0.00000000E+00  3.17993552E+00  0.00000000E+00
  0.00000000E+00  3.17993552E+00  0.00000000E+00  0.00000000E+00  3.17993552E+00
  0.00000000E+00  0.00000000E+00  3.17993552E+00  0.00000000E+00  0.00000000E+00
  3.17993552E+00  0.00000000E+00  0.00000000E+00  3.17993552E+00  0.00000000E+00
  0.00000000E+00  3.17993552E+00  0.00000000E+00  0.00000000E+00  3.17993552E+00
  0.00000000E+00  0.00000000E+00  3.17993552E+00  0.00000000E+00  0.00000000E+00
  3.17993552E+00  0.00000000E+00  0.00000000E+00  3.17993552E+00  0.00000000E+00
  0.00000000E+00  3.17993552E+00  0.00000000E+00  0.00000000E+00  3.17993552E+00
  0.00000000E+00  0.00000000E+00  3.17993552E+00  0.00000000E+00  0.00000000E+00
 -1.28420055E+00 -5.33670436E+00  0.00000000E+00 -1.28420055E+00 -5.33670436E+00
  0.00000000E+00 -1.28420055E+00 -5.33670436E+00  0.00000000E+00 -1.28420055E+00
 -5.33670436E+00  0.00000000E+00 -1.28420055E+00 -5.33670436E+00  0.00000000E+00
 -1.28420055E+00 -5.33670436E+00  0.00000000E+00 -1.28420055E+00 -5.33670436E+00
  0.00000000E+00 -1.28420055E+00 -5.33670436E+00  0.00000000E+00 -1.28420055E+00
 -5.33670436E+00  0.00000000E+00 -1.28420055E+00 -5.33670436E+00  0.00000000E+00
 -1.28420055E+00 -5.33670436E+00  0.00000000E+00 -1.28420055E+00 -5.33670436E+00
  0.00000000E+00 -1.28420055E+00 -5.33670436E+00  0.00000000E+00 -1.28420055E+00
 -5.33670436E+00  0.00000000E+00 -1.28420055E+00 -5.33670436E+00  0.00000000E+00
 -1.28420055E+00 -5.33670436E+00  0.00000000E+00 -3.31586171E-01 -1.37796030E+00
  0.00000000E+00 -3.31586171E-01 -1.37796030E+00  0.00000000E+00 -3.31586171E-01
 -1.37796030E+00  0.00000000E+00 -3.31586171E-01 -1.37796030E+00  0.00000000E+00
 -3.31586171E-01 -1.37796030E+00  0.00000000E+00 -3.31586171E-01 -1.37796030E+00
  0.00000000E+00 -3.31586171E-01 -1.37796030E+00  0.00000000E+00 -3.31586171E-01
 -1.37796030E+00  0.00000000E+00 -3.31586171E-01 -1.37796030E+00  0.00000000E+00
Num ILSW                                   I              100
ILSW                                       I   N=         100
           0           0           0           0           2           0
           0           0           0           0           0          -1
           5           0           0           0           0           0
           0           0           0           0           0           0
           1           1           0           0           0           0
           0           0      100000           0          -1           0
           0           0           0           0           0           0
           0           0           0           1           0           0
           0 -2000000000           1           0           0           0
           0           0           4          52           0           0
           0           0           0           0           0           0
           0           0           0           4           0           1
           0           0           0           0           0           0
           0           0           0           0           0           0
           0           0           0           0           0           0
           0           0           0           0           0           0
           0           0           0           0
Num RLSW                                   I               52
RLSW                                       R   N=          52
  1.00000000E+00  1.00000000E+00  1.00000000E+00  1.00000000E+00  1.00000000E+00
  0.00000000E+00  0.00000000E+00  1.00000000E+00  0.00000000E+00  0.00000000E+00
  0.00000000E+00  0.00000000E+00  1.00000000E+00  0.00000000E+00  0.00000000E+00
  0.00000000E+00  0.00000000E+00  1.00000000E+00  0.00000000E+00  0.00000000E+00
  0.00000000E+00  0.00000000E+00  1.00000000E+00  0.00000000E+00  0.00000000E+00
  0.00000000E+00  0.00000000E+00  1.00000000E+00  0.00000000E+00  0.00000000E+00
  0.00000000E+00  0.00000000E+00  1.00000000E+00  0.00000000E+00  0.00000000E+00
  0.00000000E+00  0.00000000E+00  0.00000000E+00  1.00000000E+00  1.00000000E+00
  0.00000000E+00  1.00000000E+00  0.00000000E+00  0.00000000E+00  0.00000000E+00
  0.00000000E+00  0.00000000E+00  0.00000000E+00  0.00000000E+00  0.00000000E+00
  0.00000000E+00  0.00000000E+00
MxBond                                     I                2
NBond                                      I   N=           4
           2           1           0           1
IBond                                      I   N=           8
           2           4           1           0           0           0
           1           0
RBond                                      R   N=           8
  1.00000000E+00  2.00000000E+00  1.00000000E+00  0.00000000E+00  0.00000000E+00
  0.00000000E+00  2.00000000E+00  0.00000000E+00
Virial Ratio                               R      1.999432168817340E+00
SCF Energy                                 R     -9.944496749722706E+02
MP2 Energy                                 R     -9.951029250479281E+02
Total Energy                               R     -9.951029250479281E+02
Post-SCF wavefunction norm                 R      1.099204782225357E+00
RMS Density                                R      3.437639734367401E-09
Job Status                                 I                1
Nuclear derivative order                   I                0
External E-field                           R   N=          35
  0.00000000E+00  0.00000000E+00  0.00000000E+00  0.00000000E+00  0.00000000E+00
  0.00000000E+00  0.00000000E+00  0.00000000E+00  0.00000000E+00  0.00000000E+00
  0.00000000E+00  0.00000000E+00  0.00000000E+00  0.00000000E+00  0.00000000E+00
  0.00000000E+00  0.00000000E+00  0.00000000E+00  0.00000000E+00  0.00000000E+00
  0.00000000E+00  0.00000000E+00  0.00000000E+00  0.00000000E+00  0.00000000E+00
  0.00000000E+00  0.00000000E+00  0.00000000E+00  0.00000000E+00  0.00000000E+00
  0.00000000E+00  0.00000000E+00  0.00000000E+00  0.00000000E+00  0.00000000E+00
IOpCl                                      I                0
IROHF                                      I                0
Alpha Orbital Energies                     R   N=         169
 -1.04744308E+02 -1.04529201E+02 -2.04521691E+01 -1.04635408E+01 -1.02538534E+01
 -7.93074008E+00 -7.92794654E+00 -7.92783476E+00 -7.71994636E+00 -7.71991470E+00
 -7.71991070E+00 -1.31412246E+00 -9.32966581E-01 -7.65271762E-01 -6.09202814E-01
 -4.61015508E-01 -4.53332982E-01 -3.24242759E-01 -2.95258565E-01 -1.85341723E-01
 -1.77721673E-01 -1.77666636E-01  1.56811200E-01  1.79989550E-01  2.25854710E-01
  2.30779817E-01  2.61968962E-01  2.75074811E-01  2.79679795E-01  2.81713252E-01
  3.03650837E-01  3.13929047E-01  3.30313990E-01  3.46185856E-01  3.98555645E-01
  4.35083797E-01  4.61188038E-01  5.20325485E-01  5.25528047E-01  5.38576522E-01
  5.60438513E-01  5.77691174E-01  5.92039523E-01  6.02909977E-01  6.20869884E-01
  6.48024019E-01  6.65913380E-01  6.79180554E-01  6.81823076E-01  7.36041346E-01
  7.75294756E-01  7.96873100E-01  8.56633630E-01  8.68105594E-01  8.87982824E-01
  9.11204089E-01  9.13680427E-01  9.28686825E-01  9.57565042E-01  9.85495494E-01
  1.03489104E+00  1.04894747E+00  1.08318686E+00  1.09148554E+00  1.09982353E+00
  1.11827576E+00  1.15306257E+00  1.16667796E+00  1.18684587E+00  1.19641838E+00
  1.20205162E+00  1.20570585E+00  1.22427476E+00  1.28030117E+00  1.28919959E+00
  1.29829098E+00  1.31218866E+00  1.37539617E+00  1.40658898E+00  1.43935188E+00
  1.44650297E+00  1.46628158E+00  1.48261822E+00  1.49883353E+00  1.54618786E+00
  1.58669209E+00  1.63404684E+00  1.65931256E+00  1.67171340E+00  1.70919237E+00
  1.73101395E+00  1.77663357E+00  1.80947900E+00  1.84443965E+00  1.86997093E+00
  1.95339162E+00  1.96398332E+00  2.03291976E+00  2.25451907E+00  2.37857508E+00
  2.49102049E+00  2.50355332E+00  2.55020311E+00  2.56044129E+00  2.61161906E+00
  2.64145532E+00  2.68129267E+00  2.68623050E+00  2.71307023E+00  2.72068138E+00
  2.76303695E+00  2.76558442E+00  2.81001982E+00  2.81386827E+00  2.83365452E+00
  2.88484696E+00  2.88775951E+00  2.93687781E+00  2.97654253E+00  3.01297125E+00
  3.03158698E+00  3.08899223E+00  3.11027478E+00  3.17578210E+00  3.21388218E+00
  3.21739025E+00  3.22407170E+00  3.29923580E+00  3.30307643E+00  3.31056339E+00
  3.34933387E+00  3.35331869E+00  3.40953745E+00  3.42481560E+00  3.51217122E+00
  3.52530922E+00  3.53057132E+00  3.54737346E+00  3.56129316E+00  3.61231674E+00
  3.79207863E+00  4.01990205E+00  4.22910155E+00  4.52313830E+00  4.60525713E+00
  4.80124537E+00  4.83512631E+00  4.86481078E+00  5.16128989E+00  5.35677495E+00
  6.02518462E+00  6.13885453E+00  6.19365224E+00  6.50407683E+00  6.54109774E+00
  6.69689337E+00  6.88589342E+00  6.91011627E+00  6.97109418E+00  7.07670653E+00
  7.26720885E+00  7.37271256E+00  7.40428128E+00  7.92160070E+00  8.31827827E+00
  8.33493664E+00  8.76869400E+00  9.46093028E+00  2.10697982E+01
Alpha MO coefficients                      R   N=       28561
  3.95267707E-06  2.28652863E-05  3.01037421E-06 -1.81911517E-04 -1.02708269E-04
  2.26772577E-06 -1.05397802E-06  1.04765637E-15 -4.42632909E-06  5.64380628E-06
 -3.15217583E-15 -1.56022394E-04 -1.17044261E-05 -8.96894465E-15 -3.77586132E-05
 -5.25467838E-07  5.51112487E-16 -2.71862377E-06 -9.17543665E-17 -1.06885663E-15
  3.83122142E-06  2.56698073E-07  1.63900327E-05  4.04490253E-16  3.61790738E-15
 -2.72880578E-05 -1.69744598E-06  2.99024657E-05  4.62773089E-16  2.40554682E-15
 -6.13201995E-05  1.49141810E-05 -5.13031505E-16 -1.77488655E-07  7.67080754E-07
  3.52607580E-16 -2.13023866E-16 -2.03195189E-06  1.80411633E-07  1.78968328E-15
  1.38881496E-05 -2.42122786E-06  6.88728074E-16 -9.72826565E-16 -1.14330225E-05
  3.09653787E-06  9.99535082E-01  1.95237359E-03  1.83594749E-04 -4.18215380E-04
  8.71537628E-05  7.94726243E-05 -8.04285170E-05  7.22768577E-07  7.86232394E-16
 -1.48216891E-04 -5.69604637E-06  1.36597493E-15  7.76643755E-05  1.01184791E-06
 -8.89967334E-16 -6.52323467E-05  6.05959145E-06 -2.66105186E-17 -1.21139838E-05
 -8.80524032E-07 -2.96592766E-16 -3.96418075E-06 -4.68653298E-17 -1.30932468E-17
  6.14477573E-06  5.18440769E-07 -3.06602234E-05 -3.24972791E-16 -4.09982365E-17
  5.40960183E-05  3.25491368E-06 -2.86054426E-06 -7.32469204E-16 -8.33867522E-17
  1.01826006E-05 -3.10821664E-06  4.39523154E-16  6.91891913E-06  6.97788779E-07
 -7.99941383E-17 -5.25215303E-16 -6.51002629E-06 -7.12450561E-07 -7.46671840E-16
  3.47272389E-06 -1.26255139E-06  4.92109964E-16  4.53674943E-16 -9.62658497E-06
 -2.93177841E-08  2.83851245E-07  4.21021292E-06  1.10352172E-05 -2.05465175E-06
 -2.52915331E-05 -1.69913982E-05 -1.46986344E-07 -2.82143149E-07 -8.95957381E-17
 -1.65446574E-07 -1.90951266E-06 -1.62697644E-16  6.99627969E-07  1.40622993E-06
  1.04834674E-16 -1.20732772E-05 -2.46424198E-05  4.90003414E-16 -5.66618133E-07
 -4.67286459E-06 -3.53389971E-16 -4.96705616E-07  8.87040743E-17 -1.35303089E-16
 -2.79019150E-07  1.24339431E-06  2.43574905E-06 -4.31989444E-17  4.50038601E-16
  2.43220526E-06 -4.31758832E-06  5.75847317E-06  1.37880768E-16  1.46637692E-16
  5.92826552E-06 -7.73218153E-06 -1.05950596E-16 -3.58212255E-07 -1.74957552E-07
 -2.08268785E-16 -6.01974459E-16 -1.11862244E-06  4.37379229E-07 -1.23496931E-16
  1.65993605E-06  2.06574397E-06 -2.16325539E-17  6.09332388E-16  5.02416974E-06
 -6.80798040E-07 -2.11709226E-06  7.64932019E-06  5.40693312E-05 -7.35800788E-06
 -2.35543008E-06 -4.91844972E-07  7.54406746E-16  9.46397055E-06  2.28823253E-05
  8.47385323E-15  1.06546633E-05 -1.76624406E-05  2.09195815E-15 -1.38520693E-06
 -3.14682377E-16  6.55307802E-16  1.26220883E-06 -7.22100932E-07 -1.76587831E-05
  4.26947625E-16  3.24509826E-15 -1.83646893E-05 -6.93965804E-06 -2.57726901E-07
 -1.22012457E-06  6.53830619E-07 -6.00755494E-05 -7.00155586E-07 -2.04864254E-07
 -4.72959919E-07 -1.71670021E-16  2.28741140E-06  8.31717706E-06 -2.46194323E-15
  2.14517285E-06  5.94745516E-05 -3.99415540E-14 -4.59320270E-06  1.81522249E-05
 -1.07241637E-14 -1.40850387E-07  3.32061570E-16 -7.32394043E-16  2.81926108E-07
 -2.09718956E-07  4.07214670E-06  1.16081657E-15  5.91990770E-15  4.78338638E-06
 -1.58939999E-06  1.31492525E-05 -8.50401332E-15  1.17510919E-14  8.99724942E-06
 -1.13863411E-05 -9.64840158E-16  1.27026494E-08 -3.45515274E-07  2.29445700E-17
 -5.97858639E-16 -2.01390785E-07 -8.34561691E-07  4.23244445E-15 -2.50004901E-07
 -1.71720472E-06  1.61463382E-15  4.62486173E-16 -2.17291780E-06 -8.37270196E-07
  8.83415184E-08  1.42426717E-06  3.26843565E-06 -1.79660432E-06  9.30154876E-06
 -5.41304991E-06 -3.15113856E-07 -1.09036929E-07 -8.08611223E-18 -5.35930956E-06
 -2.39296762E-06  2.06058056E-15  1.13134387E-06  3.80730258E-07 -6.06011541E-16
 -2.28731515E-07  1.51606515E-05  8.01431579E-15  3.60394916E-06 -2.20591703E-06
  2.10225865E-15  9.43419693E-09  3.14446479E-16  2.21678400E-16 -7.91765416E-08
  5.36968532E-07 -1.39617545E-06 -3.20224668E-15 -8.48465486E-16  2.05673299E-06
 -1.22869200E-06  3.15017079E-06 -6.98653105E-15  1.58517936E-15  3.01617024E-06
 -7.75269436E-06  6.71478727E-16  1.04796685E-07 -8.25696561E-08 -1.14032281E-15
  1.40228438E-16  3.16400585E-07 -4.42992155E-07 -2.67515666E-15 -4.59259781E-08
 -4.98579042E-07  4.35463518E-15 -1.59299776E-16 -1.95968796E-06  1.54889458E-06
  9.99531750E-01  1.98238743E-03  2.10711387E-04 -4.23336037E-04 -1.66336594E-04
 -1.83444379E-05  8.67884079E-07  4.93497776E-06  1.82914824E-16  4.10687639E-06
  1.79098158E-05  1.72351270E-15 -1.41198480E-06 -6.95916495E-06 -7.98470451E-16
 -1.93733096E-05 -7.51067547E-05 -2.35030989E-15 -4.86822780E-07 -3.64738461E-06
 -3.81799782E-16 -7.26460910E-07 -3.31492347E-16 -1.15825471E-16 -6.74193790E-07
  5.24173389E-07  1.09951831E-06  9.08492687E-16  9.61918978E-16  2.91506005E-07
 -7.93136222E-07  1.29324056E-05 -1.25250132E-15 -1.10346568E-15  2.11185460E-05
 -1.08342457E-05 -5.16141542E-16 -2.45616896E-07 -1.63676961E-06  8.65354470E-16
  8.52378857E-16 -1.43451433E-06 -1.64922714E-06 -7.92315699E-17  8.86037408E-07
  4.77929818E-06 -1.36760051E-15 -7.36665910E-16  4.00275305E-06  4.59685448E-06
  2.41176653E-06  8.52121037E-05  9.91473200E-05 -3.79899870E-06  9.42389900E-07
  4.34609774E-06 -8.62218059E-16  8.35721756E-07  6.00771032E-07  2.47698085E-14
 -8.08414096E-06 -1.01498906E-04  2.02351788E-14 -2.66696229E-07  7.97636335E-16
  1.57209173E-15 -9.60193513E-07  1.06716550E-06 -5.43872007E-06  6.09947526E-15
  9.30606224E-15  2.54545991E-06  1.03249172E-06  9.76671093E-01 -7.84296360E-03
  4.42844157E-02  8.01002799E-03  4.49887719E-03  1.23448564E-03 -1.67236498E-03
 -9.65247131E-16 -1.53803955E-03 -5.65330062E-04  1.65053437E-15 -1.54705155E-03
 -3.19455340E-03 -2.08257052E-15  2.21019694E-04 -4.05312282E-04  3.77514857E-17
 -2.02988762E-04 -1.46518204E-15 -1.55617362E-15 -4.79999142E-04  1.87478643E-04
  2.49930746E-04  1.00201647E-15  6.11209380E-16 -2.85213611E-04  2.35977321E-04
 -2.94835113E-04 -1.63765064E-15 -2.28596311E-16 -2.86878074E-04  1.80122473E-04
  3.82700819E-16  6.18459907E-05  1.52678507E-04 -1.66329841E-16 -5.52439174E-17
  1.82322257E-04  1.69574846E-04 -1.85461849E-16  1.26639892E-05 -1.81539386E-04
  5.34925247E-17  3.13359735E-16 -1.74342708E-04 -3.83279044E-04 -6.31764129E-07
  2.83703789E-06 -1.06952672E-04 -2.63692087E-04  1.21928156E-03 -7.40858033E-04
 -2.15745266E-05  6.44601702E-06  3.15860350E-17 -7.84713204E-04  1.47937083E-04
 -1.21823295E-16  3.18242583E-04 -2.49619002E-05  1.38255061E-17 -4.87718810E-04
 -1.32091900E-04  1.14572495E-15  2.63193576E-04 -1.36994802E-05 -7.66992818E-17
  1.68330713E-05  1.51605452E-17  1.28568832E-16 -4.63494097E-06 -1.15259430E-05
 -3.62358522E-04  1.20916039E-16 -1.65215777E-16  5.37762809E-04 -1.14828208E-04
 -3.00436581E-05 -9.37016909E-16  2.10205403E-16  7.04422107E-06  1.07551303E-04
  4.19334262E-16  1.72801857E-04 -1.59618809E-05 -4.31417825E-16  3.91245785E-16
 -2.31575058E-04  3.10383703E-05 -3.20499523E-16  1.29852478E-04  3.66587385E-05
  4.49579074E-16 -2.73098622E-16 -7.23824182E-05  2.28032745E-05  8.19999692E-06
  1.05877189E-04  3.14940055E-04  1.55771317E-05 -1.25348104E-03 -8.45565274E-04
 -3.34515473E-06 -2.00592333E-05 -2.46382300E-17 -6.23141635E-05 -2.56629156E-04
 -3.43833608E-16  1.78810578E-05  1.05321364E-04  1.99404494E-16 -1.46222571E-04
 -1.08073487E-03  4.14578922E-16 -7.02675869E-05 -1.82729561E-04 -7.80227726E-17
 -1.10961307E-05  1.71873851E-17  6.84962834E-17 -2.86875638E-05 -6.57758992E-06
  1.26060389E-04 -3.61169465E-17  8.64844564E-17  2.29730200E-04 -5.13747444E-05
  1.51436375E-04  6.92499317E-19  2.56277719E-17  2.65141722E-04 -6.05734062E-05
  5.51575822E-16  9.00534570E-06  1.88778662E-05  4.18227129E-16  6.21860207E-16
  3.25933962E-05  2.87342267E-06 -3.74159528E-16 -7.47659845E-06  4.83460215E-05
 -3.44667790E-16 -4.16162432E-16 -1.75011219E-05  1.07639227E-04  2.56389764E-04
 -5.78842459E-03 -4.09568425E-03 -3.18102429E-05 -8.17058747E-05 -9.09179143E-04
 -8.83252533E-16  2.48819047E-04 -1.43155696E-03  3.76869444E-16 -7.42191642E-04
 -2.50378259E-03 -1.34324429E-16  4.37652717E-04  6.10689417E-17 -6.33798171E-16
  7.13562745E-04 -2.22595930E-04 -5.45044986E-04  6.72508372E-16  2.30257458E-16
 -8.79065149E-04  8.95820730E-04 -5.29006634E-05  4.48333082E-05 -1.13004193E-04
  3.26187985E-03  2.90772867E-03  4.83838804E-05  2.04892991E-05  6.80623145E-16
  6.03041652E-04 -1.36602584E-04 -3.36465325E-15  2.37479061E-03 -2.15098910E-05
  3.27267153E-15  1.07705149E-03 -5.00834773E-05  4.31642622E-15 -2.16976899E-05
 -1.29629389E-15  8.01000859E-19  4.78733042E-05  6.08194867E-07 -2.32856377E-04
  2.34881388E-15  2.92138775E-15  2.32870545E-04 -8.79355173E-05 -2.94598473E-04
 -2.55167077E-15 -4.34276171E-15  6.10977773E-04 -4.48148631E-04  5.85761081E-16
 -2.90442898E-05 -1.05371985E-06  1.26186205E-15  3.10777219E-16  5.85998469E-05
  2.73464828E-05 -6.26091405E-16 -4.71481575E-05  4.12060552E-05 -7.99930616E-16
 -2.45121286E-16 -1.75473926E-04  3.95492727E-05 -2.81208468E-01  9.78773731E-01
 -7.59034455E-03  7.95041602E-02  8.71430805E-04 -2.50589661E-03 -5.38648333E-03
  6.97514633E-05 -2.42688622E-15  1.90977965E-03  1.42904061E-04 -2.43483762E-15
 -1.93749497E-03 -2.99194896E-05  1.60629705E-15  1.46923953E-03 -2.01313090E-04
  3.54209396E-15  3.12197405E-04  4.70228497E-05 -1.13805111E-15 -5.23464989E-04
 -5.94405321E-17 -9.14743037E-17  9.05634332E-04  3.66376944E-05  8.57066322E-04
  1.91539472E-16  2.49986303E-16 -1.49650159E-03 -1.03694620E-04  4.25735265E-05
 -1.65885050E-15 -1.82622307E-16 -1.46724989E-04  8.77424828E-05  5.06928870E-16