 Entering Gaussian System, Link 0=g16
 Input=clhocl_rOH_eq_sp.gjf
 Output=clhocl_rOH_eq_sp.log
 Initial command:
 /sw/contrib/gaussian/g16/B01/g16/l1.exe "/scr/Gau-24586.inp" -scrdir="/scr/"
 Entering Link 1 = /sw/contrib/gaussian/g16/B01/g16/l1.exe PID=     24587.
  
 Copyright (c) 1988-2017, Gaussian, Inc.  All Rights Reserved.
  
 This is part of the Gaussian(R) 16 program.  It is based on
 the Gaussian(R) 09 system (copyright 2009, Gaussian, Inc.),
 the Gaussian(R) 03 system (copyright 2003, Gaussian, Inc.),
 the Gaussian(R) 98 system (copyright 1998, Gaussian, Inc.),
 the Gaussian(R) 94 system (copyright 1995, Gaussian, Inc.),
 the Gaussian 92(TM) system (copyright 1992, Gaussian, Inc.),
 the Gaussian 90(TM) system (copyright 1990, Gaussian, Inc.),
 the Gaussian 88(TM) system (copyright 1988, Gaussian, Inc.),
 the Gaussian 86(TM) system (copyright 1986, Carnegie Mellon
 University), and the Gaussian 82(TM) system (copyright 1983,
 Carnegie Mellon University). Gaussian is a federally registered
 trademark of Gaussian, Inc.
  
 This software contains proprietary and confidential information,
 including trade secrets, belonging to Gaussian, Inc.
  
 This software is provided under written license and may be
 used, copied, transmitted, or stored only in accord with that
 written license.
  
 The following legend is applicable only to US Government
 contracts under FAR:
  
                    RESTRICTED RIGHTS LEGEND
  
 Use, reproduction and disclosure by the US Government is
 subject to restrictions as set forth in subparagraphs (a)
 and (c) of the Commercial Computer Software - Restricted
 Rights clause in FAR 52.227-19.
  
 Gaussian, Inc.
 340 Quinnipiac St., Bldg. 40, Wallingford CT 06492
  
  
 ---------------------------------------------------------------
 Warning -- This program may not be used in any manner that
 competes with the business of Gaussian, Inc. or will provide
 assistance to any competitor of Gaussian, Inc.  The licensee
 of this program is prohibited from giving any competitor of
 Gaussian, Inc. access to this program.  By using this program,
 the user acknowledges that Gaussian, Inc. is engaged in the
 business of creating and licensing software in the field of
 computational chemistry and represents and warrants to the
 licensee that it is not a competitor of Gaussian, Inc. and that
 it will not use this program in any manner prohibited above.
 ---------------------------------------------------------------
  

 Cite this work as:
 Gaussian 16, Revision B.01,
 M. J. Frisch, G. W. Trucks, H. B. Schlegel, G. E. Scuseria, 
 M. A. Robb, J. R. Cheeseman, G. Scalmani, V. Barone, 
 G. A. Petersson, H. Nakatsuji, X. Li, M. Caricato, A. V. Marenich, 
 J. Bloino, B. G. Janesko, R. Gomperts, B. Mennucci, H. P. Hratchian, 
 J. V. Ortiz, A. F. Izmaylov, J. L. Sonnenberg, D. Williams-Young, 
 F. Ding, F. Lipparini, F. Egidi, J. Goings, B. Peng, A. Petrone, 
 T. Henderson, D. Ranasinghe, V. G. Zakrzewski, J. Gao, N. Rega, 
 G. Zheng, W. Liang, M. Hada, M. Ehara, K. Toyota, R. Fukuda, 
 J. Hasegawa, M. Ishida, T. Nakajima, Y. Honda, O. Kitao, H. Nakai, 
 T. Vreven, K. Throssell, J. A. Montgomery, Jr., J. E. Peralta, 
 F. Ogliaro, M. J. Bearpark, J. J. Heyd, E. N. Brothers, K. N. Kudin, 
 V. N. Staroverov, T. A. Keith, R. Kobayashi, J. Normand, 
 K. Raghavachari, A. P. Rendell, J. C. Burant, S. S. Iyengar, 
 J. Tomasi, M. Cossi, J. M. Millam, M. Klene, C. Adamo, R. Cammi, 
 J. W. Ochterski, R. L. Martin, K. Morokuma, O. Farkas, 
 J. B. Foresman, and D. J. Fox, Gaussian, Inc., Wallingford CT, 2016.
 
 ******************************************
 Gaussian 16:  ES64L-G16RevB.01 20-Dec-2017
                15-Oct-2021 
 ******************************************
 %nproc=28
 Will use up to   28 processors via shared memory.
 %mem=120GB
 %chk=/gscratch/ilahie/mccoygrp/coire_hocl/rOH_s_oop_0/clhocl/clhocl_rOH_eq_sp.ch
 k
 ----------------------------------------------------
 #p pop=NBO SP NoSymm mp2/aug-cc-pvtz density=current
 ----------------------------------------------------
 1/30=1,38=1,172=1/1;
 2/12=2,15=1,17=6,18=5,40=1/2;
 3/5=16,6=1,7=10,11=9,25=1,30=1,71=1/1,2,3;
 4//1;
 5/5=2,38=5/2;
 8/6=4,10=1/1;
 9/15=1,16=-3/6;
 10/5=1,13=10,31=1/2;
 6/7=2,8=2,9=2,10=2,22=-1,40=1/1,7;
 99/5=1,9=1/99;
 Leave Link    1 at Fri Oct 15 16:15:16 2021, MaxMem= 16106127360 cpu:               3.0 elap:               0.1
 (Enter /sw/contrib/gaussian/g16/B01/g16/l101.exe)
 -----
 title
 -----
 Symbolic Z-matrix:
 Charge = -1 Multiplicity = 1
 O
 X                    1     10. 
 Cl                   1    r1       2     90. 
 Cl                   1    r2       2     90.      3    a1       0
 H                    1    r3       2    oop      3    a1       0
       Variables:
  r1                    1.68275                  
  r2                    2.90468                  
  r3                    1.02843                  
  a1                  103.53016                  
  OOP                  90.                       
 
 ITRead=  0  0  0  0
 MicOpt= -1 -1 -1 -1
 NAtoms=      4 NQM=        4 NQMF=       0 NMMI=      0 NMMIF=      0
                NMic=       0 NMicF=      0.
                    Isotopes and Nuclear Properties:
 (Nuclear quadrupole moments (NQMom) in fm**2, nuclear magnetic moments (NMagM)
  in nuclear magnetons)

  Atom         1           2           3           4
 IAtWgt=          16          35          35           1
 AtmWgt=  15.9949146  34.9688527  34.9688527   1.0078250
 NucSpn=           0           3           3           1
 AtZEff=  -0.0000000  -0.0000000  -0.0000000  -0.0000000
 NQMom=    0.0000000  -8.1650000  -8.1650000   0.0000000
 NMagM=    0.0000000   0.8218740   0.8218740   2.7928460
 AtZNuc=   8.0000000  17.0000000  17.0000000   1.0000000
 Leave Link  101 at Fri Oct 15 16:15:16 2021, MaxMem= 16106127360 cpu:               2.7 elap:               0.1
 (Enter /sw/contrib/gaussian/g16/B01/g16/l202.exe)
                          Input orientation:                          
 ---------------------------------------------------------------------
 Center     Atomic      Atomic             Coordinates (Angstroms)
 Number     Number       Type             X           Y           Z
 ---------------------------------------------------------------------
      1          8           0        0.000000    0.000000    0.000000
      2         17           0        1.682749    0.000000    0.000000
      3         17           0       -0.679570   -2.824062    0.000000
      4          1           0       -0.240608   -0.999884    0.000000
 ---------------------------------------------------------------------
                    Distance matrix (angstroms):
                    1          2          3          4
     1  O    0.000000
     2  Cl   1.682749   0.000000
     3  Cl   2.904676   3.681831   0.000000
     4  H    1.028426   2.167734   1.876250   0.000000
 Symmetry turned off by external request.
 Stoichiometry    Cl2HO(1-)
 Framework group  CS[SG(Cl2HO)]
 Deg. of freedom     5
 Full point group                 CS      NOp   2
 Rotational constants (GHZ):          23.6984672           2.0597173           1.8950149
 Leave Link  202 at Fri Oct 15 16:15:16 2021, MaxMem= 16106127360 cpu:               1.2 elap:               0.1
 (Enter /sw/contrib/gaussian/g16/B01/g16/l301.exe)
 Standard basis: Aug-CC-pVTZ (5D, 7F)
 Ernie: Thresh=  0.10000D-02 Tol=  0.10000D-05 Strict=F.
 Ernie:  29 primitive shells out of 169 were deleted.
   169 basis functions,   327 primitive gaussians,   198 cartesian basis functions
    22 alpha electrons       22 beta electrons
       nuclear repulsion energy       122.1428427835 Hartrees.
 IExCor=    0 DFT=F Ex=HF Corr=None ExCW=0 ScaHFX=  1.000000
 ScaDFX=  1.000000  1.000000  1.000000  1.000000 ScalE2=  1.000000  1.000000
 IRadAn=      5 IRanWt=     -1 IRanGd=            0 ICorTp=0 IEmpDi=  4
 NAtoms=    4 NActive=    4 NUniq=    4 SFac= 1.00D+00 NAtFMM=   60 NAOKFM=F Big=F
 Integral buffers will be    131072 words long.
 Raffenetti 1 integral format.
 Two-electron integral symmetry is turned off.
 Leave Link  301 at Fri Oct 15 16:15:16 2021, MaxMem= 16106127360 cpu:               1.9 elap:               0.1
 (Enter /sw/contrib/gaussian/g16/B01/g16/l302.exe)
 NPDir=0 NMtPBC=     1 NCelOv=     1 NCel=       1 NClECP=     1 NCelD=      1
         NCelK=      1 NCelE2=     1 NClLst=     1 CellRange=     0.0.
 One-electron integrals computed using PRISM.
 NBasis=   169 RedAO= T EigKep=  2.39D-04  NBF=   169
 NBsUse=   169 1.00D-06 EigRej= -1.00D+00 NBFU=   169
 Leave Link  302 at Fri Oct 15 16:15:16 2021, MaxMem= 16106127360 cpu:               6.8 elap:               0.3
 (Enter /sw/contrib/gaussian/g16/B01/g16/l303.exe)
 DipDrv:  MaxL=1.
 Leave Link  303 at Fri Oct 15 16:15:16 2021, MaxMem= 16106127360 cpu:               0.9 elap:               0.1
 (Enter /sw/contrib/gaussian/g16/B01/g16/l401.exe)
 ExpMin= 2.53D-02 ExpMax= 4.56D+05 ExpMxC= 1.44D+03 IAcc=3 IRadAn=         5 AccDes= 0.00D+00
 Harris functional with IExCor=  205 and IRadAn=       5 diagonalized for initial guess.
 HarFok:  IExCor=  205 AccDes= 0.00D+00 IRadAn=         5 IDoV= 1 UseB2=F ITyADJ=14
 ICtDFT=  3500011 ScaDFX=  1.000000  1.000000  1.000000  1.000000
 FoFCou: FMM=F IPFlag=           0 FMFlag=      100000 FMFlg1=           0
         NFxFlg=           0 DoJE=T BraDBF=F KetDBF=T FulRan=T
         wScrn=  0.000000 ICntrl=       500 IOpCl=  0 I1Cent=   200000004 NGrid=           0
         NMat0=    1 NMatS0=      1 NMatT0=    0 NMatD0=    1 NMtDS0=    0 NMtDT0=    0
 Symmetry not used in FoFCou.
 Harris En= -993.822299506429    
 JPrj=0 DoOrth=F DoCkMO=F.
 Leave Link  401 at Fri Oct 15 16:15:17 2021, MaxMem= 16106127360 cpu:              16.0 elap:               0.7
 (Enter /sw/contrib/gaussian/g16/B01/g16/l502.exe)
 Keep R1 ints in memory in canonical form, NReq=117119305.
 FoFCou: FMM=F IPFlag=           0 FMFlag=           0 FMFlg1=           0
         NFxFlg=           0 DoJE=F BraDBF=F KetDBF=F FulRan=T
         wScrn=  0.000000 ICntrl=       600 IOpCl=  0 I1Cent=           0 NGrid=           0
         NMat0=    1 NMatS0=  14365 NMatT0=    0 NMatD0=    1 NMtDS0=    0 NMtDT0=    0
 Symmetry not used in FoFCou.
 Two-electron integral symmetry not used.
 Closed shell SCF:
 Using DIIS extrapolation, IDIIS=  1040.
 NGot= 16106127360 LenX= 16002858349 LenY= 16002818704
 Requested convergence on RMS density matrix=1.00D-08 within 128 cycles.
 Requested convergence on MAX density matrix=1.00D-06.
 Requested convergence on             energy=1.00D-06.
 No special actions if energy rises.

 Cycle   1  Pass 1  IDiag  1:
 E= -994.396653415519    
 DIIS: error= 3.32D-02 at cycle   1 NSaved=   1.
 NSaved= 1 IEnMin= 1 EnMin= -994.396653415519     IErMin= 1 ErrMin= 3.32D-02
 ErrMax= 3.32D-02  0.00D+00 EMaxC= 1.00D-01 BMatC= 4.24D-01 BMatP= 4.24D-01
 IDIUse=3 WtCom= 6.68D-01 WtEn= 3.32D-01
 Coeff-Com:  0.100D+01
 Coeff-En:   0.100D+01
 Coeff:      0.100D+01
 Gap=     0.557 Goal=   None    Shift=    0.000
 GapD=    0.557 DampG=2.000 DampE=0.500 DampFc=1.0000 IDamp=-1.
 RMSDP=2.17D-03 MaxDP=7.08D-02              OVMax= 1.24D-01

 Cycle   2  Pass 1  IDiag  1:
 E= -994.488556378907     Delta-E=       -0.091902963388 Rises=F Damp=F
 DIIS: error= 2.04D-02 at cycle   2 NSaved=   2.
 NSaved= 2 IEnMin= 2 EnMin= -994.488556378907     IErMin= 2 ErrMin= 2.04D-02
 ErrMax= 2.04D-02  0.00D+00 EMaxC= 1.00D-01 BMatC= 5.04D-02 BMatP= 4.24D-01
 IDIUse=3 WtCom= 7.96D-01 WtEn= 2.04D-01
 Coeff-Com:  0.169D+00 0.831D+00
 Coeff-En:   0.000D+00 0.100D+01
 Coeff:      0.135D+00 0.865D+00
 Gap=     0.386 Goal=   None    Shift=    0.000
 RMSDP=9.87D-04 MaxDP=3.93D-02 DE=-9.19D-02 OVMax= 8.10D-02

 Cycle   3  Pass 1  IDiag  1:
 E= -994.513230621083     Delta-E=       -0.024674242176 Rises=F Damp=F
 DIIS: error= 9.51D-03 at cycle   3 NSaved=   3.
 NSaved= 3 IEnMin= 3 EnMin= -994.513230621083     IErMin= 3 ErrMin= 9.51D-03
 ErrMax= 9.51D-03  0.00D+00 EMaxC= 1.00D-01 BMatC= 1.53D-02 BMatP= 5.04D-02
 IDIUse=3 WtCom= 9.05D-01 WtEn= 9.51D-02
 Coeff-Com: -0.158D-01 0.345D+00 0.670D+00
 Coeff-En:   0.000D+00 0.145D+00 0.855D+00
 Coeff:     -0.143D-01 0.326D+00 0.688D+00
 Gap=     0.364 Goal=   None    Shift=    0.000
 RMSDP=3.76D-04 MaxDP=1.48D-02 DE=-2.47D-02 OVMax= 3.71D-02

 Cycle   4  Pass 1  IDiag  1:
 E= -994.523644033777     Delta-E=       -0.010413412693 Rises=F Damp=F
 DIIS: error= 1.32D-03 at cycle   4 NSaved=   4.
 NSaved= 4 IEnMin= 4 EnMin= -994.523644033777     IErMin= 4 ErrMin= 1.32D-03
 ErrMax= 1.32D-03  0.00D+00 EMaxC= 1.00D-01 BMatC= 1.76D-04 BMatP= 1.53D-02
 IDIUse=3 WtCom= 9.87D-01 WtEn= 1.32D-02
 Coeff-Com: -0.391D-02 0.162D-01 0.990D-01 0.889D+00
 Coeff-En:   0.000D+00 0.000D+00 0.000D+00 0.100D+01
 Coeff:     -0.386D-02 0.160D-01 0.977D-01 0.890D+00
 Gap=     0.357 Goal=   None    Shift=    0.000
 RMSDP=5.64D-05 MaxDP=1.50D-03 DE=-1.04D-02 OVMax= 3.08D-03

 Cycle   5  Pass 1  IDiag  1:
 E= -994.523832803967     Delta-E=       -0.000188770191 Rises=F Damp=F
 DIIS: error= 2.67D-04 at cycle   5 NSaved=   5.
 NSaved= 5 IEnMin= 5 EnMin= -994.523832803967     IErMin= 5 ErrMin= 2.67D-04
 ErrMax= 2.67D-04  0.00D+00 EMaxC= 1.00D-01 BMatC= 1.62D-05 BMatP= 1.76D-04
 IDIUse=3 WtCom= 9.97D-01 WtEn= 2.67D-03
 Coeff-Com:  0.106D-02-0.399D-01-0.690D-01 0.245D-01 0.108D+01
 Coeff-En:   0.000D+00 0.000D+00 0.000D+00 0.000D+00 0.100D+01
 Coeff:      0.105D-02-0.398D-01-0.688D-01 0.244D-01 0.108D+01
 Gap=     0.359 Goal=   None    Shift=    0.000
 RMSDP=3.21D-05 MaxDP=1.18D-03 DE=-1.89D-04 OVMax= 3.09D-03

 Cycle   6  Pass 1  IDiag  1:
 E= -994.523873098771     Delta-E=       -0.000040294804 Rises=F Damp=F
 DIIS: error= 1.33D-04 at cycle   6 NSaved=   6.
 NSaved= 6 IEnMin= 6 EnMin= -994.523873098771     IErMin= 6 ErrMin= 1.33D-04
 ErrMax= 1.33D-04  0.00D+00 EMaxC= 1.00D-01 BMatC= 2.11D-06 BMatP= 1.62D-05
 IDIUse=3 WtCom= 9.99D-01 WtEn= 1.33D-03
 Coeff-Com:  0.209D-03 0.935D-02 0.164D-01-0.817D-01-0.417D+00 0.147D+01
 Coeff-En:   0.000D+00 0.000D+00 0.000D+00 0.000D+00 0.000D+00 0.100D+01
 Coeff:      0.209D-03 0.934D-02 0.164D-01-0.816D-01-0.417D+00 0.147D+01
 Gap=     0.359 Goal=   None    Shift=    0.000
 RMSDP=1.69D-05 MaxDP=6.17D-04 DE=-4.03D-05 OVMax= 1.68D-03

 Cycle   7  Pass 1  IDiag  1:
 E= -994.523880767355     Delta-E=       -0.000007668584 Rises=F Damp=F
 DIIS: error= 4.31D-05 at cycle   7 NSaved=   7.
 NSaved= 7 IEnMin= 7 EnMin= -994.523880767355     IErMin= 7 ErrMin= 4.31D-05
 ErrMax= 4.31D-05  0.00D+00 EMaxC= 1.00D-01 BMatC= 1.32D-07 BMatP= 2.11D-06
 IDIUse=1 WtCom= 1.00D+00 WtEn= 0.00D+00
 Coeff-Com: -0.149D-03-0.125D-02-0.154D-02 0.314D-01 0.953D-01-0.624D+00
 Coeff-Com:  0.150D+01
 Coeff:     -0.149D-03-0.125D-02-0.154D-02 0.314D-01 0.953D-01-0.624D+00
 Coeff:      0.150D+01
 Gap=     0.359 Goal=   None    Shift=    0.000
 RMSDP=5.27D-06 MaxDP=1.72D-04 DE=-7.67D-06 OVMax= 5.15D-04

 Cycle   8  Pass 1  IDiag  1:
 E= -994.523881376574     Delta-E=       -0.000000609219 Rises=F Damp=F
 DIIS: error= 7.88D-06 at cycle   8 NSaved=   8.
 NSaved= 8 IEnMin= 8 EnMin= -994.523881376574     IErMin= 8 ErrMin= 7.88D-06
 ErrMax= 7.88D-06  0.00D+00 EMaxC= 1.00D-01 BMatC= 9.05D-09 BMatP= 1.32D-07
 IDIUse=1 WtCom= 1.00D+00 WtEn= 0.00D+00
 Coeff-Com:  0.825D-05-0.427D-03-0.548D-03-0.542D-03 0.663D-02 0.242D-01
 Coeff-Com: -0.274D+00 0.124D+01
 Coeff:      0.825D-05-0.427D-03-0.548D-03-0.542D-03 0.663D-02 0.242D-01
 Coeff:     -0.274D+00 0.124D+01
 Gap=     0.359 Goal=   None    Shift=    0.000
 RMSDP=1.22D-06 MaxDP=2.64D-05 DE=-6.09D-07 OVMax= 1.36D-04

 Cycle   9  Pass 1  IDiag  1:
 E= -994.523881412699     Delta-E=       -0.000000036125 Rises=F Damp=F
 DIIS: error= 3.89D-06 at cycle   9 NSaved=   9.
 NSaved= 9 IEnMin= 9 EnMin= -994.523881412699     IErMin= 9 ErrMin= 3.89D-06
 ErrMax= 3.89D-06  0.00D+00 EMaxC= 1.00D-01 BMatC= 1.27D-09 BMatP= 9.05D-09
 IDIUse=1 WtCom= 1.00D+00 WtEn= 0.00D+00
 Coeff-Com:  0.193D-04 0.199D-03 0.223D-03-0.348D-02-0.117D-01 0.653D-01
 Coeff-Com: -0.996D-01-0.363D+00 0.141D+01
 Coeff:      0.193D-04 0.199D-03 0.223D-03-0.348D-02-0.117D-01 0.653D-01
 Coeff:     -0.996D-01-0.363D+00 0.141D+01
 Gap=     0.359 Goal=   None    Shift=    0.000
 RMSDP=6.06D-07 MaxDP=1.48D-05 DE=-3.61D-08 OVMax= 6.90D-05

 Cycle  10  Pass 1  IDiag  1:
 E= -994.523881419481     Delta-E=       -0.000000006782 Rises=F Damp=F
 DIIS: error= 1.65D-06 at cycle  10 NSaved=  10.
 NSaved=10 IEnMin=10 EnMin= -994.523881419481     IErMin=10 ErrMin= 1.65D-06
 ErrMax= 1.65D-06  0.00D+00 EMaxC= 1.00D-01 BMatC= 1.88D-10 BMatP= 1.27D-09
 IDIUse=1 WtCom= 1.00D+00 WtEn= 0.00D+00
 Coeff-Com: -0.566D-05 0.336D-04 0.224D-04 0.917D-03 0.154D-02-0.183D-01
 Coeff-Com:  0.674D-01-0.144D+00-0.209D+00 0.130D+01
 Coeff:     -0.566D-05 0.336D-04 0.224D-04 0.917D-03 0.154D-02-0.183D-01
 Coeff:      0.674D-01-0.144D+00-0.209D+00 0.130D+01
 Gap=     0.359 Goal=   None    Shift=    0.000
 RMSDP=2.32D-07 MaxDP=6.08D-06 DE=-6.78D-09 OVMax= 2.53D-05

 Cycle  11  Pass 1  IDiag  1:
 E= -994.523881420362     Delta-E=       -0.000000000882 Rises=F Damp=F
 DIIS: error= 5.21D-07 at cycle  11 NSaved=  11.
 NSaved=11 IEnMin=11 EnMin= -994.523881420362     IErMin=11 ErrMin= 5.21D-07
 ErrMax= 5.21D-07  0.00D+00 EMaxC= 1.00D-01 BMatC= 1.34D-11 BMatP= 1.88D-10
 IDIUse=1 WtCom= 1.00D+00 WtEn= 0.00D+00
 Coeff-Com: -0.222D-05-0.273D-04-0.307D-04 0.426D-03 0.142D-02-0.745D-02
 Coeff-Com:  0.912D-02 0.495D-01-0.145D+00-0.130D+00 0.122D+01
 Coeff:     -0.222D-05-0.273D-04-0.307D-04 0.426D-03 0.142D-02-0.745D-02
 Coeff:      0.912D-02 0.495D-01-0.145D+00-0.130D+00 0.122D+01
 Gap=     0.359 Goal=   None    Shift=    0.000
 RMSDP=6.75D-08 MaxDP=1.86D-06 DE=-8.82D-10 OVMax= 7.09D-06

 Cycle  12  Pass 1  IDiag  1:
 E= -994.523881420429     Delta-E=       -0.000000000066 Rises=F Damp=F
 DIIS: error= 1.02D-07 at cycle  12 NSaved=  12.
 NSaved=12 IEnMin=12 EnMin= -994.523881420429     IErMin=12 ErrMin= 1.02D-07
 ErrMax= 1.02D-07  0.00D+00 EMaxC= 1.00D-01 BMatC= 7.71D-13 BMatP= 1.34D-11
 IDIUse=1 WtCom= 1.00D+00 WtEn= 0.00D+00
 Coeff-Com:  0.610D-06 0.233D-05 0.393D-05-0.115D-03-0.321D-03 0.208D-02
 Coeff-Com: -0.461D-02-0.885D-03 0.362D-01-0.636D-01-0.155D+00 0.119D+01
 Coeff:      0.610D-06 0.233D-05 0.393D-05-0.115D-03-0.321D-03 0.208D-02
 Coeff:     -0.461D-02-0.885D-03 0.362D-01-0.636D-01-0.155D+00 0.119D+01
 Gap=     0.359 Goal=   None    Shift=    0.000
 RMSDP=1.33D-08 MaxDP=3.13D-07 DE=-6.64D-11 OVMax= 1.12D-06

 Cycle  13  Pass 1  IDiag  1:
 E= -994.523881420432     Delta-E=       -0.000000000004 Rises=F Damp=F
 DIIS: error= 2.51D-08 at cycle  13 NSaved=  13.
 NSaved=13 IEnMin=13 EnMin= -994.523881420432     IErMin=13 ErrMin= 2.51D-08
 ErrMax= 2.51D-08  0.00D+00 EMaxC= 1.00D-01 BMatC= 7.80D-14 BMatP= 7.71D-13
 IDIUse=1 WtCom= 1.00D+00 WtEn= 0.00D+00
 Coeff-Com:  0.204D-06 0.154D-05 0.736D-06-0.289D-04-0.848D-04 0.520D-03
 Coeff-Com: -0.692D-03-0.425D-02 0.128D-01 0.943D-02-0.102D+00-0.427D-01
 Coeff-Com:  0.113D+01
 Coeff:      0.204D-06 0.154D-05 0.736D-06-0.289D-04-0.848D-04 0.520D-03
 Coeff:     -0.692D-03-0.425D-02 0.128D-01 0.943D-02-0.102D+00-0.427D-01
 Coeff:      0.113D+01
 Gap=     0.359 Goal=   None    Shift=    0.000
 RMSDP=3.89D-09 MaxDP=8.64D-08 DE=-3.87D-12 OVMax= 3.45D-07

 SCF Done:  E(RHF) =  -994.523881420     A.U. after   13 cycles
            NFock= 13  Conv=0.39D-08     -V/T= 2.0002
 KE= 9.943646911150D+02 PE=-2.622051419726D+03 EE= 5.110200044071D+02
 Leave Link  502 at Fri Oct 15 16:15:20 2021, MaxMem= 16106127360 cpu:              29.6 elap:               3.3
 (Enter /sw/contrib/gaussian/g16/B01/g16/l801.exe)
 ExpMin= 2.53D-02 ExpMax= 4.56D+05 ExpMxC= 1.44D+03 IAcc=3 IRadAn=         5 AccDes= 0.00D+00
 HarFok:  IExCor=  205 AccDes= 0.00D+00 IRadAn=         5 IDoV=-2 UseB2=F ITyADJ=14
 ICtDFT= 12500011 ScaDFX=  1.000000  1.000000  1.000000  1.000000
 Largest valence mixing into a core orbital is  4.47D-04
 Largest core mixing into a valence orbital is  1.72D-04
 Range of M.O.s used for correlation:    12   169
 NBasis=   169 NAE=    22 NBE=    22 NFC=    11 NFV=     0
 NROrb=    158 NOA=    11 NOB=    11 NVA=   147 NVB=   147

 **** Warning!!: The largest alpha MO coefficient is  0.20680114D+02

 Leave Link  801 at Fri Oct 15 16:15:20 2021, MaxMem= 16106127360 cpu:               2.1 elap:               0.1
 (Enter /sw/contrib/gaussian/g16/B01/g16/l906.exe)
 Frozen-core derivative calculation, NFC=  11 NFV=   0.
 FulOut=F Deriv=T AODrv=F NAtomX=     4
   MMem=         144  MDisk=          11 MDiskD=          11
  W3Min=      736164 MinDsk=     1250177 NBas6D=         198
 NBas2D=       20187    NTT=       19701    LW2=     3500000
    MDV= 16105751214 MDiskM=      406660 NBas2p=       19980
 Fully in-core method, ICMem=   420417501.
 IMap=   1   2   3   4   5   6   7   8   9  10  11  12  13  14  15  16  17  18  19  20
 IMap=  21  22
 JobTyp=1 Pass  1 fully in-core, NPsUse= 28.
 Compute canonical integrals.
 FoFCou: FMM=F IPFlag=           0 FMFlag=           0 FMFlg1=           0
         NFxFlg=           0 DoJE=F BraDBF=F KetDBF=F FulRan=T
         wScrn=  0.000000 ICntrl=       600 IOpCl=  1 I1Cent=           0 NGrid=           0
         NMat0=    1 NMatS0=  20187 NMatT0=    0 NMatD0=    1 NMtDS0=    0 NMtDT0=    0
 Symmetry not used in FoFCou.
 Spin components of T(2) and E(2):
     alpha-alpha T2 =       0.2940689519D-01 E2=     -0.8446098459D-01
     alpha-beta  T2 =       0.1597221328D+00 E2=     -0.4993223459D+00
     beta-beta   T2 =       0.2940689519D-01 E2=     -0.8446098459D-01
 The integrals were generated   1 times.
 ANorm=    0.1103873146D+01
 E2 =    -0.6682443151D+00 EUMP2 =    -0.99519212573550D+03
 Leave Link  906 at Fri Oct 15 16:15:25 2021, MaxMem= 16106127360 cpu:             124.7 elap:               4.5
 (Enter /sw/contrib/gaussian/g16/B01/g16/l1002.exe)
 Minotr:  Closed shell wavefunction.
          Computing MP2/KS-MP2 derivatives.
          Using Z-Vector for PSCF gradient.
          Skipping F1 and S1 gradient terms here.
          Frozen-core window.
          Direct CPHF calculation.
          Differentiating once with respect to electric field.
                with respect to dipole field.
          Electric field/nuclear overlap derivatives assumed to be zero.
          Requested convergence is 1.0D-10 RMS, and 1.0D-09 maximum.
          NewPWx=F KeepS1=T KeepF1=T KeepIn=T MapXYZ=F SortEE=F KeepMc=T.
 Keep R1 ints in memory in canonical form, NReq=117123417.
 FoFCou: FMM=F IPFlag=           0 FMFlag=           0 FMFlg1=           0
         NFxFlg=           0 DoJE=F BraDBF=F KetDBF=F FulRan=T
         wScrn=  0.000000 ICntrl=       600 IOpCl=  0 I1Cent=           0 NGrid=           0
         NMat0=    1 NMatS0=  14365 NMatT0=    0 NMatD0=    1 NMtDS0=    0 NMtDT0=    0
 Symmetry not used in FoFCou.
 Two-electron integral symmetry not used.
          MDV=   16106127360 using IRadAn=       5.
          Solving linear equations separately, MaxMat=       0.
          There are     1 degrees of freedom in the 1st order CPHF.  IDoFFX=0 NUNeed=     1.
 LinEq1:  Iter=  0 NonCon=     1 RMS=3.10D-03 Max=4.66D-02 NDo=     1
 AX will form     1 AO Fock derivatives at one time.
 LinEq1:  Iter=  1 NonCon=     1 RMS=3.88D-04 Max=5.07D-03 NDo=     1
 LinEq1:  Iter=  2 NonCon=     1 RMS=1.62D-04 Max=3.35D-03 NDo=     1
 LinEq1:  Iter=  3 NonCon=     1 RMS=6.26D-05 Max=1.05D-03 NDo=     1
 LinEq1:  Iter=  4 NonCon=     1 RMS=2.64D-05 Max=6.73D-04 NDo=     1
 LinEq1:  Iter=  5 NonCon=     1 RMS=5.86D-06 Max=7.34D-05 NDo=     1
 LinEq1:  Iter=  6 NonCon=     1 RMS=1.53D-06 Max=1.75D-05 NDo=     1
 LinEq1:  Iter=  7 NonCon=     1 RMS=3.22D-07 Max=3.97D-06 NDo=     1
 LinEq1:  Iter=  8 NonCon=     1 RMS=5.47D-08 Max=6.98D-07 NDo=     1
 LinEq1:  Iter=  9 NonCon=     1 RMS=1.27D-08 Max=1.52D-07 NDo=     1
 LinEq1:  Iter= 10 NonCon=     1 RMS=3.33D-09 Max=4.87D-08 NDo=     1
 LinEq1:  Iter= 11 NonCon=     1 RMS=7.83D-10 Max=1.12D-08 NDo=     1
 LinEq1:  Iter= 12 NonCon=     1 RMS=1.72D-10 Max=3.51D-09 NDo=     1
 LinEq1:  Iter= 13 NonCon=     0 RMS=4.12D-11 Max=8.98D-10 NDo=     1
 Linear equations converged to 1.000D-10 1.000D-09 after    13 iterations.
 End of Minotr F.D. properties file   721 does not exist.
 End of Minotr F.D. properties file   722 does not exist.
 End of Minotr F.D. properties file   788 does not exist.
 Leave Link 1002 at Fri Oct 15 16:15:29 2021, MaxMem= 16106127360 cpu:              35.6 elap:               3.9
 (Enter /sw/contrib/gaussian/g16/B01/g16/l601.exe)
 Copying SCF densities to generalized density rwf, IOpCl= 0 IROHF=0.

 **********************************************************************

            Population analysis using the MP2 Density.

 **********************************************************************

 Alpha  occ. eigenvalues -- -104.72204-104.54993 -20.44821 -10.44158 -10.27484
 Alpha  occ. eigenvalues --   -7.90874  -7.90616  -7.90607  -7.74101  -7.74083
 Alpha  occ. eigenvalues --   -7.74082  -1.21497  -0.88528  -0.79005  -0.52672
 Alpha  occ. eigenvalues --   -0.43110  -0.42308  -0.29979  -0.27057  -0.20595
 Alpha  occ. eigenvalues --   -0.19782  -0.19778
 Alpha virt. eigenvalues --    0.16128   0.18669   0.22582   0.23557   0.25819
 Alpha virt. eigenvalues --    0.27266   0.27486   0.29641   0.31077   0.32744
 Alpha virt. eigenvalues --    0.33745   0.35026   0.38581   0.45309   0.46288
 Alpha virt. eigenvalues --    0.51599   0.52521   0.53870   0.56527   0.56893
 Alpha virt. eigenvalues --    0.58587   0.60027   0.60589   0.65226   0.66083
 Alpha virt. eigenvalues --    0.68408   0.68536   0.75315   0.78522   0.78987
 Alpha virt. eigenvalues --    0.83067   0.87505   0.88417   0.90032   0.91088
 Alpha virt. eigenvalues --    0.92276   0.96713   1.00846   1.04893   1.05747
 Alpha virt. eigenvalues --    1.06369   1.08965   1.09415   1.10277   1.14232
 Alpha virt. eigenvalues --    1.15039   1.17087   1.18581   1.18823   1.21512
 Alpha virt. eigenvalues --    1.22867   1.24606   1.29565   1.32554   1.33074
 Alpha virt. eigenvalues --    1.37705   1.40877   1.42546   1.42948   1.47654
 Alpha virt. eigenvalues --    1.48530   1.50176   1.54398   1.61901   1.65749
 Alpha virt. eigenvalues --    1.67608   1.68678   1.72645   1.74566   1.79763
 Alpha virt. eigenvalues --    1.80848   1.84346   1.86444   1.91490   1.94481
 Alpha virt. eigenvalues --    2.01018   2.29646   2.39647   2.50947   2.51923
 Alpha virt. eigenvalues --    2.53901   2.59742   2.60286   2.62704   2.66934
 Alpha virt. eigenvalues --    2.69044   2.71321   2.72649   2.74043   2.77399
 Alpha virt. eigenvalues --    2.78127   2.80167   2.80212   2.82217   2.89347
 Alpha virt. eigenvalues --    2.92071   2.99266   2.99307   3.04484   3.09602
 Alpha virt. eigenvalues --    3.15218   3.16477   3.20496   3.22630   3.24320
 Alpha virt. eigenvalues --    3.28556   3.30594   3.32457   3.33850   3.34082
 Alpha virt. eigenvalues --    3.39970   3.40573   3.41726   3.47395   3.51333
 Alpha virt. eigenvalues --    3.54491   3.56414   3.59737   3.70574   3.95724
 Alpha virt. eigenvalues --    4.26423   4.31296   4.47260   4.54785   4.59851
 Alpha virt. eigenvalues --    4.79572   4.99273   5.17498   5.37541   5.37962
 Alpha virt. eigenvalues --    5.66076   6.39210   6.58980   6.69462   6.86611
 Alpha virt. eigenvalues --    6.91228   6.92793   7.01990   7.26423   7.31846
 Alpha virt. eigenvalues --    7.35594   7.45997   7.57683   7.77499   7.84714
 Alpha virt. eigenvalues --    8.37810  14.44338
          Condensed to atoms (all electrons):
               1          2          3          4
     1  O    8.658532  -0.121592  -0.097478   0.060514
     2  Cl  -0.121592  17.082805   0.003606  -0.002395
     3  Cl  -0.097478   0.003606  17.856025   0.067367
     4  H    0.060514  -0.002395   0.067367   0.582594
 Mulliken charges:
               1
     1  O   -0.499976
     2  Cl   0.037576
     3  Cl  -0.829520
     4  H    0.291920
 Sum of Mulliken charges =  -1.00000
 Mulliken charges with hydrogens summed into heavy atoms:
               1
     1  O   -0.208056
     2  Cl   0.037576
     3  Cl  -0.829520
 Electronic spatial extent (au):  <R**2>=            793.3175
 Charge=             -1.0000 electrons
 Dipole moment (field-independent basis, Debye):
    X=              1.4617    Y=              9.4349    Z=             -0.0000  Tot=              9.5475
 Quadrupole moment (field-independent basis, Debye-Ang):
   XX=            -38.9929   YY=            -66.1584   ZZ=            -36.6607
   XY=             -7.4837   XZ=              0.0000   YZ=             -0.0000
 Traceless Quadrupole moment (field-independent basis, Debye-Ang):
   XX=              8.2778   YY=            -18.8877   ZZ=             10.6099
   XY=             -7.4837   XZ=              0.0000   YZ=             -0.0000
 Octapole moment (field-independent basis, Debye-Ang**2):
  XXX=            -30.9743  YYY=            224.9904  ZZZ=              0.0000  XYY=              9.0744
  XXY=             51.4131  XXZ=              0.0000  XZZ=            -11.8112  YZZ=             46.7280
  YYZ=              0.0000  XYZ=             -0.0000
 Hexadecapole moment (field-independent basis, Debye-Ang**3):
 XXXX=           -306.0686 YYYY=          -1067.8535 ZZZZ=            -49.5848 XXXY=            -99.3023
 XXXZ=              0.0000 YYYX=           -152.1446 YYYZ=             -0.0000 ZZZX=              0.0000
 ZZZY=             -0.0000 XXYY=           -208.2971 XXZZ=            -63.9132 YYZZ=           -147.8606
 XXYZ=             -0.0000 YYXZ=              0.0000 ZZXY=            -31.9352
 N-N= 1.221428427835D+02 E-N=-2.622104561298D+03  KE= 9.950214934235D+02
 No NMR shielding tensors so no spin-rotation constants.
 Leave Link  601 at Fri Oct 15 16:15:29 2021, MaxMem= 16106127360 cpu:               4.2 elap:               0.2
 (Enter /sw/contrib/gaussian/g16/B01/g16/l607.exe)
 ******************************Gaussian NBO Version 3.1******************************
             N A T U R A L   A T O M I C   O R B I T A L   A N D
          N A T U R A L   B O N D   O R B I T A L   A N A L Y S I S
 ******************************Gaussian NBO Version 3.1******************************
       /RESON  / : Allow strongly delocalized NBO set

 Analyzing the MP2 density

 Job title: title                                                           

 Storage needed:     86521 in NPA,    114817 in NBO (********** available)
 GSVD:  LWork=        1191 too small for GESVD, short by       52514 words or       52514 for optimal perf.


 NATURAL POPULATIONS:  Natural atomic orbital occupancies 
                                                          
   NAO  Atom  No  lang   Type(AO)    Occupancy
 --------------------------------------------
     1    O    1  S      Cor( 1S)     1.99969
     2    O    1  S      Val( 2S)     1.79243
     3    O    1  S      Ryd( 3S)     0.00992
     4    O    1  S      Ryd( 4S)     0.00112
     5    O    1  S      Ryd( 5S)     0.00018
     6    O    1  px     Val( 2p)     1.19950
     7    O    1  px     Ryd( 3p)     0.00677
     8    O    1  px     Ryd( 4p)     0.00063
     9    O    1  px     Ryd( 5p)     0.00041
    10    O    1  py     Val( 2p)     1.72067
    11    O    1  py     Ryd( 3p)     0.01247
    12    O    1  py     Ryd( 4p)     0.00076
    13    O    1  py     Ryd( 5p)     0.00042
    14    O    1  pz     Val( 2p)     1.94745
    15    O    1  pz     Ryd( 3p)     0.02033
    16    O    1  pz     Ryd( 4p)     0.00067
    17    O    1  pz     Ryd( 5p)     0.00013
    18    O    1  dxy    Ryd( 3d)     0.00858
    19    O    1  dxy    Ryd( 4d)     0.00046
    20    O    1  dxy    Ryd( 5d)     0.00014
    21    O    1  dxz    Ryd( 3d)     0.00873
    22    O    1  dxz    Ryd( 4d)     0.00057
    23    O    1  dxz    Ryd( 5d)     0.00010
    24    O    1  dyz    Ryd( 3d)     0.00742
    25    O    1  dyz    Ryd( 4d)     0.00062
    26    O    1  dyz    Ryd( 5d)     0.00038
    27    O    1  dx2y2  Ryd( 3d)     0.01353
    28    O    1  dx2y2  Ryd( 4d)     0.00037
    29    O    1  dx2y2  Ryd( 5d)     0.00017
    30    O    1  dz2    Ryd( 3d)     0.00963
    31    O    1  dz2    Ryd( 4d)     0.00057
    32    O    1  dz2    Ryd( 5d)     0.00015
    33    O    1  f(0)   Ryd( 4f)     0.00070
    34    O    1  f(0)   Ryd( 5f)     0.00010
    35    O    1  f(C1)  Ryd( 4f)     0.00067
    36    O    1  f(C1)  Ryd( 5f)     0.00011
    37    O    1  f(S1)  Ryd( 4f)     0.00059
    38    O    1  f(S1)  Ryd( 5f)     0.00011
    39    O    1  f(C2)  Ryd( 4f)     0.00060
    40    O    1  f(C2)  Ryd( 5f)     0.00013
    41    O    1  f(S2)  Ryd( 4f)     0.00054
    42    O    1  f(S2)  Ryd( 5f)     0.00012
    43    O    1  f(C3)  Ryd( 4f)     0.00059
    44    O    1  f(C3)  Ryd( 5f)     0.00014
    45    O    1  f(S3)  Ryd( 4f)     0.00054
    46    O    1  f(S3)  Ryd( 5f)     0.00013

    47   Cl    2  S      Cor( 1S)     2.00000
    48   Cl    2  S      Cor( 2S)     1.99979
    49   Cl    2  S      Val( 3S)     1.88054
    50   Cl    2  S      Ryd( 4S)     0.00816
    51   Cl    2  S      Ryd( 5S)     0.00054
    52   Cl    2  S      Ryd( 6S)     0.00016
    53   Cl    2  px     Cor( 2p)     1.99996
    54   Cl    2  px     Val( 3p)     0.91619
    55   Cl    2  px     Ryd( 4p)     0.00669
    56   Cl    2  px     Ryd( 5p)     0.00053
    57   Cl    2  px     Ryd( 6p)     0.00021
    58   Cl    2  py     Cor( 2p)     2.00003
    59   Cl    2  py     Val( 3p)     1.95318
    60   Cl    2  py     Ryd( 4p)     0.00998
    61   Cl    2  py     Ryd( 5p)     0.00052
    62   Cl    2  py     Ryd( 6p)     0.00008
    63   Cl    2  pz     Cor( 2p)     2.00003
    64   Cl    2  pz     Val( 3p)     1.95428
    65   Cl    2  pz     Ryd( 4p)     0.01082
    66   Cl    2  pz     Ryd( 5p)     0.00069
    67   Cl    2  pz     Ryd( 6p)     0.00002
    68   Cl    2  dxy    Ryd( 3d)     0.01708
    69   Cl    2  dxy    Ryd( 4d)     0.00093
    70   Cl    2  dxy    Ryd( 5d)     0.00035
    71   Cl    2  dxz    Ryd( 3d)     0.02187
    72   Cl    2  dxz    Ryd( 4d)     0.00118
    73   Cl    2  dxz    Ryd( 5d)     0.00037
    74   Cl    2  dyz    Ryd( 3d)     0.01681
    75   Cl    2  dyz    Ryd( 4d)     0.00072
    76   Cl    2  dyz    Ryd( 5d)     0.00021
    77   Cl    2  dx2y2  Ryd( 3d)     0.01856
    78   Cl    2  dx2y2  Ryd( 4d)     0.00047
    79   Cl    2  dx2y2  Ryd( 5d)     0.00017
    80   Cl    2  dz2    Ryd( 3d)     0.01755
    81   Cl    2  dz2    Ryd( 4d)     0.00059
    82   Cl    2  dz2    Ryd( 5d)     0.00017
    83   Cl    2  f(0)   Ryd( 4f)     0.00131
    84   Cl    2  f(0)   Ryd( 5f)     0.00014
    85   Cl    2  f(C1)  Ryd( 4f)     0.00145
    86   Cl    2  f(C1)  Ryd( 5f)     0.00015
    87   Cl    2  f(S1)  Ryd( 4f)     0.00127
    88   Cl    2  f(S1)  Ryd( 5f)     0.00013
    89   Cl    2  f(C2)  Ryd( 4f)     0.00135
    90   Cl    2  f(C2)  Ryd( 5f)     0.00013
    91   Cl    2  f(S2)  Ryd( 4f)     0.00120
    92   Cl    2  f(S2)  Ryd( 5f)     0.00013
    93   Cl    2  f(C3)  Ryd( 4f)     0.00157
    94   Cl    2  f(C3)  Ryd( 5f)     0.00013
    95   Cl    2  f(S3)  Ryd( 4f)     0.00127
    96   Cl    2  f(S3)  Ryd( 5f)     0.00014

    97   Cl    3  S      Cor( 1S)     2.00000
    98   Cl    3  S      Cor( 2S)     1.99994
    99   Cl    3  S      Val( 3S)     1.96047
   100   Cl    3  S      Ryd( 4S)     0.00159
   101   Cl    3  S      Ryd( 5S)     0.00022
   102   Cl    3  S      Ryd( 6S)     0.00010
   103   Cl    3  px     Cor( 2p)     2.00003
   104   Cl    3  px     Val( 3p)     1.94584
   105   Cl    3  px     Ryd( 4p)     0.01220
   106   Cl    3  px     Ryd( 5p)     0.00056
   107   Cl    3  px     Ryd( 6p)     0.00007
   108   Cl    3  py     Cor( 2p)     2.00002
   109   Cl    3  py     Val( 3p)     1.84612
   110   Cl    3  py     Ryd( 4p)     0.01022
   111   Cl    3  py     Ryd( 5p)     0.00052
   112   Cl    3  py     Ryd( 6p)     0.00008
   113   Cl    3  pz     Cor( 2p)     2.00003
   114   Cl    3  pz     Val( 3p)     1.95229
   115   Cl    3  pz     Ryd( 4p)     0.01240
   116   Cl    3  pz     Ryd( 5p)     0.00056
   117   Cl    3  pz     Ryd( 6p)     0.00006
   118   Cl    3  dxy    Ryd( 3d)     0.01851
   119   Cl    3  dxy    Ryd( 4d)     0.00066
   120   Cl    3  dxy    Ryd( 5d)     0.00012
   121   Cl    3  dxz    Ryd( 3d)     0.01824
   122   Cl    3  dxz    Ryd( 4d)     0.00095
   123   Cl    3  dxz    Ryd( 5d)     0.00013
   124   Cl    3  dyz    Ryd( 3d)     0.01856
   125   Cl    3  dyz    Ryd( 4d)     0.00069
   126   Cl    3  dyz    Ryd( 5d)     0.00012
   127   Cl    3  dx2y2  Ryd( 3d)     0.01842
   128   Cl    3  dx2y2  Ryd( 4d)     0.00079
   129   Cl    3  dx2y2  Ryd( 5d)     0.00013
   130   Cl    3  dz2    Ryd( 3d)     0.01830
   131   Cl    3  dz2    Ryd( 4d)     0.00091
   132   Cl    3  dz2    Ryd( 5d)     0.00011
   133   Cl    3  f(0)   Ryd( 4f)     0.00128
   134   Cl    3  f(0)   Ryd( 5f)     0.00016
   135   Cl    3  f(C1)  Ryd( 4f)     0.00128
   136   Cl    3  f(C1)  Ryd( 5f)     0.00014
   137   Cl    3  f(S1)  Ryd( 4f)     0.00130
   138   Cl    3  f(S1)  Ryd( 5f)     0.00017
   139   Cl    3  f(C2)  Ryd( 4f)     0.00127
   140   Cl    3  f(C2)  Ryd( 5f)     0.00016
   141   Cl    3  f(S2)  Ryd( 4f)     0.00129
   142   Cl    3  f(S2)  Ryd( 5f)     0.00015
   143   Cl    3  f(C3)  Ryd( 4f)     0.00127
   144   Cl    3  f(C3)  Ryd( 5f)     0.00017
   145   Cl    3  f(S3)  Ryd( 4f)     0.00128
   146   Cl    3  f(S3)  Ryd( 5f)     0.00017

   147    H    4  S      Val( 1S)     0.50250
   148    H    4  S      Ryd( 2S)     0.00799
   149    H    4  S      Ryd( 3S)     0.00026
   150    H    4  S      Ryd( 4S)     0.00020
   151    H    4  px     Ryd( 2p)     0.00414
   152    H    4  px     Ryd( 3p)     0.00052
   153    H    4  px     Ryd( 4p)     0.00012
   154    H    4  py     Ryd( 2p)     0.00520
   155    H    4  py     Ryd( 3p)     0.00109
   156    H    4  py     Ryd( 4p)     0.00029
   157    H    4  pz     Ryd( 2p)     0.00531
   158    H    4  pz     Ryd( 3p)     0.00036
   159    H    4  pz     Ryd( 4p)     0.00029
   160    H    4  dxy    Ryd( 3d)     0.00026
   161    H    4  dxy    Ryd( 4d)     0.00011
   162    H    4  dxz    Ryd( 3d)     0.00022
   163    H    4  dxz    Ryd( 4d)     0.00007
   164    H    4  dyz    Ryd( 3d)     0.00041
   165    H    4  dyz    Ryd( 4d)     0.00011
   166    H    4  dx2y2  Ryd( 3d)     0.00020
   167    H    4  dx2y2  Ryd( 4d)     0.00012
   168    H    4  dz2    Ryd( 3d)     0.00024
   169    H    4  dz2    Ryd( 4d)     0.00009


 Summary of Natural Population Analysis:                  
                                                          
                                       Natural Population 
                Natural  -----------------------------------------------
    Atom  No    Charge         Core      Valence    Rydberg      Total
 -----------------------------------------------------------------------
      O    1   -0.77004      1.99969     6.66006    0.11030     8.77004
     Cl    2    0.15020      9.99981     6.70419    0.14580    16.84980
     Cl    3   -0.85006     10.00002     7.70472    0.14532    17.85006
      H    4    0.46989      0.00000     0.50250    0.02760     0.53011
 =======================================================================
   * Total *   -1.00000     21.99951    21.57147    0.42902    44.00000

                                 Natural Population      
 --------------------------------------------------------
   Core                      21.99951 ( 99.9978% of  22)
   Valence                   21.57147 ( 98.0521% of  22)
   Natural Minimal Basis     43.57098 ( 99.0250% of  44)
   Natural Rydberg Basis      0.42902 (  0.9750% of  44)
 --------------------------------------------------------

    Atom  No          Natural Electron Configuration
 ----------------------------------------------------------------------------
      O    1      [core]2S( 1.79)2p( 4.87)3S( 0.01)3p( 0.04)3d( 0.05)
     Cl    2      [core]3S( 1.88)3p( 4.82)4S( 0.01)3d( 0.09)4p( 0.03)4f( 0.01)
     Cl    3      [core]3S( 1.96)3p( 5.74)3d( 0.09)4p( 0.03)4f( 0.01)
      H    4            1S( 0.50)2S( 0.01)2p( 0.01)


 NATURAL BOND ORBITAL ANALYSIS:
 Warning:  a bond orbital has occupanc of -0.00003
 Warning:  a bond orbital has occupanc of -0.00000

                       Occupancies       Lewis Structure    Low   High
           Occ.    -------------------  -----------------   occ   occ
  Cycle   Thresh.   Lewis   Non-Lewis     CR  BD  3C  LP    (L)   (NL)   Dev
 =============================================================================
   1(1)    1.90    43.41264   0.58736     11   2   0   9     1      1    0.18
 Warning:  a bond orbital has occupanc of -0.00003
 Warning:  a bond orbital has occupanc of -0.00000
   2(2)    1.90    43.17858   0.82142     11   2   0   9     1      1    0.53
 Warning:  a bond orbital has occupanc of -0.00003
 Warning:  a bond orbital has occupanc of -0.00000
   3(3)    1.90    43.41264   0.58736     11   2   0   9     1      1    0.18
 Warning:  a bond orbital has occupanc of -0.00003
 Warning:  a bond orbital has occupanc of -0.00000
   4(1)    1.80    43.41264   0.58736     11   2   0   9     0      1    0.18
 Warning:  a bond orbital has occupanc of -0.00003
 Warning:  a bond orbital has occupanc of -0.00000
   5(2)    1.80    43.41264   0.58736     11   2   0   9     0      1    0.18
 Warning:  a bond orbital has occupanc of -0.00003
 Warning:  a bond orbital has occupanc of -0.00000
   6(1)    1.70    43.41264   0.58736     11   2   0   9     0      1    0.18
 Warning:  a bond orbital has occupanc of -0.00003
 Warning:  a bond orbital has occupanc of -0.00000
   7(2)    1.70    43.41264   0.58736     11   2   0   9     0      1    0.18
 Warning:  a bond orbital has occupanc of -0.00003
 Warning:  a bond orbital has occupanc of -0.00000
   8(1)    1.60    43.05870   0.94130     11   1   0  10     0      1    0.53
 Warning:  a bond orbital has occupanc of -0.00003
 Warning:  a bond orbital has occupanc of -0.00000
   9(2)    1.60    43.05870   0.94130     11   1   0  10     0      1    0.53
 Warning:  a bond orbital has occupanc of -0.00003
 Warning:  a bond orbital has occupanc of -0.00000
  10(1)    1.50    43.05870   0.94130     11   1   0  10     0      1    0.53
 Warning:  a bond orbital has occupanc of -0.00003
 Warning:  a bond orbital has occupanc of -0.00000
  11(2)    1.50    43.05870   0.94130     11   1   0  10     0      1    0.53
 Warning:  a bond orbital has occupanc of -0.00003
 Warning:  a bond orbital has occupanc of -0.00000
  12(1)    1.90    43.41264   0.58736     11   2   0   9     1      1    0.18
 -----------------------------------------------------------------------------

 Structure accepted: RESONANCE keyword permits strongly delocalized structure

 --------------------------------------------------------
   Core                     21.99951 ( 99.998% of  22)
   Valence Lewis            21.41313 ( 97.332% of  22)
  ==================       ============================
   Total Lewis              43.41264 ( 98.665% of  44)
  -----------------------------------------------------
   Valence non-Lewis         0.20473 (  0.465% of  44)
   Rydberg non-Lewis         0.38262 (  0.870% of  44)
  ==================       ============================
   Total non-Lewis           0.58736 (  1.335% of  44)
 --------------------------------------------------------


       (Occupancy)   Bond orbital/ Coefficients/ Hybrids
 ---------------------------------------------------------------------------------
     1. (1.93943) BD ( 1) O   1 -Cl   2  
                ( 58.51%)   0.7649* O   1 s( 10.59%)p 8.39( 88.87%)d 0.05(  0.52%)
                                                  f 0.00(  0.02%)
                                            0.0003  0.3219 -0.0456 -0.0154 -0.0006
                                            0.9411 -0.0334 -0.0106 -0.0122 -0.0301
                                           -0.0280 -0.0051  0.0003  0.0000  0.0000
                                            0.0000  0.0000 -0.0206 -0.0013  0.0027
                                            0.0000  0.0000  0.0000  0.0000  0.0000
                                            0.0000  0.0539  0.0046  0.0026 -0.0426
                                           -0.0035  0.0005  0.0000  0.0000 -0.0112
                                            0.0012 -0.0002  0.0002  0.0000  0.0000
                                            0.0000  0.0000  0.0063  0.0008 -0.0006
                                            0.0020
                ( 41.49%)   0.6441*Cl   2 s(  8.76%)p10.28( 89.99%)d 0.13(  1.14%)
                                                  f 0.01(  0.11%)
                                           -0.0000  0.0005  0.2900 -0.0576 -0.0104
                                           -0.0022 -0.0004 -0.9462  0.0659  0.0140
                                           -0.0046 -0.0000 -0.0109 -0.0014  0.0028
                                           -0.0009  0.0000  0.0000  0.0000  0.0000
                                            0.0000  0.0126  0.0000  0.0007  0.0000
                                            0.0000  0.0000  0.0000  0.0000  0.0000
                                            0.0889 -0.0111 -0.0004 -0.0563  0.0065
                                            0.0010  0.0000  0.0000  0.0210 -0.0031
                                            0.0005 -0.0002  0.0000  0.0000  0.0000
                                            0.0000 -0.0257  0.0030 -0.0015  0.0002
     2. (1.96400) BD ( 1) O   1 - H   4  
                ( 80.47%)   0.8970* O   1 s( 29.06%)p 2.43( 70.47%)d 0.02(  0.46%)
                                                  f 0.00(  0.01%)
                                           -0.0003 -0.5390  0.0027  0.0080 -0.0026
                                            0.2081 -0.0153 -0.0027 -0.0039  0.8131
                                           -0.0027 -0.0064 -0.0037  0.0000  0.0000
                                            0.0000  0.0000  0.0010  0.0024  0.0002
                                            0.0000  0.0000  0.0000  0.0000  0.0000
                                            0.0000  0.0576  0.0062  0.0014  0.0346
                                            0.0015 -0.0035  0.0000  0.0000 -0.0018
                                           -0.0006 -0.0088 -0.0001  0.0000  0.0000
                                            0.0000  0.0000 -0.0021 -0.0023  0.0004
                                           -0.0017
                ( 19.53%)   0.4419* H   4 s( 99.81%)p 0.00(  0.19%)d 0.00(  0.00%)
                                           -0.9981 -0.0440 -0.0049  0.0017 -0.0093
                                           -0.0106 -0.0024  0.0196 -0.0339  0.0110
                                            0.0000  0.0000  0.0000  0.0005  0.0014
                                            0.0000  0.0000  0.0000  0.0000  0.0023
                                            0.0015 -0.0004  0.0043
     3. (1.99969) CR ( 1) O   1           s(100.00%)p 0.00(  0.00%)
                                            1.0000 -0.0004  0.0000  0.0000 -0.0000
                                           -0.0002  0.0000  0.0000  0.0000  0.0001
                                            0.0000 -0.0000 -0.0000  0.0000  0.0000
                                            0.0000  0.0000  0.0000  0.0000 -0.0000
                                            0.0000  0.0000  0.0000  0.0000  0.0000
                                            0.0000 -0.0000  0.0000  0.0000  0.0000
                                            0.0000 -0.0000  0.0000  0.0000  0.0000
                                           -0.0000 -0.0000 -0.0000  0.0000  0.0000
                                            0.0000  0.0000 -0.0000 -0.0000 -0.0000
                                           -0.0000
     4. (2.00000) CR ( 1)Cl   2           s(100.00%)
                                            1.0000  0.0000 -0.0000 -0.0000 -0.0000
                                           -0.0000 -0.0000 -0.0000  0.0000  0.0000
                                           -0.0000 -0.0000 -0.0000 -0.0000  0.0000
                                           -0.0000  0.0000  0.0000  0.0000  0.0000
                                            0.0000  0.0000 -0.0000  0.0000  0.0000
                                            0.0000  0.0000  0.0000  0.0000  0.0000
                                            0.0000 -0.0000 -0.0000 -0.0000  0.0000
                                            0.0000  0.0000  0.0000  0.0000 -0.0000
                                            0.0000 -0.0000  0.0000  0.0000  0.0000
                                            0.0000 -0.0000  0.0000 -0.0000  0.0000
     5. (1.99979) CR ( 2)Cl   2           s(100.00%)p 0.00(  0.00%)
                                            0.0000  1.0000 -0.0004  0.0000  0.0000
                                            0.0000  0.0000  0.0004 -0.0000 -0.0000
                                            0.0000  0.0000  0.0000  0.0000 -0.0000
                                            0.0000  0.0000  0.0000  0.0000  0.0000
                                            0.0000 -0.0000  0.0000 -0.0000  0.0000
                                            0.0000  0.0000  0.0000  0.0000  0.0000
                                           -0.0000  0.0000  0.0000  0.0000 -0.0000
                                           -0.0000  0.0000  0.0000 -0.0000  0.0000
                                           -0.0000  0.0000  0.0000  0.0000  0.0000
                                            0.0000  0.0000 -0.0000  0.0000 -0.0000
     6. (1.99996) CR ( 3)Cl   2           s(  0.00%)p 1.00(100.00%)
                                           -0.0000  0.0000  0.0001 -0.0000 -0.0000
                                           -0.0000  1.0000 -0.0004  0.0000  0.0000
                                           -0.0000  0.0000 -0.0000 -0.0000  0.0000
                                           -0.0000  0.0000  0.0000  0.0000  0.0000
                                            0.0000  0.0000 -0.0000  0.0000  0.0000
                                            0.0000  0.0000  0.0000  0.0000  0.0000
                                            0.0000 -0.0000 -0.0000 -0.0000  0.0000
                                            0.0000  0.0000  0.0000  0.0000 -0.0000
                                            0.0000 -0.0000  0.0000  0.0000  0.0000
                                            0.0000 -0.0000  0.0000 -0.0000  0.0000
     7. (2.00003) CR ( 4)Cl   2           s(  0.00%)p 1.00(100.00%)
                                           -0.0000  0.0000  0.0000  0.0000  0.0000
                                           -0.0000  0.0000 -0.0000  0.0000  0.0000
                                           -0.0000  1.0000  0.0002  0.0000  0.0000
                                            0.0000  0.0000  0.0000  0.0000  0.0000
                                            0.0000  0.0000  0.0000  0.0000  0.0000
                                            0.0000  0.0000  0.0000  0.0000  0.0000
                                           -0.0000 -0.0000 -0.0000 -0.0000 -0.0000
                                           -0.0000  0.0000  0.0000  0.0000  0.0000
                                           -0.0000  0.0000  0.0000  0.0000  0.0000
                                            0.0000 -0.0000  0.0000  0.0000 -0.0000
     8. (2.00003) CR ( 5)Cl   2           s(  0.00%)p 1.00(100.00%)
                                            0.0000  0.0000  0.0000  0.0000  0.0000
                                            0.0000  0.0000  0.0000  0.0000  0.0000
                                            0.0000  0.0000  0.0000  0.0000  0.0000
                                            0.0000  1.0000  0.0002  0.0000  0.0000
                                           -0.0000  0.0000  0.0000  0.0000  0.0000
                                            0.0000  0.0000  0.0000  0.0000  0.0000
                                            0.0000  0.0000  0.0000  0.0000  0.0000
                                            0.0000 -0.0000  0.0000  0.0000  0.0000
                                            0.0000  0.0000  0.0000 -0.0000  0.0000
                                           -0.0000  0.0000  0.0000  0.0000  0.0000
     9. (2.00000) CR ( 1)Cl   3           s(100.00%)
                                            1.0000  0.0000  0.0000 -0.0000  0.0000
                                           -0.0000  0.0000 -0.0000  0.0000 -0.0000
                                            0.0000 -0.0000 -0.0000  0.0000 -0.0000
                                            0.0000  0.0000  0.0000  0.0000  0.0000
                                            0.0000 -0.0000 -0.0000 -0.0000  0.0000
                                            0.0000  0.0000  0.0000  0.0000  0.0000
                                            0.0000 -0.0000  0.0000  0.0000  0.0000
                                            0.0000  0.0000  0.0000  0.0000  0.0000
                                           -0.0000 -0.0000  0.0000  0.0000  0.0000
                                            0.0000  0.0000  0.0000 -0.0000 -0.0000
    10. (1.99994) CR ( 2)Cl   3           s(100.00%)
                                            0.0000  1.0000 -0.0001  0.0000 -0.0000
                                            0.0000 -0.0000  0.0000 -0.0000  0.0000
                                           -0.0000  0.0000  0.0000 -0.0000  0.0000
                                           -0.0000  0.0000  0.0000  0.0000  0.0000
                                            0.0000  0.0000  0.0000  0.0000  0.0000
                                            0.0000  0.0000  0.0000  0.0000  0.0000
                                           -0.0000  0.0000 -0.0000 -0.0000 -0.0000
                                           -0.0000  0.0000  0.0000 -0.0000 -0.0000
                                            0.0000  0.0000  0.0000  0.0000  0.0000
                                            0.0000  0.0000  0.0000  0.0000  0.0000
    11. (2.00003) CR ( 3)Cl   3           s(  0.00%)p 1.00(100.00%)
                                            0.0000 -0.0000 -0.0000  0.0000 -0.0000
                                            0.0000  1.0000  0.0000  0.0000  0.0000
                                           -0.0000  0.0000 -0.0000 -0.0000 -0.0000
                                            0.0000  0.0000  0.0000  0.0000  0.0000
                                            0.0000  0.0000  0.0000 -0.0000  0.0000
                                            0.0000  0.0000  0.0000  0.0000  0.0000
                                            0.0000 -0.0000 -0.0000  0.0000  0.0000
                                            0.0000  0.0000  0.0000 -0.0000 -0.0000
                                            0.0000  0.0000  0.0000  0.0000  0.0000
                                            0.0000 -0.0000 -0.0000  0.0000  0.0000
    12. (2.00002) CR ( 4)Cl   3           s(  0.00%)p 1.00(100.00%)
                                           -0.0000  0.0000  0.0000 -0.0000  0.0000
                                           -0.0000  0.0000 -0.0000 -0.0000 -0.0000
                                            0.0000  1.0000 -0.0000  0.0000 -0.0000
                                            0.0000  0.0000  0.0000  0.0000  0.0000
                                            0.0000 -0.0000 -0.0000 -0.0000  0.0000
                                            0.0000  0.0000  0.0000  0.0000  0.0000
                                            0.0000 -0.0000  0.0000  0.0000  0.0000
                                            0.0000  0.0000  0.0000  0.0000  0.0000
                                           -0.0000 -0.0000  0.0000  0.0000  0.0000
                                            0.0000  0.0000  0.0000 -0.0000 -0.0000
    13. (2.00003) CR ( 5)Cl   3           s(  0.00%)p 1.00(100.00%)
                                            0.0000  0.0000  0.0000  0.0000  0.0000
                                            0.0000  0.0000  0.0000  0.0000  0.0000
                                            0.0000  0.0000  0.0000  0.0000  0.0000
                                            0.0000  1.0000  0.0000  0.0000  0.0000
                                           -0.0000  0.0000  0.0000  0.0000  0.0000
                                            0.0000 -0.0000  0.0000  0.0000 -0.0000
                                            0.0000  0.0000  0.0000  0.0000  0.0000
                                            0.0000 -0.0000 -0.0000  0.0000  0.0000
                                            0.0000  0.0000 -0.0000 -0.0000  0.0000
                                            0.0000  0.0000  0.0000  0.0000  0.0000
    14. (1.96597) LP ( 1) O   1           s( 60.52%)p 0.65( 39.39%)d 0.00(  0.09%)
                                                  f 0.00(  0.00%)
                                            0.0002  0.7778  0.0106  0.0086 -0.0017
                                           -0.2467 -0.0021 -0.0041 -0.0022  0.5770
                                            0.0084  0.0059  0.0019  0.0000  0.0000
                                            0.0000  0.0000  0.0224  0.0021 -0.0036
                                            0.0000  0.0000  0.0000  0.0000  0.0000
                                            0.0000  0.0152  0.0000 -0.0043  0.0114
                                            0.0006  0.0006  0.0000  0.0000 -0.0000
                                            0.0005 -0.0027  0.0001  0.0000  0.0000
                                            0.0000  0.0000  0.0034 -0.0023  0.0039
                                           -0.0017
    15. (1.95193) LP ( 2) O   1           s(  0.00%)p 1.00( 99.81%)d 0.00(  0.17%)
                                                  f 0.00(  0.01%)
                                            0.0000  0.0000  0.0000  0.0000  0.0000
                                            0.0000  0.0000  0.0000  0.0000  0.0000
                                            0.0000  0.0000  0.0000  0.9988  0.0184
                                            0.0060  0.0073  0.0000  0.0000  0.0000
                                            0.0309  0.0050 -0.0008 -0.0244  0.0045
                                            0.0121  0.0000  0.0000  0.0000  0.0000
                                            0.0000  0.0000 -0.0099  0.0004  0.0000
                                            0.0000  0.0000  0.0000  0.0053 -0.0024
                                            0.0008  0.0013  0.0000  0.0000  0.0000
                                            0.0000
    16. (1.97403) LP ( 1)Cl   2           s( 91.44%)p 0.09(  8.53%)d 0.00(  0.02%)
                                                  f 0.00(  0.00%)
                                            0.0000  0.0003  0.9562  0.0069  0.0012
                                            0.0003  0.0000  0.2907 -0.0063 -0.0031
                                            0.0014  0.0000 -0.0272  0.0014  0.0001
                                           -0.0004  0.0000  0.0000  0.0000  0.0000
                                            0.0000 -0.0001 -0.0005 -0.0004  0.0000
                                            0.0000  0.0000  0.0000  0.0000  0.0000
                                           -0.0123  0.0005  0.0001  0.0078  0.0005
                                            0.0003  0.0000  0.0000 -0.0021 -0.0004
                                            0.0001 -0.0000  0.0000  0.0000  0.0000
                                            0.0000  0.0034 -0.0001 -0.0005  0.0002
    17. (1.95597) LP ( 2)Cl   2           s(  0.00%)p 1.00( 99.94%)d 0.00(  0.05%)
                                                  f 0.00(  0.01%)
                                            0.0000  0.0000  0.0000  0.0000  0.0000
                                            0.0000  0.0000  0.0000  0.0000  0.0000
                                            0.0000  0.0000  0.0000  0.0000  0.0000
                                            0.0000 -0.0002  0.9996  0.0157  0.0052
                                           -0.0024  0.0000  0.0000  0.0000  0.0091
                                            0.0185  0.0082  0.0035  0.0029  0.0006
                                            0.0000  0.0000  0.0000  0.0000  0.0000
                                            0.0000 -0.0054  0.0011  0.0000  0.0000
                                            0.0000  0.0000  0.0065 -0.0011  0.0008
                                           -0.0007  0.0000  0.0000  0.0000  0.0000
    18. (1.95476) LP ( 3)Cl   2           s(  0.09%)p99.99( 99.86%)d 0.46(  0.04%)
                                                  f 0.09(  0.01%)
                                            0.0000 -0.0000  0.0294  0.0061  0.0037
                                           -0.0018  0.0000 -0.0036 -0.0004 -0.0002
                                           -0.0008 -0.0002  0.9992  0.0132  0.0015
                                            0.0001  0.0000  0.0000  0.0000  0.0000
                                            0.0000  0.0005  0.0162  0.0079  0.0000
                                            0.0000  0.0000  0.0000  0.0000  0.0000
                                           -0.0076 -0.0047 -0.0027 -0.0009 -0.0028
                                           -0.0003  0.0000  0.0000  0.0001  0.0002
                                           -0.0023  0.0002  0.0000  0.0000  0.0000
                                            0.0000 -0.0012  0.0002  0.0086 -0.0015
    19. (1.97672) LP ( 1)Cl   3           s( 89.34%)p 0.12( 10.66%)d 0.00(  0.00%)
                                                  f 0.00(  0.00%)
                                           -0.0000  0.0001  0.9452 -0.0004  0.0010
                                           -0.0003  0.0000 -0.0837  0.0003 -0.0003
                                           -0.0000 -0.0000 -0.3156  0.0022 -0.0007
                                            0.0001  0.0000  0.0000  0.0000  0.0000
                                            0.0000 -0.0007 -0.0001 -0.0003  0.0000
                                            0.0000  0.0000  0.0000  0.0000  0.0000
                                            0.0012 -0.0001  0.0004  0.0009  0.0001
                                            0.0004  0.0000  0.0000 -0.0000  0.0000
                                           -0.0001 -0.0001  0.0000  0.0000  0.0000
                                            0.0000 -0.0001 -0.0000 -0.0001 -0.0001
    20. (1.95260) LP ( 2)Cl   3           s(  0.00%)p 1.00( 99.99%)d 0.00(  0.01%)
                                                  f 0.00(  0.00%)
                                            0.0000  0.0000  0.0000  0.0000  0.0000
                                            0.0000  0.0000  0.0000  0.0000  0.0000
                                            0.0000  0.0000  0.0000  0.0000  0.0000
                                            0.0000 -0.0000  0.9999  0.0032  0.0018
                                           -0.0006  0.0000  0.0000  0.0000  0.0024
                                            0.0003 -0.0003  0.0108  0.0017 -0.0012
                                            0.0000  0.0000  0.0000  0.0000  0.0000
                                            0.0000 -0.0024 -0.0013  0.0000  0.0000
                                            0.0000  0.0000 -0.0026 -0.0013  0.0014
                                            0.0008  0.0000  0.0000  0.0000  0.0000
    21. (1.95221) LP ( 3)Cl   3           s(  0.01%)p 1.00( 99.98%)d 0.00(  0.01%)
                                                  f 0.00(  0.00%)
                                            0.0000 -0.0000  0.0076  0.0005 -0.0003
                                            0.0004 -0.0000  0.9719  0.0032  0.0015
                                           -0.0006  0.0000 -0.2350 -0.0006 -0.0005
                                            0.0002  0.0000  0.0000  0.0000  0.0000
                                            0.0000  0.0108  0.0014 -0.0012  0.0000
                                            0.0000  0.0000  0.0000  0.0000  0.0000
                                            0.0046 -0.0000 -0.0011  0.0001  0.0000
                                            0.0000  0.0000  0.0000 -0.0010 -0.0005
                                            0.0002  0.0001  0.0000  0.0000  0.0000
                                            0.0000 -0.0028 -0.0013  0.0022  0.0011
    22. (1.82550) LP ( 4)Cl   3           s( 10.65%)p 8.38( 89.26%)d 0.01(  0.08%)
                                                  f 0.00(  0.01%)
                                            0.0000 -0.0000  0.3264  0.0012 -0.0030
                                            0.0010  0.0000  0.2197 -0.0011 -0.0006
                                            0.0001  0.0000  0.9189 -0.0065 -0.0041
                                            0.0014  0.0000  0.0000  0.0000  0.0000
                                            0.0000  0.0106  0.0020 -0.0000  0.0000
                                            0.0000  0.0000  0.0000  0.0000  0.0000
                                           -0.0207 -0.0034  0.0010 -0.0143 -0.0029
                                           -0.0002  0.0000  0.0000 -0.0011 -0.0006
                                           -0.0045 -0.0021  0.0000  0.0000  0.0000
                                            0.0000 -0.0037 -0.0015 -0.0043 -0.0015
    23. (0.01988) RY*( 1) O   1           s(  0.00%)p 1.00( 98.83%)d 0.01(  1.12%)
                                                  f 0.00(  0.05%)
                                            0.0000  0.0000  0.0000  0.0000  0.0000
                                            0.0000  0.0000  0.0000  0.0000  0.0000
                                            0.0000  0.0000  0.0000 -0.0225  0.9931
                                           -0.0356 -0.0154  0.0000  0.0000  0.0000
                                            0.0810  0.0277  0.0094 -0.0589  0.0031
                                            0.0174  0.0000  0.0000  0.0000  0.0000
                                            0.0000  0.0000 -0.0114  0.0102  0.0000
                                            0.0000  0.0000  0.0000  0.0121 -0.0108
                                           -0.0028  0.0015  0.0000  0.0000  0.0000
                                            0.0000
    24. (0.01629) RY*( 2) O   1           s( 28.95%)p 2.39( 69.07%)d 0.06(  1.80%)
                                                  f 0.01(  0.18%)
                                           -0.0000  0.0035  0.5369 -0.0337 -0.0087
                                            0.0378 -0.3364 -0.0057  0.0231 -0.0166
                                            0.7567 -0.0037 -0.0523  0.0000  0.0000
                                            0.0000  0.0000  0.1209  0.0257  0.0080
                                            0.0000  0.0000  0.0000  0.0000  0.0000
                                            0.0000  0.0221  0.0049  0.0028  0.0455
                                            0.0023 -0.0068  0.0000  0.0000 -0.0044
                                            0.0008  0.0037  0.0017  0.0000  0.0000
                                            0.0000  0.0000  0.0313 -0.0142  0.0222
                                           -0.0117
    25. (0.00805) RY*( 3) O   1           s( 19.40%)p 0.64( 12.35%)d 3.46( 67.15%)
                                                  f 0.06(  1.10%)
                                           -0.0000  0.0161  0.4343 -0.0703  0.0132
                                           -0.0172 -0.1809  0.0095  0.0426 -0.0099
                                           -0.2863  0.0310 -0.0742 -0.0000 -0.0000
                                           -0.0000 -0.0000 -0.7721 -0.0114 -0.0248
                                           -0.0000 -0.0000 -0.0000 -0.0000 -0.0000
                                           -0.0000  0.1683  0.0029  0.0266  0.2131
                                           -0.0123  0.0040 -0.0000 -0.0000 -0.0233
                                            0.0152  0.0040  0.0020 -0.0000 -0.0000
                                           -0.0000 -0.0000 -0.0350  0.0143 -0.0856
                                            0.0384
    26. (0.00703) RY*( 4) O   1           s(  0.00%)p 1.00(  0.37%)d99.99( 97.91%)
                                                  f 4.64(  1.72%)
                                            0.0000  0.0000  0.0000  0.0000  0.0000
                                            0.0000  0.0000  0.0000  0.0000  0.0000
                                            0.0000  0.0000  0.0000 -0.0193 -0.0560
                                           -0.0117 -0.0077  0.0000  0.0000  0.0000
                                            0.9189 -0.0399  0.0173  0.3636 -0.0203
                                            0.0087  0.0000  0.0000  0.0000  0.0000
                                            0.0000  0.0000 -0.0375  0.0161  0.0000
                                            0.0000  0.0000  0.0000  0.1116 -0.0508
                                           -0.0204  0.0104  0.0000  0.0000  0.0000
                                            0.0000
    27. (0.00639) RY*( 5) O   1           s(  1.58%)p13.62( 21.51%)d47.56( 75.12%)
                                                  f 1.13(  1.78%)
                                           -0.0000  0.0041  0.1167 -0.0457 -0.0084
                                           -0.0237 -0.2985  0.0023  0.0468 -0.0564
                                           -0.3450  0.0312 -0.0101  0.0000  0.0000
                                            0.0000  0.0000  0.5058 -0.0036  0.0299
                                            0.0000  0.0000  0.0000  0.0000  0.0000
                                            0.0000  0.5819 -0.0170  0.0319  0.3918
                                           -0.0293  0.0161  0.0000  0.0000  0.0116
                                           -0.0084 -0.0633  0.0368  0.0000  0.0000
                                            0.0000  0.0000  0.1010 -0.0405 -0.0156
                                            0.0135
    28. (0.00622) RY*( 6) O   1           s(  0.00%)p 1.00(  0.87%)d99.99( 97.88%)
                                                  f 1.44(  1.25%)
                                            0.0000  0.0000  0.0000  0.0000  0.0000
                                            0.0000  0.0000  0.0000  0.0000  0.0000
                                            0.0000  0.0000  0.0000  0.0326  0.0834
                                           -0.0084 -0.0246  0.0000  0.0000  0.0000
                                           -0.3574  0.0337  0.0047  0.9190 -0.0657
                                            0.0316  0.0000  0.0000  0.0000  0.0000
                                            0.0000  0.0000  0.0837 -0.0420  0.0000
                                            0.0000  0.0000  0.0000  0.0283 -0.0157
                                            0.0481 -0.0196  0.0000  0.0000  0.0000
                                            0.0000
    29. (0.00573) RY*( 7) O   1           s(  1.13%)p11.98( 13.50%)d73.84( 83.21%)
                                                  f 1.92(  2.16%)
                                           -0.0000  0.0199  0.1004 -0.0208  0.0188
                                            0.0740  0.3536 -0.0010 -0.0546 -0.0040
                                            0.0367  0.0058 -0.0111  0.0000  0.0000
                                            0.0000  0.0000  0.0870 -0.0202 -0.0153
                                            0.0000  0.0000  0.0000  0.0000  0.0000
                                            0.0000 -0.4182  0.0183  0.0068  0.8004
                                           -0.0892 -0.0011  0.0000  0.0000  0.1015
                                           -0.0396 -0.0225  0.0104  0.0000  0.0000
                                            0.0000  0.0000 -0.0801  0.0329  0.0369
                                           -0.0174
    30. (0.00362) RY*( 8) O   1           s( 30.54%)p 0.83( 25.29%)d 1.42( 43.28%)
                                                  f 0.03(  0.88%)
                                            0.0000 -0.0077  0.5270 -0.1640  0.0274
                                            0.0332 -0.0621  0.0273  0.0513  0.0302
                                           -0.4455  0.0755 -0.1987  0.0000  0.0000
                                            0.0000  0.0000  0.3148 -0.0265  0.0346
                                            0.0000  0.0000  0.0000  0.0000  0.0000
                                            0.0000 -0.4796  0.0480 -0.0121 -0.3047
                                            0.0788 -0.0168  0.0000  0.0000  0.0126
                                           -0.0045  0.0489 -0.0257  0.0000  0.0000
                                            0.0000  0.0000  0.0120 -0.0143  0.0686
                                           -0.0230
    31. (0.00243) RY*( 9) O   1           s( 13.67%)p 4.61( 62.97%)d 1.68( 22.91%)
                                                  f 0.03(  0.46%)
                                           -0.0000  0.0022  0.3619 -0.0748 -0.0111
                                            0.0133  0.7860 -0.0264 -0.0306 -0.0107
                                            0.0721  0.0207 -0.0655  0.0000  0.0000
                                            0.0000  0.0000  0.0527 -0.0168 -0.0092
                                            0.0000  0.0000  0.0000  0.0000  0.0000
                                            0.0000  0.4239 -0.0460  0.1087 -0.1714
                                            0.0462 -0.0279  0.0000  0.0000 -0.0247
                                            0.0337 -0.0013  0.0084  0.0000  0.0000
                                            0.0000  0.0000  0.0386 -0.0346 -0.0068
                                            0.0045
    32. (0.00077) RY*(10) O   1           s( 33.45%)p 1.69( 56.67%)d 0.25(  8.36%)
                                                  f 0.05(  1.51%)
                                           -0.0000 -0.0030  0.0313  0.5740  0.0635
                                            0.0105 -0.0216 -0.0627 -0.2502 -0.0086
                                            0.0022  0.6830 -0.1817  0.0000  0.0000
                                            0.0000  0.0000  0.0190 -0.1944 -0.1132
                                            0.0000  0.0000  0.0000  0.0000  0.0000
                                            0.0000  0.0249  0.0491  0.0308 -0.0049
                                            0.1085  0.1299  0.0000  0.0000  0.0109
                                            0.0023  0.0135  0.0190  0.0000  0.0000
                                            0.0000  0.0000 -0.1115  0.0379 -0.0213
                                           -0.0112
    33. (0.00065) RY*(11) O   1           s(  0.00%)p 1.00( 29.40%)d 1.63( 47.92%)
                                                  f 0.77( 22.68%)
                                            0.0000  0.0000  0.0000  0.0000  0.0000
                                            0.0000  0.0000  0.0000  0.0000  0.0000
                                            0.0000  0.0000  0.0000 -0.0046  0.0242
                                            0.5408 -0.0315  0.0000  0.0000  0.0000
                                            0.0262 -0.1813 -0.0091  0.0276  0.6655
                                            0.0431  0.0000  0.0000  0.0000  0.0000
                                            0.0000  0.0000  0.1622  0.0055  0.0000
                                            0.0000  0.0000  0.0000 -0.0576 -0.0253
                                            0.4396 -0.0567  0.0000  0.0000  0.0000
                                            0.0000
    34. (0.00061) RY*(12) O   1           s(  3.44%)p 0.88(  3.02%)d16.42( 56.53%)
                                                  f10.75( 37.01%)
                                           -0.0000  0.0038 -0.0066  0.1568  0.0989
                                            0.0081  0.0177  0.0001  0.0598 -0.0052
                                           -0.0003 -0.1606 -0.0212  0.0000  0.0000
                                            0.0000  0.0000 -0.0564  0.1844 -0.0477
                                            0.0000  0.0000  0.0000  0.0000  0.0000
                                            0.0000  0.0002  0.1775 -0.0294  0.0540
                                            0.6935  0.0976  0.0000  0.0000  0.4752
                                           -0.0530 -0.0594  0.0059  0.0000  0.0000
                                            0.0000  0.0000  0.3668 -0.0363  0.0456
                                            0.0042
    35. (0.00059) RY*(13) O   1           s(  0.00%)p 1.00( 66.23%)d 0.27( 17.99%)
                                                  f 0.24( 15.78%)
                                            0.0000  0.0000  0.0000  0.0000  0.0000
                                            0.0000  0.0000  0.0000  0.0000  0.0000
                                            0.0000  0.0000  0.0000 -0.0018  0.0197
                                            0.7820 -0.2244  0.0000  0.0000  0.0000
                                            0.0193  0.1555  0.0228 -0.0108 -0.3932
                                            0.0130  0.0000  0.0000  0.0000  0.0000
                                            0.0000  0.0000  0.0805  0.0160  0.0000
                                            0.0000  0.0000  0.0000 -0.1265 -0.0292
                                           -0.3647  0.0348  0.0000  0.0000  0.0000
                                            0.0000
    36. (0.00051) RY*(14) O   1           s(  0.00%)p 1.00(  1.68%)d33.92( 57.13%)
                                                  f24.45( 41.18%)
                                            0.0000  0.0000  0.0000  0.0000  0.0000
                                            0.0000  0.0000  0.0000  0.0000  0.0000
                                            0.0000  0.0000  0.0000 -0.0096 -0.0251
                                            0.1083 -0.0663  0.0000  0.0000  0.0000
                                           -0.0142  0.7483 -0.0890 -0.0196  0.0424
                                           -0.0323  0.0000  0.0000  0.0000  0.0000
                                            0.0000  0.0000 -0.3938 -0.0117  0.0000
                                            0.0000  0.0000  0.0000  0.4009  0.0202
                                            0.3089 -0.0110  0.0000  0.0000  0.0000
                                            0.0000
    37. (0.00050) RY*(15) O   1           s(  2.60%)p 5.54( 14.44%)d17.36( 45.22%)
                                                  f14.49( 37.74%)
                                            0.0000  0.0004  0.0743  0.1377  0.0395
                                            0.0023 -0.0095 -0.1779 -0.0506  0.0041
                                           -0.0150 -0.2878  0.1644 -0.0000 -0.0000
                                           -0.0000 -0.0000  0.0418 -0.6619  0.0825
                                           -0.0000 -0.0000 -0.0000 -0.0000 -0.0000
                                           -0.0000 -0.0187  0.0172 -0.0464 -0.0222
                                           -0.0420 -0.0196 -0.0000 -0.0000  0.2090
                                            0.0075  0.3301  0.0072 -0.0000 -0.0000
                                           -0.0000 -0.0000  0.0901 -0.0163 -0.4632
                                           -0.0406
    38. (0.00047) RY*(16) O   1           s( 11.51%)p 2.19( 25.23%)d 0.78(  8.99%)
                                                  f 4.71( 54.27%)
                                           -0.0000  0.0048  0.0880  0.2760  0.1765
                                           -0.0020 -0.0399  0.1895 -0.1653 -0.0093
[...]
                                            0.0594  0.0541  0.7763  0.0451  0.0000
                                            0.0000  0.0000  0.0000
   152. (0.00044) RY*( 7) H   4           s( 14.46%)p 5.22( 75.41%)d 0.70( 10.13%)
                                           -0.0038  0.0191  0.2777  0.2590 -0.0496
                                           -0.8051  0.1522 -0.0393  0.2078 -0.1886
                                           -0.0000 -0.0000 -0.0000 -0.2290 -0.0933
                                           -0.0000 -0.0000 -0.0000 -0.0000  0.0012
                                           -0.1153  0.1467 -0.0729
   153. (0.00033) RY*( 8) H   4           s( 26.51%)p 1.76( 46.74%)d 1.01( 26.75%)
                                           -0.0052 -0.0152  0.4086  0.3129 -0.0628
                                            0.4958  0.1725  0.0683 -0.1286 -0.4082
                                            0.0000  0.0000  0.0000 -0.4058  0.1549
                                            0.0000  0.0000  0.0000  0.0000  0.1304
                                           -0.1388  0.1683 -0.1194
   154. (0.00031) RY*( 9) H   4           s(  0.00%)p 1.00( 93.25%)d 0.07(  6.75%)
                                            0.0000  0.0000  0.0000  0.0000  0.0000
                                            0.0000  0.0000  0.0000  0.0000  0.0000
                                           -0.1252  0.9529 -0.0939  0.0000  0.0000
                                           -0.0634  0.0992  0.0351  0.2289  0.0000
                                            0.0000  0.0000  0.0000
   155. (0.00025) RY*(10) H   4           s(  1.29%)p15.21( 19.69%)d61.04( 79.02%)
                                            0.0104  0.0351  0.0324  0.1028 -0.0843
                                           -0.0664  0.1456 -0.0030 -0.1262  0.3850
                                           -0.0000 -0.0000 -0.0000 -0.3841  0.0073
                                           -0.0000 -0.0000 -0.0000 -0.0000  0.5428
                                            0.0872 -0.5434  0.2124
   156. (0.00023) RY*(11) H   4           s(  0.00%)p 1.00(  0.64%)d99.99( 99.36%)
                                            0.0000  0.0000  0.0000  0.0000  0.0000
                                            0.0000  0.0000  0.0000  0.0000  0.0000
                                           -0.0178  0.0667 -0.0408  0.0000  0.0000
                                            0.9696 -0.2034 -0.0881  0.0662  0.0000
                                            0.0000  0.0000  0.0000
   157. (0.00021) RY*(12) H   4           s(  7.45%)p 4.17( 31.06%)d 8.25( 61.48%)
                                            0.0147  0.0194  0.1023  0.2520  0.0565
                                           -0.0199 -0.0439 -0.0295 -0.3145  0.4531
                                            0.0000  0.0000  0.0000  0.1577 -0.0974
                                            0.0000  0.0000  0.0000  0.0000  0.3154
                                            0.1853  0.6682  0.0123
   158. (0.00017) RY*(13) H   4           s(  9.12%)p 1.75( 15.94%)d 8.22( 74.94%)
                                           -0.0046 -0.0349  0.2090  0.2151  0.0804
                                           -0.0449 -0.2996 -0.0027  0.1325 -0.2089
                                           -0.0000 -0.0000 -0.0000  0.5948  0.2456
                                           -0.0000 -0.0000 -0.0000 -0.0000  0.4859
                                           -0.1168 -0.2342 -0.1751
   159. (0.00012) RY*(14) H   4           s(  0.00%)p 1.00( 32.85%)d 2.04( 67.15%)
                                            0.0000  0.0000  0.0000  0.0000  0.0000
                                            0.0000  0.0000  0.0000  0.0000  0.0000
                                            0.0128  0.2090  0.5336  0.0000  0.0000
                                            0.0627 -0.1599  0.4917 -0.6326  0.0000
                                            0.0000  0.0000  0.0000
   160. (0.00012) RY*(15) H   4           s( 63.24%)p 0.24( 14.94%)d 0.35( 21.82%)
                                           -0.0044 -0.0390 -0.2089  0.7663  0.0071
                                            0.1744  0.1989  0.0085  0.2145  0.1826
                                            0.0000  0.0000  0.0000  0.1811 -0.2505
                                            0.0000  0.0000  0.0000  0.0000 -0.2895
                                           -0.0661 -0.1851  0.0150
   161. (0.00009) RY*(16) H   4           s(  6.09%)p 3.72( 22.65%)d11.69( 71.25%)
   162. (0.00007) RY*(17) H   4           s( 23.81%)p 1.44( 34.18%)d 1.76( 42.00%)
   163. (0.00005) RY*(18) H   4           s(  0.00%)p 1.00(  2.03%)d48.19( 97.97%)
   164. (0.00006) RY*(19) H   4           s(  0.00%)p 1.00( 33.15%)d 2.02( 66.85%)
   165. (0.00005) RY*(20) H   4           s(  1.06%)p 6.07(  6.45%)d87.08( 92.49%)
   166. (0.00003) RY*(21) H   4           s( 30.03%)p 0.34( 10.35%)d 1.99( 59.62%)
   167. (0.00004) RY*(22) H   4           s(  2.97%)p16.48( 49.03%)d16.13( 47.99%)
   168. (0.05766) BD*( 1) O   1 -Cl   2  
                ( 41.49%)   0.6441* O   1 s( 10.59%)p 8.39( 88.87%)d 0.05(  0.52%)
                                                  f 0.00(  0.02%)
                                           -0.0003 -0.3219  0.0456  0.0154  0.0006
                                           -0.9411  0.0334  0.0106  0.0122  0.0301
                                            0.0280  0.0051 -0.0003 -0.0000 -0.0000
                                           -0.0000 -0.0000  0.0206  0.0013 -0.0027
                                           -0.0000 -0.0000 -0.0000 -0.0000 -0.0000
                                           -0.0000 -0.0539 -0.0046 -0.0026  0.0426
                                            0.0035 -0.0005 -0.0000 -0.0000  0.0112
                                           -0.0012  0.0002 -0.0002 -0.0000 -0.0000
                                           -0.0000 -0.0000 -0.0063 -0.0008  0.0006
                                           -0.0020
                ( 58.51%)  -0.7649*Cl   2 s(  8.76%)p10.28( 89.99%)d 0.13(  1.14%)
                                                  f 0.01(  0.11%)
                                            0.0000 -0.0005 -0.2900  0.0576  0.0104
                                            0.0022  0.0004  0.9462 -0.0659 -0.0140
                                            0.0046  0.0000  0.0109  0.0014 -0.0028
                                            0.0009 -0.0000 -0.0000 -0.0000 -0.0000
                                           -0.0000 -0.0126 -0.0000 -0.0007 -0.0000
                                           -0.0000 -0.0000 -0.0000 -0.0000 -0.0000
                                           -0.0889  0.0111  0.0004  0.0563 -0.0065
                                           -0.0010 -0.0000 -0.0000 -0.0210  0.0031
                                           -0.0005  0.0002 -0.0000 -0.0000 -0.0000
                                           -0.0000  0.0257 -0.0030  0.0015 -0.0002
   169. (0.14708) BD*( 1) O   1 - H   4  
                ( 19.53%)   0.4419* O   1 s( 29.06%)p 2.43( 70.47%)d 0.02(  0.46%)
                                                  f 0.00(  0.01%)
                                            0.0003  0.5390 -0.0027 -0.0080  0.0026
                                           -0.2081  0.0153  0.0027  0.0039 -0.8131
                                            0.0027  0.0064  0.0037 -0.0000 -0.0000
                                           -0.0000 -0.0000 -0.0010 -0.0024 -0.0002
                                           -0.0000 -0.0000 -0.0000 -0.0000 -0.0000
                                           -0.0000 -0.0576 -0.0062 -0.0014 -0.0346
                                           -0.0015  0.0035 -0.0000 -0.0000  0.0018
                                            0.0006  0.0088  0.0001 -0.0000 -0.0000
                                           -0.0000 -0.0000  0.0021  0.0023 -0.0004
                                            0.0017
                ( 80.47%)  -0.8970* H   4 s( 99.81%)p 0.00(  0.19%)d 0.00(  0.00%)
                                            0.9981  0.0440  0.0049 -0.0017  0.0093
                                            0.0106  0.0024 -0.0196  0.0339 -0.0110
                                           -0.0000 -0.0000 -0.0000 -0.0005 -0.0014
                                           -0.0000 -0.0000 -0.0000 -0.0000 -0.0023
                                           -0.0015  0.0004 -0.0043


 NHO Directionality and "Bond Bending" (deviations from line of nuclear centers)

         [Thresholds for printing:  angular deviation  >  1.0 degree]
                                    hybrid p-character > 25.0%
                                    orbital occupancy  >  0.10e

                                Line of Centers        Hybrid 1              Hybrid 2
                                ---------------  -------------------   ------------------
                NBO               Theta   Phi    Theta   Phi    Dev    Theta   Phi    Dev
 ========================================================================================
     1. BD (   1) O   1 -Cl   2    90.0    0.0    90.0  355.9   4.1      --     --    --
    14. LP (   1) O   1             --     --     90.0  113.3   --       --     --    --
    15. LP (   2) O   1             --     --      0.0    0.0   --       --     --    --
    17. LP (   2)Cl   2             --     --      0.0    0.0   --       --     --    --
    18. LP (   3)Cl   2             --     --     90.0   90.3   --       --     --    --
    20. LP (   2)Cl   3             --     --      0.0    0.0   --       --     --    --
    21. LP (   3)Cl   3             --     --     90.0  346.4   --       --     --    --
    22. LP (   4)Cl   3             --     --     90.0   76.5   --       --     --    --


 Natural Bond Orbitals (Summary):

           NBO                  Occupancy  
 -----------------------------------------------
 Molecular unit  1  (HOCl)
     1. BD (   1) O   1 -Cl   2          1.93943
     2. BD (   1) O   1 - H   4          1.96400
     3. CR (   1) O   1                  1.99969
     4. CR (   1)Cl   2                  2.00000
     5. CR (   2)Cl   2                  1.99979
     6. CR (   3)Cl   2                  1.99996
     7. CR (   4)Cl   2                  2.00003
     8. CR (   5)Cl   2                  2.00003
    14. LP (   1) O   1                  1.96597
    15. LP (   2) O   1                  1.95193
    16. LP (   1)Cl   2                  1.97403
    17. LP (   2)Cl   2                  1.95597
    18. LP (   3)Cl   2                  1.95476
    23. RY*(   1) O   1                  0.01988
    24. RY*(   2) O   1                  0.01629
    25. RY*(   3) O   1                  0.00805
    26. RY*(   4) O   1                  0.00703
    27. RY*(   5) O   1                  0.00639
    28. RY*(   6) O   1                  0.00622
    29. RY*(   7) O   1                  0.00573
    30. RY*(   8) O   1                  0.00362
    31. RY*(   9) O   1                  0.00243
    32. RY*(  10) O   1                  0.00077
    33. RY*(  11) O   1                  0.00065
    34. RY*(  12) O   1                  0.00061
    35. RY*(  13) O   1                  0.00059
    36. RY*(  14) O   1                  0.00051
    37. RY*(  15) O   1                  0.00050
    38. RY*(  16) O   1                  0.00047
    39. RY*(  17) O   1                  0.00047
    40. RY*(  18) O   1                  0.00048
    41. RY*(  19) O   1                  0.00045
    42. RY*(  20) O   1                  0.00045
    43. RY*(  21) O   1                  0.00045
    44. RY*(  22) O   1                  0.00042
    45. RY*(  23) O   1                  0.00036
    46. RY*(  24) O   1                  0.00032
    47. RY*(  25) O   1                  0.00025
    48. RY*(  26) O   1                  0.00017
    49. RY*(  27) O   1                  0.00012
    50. RY*(  28) O   1                  0.00013
    51. RY*(  29) O   1                  0.00012
    52. RY*(  30) O   1                  0.00009
    53. RY*(  31) O   1                  0.00008
    54. RY*(  32) O   1                  0.00008
    55. RY*(  33) O   1                  0.00008
    56. RY*(  34) O   1                  0.00008
    57. RY*(  35) O   1                  0.00008
    58. RY*(  36) O   1                  0.00006
    59. RY*(  37) O   1                  0.00005
    60. RY*(  38) O   1                  0.00006
    61. RY*(  39) O   1                  0.00004
    62. RY*(  40) O   1                  0.00002
    63. RY*(  41) O   1                 -0.00003
    64. RY*(   1)Cl   2                  0.02311
    65. RY*(   2)Cl   2                  0.01788
    66. RY*(   3)Cl   2                  0.01679
    67. RY*(   4)Cl   2                  0.01675
    68. RY*(   5)Cl   2                  0.01172
    69. RY*(   6)Cl   2                  0.00938
    70. RY*(   7)Cl   2                  0.00913
    71. RY*(   8)Cl   2                  0.00638
    72. RY*(   9)Cl   2                  0.00170
    73. RY*(  10)Cl   2                  0.00127
    74. RY*(  11)Cl   2                  0.00127
    75. RY*(  12)Cl   2                  0.00120
    76. RY*(  13)Cl   2                  0.00120
    77. RY*(  14)Cl   2                  0.00117
    78. RY*(  15)Cl   2                  0.00111
    79. RY*(  16)Cl   2                  0.00095
    80. RY*(  17)Cl   2                  0.00077
    81. RY*(  18)Cl   2                  0.00076
    82. RY*(  19)Cl   2                  0.00065
    83. RY*(  20)Cl   2                  0.00057
    84. RY*(  21)Cl   2                  0.00043
    85. RY*(  22)Cl   2                  0.00036
    86. RY*(  23)Cl   2                  0.00036
    87. RY*(  24)Cl   2                  0.00031
    88. RY*(  25)Cl   2                  0.00018
    89. RY*(  26)Cl   2                  0.00016
    90. RY*(  27)Cl   2                  0.00015
    91. RY*(  28)Cl   2                  0.00012
    92. RY*(  29)Cl   2                  0.00013
    93. RY*(  30)Cl   2                  0.00013
    94. RY*(  31)Cl   2                  0.00011
    95. RY*(  32)Cl   2                  0.00011
    96. RY*(  33)Cl   2                  0.00010
    97. RY*(  34)Cl   2                  0.00010
    98. RY*(  35)Cl   2                  0.00009
    99. RY*(  36)Cl   2                  0.00008
   100. RY*(  37)Cl   2                  0.00007
   101. RY*(  38)Cl   2                  0.00003
   102. RY*(  39)Cl   2                  0.00003
   103. RY*(  40)Cl   2                  0.00003
   104. RY*(  41)Cl   2                 -0.00000
   146. RY*(   1) H   4                  0.00995
   147. RY*(   2) H   4                  0.00544
   148. RY*(   3) H   4                  0.00507
   149. RY*(   4) H   4                  0.00378
   150. RY*(   5) H   4                  0.00080
   151. RY*(   6) H   4                  0.00056
   152. RY*(   7) H   4                  0.00044
   153. RY*(   8) H   4                  0.00033
   154. RY*(   9) H   4                  0.00031
   155. RY*(  10) H   4                  0.00025
   156. RY*(  11) H   4                  0.00023
   157. RY*(  12) H   4                  0.00021
   158. RY*(  13) H   4                  0.00017
   159. RY*(  14) H   4                  0.00012
   160. RY*(  15) H   4                  0.00012
   161. RY*(  16) H   4                  0.00009
   162. RY*(  17) H   4                  0.00007
   163. RY*(  18) H   4                  0.00005
   164. RY*(  19) H   4                  0.00006
   165. RY*(  20) H   4                  0.00005
   166. RY*(  21) H   4                  0.00003
   167. RY*(  22) H   4                  0.00004
   168. BD*(   1) O   1 -Cl   2          0.05766
   169. BD*(   1) O   1 - H   4          0.14708
       -------------------------------
              Total Lewis   25.70559  ( 98.3008%)
        Valence non-Lewis    0.20473  (  0.7829%)
        Rydberg non-Lewis    0.23962  (  0.9163%)
       -------------------------------
            Total unit  1   26.14994  (100.0000%)
           Charge unit  1   -0.14994

 Molecular unit  2  (Cl)
     9. CR (   1)Cl   3                  2.00000
    10. CR (   2)Cl   3                  1.99994
    11. CR (   3)Cl   3                  2.00003
    12. CR (   4)Cl   3                  2.00002
    13. CR (   5)Cl   3                  2.00003
    19. LP (   1)Cl   3                  1.97672
    20. LP (   2)Cl   3                  1.95260
    21. LP (   3)Cl   3                  1.95221
    22. LP (   4)Cl   3                  1.82550
   105. RY*(   1)Cl   3                  0.01835
   106. RY*(   2)Cl   3                  0.01830
   107. RY*(   3)Cl   3                  0.01823
   108. RY*(   4)Cl   3                  0.01823
   109. RY*(   5)Cl   3                  0.01766
   110. RY*(   6)Cl   3                  0.01237
   111. RY*(   7)Cl   3                  0.01229
   112. RY*(   8)Cl   3                  0.00967
   113. RY*(   9)Cl   3                  0.00166
   114. RY*(  10)Cl   3                  0.00128
   115. RY*(  11)Cl   3                  0.00128
   116. RY*(  12)Cl   3                  0.00129
   117. RY*(  13)Cl   3                  0.00129
   118. RY*(  14)Cl   3                  0.00126
   119. RY*(  15)Cl   3                  0.00126
   120. RY*(  16)Cl   3                  0.00123
   121. RY*(  17)Cl   3                  0.00096
   122. RY*(  18)Cl   3                  0.00096
   123. RY*(  19)Cl   3                  0.00069
   124. RY*(  20)Cl   3                  0.00066
   125. RY*(  21)Cl   3                  0.00063
   126. RY*(  22)Cl   3                  0.00052
   127. RY*(  23)Cl   3                  0.00050
   128. RY*(  24)Cl   3                  0.00048
   129. RY*(  25)Cl   3                  0.00021
   130. RY*(  26)Cl   3                  0.00018
   131. RY*(  27)Cl   3                  0.00018
   132. RY*(  28)Cl   3                  0.00014
   133. RY*(  29)Cl   3                  0.00014
   134. RY*(  30)Cl   3                  0.00014
   135. RY*(  31)Cl   3                  0.00014
   136. RY*(  32)Cl   3                  0.00014
   137. RY*(  33)Cl   3                  0.00012
   138. RY*(  34)Cl   3                  0.00010
   139. RY*(  35)Cl   3                  0.00010
   140. RY*(  36)Cl   3                  0.00009
   141. RY*(  37)Cl   3                  0.00009
   142. RY*(  38)Cl   3                  0.00007
   143. RY*(  39)Cl   3                  0.00005
   144. RY*(  40)Cl   3                  0.00003
   145. RY*(  41)Cl   3                  0.00001
       -------------------------------
              Total Lewis   17.70705  ( 99.1988%)
        Valence non-Lewis    0.00000  (  0.0000%)
        Rydberg non-Lewis    0.14301  (  0.8012%)
       -------------------------------
            Total unit  2   17.85006  (100.0000%)
           Charge unit  2   -0.85006
 Leave Link  607 at Fri Oct 15 16:15:32 2021, MaxMem= 16106127360 cpu:              77.3 elap:               2.8
 (Enter /sw/contrib/gaussian/g16/B01/g16/l9999.exe)
 1\1\GINC-N2098\SP\RMP2-FC\Aug-CC-pVTZ\Cl2H1O1(1-)\CGAVINH\15-Oct-2021\
 0\\#p pop=NBO SP NoSymm mp2/aug-cc-pvtz density=current\\title\\-1,1\O
 \X,1,10.\Cl,1,1.68274941,2,90.\Cl,1,2.90467605,2,90.,3,103.53015695,0\
 H,1,1.02842568,2,90.,3,103.53015695,0\\Version=ES64L-G16RevB.01\HF=-99
 4.5238814\MP2=-995.1921257\RMSD=3.890e-09\Dipole=1.3139702,1.558187,0.
 \Quadrupole=6.1543453,-14.0425638,7.8882186,-5.5639821,0.,0.\PG=CS [SG
 (Cl2H1O1)]\\@


 A politician is a person who can make waves and then
 make you think he's the only one who can save the ship.
 -- Ivern Ball
 Job cpu time:       0 days  0 hours  5 minutes  8.1 seconds.
 Elapsed time:       0 days  0 hours  0 minutes 16.3 seconds.
 File lengths (MBytes):  RWF=     14 Int=      0 D2E=      0 Chk=      8 Scr=      1
 Normal termination of Gaussian 16 at Fri Oct 15 16:15:32 2021.
