 Entering Gaussian System, Link 0=g16
 Input=clhocl_rOH_075_sp.gjf
 Output=clhocl_rOH_075_sp.log
 Initial command:
 /sw/contrib/gaussian/g16/B01/g16/l1.exe "/scr/Gau-24829.inp" -scrdir="/scr/"
 Entering Link 1 = /sw/contrib/gaussian/g16/B01/g16/l1.exe PID=     24830.
  
 Copyright (c) 1988-2017, Gaussian, Inc.  All Rights Reserved.
  
 This is part of the Gaussian(R) 16 program.  It is based on
 the Gaussian(R) 09 system (copyright 2009, Gaussian, Inc.),
 the Gaussian(R) 03 system (copyright 2003, Gaussian, Inc.),
 the Gaussian(R) 98 system (copyright 1998, Gaussian, Inc.),
 the Gaussian(R) 94 system (copyright 1995, Gaussian, Inc.),
 the Gaussian 92(TM) system (copyright 1992, Gaussian, Inc.),
 the Gaussian 90(TM) system (copyright 1990, Gaussian, Inc.),
 the Gaussian 88(TM) system (copyright 1988, Gaussian, Inc.),
 the Gaussian 86(TM) system (copyright 1986, Carnegie Mellon
 University), and the Gaussian 82(TM) system (copyright 1983,
 Carnegie Mellon University). Gaussian is a federally registered
 trademark of Gaussian, Inc.
  
 This software contains proprietary and confidential information,
 including trade secrets, belonging to Gaussian, Inc.
  
 This software is provided under written license and may be
 used, copied, transmitted, or stored only in accord with that
 written license.
  
 The following legend is applicable only to US Government
 contracts under FAR:
  
                    RESTRICTED RIGHTS LEGEND
  
 Use, reproduction and disclosure by the US Government is
 subject to restrictions as set forth in subparagraphs (a)
 and (c) of the Commercial Computer Software - Restricted
 Rights clause in FAR 52.227-19.
  
 Gaussian, Inc.
 340 Quinnipiac St., Bldg. 40, Wallingford CT 06492
  
  
 ---------------------------------------------------------------
 Warning -- This program may not be used in any manner that
 competes with the business of Gaussian, Inc. or will provide
 assistance to any competitor of Gaussian, Inc.  The licensee
 of this program is prohibited from giving any competitor of
 Gaussian, Inc. access to this program.  By using this program,
 the user acknowledges that Gaussian, Inc. is engaged in the
 business of creating and licensing software in the field of
 computational chemistry and represents and warrants to the
 licensee that it is not a competitor of Gaussian, Inc. and that
 it will not use this program in any manner prohibited above.
 ---------------------------------------------------------------
  

 Cite this work as:
 Gaussian 16, Revision B.01,
 M. J. Frisch, G. W. Trucks, H. B. Schlegel, G. E. Scuseria, 
 M. A. Robb, J. R. Cheeseman, G. Scalmani, V. Barone, 
 G. A. Petersson, H. Nakatsuji, X. Li, M. Caricato, A. V. Marenich, 
 J. Bloino, B. G. Janesko, R. Gomperts, B. Mennucci, H. P. Hratchian, 
 J. V. Ortiz, A. F. Izmaylov, J. L. Sonnenberg, D. Williams-Young, 
 F. Ding, F. Lipparini, F. Egidi, J. Goings, B. Peng, A. Petrone, 
 T. Henderson, D. Ranasinghe, V. G. Zakrzewski, J. Gao, N. Rega, 
 G. Zheng, W. Liang, M. Hada, M. Ehara, K. Toyota, R. Fukuda, 
 J. Hasegawa, M. Ishida, T. Nakajima, Y. Honda, O. Kitao, H. Nakai, 
 T. Vreven, K. Throssell, J. A. Montgomery, Jr., J. E. Peralta, 
 F. Ogliaro, M. J. Bearpark, J. J. Heyd, E. N. Brothers, K. N. Kudin, 
 V. N. Staroverov, T. A. Keith, R. Kobayashi, J. Normand, 
 K. Raghavachari, A. P. Rendell, J. C. Burant, S. S. Iyengar, 
 J. Tomasi, M. Cossi, J. M. Millam, M. Klene, C. Adamo, R. Cammi, 
 J. W. Ochterski, R. L. Martin, K. Morokuma, O. Farkas, 
 J. B. Foresman, and D. J. Fox, Gaussian, Inc., Wallingford CT, 2016.
 
 ******************************************
 Gaussian 16:  ES64L-G16RevB.01 20-Dec-2017
                 8-Oct-2021 
 ******************************************
 %nproc=28
 Will use up to   28 processors via shared memory.
 %mem=120GB
 %chk=/gscratch/ilahie/mccoygrp/coire_hocl/rOH_s_oop_0/clhocl/clhocl_075_sp.chk
 ----------------------------------------------------
 #p pop=NBO SP NoSymm mp2/aug-cc-pvtz density=current
 ----------------------------------------------------
 1/30=1,38=1,172=1/1;
 2/12=2,15=1,17=6,18=5,40=1/2;
 3/5=16,6=1,7=10,11=9,25=1,30=1,71=1/1,2,3;
 4//1;
 5/5=2,38=5/2;
 8/6=4,10=1/1;
 9/15=1,16=-3/6;
 10/5=1,13=10,31=1/2;
 6/7=2,8=2,9=2,10=2,22=-1,40=1/1,7;
 99/5=1,9=1/99;
 Leave Link    1 at Fri Oct  8 12:22:36 2021, MaxMem= 16106127360 cpu:               1.1 elap:               0.0
 (Enter /sw/contrib/gaussian/g16/B01/g16/l101.exe)
 -----
 title
 -----
 Symbolic Z-matrix:
 Charge = -1 Multiplicity = 1
 O
 X                    1     10. 
 Cl                   1    r1       2     90. 
 Cl                   1    r2       2     90.      3    a1       0
 H                    1    r3       2    oop      3    a1       0
       Variables:
  r1                    1.68275                  
  r2                    2.90468                  
  r3                    0.75                     
  a1                  103.53016                  
  OOP                  90.                       
 
 ITRead=  0  0  0  0
 MicOpt= -1 -1 -1 -1
 NAtoms=      4 NQM=        4 NQMF=       0 NMMI=      0 NMMIF=      0
                NMic=       0 NMicF=      0.
                    Isotopes and Nuclear Properties:
 (Nuclear quadrupole moments (NQMom) in fm**2, nuclear magnetic moments (NMagM)
  in nuclear magnetons)

  Atom         1           2           3           4
 IAtWgt=          16          35          35           1
 AtmWgt=  15.9949146  34.9688527  34.9688527   1.0078250
 NucSpn=           0           3           3           1
 AtZEff=  -0.0000000  -0.0000000  -0.0000000  -0.0000000
 NQMom=    0.0000000  -8.1650000  -8.1650000   0.0000000
 NMagM=    0.0000000   0.8218740   0.8218740   2.7928460
 AtZNuc=   8.0000000  17.0000000  17.0000000   1.0000000
 Leave Link  101 at Fri Oct  8 12:22:37 2021, MaxMem= 16106127360 cpu:               3.3 elap:               0.2
 (Enter /sw/contrib/gaussian/g16/B01/g16/l202.exe)
                          Input orientation:                          
 ---------------------------------------------------------------------
 Center     Atomic      Atomic             Coordinates (Angstroms)
 Number     Number       Type             X           Y           Z
 ---------------------------------------------------------------------
      1          8           0        0.000000    0.000000    0.000000
      2         17           0        1.682749    0.000000    0.000000
      3         17           0       -0.679570   -2.824062    0.000000
      4          1           0       -0.175468   -0.729185    0.000000
 ---------------------------------------------------------------------
                    Distance matrix (angstroms):
                    1          2          3          4
     1  O    0.000000
     2  Cl   1.682749   0.000000
     3  Cl   2.904676   3.681831   0.000000
     4  H    0.750000   1.996167   2.154676   0.000000
 Symmetry turned off by external request.
 Stoichiometry    Cl2HO(1-)
 Framework group  CS[SG(Cl2HO)]
 Deg. of freedom     5
 Full point group                 CS      NOp   2
 Rotational constants (GHZ):          23.5386861           2.0603152           1.8944924
 Leave Link  202 at Fri Oct  8 12:22:37 2021, MaxMem= 16106127360 cpu:               0.2 elap:               0.0
 (Enter /sw/contrib/gaussian/g16/B01/g16/l301.exe)
 Standard basis: Aug-CC-pVTZ (5D, 7F)
 Ernie: Thresh=  0.10000D-02 Tol=  0.10000D-05 Strict=F.
 Ernie:  29 primitive shells out of 169 were deleted.
   169 basis functions,   327 primitive gaussians,   198 cartesian basis functions
    22 alpha electrons       22 beta electrons
       nuclear repulsion energy       123.4081104287 Hartrees.
 IExCor=    0 DFT=F Ex=HF Corr=None ExCW=0 ScaHFX=  1.000000
 ScaDFX=  1.000000  1.000000  1.000000  1.000000 ScalE2=  1.000000  1.000000
 IRadAn=      5 IRanWt=     -1 IRanGd=            0 ICorTp=0 IEmpDi=  4
 NAtoms=    4 NActive=    4 NUniq=    4 SFac= 1.00D+00 NAtFMM=   60 NAOKFM=F Big=F
 Integral buffers will be    131072 words long.
 Raffenetti 1 integral format.
 Two-electron integral symmetry is turned off.
 Leave Link  301 at Fri Oct  8 12:22:37 2021, MaxMem= 16106127360 cpu:               1.7 elap:               0.1
 (Enter /sw/contrib/gaussian/g16/B01/g16/l302.exe)
 NPDir=0 NMtPBC=     1 NCelOv=     1 NCel=       1 NClECP=     1 NCelD=      1
         NCelK=      1 NCelE2=     1 NClLst=     1 CellRange=     0.0.
 One-electron integrals computed using PRISM.
 NBasis=   169 RedAO= T EigKep=  1.59D-04  NBF=   169
 NBsUse=   169 1.00D-06 EigRej= -1.00D+00 NBFU=   169
 Leave Link  302 at Fri Oct  8 12:22:37 2021, MaxMem= 16106127360 cpu:               4.4 elap:               0.2
 (Enter /sw/contrib/gaussian/g16/B01/g16/l303.exe)
 DipDrv:  MaxL=1.
 Leave Link  303 at Fri Oct  8 12:22:37 2021, MaxMem= 16106127360 cpu:               3.7 elap:               0.2
 (Enter /sw/contrib/gaussian/g16/B01/g16/l401.exe)
 ExpMin= 2.53D-02 ExpMax= 4.56D+05 ExpMxC= 1.44D+03 IAcc=3 IRadAn=         5 AccDes= 0.00D+00
 Harris functional with IExCor=  205 and IRadAn=       5 diagonalized for initial guess.
 HarFok:  IExCor=  205 AccDes= 0.00D+00 IRadAn=         5 IDoV= 1 UseB2=F ITyADJ=14
 ICtDFT=  3500011 ScaDFX=  1.000000  1.000000  1.000000  1.000000
 FoFCou: FMM=F IPFlag=           0 FMFlag=      100000 FMFlg1=           0
         NFxFlg=           0 DoJE=T BraDBF=F KetDBF=T FulRan=T
         wScrn=  0.000000 ICntrl=       500 IOpCl=  0 I1Cent=   200000004 NGrid=           0
         NMat0=    1 NMatS0=      1 NMatT0=    0 NMatD0=    1 NMtDS0=    0 NMtDT0=    0
 Symmetry not used in FoFCou.
 Harris En= -993.760860680451    
 JPrj=0 DoOrth=F DoCkMO=F.
 Leave Link  401 at Fri Oct  8 12:22:37 2021, MaxMem= 16106127360 cpu:               7.4 elap:               0.3
 (Enter /sw/contrib/gaussian/g16/B01/g16/l502.exe)
 Keep R1 ints in memory in canonical form, NReq=117119217.
 FoFCou: FMM=F IPFlag=           0 FMFlag=           0 FMFlg1=           0
         NFxFlg=           0 DoJE=F BraDBF=F KetDBF=F FulRan=T
         wScrn=  0.000000 ICntrl=       600 IOpCl=  0 I1Cent=           0 NGrid=           0
         NMat0=    1 NMatS0=  14365 NMatT0=    0 NMatD0=    1 NMtDS0=    0 NMtDT0=    0
 Symmetry not used in FoFCou.
 Two-electron integral symmetry not used.
 Closed shell SCF:
 Using DIIS extrapolation, IDIIS=  1040.
 NGot= 16106127360 LenX= 16002858349 LenY= 16002818704
 Requested convergence on RMS density matrix=1.00D-08 within 128 cycles.
 Requested convergence on MAX density matrix=1.00D-06.
 Requested convergence on             energy=1.00D-06.
 No special actions if energy rises.

 Cycle   1  Pass 1  IDiag  1:
 E= -994.271993013614    
 DIIS: error= 4.44D-02 at cycle   1 NSaved=   1.
 NSaved= 1 IEnMin= 1 EnMin= -994.271993013614     IErMin= 1 ErrMin= 4.44D-02
 ErrMax= 4.44D-02  0.00D+00 EMaxC= 1.00D-01 BMatC= 4.98D-01 BMatP= 4.98D-01
 IDIUse=3 WtCom= 5.56D-01 WtEn= 4.44D-01
 Coeff-Com:  0.100D+01
 Coeff-En:   0.100D+01
 Coeff:      0.100D+01
 Gap=     0.591 Goal=   None    Shift=    0.000
 GapD=    0.591 DampG=2.000 DampE=0.500 DampFc=1.0000 IDamp=-1.
 RMSDP=2.48D-03 MaxDP=8.09D-02              OVMax= 1.45D-01

 Cycle   2  Pass 1  IDiag  1:
 E= -994.391176419981     Delta-E=       -0.119183406367 Rises=F Damp=F
 DIIS: error= 2.40D-02 at cycle   2 NSaved=   2.
 NSaved= 2 IEnMin= 2 EnMin= -994.391176419981     IErMin= 2 ErrMin= 2.40D-02
 ErrMax= 2.40D-02  0.00D+00 EMaxC= 1.00D-01 BMatC= 8.56D-02 BMatP= 4.98D-01
 IDIUse=3 WtCom= 7.60D-01 WtEn= 2.40D-01
 Coeff-Com:  0.230D+00 0.770D+00
 Coeff-En:   0.306D-01 0.969D+00
 Coeff:      0.182D+00 0.818D+00
 Gap=     0.356 Goal=   None    Shift=    0.000
 RMSDP=1.15D-03 MaxDP=4.28D-02 DE=-1.19D-01 OVMax= 9.87D-02

 Cycle   3  Pass 1  IDiag  1:
 E= -994.439085854942     Delta-E=       -0.047909434961 Rises=F Damp=F
 DIIS: error= 8.86D-03 at cycle   3 NSaved=   3.
 NSaved= 3 IEnMin= 3 EnMin= -994.439085854942     IErMin= 3 ErrMin= 8.86D-03
 ErrMax= 8.86D-03  0.00D+00 EMaxC= 1.00D-01 BMatC= 1.52D-02 BMatP= 8.56D-02
 IDIUse=3 WtCom= 9.11D-01 WtEn= 8.86D-02
 Coeff-Com: -0.172D-01 0.282D+00 0.736D+00
 Coeff-En:   0.000D+00 0.000D+00 0.100D+01
 Coeff:     -0.156D-01 0.257D+00 0.759D+00
 Gap=     0.338 Goal=   None    Shift=    0.000
 RMSDP=3.69D-04 MaxDP=1.58D-02 DE=-4.79D-02 OVMax= 3.92D-02

 Cycle   4  Pass 1  IDiag  1:
 E= -994.449380722254     Delta-E=       -0.010294867313 Rises=F Damp=F
 DIIS: error= 1.42D-03 at cycle   4 NSaved=   4.
 NSaved= 4 IEnMin= 4 EnMin= -994.449380722254     IErMin= 4 ErrMin= 1.42D-03
 ErrMax= 1.42D-03  0.00D+00 EMaxC= 1.00D-01 BMatC= 2.25D-04 BMatP= 1.52D-02
 IDIUse=3 WtCom= 9.86D-01 WtEn= 1.42D-02
 Coeff-Com: -0.371D-02-0.193D-02 0.866D-01 0.919D+00
 Coeff-En:   0.000D+00 0.000D+00 0.000D+00 0.100D+01
 Coeff:     -0.366D-02-0.191D-02 0.854D-01 0.920D+00
 Gap=     0.332 Goal=   None    Shift=    0.000
 RMSDP=6.34D-05 MaxDP=1.39D-03 DE=-1.03D-02 OVMax= 3.52D-03

 Cycle   5  Pass 1  IDiag  1:
 E= -994.449614672200     Delta-E=       -0.000233949945 Rises=F Damp=F
 DIIS: error= 4.21D-04 at cycle   5 NSaved=   5.
 NSaved= 5 IEnMin= 5 EnMin= -994.449614672200     IErMin= 5 ErrMin= 4.21D-04
 ErrMax= 4.21D-04  0.00D+00 EMaxC= 1.00D-01 BMatC= 1.98D-05 BMatP= 2.25D-04
 IDIUse=3 WtCom= 9.96D-01 WtEn= 4.21D-03
 Coeff-Com:  0.113D-02-0.336D-01-0.727D-01 0.380D-01 0.107D+01
 Coeff-En:   0.000D+00 0.000D+00 0.000D+00 0.000D+00 0.100D+01
 Coeff:      0.112D-02-0.335D-01-0.723D-01 0.378D-01 0.107D+01
 Gap=     0.334 Goal=   None    Shift=    0.000
 RMSDP=3.58D-05 MaxDP=1.22D-03 DE=-2.34D-04 OVMax= 3.33D-03

 Cycle   6  Pass 1  IDiag  1:
 E= -994.449663868820     Delta-E=       -0.000049196620 Rises=F Damp=F
 DIIS: error= 1.66D-04 at cycle   6 NSaved=   6.
 NSaved= 6 IEnMin= 6 EnMin= -994.449663868820     IErMin= 6 ErrMin= 1.66D-04
 ErrMax= 1.66D-04  0.00D+00 EMaxC= 1.00D-01 BMatC= 2.87D-06 BMatP= 1.98D-05
 IDIUse=3 WtCom= 9.98D-01 WtEn= 1.66D-03
 Coeff-Com:  0.301D-03 0.735D-02 0.142D-01-0.980D-01-0.371D+00 0.145D+01
 Coeff-En:   0.000D+00 0.000D+00 0.000D+00 0.000D+00 0.000D+00 0.100D+01
 Coeff:      0.301D-03 0.734D-02 0.142D-01-0.978D-01-0.371D+00 0.145D+01
 Gap=     0.334 Goal=   None    Shift=    0.000
 RMSDP=1.94D-05 MaxDP=6.41D-04 DE=-4.92D-05 OVMax= 1.79D-03

 Cycle   7  Pass 1  IDiag  1:
 E= -994.449674052660     Delta-E=       -0.000010183840 Rises=F Damp=F
 DIIS: error= 4.71D-05 at cycle   7 NSaved=   7.
 NSaved= 7 IEnMin= 7 EnMin= -994.449674052660     IErMin= 7 ErrMin= 4.71D-05
 ErrMax= 4.71D-05  0.00D+00 EMaxC= 1.00D-01 BMatC= 1.79D-07 BMatP= 2.87D-06
 IDIUse=1 WtCom= 1.00D+00 WtEn= 0.00D+00
 Coeff-Com: -0.192D-03 0.118D-03 0.163D-02 0.296D-01 0.307D-01-0.477D+00
 Coeff-Com:  0.141D+01
 Coeff:     -0.192D-03 0.118D-03 0.163D-02 0.296D-01 0.307D-01-0.477D+00
 Coeff:      0.141D+01
 Gap=     0.334 Goal=   None    Shift=    0.000
 RMSDP=6.12D-06 MaxDP=1.71D-04 DE=-1.02D-05 OVMax= 6.87D-04

 Cycle   8  Pass 1  IDiag  1:
 E= -994.449674898431     Delta-E=       -0.000000845771 Rises=F Damp=F
 DIIS: error= 9.74D-06 at cycle   8 NSaved=   8.
 NSaved= 8 IEnMin= 8 EnMin= -994.449674898431     IErMin= 8 ErrMin= 9.74D-06
 ErrMax= 9.74D-06  0.00D+00 EMaxC= 1.00D-01 BMatC= 1.60D-08 BMatP= 1.79D-07
 IDIUse=1 WtCom= 1.00D+00 WtEn= 0.00D+00
 Coeff-Com:  0.366D-05-0.868D-03-0.168D-02 0.682D-02 0.329D-01-0.969D-01
 Coeff-Com: -0.964D-01 0.116D+01
 Coeff:      0.366D-05-0.868D-03-0.168D-02 0.682D-02 0.329D-01-0.969D-01
 Coeff:     -0.964D-01 0.116D+01
 Gap=     0.334 Goal=   None    Shift=    0.000
 RMSDP=1.58D-06 MaxDP=4.36D-05 DE=-8.46D-07 OVMax= 2.01D-04

 Cycle   9  Pass 1  IDiag  1:
 E= -994.449674960047     Delta-E=       -0.000000061616 Rises=F Damp=F
 DIIS: error= 4.90D-06 at cycle   9 NSaved=   9.
 NSaved= 9 IEnMin= 9 EnMin= -994.449674960047     IErMin= 9 ErrMin= 4.90D-06
 ErrMax= 4.90D-06  0.00D+00 EMaxC= 1.00D-01 BMatC= 2.21D-09 BMatP= 1.60D-08
 IDIUse=1 WtCom= 1.00D+00 WtEn= 0.00D+00
 Coeff-Com:  0.170D-04 0.192D-03 0.303D-03-0.490D-02-0.134D-01 0.820D-01
 Coeff-Com: -0.136D+00-0.316D+00 0.139D+01
 Coeff:      0.170D-04 0.192D-03 0.303D-03-0.490D-02-0.134D-01 0.820D-01
 Coeff:     -0.136D+00-0.316D+00 0.139D+01
 Gap=     0.334 Goal=   None    Shift=    0.000
 RMSDP=7.27D-07 MaxDP=2.29D-05 DE=-6.16D-08 OVMax= 9.48D-05

 Cycle  10  Pass 1  IDiag  1:
 E= -994.449674970970     Delta-E=       -0.000000010922 Rises=F Damp=F
 DIIS: error= 1.69D-06 at cycle  10 NSaved=  10.
 NSaved=10 IEnMin=10 EnMin= -994.449674970970     IErMin=10 ErrMin= 1.69D-06
 ErrMax= 1.69D-06  0.00D+00 EMaxC= 1.00D-01 BMatC= 2.73D-10 BMatP= 2.21D-09
 IDIUse=1 WtCom= 1.00D+00 WtEn= 0.00D+00
 Coeff-Com:  0.747D-06 0.676D-04 0.812D-04-0.946D-04-0.164D-02 0.930D-03
 Coeff-Com:  0.305D-01-0.132D+00-0.134D+00 0.124D+01
 Coeff:      0.747D-06 0.676D-04 0.812D-04-0.946D-04-0.164D-02 0.930D-03
 Coeff:      0.305D-01-0.132D+00-0.134D+00 0.124D+01
 Gap=     0.334 Goal=   None    Shift=    0.000
 RMSDP=2.53D-07 MaxDP=8.60D-06 DE=-1.09D-08 OVMax= 3.31D-05

 Cycle  11  Pass 1  IDiag  1:
 E= -994.449674972195     Delta-E=       -0.000000001226 Rises=F Damp=F
 DIIS: error= 4.53D-07 at cycle  11 NSaved=  11.
 NSaved=11 IEnMin=11 EnMin= -994.449674972195     IErMin=11 ErrMin= 4.53D-07
 ErrMax= 4.53D-07  0.00D+00 EMaxC= 1.00D-01 BMatC= 1.83D-11 BMatP= 2.73D-10
 IDIUse=1 WtCom= 1.00D+00 WtEn= 0.00D+00
 Coeff-Com: -0.296D-05-0.156D-04-0.170D-04 0.525D-03 0.122D-02-0.819D-02
 Coeff-Com:  0.115D-01 0.404D-01-0.107D+00-0.199D+00 0.126D+01
 Coeff:     -0.296D-05-0.156D-04-0.170D-04 0.525D-03 0.122D-02-0.819D-02
 Coeff:      0.115D-01 0.404D-01-0.107D+00-0.199D+00 0.126D+01
 Gap=     0.334 Goal=   None    Shift=    0.000
 RMSDP=6.79D-08 MaxDP=2.36D-06 DE=-1.23D-09 OVMax= 8.27D-06

 Cycle  12  Pass 1  IDiag  1:
 E= -994.449674972271     Delta-E=       -0.000000000076 Rises=F Damp=F
 DIIS: error= 8.32D-08 at cycle  12 NSaved=  12.
 NSaved=12 IEnMin=12 EnMin= -994.449674972271     IErMin=12 ErrMin= 8.32D-08
 ErrMax= 8.32D-08  0.00D+00 EMaxC= 1.00D-01 BMatC= 6.23D-13 BMatP= 1.83D-11
 IDIUse=1 WtCom= 1.00D+00 WtEn= 0.00D+00
 Coeff-Com:  0.233D-06-0.308D-05-0.450D-05-0.319D-04 0.567D-05 0.494D-03
 Coeff-Com: -0.226D-02 0.382D-02 0.145D-01-0.455D-01-0.807D-01 0.111D+01
 Coeff:      0.233D-06-0.308D-05-0.450D-05-0.319D-04 0.567D-05 0.494D-03
 Coeff:     -0.226D-02 0.382D-02 0.145D-01-0.455D-01-0.807D-01 0.111D+01
 Gap=     0.334 Goal=   None    Shift=    0.000
 RMSDP=1.02D-08 MaxDP=2.60D-07 DE=-7.57D-11 OVMax= 8.73D-07

 Cycle  13  Pass 1  IDiag  1:
 E= -994.449674972272     Delta-E=       -0.000000000001 Rises=F Damp=F
 DIIS: error= 2.45D-08 at cycle  13 NSaved=  13.
 NSaved=13 IEnMin=13 EnMin= -994.449674972272     IErMin=13 ErrMin= 2.45D-08
 ErrMax= 2.45D-08  0.00D+00 EMaxC= 1.00D-01 BMatC= 6.54D-14 BMatP= 6.23D-13
 IDIUse=1 WtCom= 1.00D+00 WtEn= 0.00D+00
 Coeff-Com:  0.195D-06 0.133D-05 0.102D-05-0.340D-04-0.863D-04 0.532D-03
 Coeff-Com: -0.613D-03-0.319D-02 0.587D-02 0.202D-01-0.965D-01-0.817D-01
 Coeff-Com:  0.116D+01
 Coeff:      0.195D-06 0.133D-05 0.102D-05-0.340D-04-0.863D-04 0.532D-03
 Coeff:     -0.613D-03-0.319D-02 0.587D-02 0.202D-01-0.965D-01-0.817D-01
 Coeff:      0.116D+01
 Gap=     0.334 Goal=   None    Shift=    0.000
 RMSDP=3.44D-09 MaxDP=8.53D-08 DE=-9.09D-13 OVMax= 2.94D-07

 SCF Done:  E(RHF) =  -994.449674972     A.U. after   13 cycles
            NFock= 13  Conv=0.34D-08     -V/T= 1.9994
 KE= 9.950146753321D+02 PE=-2.624559226782D+03 EE= 5.116867660494D+02
 Leave Link  502 at Fri Oct  8 12:22:41 2021, MaxMem= 16106127360 cpu:              24.7 elap:               3.2
 (Enter /sw/contrib/gaussian/g16/B01/g16/l801.exe)
 ExpMin= 2.53D-02 ExpMax= 4.56D+05 ExpMxC= 1.44D+03 IAcc=3 IRadAn=         5 AccDes= 0.00D+00
 HarFok:  IExCor=  205 AccDes= 0.00D+00 IRadAn=         5 IDoV=-2 UseB2=F ITyADJ=14
 ICtDFT= 12500011 ScaDFX=  1.000000  1.000000  1.000000  1.000000
 Largest valence mixing into a core orbital is  4.48D-04
 Largest core mixing into a valence orbital is  1.74D-04
 Range of M.O.s used for correlation:    12   169
 NBasis=   169 NAE=    22 NBE=    22 NFC=    11 NFV=     0
 NROrb=    158 NOA=    11 NOB=    11 NVA=   147 NVB=   147

 **** Warning!!: The largest alpha MO coefficient is  0.21624477D+02

 Leave Link  801 at Fri Oct  8 12:22:41 2021, MaxMem= 16106127360 cpu:               3.9 elap:               0.2
 (Enter /sw/contrib/gaussian/g16/B01/g16/l906.exe)
 Frozen-core derivative calculation, NFC=  11 NFV=   0.
 FulOut=F Deriv=T AODrv=F NAtomX=     4
   MMem=         144  MDisk=          11 MDiskD=          11
  W3Min=      736164 MinDsk=     1250177 NBas6D=         198
 NBas2D=       20187    NTT=       19701    LW2=     3500000
    MDV= 16105751200 MDiskM=      406660 NBas2p=       19980
 Fully in-core method, ICMem=   420417501.
 IMap=   1   2   3   4   5   6   7   8   9  10  11  12  13  14  15  16  17  18  19  20
 IMap=  21  22
 JobTyp=1 Pass  1 fully in-core, NPsUse= 28.
 Compute canonical integrals.
 FoFCou: FMM=F IPFlag=           0 FMFlag=           0 FMFlg1=           0
         NFxFlg=           0 DoJE=F BraDBF=F KetDBF=F FulRan=T
         wScrn=  0.000000 ICntrl=       600 IOpCl=  1 I1Cent=           0 NGrid=           0
         NMat0=    1 NMatS0=  20187 NMatT0=    0 NMatD0=    1 NMtDS0=    0 NMtDT0=    0
 Symmetry not used in FoFCou.
 Spin components of T(2) and E(2):
     alpha-alpha T2 =       0.2771757386D-01 E2=     -0.8175704570D-01
     alpha-beta  T2 =       0.1528160055D+00 E2=     -0.4897359843D+00
     beta-beta   T2 =       0.2771757386D-01 E2=     -0.8175704570D-01
 The integrals were generated   1 times.
 ANorm=    0.1099204782D+01
 E2 =    -0.6532500757D+00 EUMP2 =    -0.99510292504793D+03
 Leave Link  906 at Fri Oct  8 12:22:45 2021, MaxMem= 16106127360 cpu:             119.1 elap:               4.3
 (Enter /sw/contrib/gaussian/g16/B01/g16/l1002.exe)
 Minotr:  Closed shell wavefunction.
          Computing MP2/KS-MP2 derivatives.
          Using Z-Vector for PSCF gradient.
          Skipping F1 and S1 gradient terms here.
          Frozen-core window.
          Direct CPHF calculation.
          Differentiating once with respect to electric field.
                with respect to dipole field.
          Electric field/nuclear overlap derivatives assumed to be zero.
          Requested convergence is 1.0D-10 RMS, and 1.0D-09 maximum.
          NewPWx=F KeepS1=T KeepF1=T KeepIn=T MapXYZ=F SortEE=F KeepMc=T.
 Keep R1 ints in memory in canonical form, NReq=117123505.
 FoFCou: FMM=F IPFlag=           0 FMFlag=           0 FMFlg1=           0
         NFxFlg=           0 DoJE=F BraDBF=F KetDBF=F FulRan=T
         wScrn=  0.000000 ICntrl=       600 IOpCl=  0 I1Cent=           0 NGrid=           0
         NMat0=    1 NMatS0=  14365 NMatT0=    0 NMatD0=    1 NMtDS0=    0 NMtDT0=    0
 Symmetry not used in FoFCou.
 Two-electron integral symmetry not used.
          MDV=   16106127360 using IRadAn=       5.
          Solving linear equations separately, MaxMat=       0.
          There are     1 degrees of freedom in the 1st order CPHF.  IDoFFX=0 NUNeed=     1.
 LinEq1:  Iter=  0 NonCon=     1 RMS=2.78D-03 Max=4.42D-02 NDo=     1
 AX will form     1 AO Fock derivatives at one time.
 LinEq1:  Iter=  1 NonCon=     1 RMS=3.40D-04 Max=4.27D-03 NDo=     1
 LinEq1:  Iter=  2 NonCon=     1 RMS=1.23D-04 Max=2.01D-03 NDo=     1
 LinEq1:  Iter=  3 NonCon=     1 RMS=3.29D-05 Max=6.19D-04 NDo=     1
 LinEq1:  Iter=  4 NonCon=     1 RMS=1.44D-05 Max=3.73D-04 NDo=     1
 LinEq1:  Iter=  5 NonCon=     1 RMS=3.86D-06 Max=4.86D-05 NDo=     1
 LinEq1:  Iter=  6 NonCon=     1 RMS=1.15D-06 Max=1.34D-05 NDo=     1
 LinEq1:  Iter=  7 NonCon=     1 RMS=2.35D-07 Max=2.79D-06 NDo=     1
 LinEq1:  Iter=  8 NonCon=     1 RMS=5.40D-08 Max=8.03D-07 NDo=     1
 LinEq1:  Iter=  9 NonCon=     1 RMS=1.83D-08 Max=3.50D-07 NDo=     1
 LinEq1:  Iter= 10 NonCon=     1 RMS=4.85D-09 Max=7.31D-08 NDo=     1
 LinEq1:  Iter= 11 NonCon=     1 RMS=1.16D-09 Max=1.37D-08 NDo=     1
 LinEq1:  Iter= 12 NonCon=     1 RMS=2.35D-10 Max=2.82D-09 NDo=     1
 LinEq1:  Iter= 13 NonCon=     0 RMS=6.03D-11 Max=7.87D-10 NDo=     1
 Linear equations converged to 1.000D-10 1.000D-09 after    13 iterations.
 End of Minotr F.D. properties file   721 does not exist.
 End of Minotr F.D. properties file   722 does not exist.
 End of Minotr F.D. properties file   788 does not exist.
 Leave Link 1002 at Fri Oct  8 12:22:49 2021, MaxMem= 16106127360 cpu:              27.0 elap:               3.5
 (Enter /sw/contrib/gaussian/g16/B01/g16/l601.exe)
 Copying SCF densities to generalized density rwf, IOpCl= 0 IROHF=0.

 **********************************************************************

            Population analysis using the MP2 Density.

 **********************************************************************

 Alpha  occ. eigenvalues -- -104.74431-104.52920 -20.45217 -10.46354 -10.25385
 Alpha  occ. eigenvalues --   -7.93074  -7.92795  -7.92783  -7.71995  -7.71991
 Alpha  occ. eigenvalues --   -7.71991  -1.31412  -0.93297  -0.76527  -0.60920
 Alpha  occ. eigenvalues --   -0.46102  -0.45333  -0.32424  -0.29526  -0.18534
 Alpha  occ. eigenvalues --   -0.17772  -0.17767
 Alpha virt. eigenvalues --    0.15681   0.17999   0.22585   0.23078   0.26197
 Alpha virt. eigenvalues --    0.27507   0.27968   0.28171   0.30365   0.31393
 Alpha virt. eigenvalues --    0.33031   0.34619   0.39856   0.43508   0.46119
 Alpha virt. eigenvalues --    0.52033   0.52553   0.53858   0.56044   0.57769
 Alpha virt. eigenvalues --    0.59204   0.60291   0.62087   0.64802   0.66591
 Alpha virt. eigenvalues --    0.67918   0.68182   0.73604   0.77529   0.79687
 Alpha virt. eigenvalues --    0.85663   0.86811   0.88798   0.91120   0.91368
 Alpha virt. eigenvalues --    0.92869   0.95757   0.98550   1.03489   1.04895
 Alpha virt. eigenvalues --    1.08319   1.09149   1.09982   1.11828   1.15306
 Alpha virt. eigenvalues --    1.16668   1.18685   1.19642   1.20205   1.20571
 Alpha virt. eigenvalues --    1.22427   1.28030   1.28920   1.29829   1.31219
 Alpha virt. eigenvalues --    1.37540   1.40659   1.43935   1.44650   1.46628
 Alpha virt. eigenvalues --    1.48262   1.49883   1.54619   1.58669   1.63405
 Alpha virt. eigenvalues --    1.65931   1.67171   1.70919   1.73101   1.77663
 Alpha virt. eigenvalues --    1.80948   1.84444   1.86997   1.95339   1.96398
 Alpha virt. eigenvalues --    2.03292   2.25452   2.37858   2.49102   2.50355
 Alpha virt. eigenvalues --    2.55020   2.56044   2.61162   2.64146   2.68129
 Alpha virt. eigenvalues --    2.68623   2.71307   2.72068   2.76304   2.76558
 Alpha virt. eigenvalues --    2.81002   2.81387   2.83365   2.88485   2.88776
 Alpha virt. eigenvalues --    2.93688   2.97654   3.01297   3.03159   3.08899
 Alpha virt. eigenvalues --    3.11027   3.17578   3.21388   3.21739   3.22407
 Alpha virt. eigenvalues --    3.29924   3.30308   3.31056   3.34933   3.35332
 Alpha virt. eigenvalues --    3.40954   3.42482   3.51217   3.52531   3.53057
 Alpha virt. eigenvalues --    3.54737   3.56129   3.61232   3.79208   4.01990
 Alpha virt. eigenvalues --    4.22910   4.52314   4.60526   4.80125   4.83513
 Alpha virt. eigenvalues --    4.86481   5.16129   5.35677   6.02518   6.13885
 Alpha virt. eigenvalues --    6.19365   6.50408   6.54110   6.69689   6.88589
 Alpha virt. eigenvalues --    6.91012   6.97109   7.07671   7.26721   7.37271
 Alpha virt. eigenvalues --    7.40428   7.92160   8.31828   8.33494   8.76869
 Alpha virt. eigenvalues --    9.46093  21.06980
          Condensed to atoms (all electrons):
               1          2          3          4
     1  O    8.239948  -0.064307  -0.058868   0.116216
     2  Cl  -0.064307  17.016912   0.000981  -0.030962
     3  Cl  -0.058868   0.000981  17.937209   0.055534
     4  H    0.116216  -0.030962   0.055534   0.768741
 Mulliken charges:
               1
     1  O   -0.232989
     2  Cl   0.077375
     3  Cl  -0.934856
     4  H    0.090470
 Sum of Mulliken charges =  -1.00000
 Mulliken charges with hydrogens summed into heavy atoms:
               1
     1  O   -0.142519
     2  Cl   0.077375
     3  Cl  -0.934856
 Electronic spatial extent (au):  <R**2>=            793.9874
 Charge=             -1.0000 electrons
 Dipole moment (field-independent basis, Debye):
    X=              2.2551    Y=             10.8609    Z=              0.0000  Tot=             11.0926
 Quadrupole moment (field-independent basis, Debye-Ang):
   XX=            -38.2406   YY=            -70.2630   ZZ=            -36.5878
   XY=             -8.5032   XZ=             -0.0000   YZ=             -0.0000
 Traceless Quadrupole moment (field-independent basis, Debye-Ang):
   XX=             10.1232   YY=            -21.8992   ZZ=             11.7760
   XY=             -8.5032   XZ=             -0.0000   YZ=             -0.0000
 Octapole moment (field-independent basis, Debye-Ang**2):
  XXX=            -26.6409  YYY=            240.5634  ZZZ=             -0.0000  XYY=             12.5250
  XXY=             53.1489  XXZ=             -0.0000  XZZ=            -11.1211  YZZ=             47.9754
  YYZ=              0.0000  XYZ=             -0.0000
 Hexadecapole moment (field-independent basis, Debye-Ang**3):
 XXXX=           -299.7424 YYYY=          -1129.2794 ZZZZ=            -50.5412 XXXY=           -102.8750
 XXXZ=             -0.0000 YYYX=           -163.5159 YYYZ=              0.0000 ZZZX=             -0.0000
 ZZZY=             -0.0000 XXYY=           -213.8574 XXZZ=            -63.5943 YYZZ=           -152.1536
 XXYZ=              0.0000 YYXZ=              0.0000 ZZXY=            -32.9074
 N-N= 1.234081104287D+02 E-N=-2.624599383879D+03  KE= 9.956395451876D+02
 No NMR shielding tensors so no spin-rotation constants.
 Leave Link  601 at Fri Oct  8 12:22:49 2021, MaxMem= 16106127360 cpu:               4.5 elap:               0.2
 (Enter /sw/contrib/gaussian/g16/B01/g16/l607.exe)
 ******************************Gaussian NBO Version 3.1******************************
             N A T U R A L   A T O M I C   O R B I T A L   A N D
          N A T U R A L   B O N D   O R B I T A L   A N A L Y S I S
 ******************************Gaussian NBO Version 3.1******************************
       /RESON  / : Allow strongly delocalized NBO set

 Analyzing the MP2 density

 Job title: title                                                           

 Storage needed:     86521 in NPA,    114817 in NBO (********** available)
 GSVD:  LWork=        1191 too small for GESVD, short by       52514 words or       52514 for optimal perf.


 NATURAL POPULATIONS:  Natural atomic orbital occupancies 
                                                          
   NAO  Atom  No  lang   Type(AO)    Occupancy
 --------------------------------------------
     1    O    1  S      Cor( 1S)     1.99935
     2    O    1  S      Val( 2S)     1.68429
     3    O    1  S      Ryd( 3S)     0.00996
     4    O    1  S      Ryd( 4S)     0.00088
     5    O    1  S      Ryd( 5S)     0.00018
     6    O    1  px     Val( 2p)     1.21626
     7    O    1  px     Ryd( 3p)     0.00576
     8    O    1  px     Ryd( 4p)     0.00062
     9    O    1  px     Ryd( 5p)     0.00022
    10    O    1  py     Val( 2p)     1.66565
    11    O    1  py     Ryd( 3p)     0.01218
    12    O    1  py     Ryd( 4p)     0.00066
    13    O    1  py     Ryd( 5p)     0.00030
    14    O    1  pz     Val( 2p)     1.94874
    15    O    1  pz     Ryd( 3p)     0.01854
    16    O    1  pz     Ryd( 4p)     0.00069
    17    O    1  pz     Ryd( 5p)     0.00013
    18    O    1  dxy    Ryd( 3d)     0.00855
    19    O    1  dxy    Ryd( 4d)     0.00042
    20    O    1  dxy    Ryd( 5d)     0.00015
    21    O    1  dxz    Ryd( 3d)     0.00817
    22    O    1  dxz    Ryd( 4d)     0.00052
    23    O    1  dxz    Ryd( 5d)     0.00010
    24    O    1  dyz    Ryd( 3d)     0.00784
    25    O    1  dyz    Ryd( 4d)     0.00056
    26    O    1  dyz    Ryd( 5d)     0.00037
    27    O    1  dx2y2  Ryd( 3d)     0.01216
    28    O    1  dx2y2  Ryd( 4d)     0.00031
    29    O    1  dx2y2  Ryd( 5d)     0.00026
    30    O    1  dz2    Ryd( 3d)     0.00913
    31    O    1  dz2    Ryd( 4d)     0.00042
    32    O    1  dz2    Ryd( 5d)     0.00011
    33    O    1  f(0)   Ryd( 4f)     0.00066
    34    O    1  f(0)   Ryd( 5f)     0.00009
    35    O    1  f(C1)  Ryd( 4f)     0.00065
    36    O    1  f(C1)  Ryd( 5f)     0.00011
    37    O    1  f(S1)  Ryd( 4f)     0.00049
    38    O    1  f(S1)  Ryd( 5f)     0.00011
    39    O    1  f(C2)  Ryd( 4f)     0.00055
    40    O    1  f(C2)  Ryd( 5f)     0.00013
    41    O    1  f(S2)  Ryd( 4f)     0.00050
    42    O    1  f(S2)  Ryd( 5f)     0.00013
    43    O    1  f(C3)  Ryd( 4f)     0.00050
    44    O    1  f(C3)  Ryd( 5f)     0.00016
    45    O    1  f(S3)  Ryd( 4f)     0.00048
    46    O    1  f(S3)  Ryd( 5f)     0.00019

    47   Cl    2  S      Cor( 1S)     2.00000
    48   Cl    2  S      Cor( 2S)     1.99985
    49   Cl    2  S      Val( 3S)     1.88770
    50   Cl    2  S      Ryd( 4S)     0.00765
    51   Cl    2  S      Ryd( 5S)     0.00050
    52   Cl    2  S      Ryd( 6S)     0.00012
    53   Cl    2  px     Cor( 2p)     1.99998
    54   Cl    2  px     Val( 3p)     0.89429
    55   Cl    2  px     Ryd( 4p)     0.00647
    56   Cl    2  px     Ryd( 5p)     0.00054
    57   Cl    2  px     Ryd( 6p)     0.00013
    58   Cl    2  py     Cor( 2p)     2.00003
    59   Cl    2  py     Val( 3p)     1.95359
    60   Cl    2  py     Ryd( 4p)     0.00937
    61   Cl    2  py     Ryd( 5p)     0.00052
    62   Cl    2  py     Ryd( 6p)     0.00008
    63   Cl    2  pz     Cor( 2p)     2.00003
    64   Cl    2  pz     Val( 3p)     1.95490
    65   Cl    2  pz     Ryd( 4p)     0.01008
    66   Cl    2  pz     Ryd( 5p)     0.00069
    67   Cl    2  pz     Ryd( 6p)     0.00002
    68   Cl    2  dxy    Ryd( 3d)     0.01605
    69   Cl    2  dxy    Ryd( 4d)     0.00069
    70   Cl    2  dxy    Ryd( 5d)     0.00030
    71   Cl    2  dxz    Ryd( 3d)     0.02176
    72   Cl    2  dxz    Ryd( 4d)     0.00100
    73   Cl    2  dxz    Ryd( 5d)     0.00035
    74   Cl    2  dyz    Ryd( 3d)     0.01667
    75   Cl    2  dyz    Ryd( 4d)     0.00074
    76   Cl    2  dyz    Ryd( 5d)     0.00017
    77   Cl    2  dx2y2  Ryd( 3d)     0.01908
    78   Cl    2  dx2y2  Ryd( 4d)     0.00047
    79   Cl    2  dx2y2  Ryd( 5d)     0.00015
    80   Cl    2  dz2    Ryd( 3d)     0.01751
    81   Cl    2  dz2    Ryd( 4d)     0.00060
    82   Cl    2  dz2    Ryd( 5d)     0.00014
    83   Cl    2  f(0)   Ryd( 4f)     0.00132
    84   Cl    2  f(0)   Ryd( 5f)     0.00013
    85   Cl    2  f(C1)  Ryd( 4f)     0.00140
    86   Cl    2  f(C1)  Ryd( 5f)     0.00013
    87   Cl    2  f(S1)  Ryd( 4f)     0.00126
    88   Cl    2  f(S1)  Ryd( 5f)     0.00013
    89   Cl    2  f(C2)  Ryd( 4f)     0.00137
    90   Cl    2  f(C2)  Ryd( 5f)     0.00013
    91   Cl    2  f(S2)  Ryd( 4f)     0.00119
    92   Cl    2  f(S2)  Ryd( 5f)     0.00013
    93   Cl    2  f(C3)  Ryd( 4f)     0.00149
    94   Cl    2  f(C3)  Ryd( 5f)     0.00013
    95   Cl    2  f(S3)  Ryd( 4f)     0.00126
    96   Cl    2  f(S3)  Ryd( 5f)     0.00013

    97   Cl    3  S      Cor( 1S)     2.00001
    98   Cl    3  S      Cor( 2S)     2.00000
    99   Cl    3  S      Val( 3S)     1.97874
   100   Cl    3  S      Ryd( 4S)     0.00230
   101   Cl    3  S      Ryd( 5S)     0.00023
   102   Cl    3  S      Ryd( 6S)     0.00009
   103   Cl    3  px     Cor( 2p)     2.00003
   104   Cl    3  px     Val( 3p)     1.95085
   105   Cl    3  px     Ryd( 4p)     0.01302
   106   Cl    3  px     Ryd( 5p)     0.00057
   107   Cl    3  px     Ryd( 6p)     0.00006
   108   Cl    3  py     Cor( 2p)     2.00002
   109   Cl    3  py     Val( 3p)     1.92966
   110   Cl    3  py     Ryd( 4p)     0.01172
   111   Cl    3  py     Ryd( 5p)     0.00055
   112   Cl    3  py     Ryd( 6p)     0.00004
   113   Cl    3  pz     Cor( 2p)     2.00003
   114   Cl    3  pz     Val( 3p)     1.95236
   115   Cl    3  pz     Ryd( 4p)     0.01321
   116   Cl    3  pz     Ryd( 5p)     0.00058
   117   Cl    3  pz     Ryd( 6p)     0.00004
   118   Cl    3  dxy    Ryd( 3d)     0.01859
   119   Cl    3  dxy    Ryd( 4d)     0.00080
   120   Cl    3  dxy    Ryd( 5d)     0.00012
   121   Cl    3  dxz    Ryd( 3d)     0.01836
   122   Cl    3  dxz    Ryd( 4d)     0.00100
   123   Cl    3  dxz    Ryd( 5d)     0.00012
   124   Cl    3  dyz    Ryd( 3d)     0.01864
   125   Cl    3  dyz    Ryd( 4d)     0.00080
   126   Cl    3  dyz    Ryd( 5d)     0.00012
   127   Cl    3  dx2y2  Ryd( 3d)     0.01840
   128   Cl    3  dx2y2  Ryd( 4d)     0.00091
   129   Cl    3  dx2y2  Ryd( 5d)     0.00013
   130   Cl    3  dz2    Ryd( 3d)     0.01834
   131   Cl    3  dz2    Ryd( 4d)     0.00097
   132   Cl    3  dz2    Ryd( 5d)     0.00011
   133   Cl    3  f(0)   Ryd( 4f)     0.00129
   134   Cl    3  f(0)   Ryd( 5f)     0.00016
   135   Cl    3  f(C1)  Ryd( 4f)     0.00129
   136   Cl    3  f(C1)  Ryd( 5f)     0.00015
   137   Cl    3  f(S1)  Ryd( 4f)     0.00128
   138   Cl    3  f(S1)  Ryd( 5f)     0.00016
   139   Cl    3  f(C2)  Ryd( 4f)     0.00129
   140   Cl    3  f(C2)  Ryd( 5f)     0.00016
   141   Cl    3  f(S2)  Ryd( 4f)     0.00130
   142   Cl    3  f(S2)  Ryd( 5f)     0.00016
   143   Cl    3  f(C3)  Ryd( 4f)     0.00128
   144   Cl    3  f(C3)  Ryd( 5f)     0.00016
   145   Cl    3  f(S3)  Ryd( 4f)     0.00127
   146   Cl    3  f(S3)  Ryd( 5f)     0.00016

   147    H    4  S      Val( 1S)     0.55868
   148    H    4  S      Ryd( 2S)     0.01010
   149    H    4  S      Ryd( 3S)     0.00021
   150    H    4  S      Ryd( 4S)     0.00007
   151    H    4  px     Ryd( 2p)     0.00360
   152    H    4  px     Ryd( 3p)     0.00037
   153    H    4  px     Ryd( 4p)     0.00016
   154    H    4  py     Ryd( 2p)     0.00551
   155    H    4  py     Ryd( 3p)     0.00070
   156    H    4  py     Ryd( 4p)     0.00044
   157    H    4  pz     Ryd( 2p)     0.00539
   158    H    4  pz     Ryd( 3p)     0.00040
   159    H    4  pz     Ryd( 4p)     0.00019
   160    H    4  dxy    Ryd( 3d)     0.00023
   161    H    4  dxy    Ryd( 4d)     0.00012
   162    H    4  dxz    Ryd( 3d)     0.00020
   163    H    4  dxz    Ryd( 4d)     0.00010
   164    H    4  dyz    Ryd( 3d)     0.00042
   165    H    4  dyz    Ryd( 4d)     0.00009
   166    H    4  dx2y2  Ryd( 3d)     0.00021
   167    H    4  dx2y2  Ryd( 4d)     0.00018
   168    H    4  dz2    Ryd( 3d)     0.00020
   169    H    4  dz2    Ryd( 4d)     0.00017


 Summary of Natural Population Analysis:                  
                                                          
                                       Natural Population 
                Natural  -----------------------------------------------
    Atom  No    Charge         Core      Valence    Rydberg      Total
 -----------------------------------------------------------------------
      O    1   -0.61823      1.99935     6.51494    0.10394     8.61823
     Cl    2    0.16759      9.99988     6.69048    0.14205    16.83241
     Cl    3   -0.96160     10.00009     7.81161    0.14990    17.96160
      H    4    0.41225      0.00000     0.55868    0.02907     0.58775
 =======================================================================
   * Total *   -1.00000     21.99932    21.57572    0.42497    44.00000

                                 Natural Population      
 --------------------------------------------------------
   Core                      21.99932 ( 99.9969% of  22)
   Valence                   21.57572 ( 98.0714% of  22)
   Natural Minimal Basis     43.57503 ( 99.0342% of  44)
   Natural Rydberg Basis      0.42497 (  0.9658% of  44)
 --------------------------------------------------------

    Atom  No          Natural Electron Configuration
 ----------------------------------------------------------------------------
      O    1      [core]2S( 1.68)2p( 4.83)3S( 0.01)3p( 0.04)3d( 0.05)
     Cl    2      [core]3S( 1.89)3p( 4.80)4S( 0.01)3d( 0.09)4p( 0.03)4f( 0.01)
     Cl    3      [core]3S( 1.98)3p( 5.83)3d( 0.09)4p( 0.04)4f( 0.01)
      H    4            1S( 0.56)2S( 0.01)2p( 0.01)


 NATURAL BOND ORBITAL ANALYSIS:

                       Occupancies       Lewis Structure    Low   High
           Occ.    -------------------  -----------------   occ   occ
  Cycle   Thresh.   Lewis   Non-Lewis     CR  BD  3C  LP    (L)   (NL)   Dev
 =============================================================================
   1(1)    1.90    43.53849   0.46151     11   2   0   9     0      0    0.03
 -----------------------------------------------------------------------------

 Structure accepted: No low occupancy Lewis orbitals

 --------------------------------------------------------
   Core                     21.99931 ( 99.997% of  22)
   Valence Lewis            21.53917 ( 97.905% of  22)
  ==================       ============================
   Total Lewis              43.53849 ( 98.951% of  44)
  -----------------------------------------------------
   Valence non-Lewis         0.08608 (  0.196% of  44)
   Rydberg non-Lewis         0.37544 (  0.853% of  44)
  ==================       ============================
   Total non-Lewis           0.46151 (  1.049% of  44)
 --------------------------------------------------------


       (Occupancy)   Bond orbital/ Coefficients/ Hybrids
 ---------------------------------------------------------------------------------
     1. (1.94263) BD ( 1) O   1 -Cl   2  
                ( 59.33%)   0.7702* O   1 s( 10.95%)p 8.09( 88.55%)d 0.04(  0.49%)
                                                  f 0.00(  0.02%)
                                            0.0003  0.3275 -0.0455 -0.0122 -0.0003
                                            0.9402 -0.0200 -0.0123 -0.0080  0.0116
                                           -0.0277 -0.0042 -0.0008  0.0000  0.0000
                                            0.0000  0.0000 -0.0275 -0.0005  0.0031
                                            0.0000  0.0000  0.0000  0.0000  0.0000
                                            0.0000  0.0503  0.0069  0.0022 -0.0388
                                           -0.0033  0.0011  0.0000  0.0000 -0.0113
                                            0.0008 -0.0006  0.0001  0.0000  0.0000
                                            0.0000  0.0000  0.0048 -0.0009 -0.0007
                                            0.0033
                ( 40.67%)   0.6378*Cl   2 s(  8.06%)p11.24( 90.56%)d 0.16(  1.27%)
                                                  f 0.01(  0.11%)
                                           -0.0000  0.0005  0.2784 -0.0546 -0.0105
                                            0.0016 -0.0003 -0.9491  0.0669  0.0148
                                           -0.0043 -0.0000 -0.0060 -0.0008  0.0025
                                           -0.0006  0.0000  0.0000  0.0000  0.0000
                                            0.0000  0.0125 -0.0000  0.0010  0.0000
                                            0.0000  0.0000  0.0000  0.0000  0.0000
                                            0.0947 -0.0097  0.0003 -0.0588  0.0054
                                            0.0005  0.0000  0.0000  0.0204 -0.0030
                                            0.0002 -0.0000  0.0000  0.0000  0.0000
                                            0.0000 -0.0248  0.0030 -0.0004 -0.0003
     2. (1.97643) BD ( 1) O   1 - H   4  
                ( 72.83%)   0.8534* O   1 s( 39.72%)p 1.51( 59.82%)d 0.01(  0.44%)
                                                  f 0.00(  0.01%)
                                           -0.0003 -0.6300  0.0166  0.0038 -0.0011
                                            0.2080 -0.0218 -0.0007 -0.0011  0.7438
                                           -0.0350 -0.0050 -0.0030  0.0000  0.0000
                                            0.0000  0.0000 -0.0054  0.0049 -0.0012
                                            0.0000  0.0000  0.0000  0.0000  0.0000
                                            0.0000  0.0553  0.0007  0.0055  0.0358
                                           -0.0024 -0.0006  0.0000  0.0000 -0.0012
                                           -0.0012 -0.0070 -0.0030  0.0000  0.0000
                                            0.0000  0.0000 -0.0014 -0.0043  0.0008
                                           -0.0051
                ( 27.17%)   0.5212* H   4 s( 99.89%)p 0.00(  0.11%)d 0.00(  0.01%)
                                           -0.9993  0.0173 -0.0009  0.0002 -0.0124
                                           -0.0059 -0.0010  0.0050 -0.0282  0.0065
                                            0.0000  0.0000  0.0000  0.0014 -0.0001
                                            0.0000  0.0000  0.0000  0.0000 -0.0017
                                            0.0039 -0.0030  0.0056
     3. (1.99934) CR ( 1) O   1           s(100.00%)p 0.00(  0.00%)
                                            1.0000 -0.0005  0.0000  0.0000 -0.0000
                                           -0.0002  0.0000  0.0000  0.0000  0.0001
                                           -0.0000 -0.0000 -0.0000  0.0000  0.0000
                                            0.0000  0.0000  0.0000  0.0000 -0.0000
                                            0.0000  0.0000  0.0000  0.0000  0.0000
                                            0.0000 -0.0000 -0.0000  0.0000  0.0000
                                            0.0000 -0.0000  0.0000  0.0000  0.0000
                                           -0.0000 -0.0000 -0.0000  0.0000  0.0000
                                            0.0000  0.0000 -0.0000 -0.0000 -0.0000
                                           -0.0000
     4. (2.00000) CR ( 1)Cl   2           s(100.00%)
                                            1.0000  0.0000  0.0000 -0.0000 -0.0000
                                            0.0000 -0.0000 -0.0000  0.0000  0.0000
                                           -0.0000 -0.0000 -0.0000 -0.0000  0.0000
                                           -0.0000  0.0000  0.0000  0.0000  0.0000
                                            0.0000  0.0000 -0.0000  0.0000  0.0000
                                            0.0000  0.0000  0.0000  0.0000  0.0000
                                            0.0000 -0.0000  0.0000 -0.0000  0.0000
                                            0.0000  0.0000  0.0000  0.0000 -0.0000
                                            0.0000  0.0000  0.0000  0.0000  0.0000
                                            0.0000 -0.0000  0.0000 -0.0000 -0.0000
     5. (1.99986) CR ( 2)Cl   2           s(100.00%)p 0.00(  0.00%)
                                            0.0000  1.0000 -0.0004  0.0000  0.0000
                                           -0.0000  0.0000  0.0004 -0.0000 -0.0000
                                            0.0000  0.0000  0.0000 -0.0000 -0.0000
                                            0.0000  0.0000  0.0000  0.0000  0.0000
                                            0.0000 -0.0000  0.0000 -0.0000  0.0000
                                            0.0000  0.0000  0.0000  0.0000  0.0000
                                           -0.0000  0.0000 -0.0000  0.0000 -0.0000
                                           -0.0000  0.0000  0.0000 -0.0000  0.0000
                                           -0.0000  0.0000  0.0000  0.0000  0.0000
                                            0.0000  0.0000 -0.0000  0.0000  0.0000
     6. (1.99997) CR ( 3)Cl   2           s(  0.00%)p 1.00(100.00%)
                                           -0.0000  0.0000  0.0001 -0.0000 -0.0000
                                            0.0000  1.0000 -0.0003  0.0000  0.0000
                                           -0.0000 -0.0000 -0.0000 -0.0000  0.0000
                                           -0.0000  0.0000  0.0000  0.0000  0.0000
                                            0.0000  0.0000 -0.0000  0.0000  0.0000
                                            0.0000  0.0000  0.0000  0.0000  0.0000
                                            0.0000 -0.0000  0.0000 -0.0000  0.0000
                                            0.0000  0.0000  0.0000  0.0000 -0.0000
                                            0.0000  0.0000  0.0000  0.0000  0.0000
                                            0.0000 -0.0000  0.0000 -0.0000 -0.0000
     7. (2.00003) CR ( 4)Cl   2           s(  0.00%)p 1.00(100.00%)
                                           -0.0000  0.0000  0.0000  0.0000  0.0000
                                            0.0000 -0.0000 -0.0000  0.0000  0.0000
                                           -0.0000  1.0000  0.0002  0.0000  0.0000
                                            0.0000  0.0000  0.0000  0.0000  0.0000
                                            0.0000 -0.0000  0.0000  0.0000  0.0000
                                            0.0000  0.0000  0.0000  0.0000  0.0000
                                           -0.0000 -0.0000 -0.0000 -0.0000 -0.0000
                                           -0.0000  0.0000  0.0000  0.0000 -0.0000
                                           -0.0000 -0.0000  0.0000  0.0000  0.0000
                                            0.0000 -0.0000  0.0000  0.0000 -0.0000
     8. (2.00003) CR ( 5)Cl   2           s(  0.00%)p 1.00(100.00%)
                                            0.0000  0.0000  0.0000  0.0000  0.0000
                                            0.0000  0.0000  0.0000  0.0000  0.0000
                                            0.0000  0.0000  0.0000  0.0000  0.0000
                                            0.0000  1.0000  0.0002  0.0000  0.0000
                                           -0.0000  0.0000  0.0000  0.0000  0.0000
                                            0.0000  0.0000  0.0000  0.0000  0.0000
                                            0.0000  0.0000  0.0000  0.0000  0.0000
                                            0.0000 -0.0000  0.0000  0.0000  0.0000
                                            0.0000  0.0000  0.0000 -0.0000  0.0000
                                           -0.0000  0.0000  0.0000  0.0000  0.0000
     9. (2.00001) CR ( 1)Cl   3           s(100.00%)
                                            1.0000  0.0000  0.0000 -0.0000  0.0000
                                           -0.0000 -0.0000  0.0000  0.0000  0.0000
                                           -0.0000 -0.0000 -0.0000  0.0000  0.0000
                                           -0.0000  0.0000  0.0000  0.0000  0.0000
                                            0.0000 -0.0000 -0.0000 -0.0000  0.0000
                                            0.0000  0.0000  0.0000  0.0000  0.0000
                                            0.0000  0.0000 -0.0000  0.0000  0.0000
                                            0.0000  0.0000  0.0000  0.0000  0.0000
                                            0.0000  0.0000  0.0000  0.0000  0.0000
                                            0.0000  0.0000  0.0000  0.0000  0.0000
    10. (2.00000) CR ( 2)Cl   3           s(100.00%)
                                            0.0000  1.0000  0.0000  0.0000 -0.0000
                                            0.0000  0.0000  0.0000 -0.0000 -0.0000
                                            0.0000  0.0000  0.0000 -0.0000 -0.0000
                                            0.0000  0.0000  0.0000  0.0000  0.0000
                                            0.0000  0.0000  0.0000  0.0000  0.0000
                                            0.0000  0.0000  0.0000  0.0000  0.0000
                                           -0.0000 -0.0000  0.0000 -0.0000 -0.0000
                                           -0.0000  0.0000  0.0000 -0.0000 -0.0000
                                           -0.0000 -0.0000  0.0000  0.0000  0.0000
                                            0.0000 -0.0000 -0.0000 -0.0000 -0.0000
    11. (2.00003) CR ( 3)Cl   3           s(  0.00%)p 1.00(100.00%)
                                           -0.0000  0.0000 -0.0000 -0.0000  0.0000
                                           -0.0000  1.0000  0.0000  0.0000  0.0000
                                           -0.0000 -0.0000 -0.0000  0.0000  0.0000
                                           -0.0000  0.0000  0.0000  0.0000  0.0000
                                            0.0000  0.0000  0.0000 -0.0000  0.0000
                                            0.0000  0.0000  0.0000  0.0000  0.0000
                                            0.0000  0.0000 -0.0000  0.0000  0.0000
                                            0.0000  0.0000  0.0000 -0.0000 -0.0000
                                            0.0000  0.0000  0.0000  0.0000  0.0000
                                            0.0000 -0.0000 -0.0000  0.0000  0.0000
    12. (2.00002) CR ( 4)Cl   3           s(  0.00%)p 1.00(100.00%)
                                           -0.0000  0.0000 -0.0000 -0.0000  0.0000
                                           -0.0000 -0.0000 -0.0000  0.0000  0.0000
                                           -0.0000  1.0000 -0.0001  0.0000  0.0000
                                           -0.0000  0.0000  0.0000  0.0000  0.0000
                                            0.0000 -0.0000 -0.0000 -0.0000  0.0000
                                            0.0000  0.0000  0.0000  0.0000  0.0000
                                            0.0000  0.0000 -0.0000  0.0000  0.0000
                                            0.0000  0.0000  0.0000  0.0000  0.0000
                                            0.0000  0.0000  0.0000  0.0000  0.0000
                                            0.0000  0.0000  0.0000  0.0000  0.0000
    13. (2.00003) CR ( 5)Cl   3           s(  0.00%)p 1.00(100.00%)
                                            0.0000  0.0000  0.0000  0.0000  0.0000
                                            0.0000  0.0000  0.0000  0.0000  0.0000
                                            0.0000  0.0000  0.0000  0.0000  0.0000
                                            0.0000  1.0000  0.0000  0.0000  0.0000
                                           -0.0000  0.0000  0.0000  0.0000  0.0000
                                            0.0000  0.0000  0.0000  0.0000  0.0000
                                            0.0000  0.0000  0.0000  0.0000  0.0000
                                            0.0000 -0.0000 -0.0000  0.0000  0.0000
                                            0.0000  0.0000 -0.0000 -0.0000  0.0000
                                            0.0000  0.0000  0.0000  0.0000  0.0000
    14. (1.96635) LP ( 1) O   1           s( 49.50%)p 1.02( 50.37%)d 0.00(  0.13%)
                                                  f 0.00(  0.01%)
                                            0.0002  0.7031  0.0228  0.0059 -0.0009
                                           -0.2515 -0.0084 -0.0027 -0.0017  0.6635
                                            0.0096  0.0056  0.0012  0.0000  0.0000
                                            0.0000  0.0000  0.0237  0.0029 -0.0037
                                            0.0000  0.0000  0.0000  0.0000  0.0000
                                            0.0000  0.0201 -0.0028 -0.0054  0.0159
                                           -0.0014 -0.0008  0.0000  0.0000  0.0000
                                            0.0007 -0.0033 -0.0005  0.0000  0.0000
                                            0.0000  0.0000  0.0032 -0.0025  0.0039
                                           -0.0034
    15. (1.95441) LP ( 2) O   1           s(  0.00%)p 1.00( 99.79%)d 0.00(  0.20%)
                                                  f 0.00(  0.01%)
                                            0.0000  0.0000  0.0000  0.0000  0.0000
                                            0.0000  0.0000  0.0000  0.0000  0.0000
                                            0.0000  0.0000  0.0000  0.9985  0.0276
                                            0.0053  0.0048  0.0000  0.0000  0.0000
                                            0.0273  0.0065 -0.0005 -0.0316  0.0067
                                            0.0117  0.0000  0.0000  0.0000  0.0000
                                            0.0000  0.0000 -0.0094 -0.0005  0.0000
                                            0.0000  0.0000  0.0000  0.0049 -0.0038
                                            0.0005  0.0021  0.0000  0.0000  0.0000
                                            0.0000
    16. (1.97517) LP ( 1)Cl   2           s( 92.19%)p 0.08(  7.79%)d 0.00(  0.02%)
                                                  f 0.00(  0.00%)
                                            0.0000  0.0003  0.9601  0.0063  0.0013
                                           -0.0002  0.0000  0.2790 -0.0058 -0.0028
                                            0.0010 -0.0000 -0.0014  0.0020  0.0002
                                           -0.0002  0.0000  0.0000  0.0000  0.0000
                                            0.0000  0.0001 -0.0002 -0.0004  0.0000
                                            0.0000  0.0000  0.0000  0.0000  0.0000
                                           -0.0119  0.0005 -0.0003  0.0075  0.0005
                                            0.0005  0.0000  0.0000 -0.0018 -0.0006
                                            0.0001 -0.0000  0.0000  0.0000  0.0000
                                            0.0000  0.0030  0.0002 -0.0005  0.0003
    17. (1.95646) LP ( 2)Cl   2           s(  0.00%)p 1.00( 99.95%)d 0.00(  0.04%)
                                                  f 0.00(  0.01%)
                                            0.0000  0.0000  0.0000  0.0000  0.0000
                                            0.0000  0.0000  0.0000  0.0000  0.0000
                                            0.0000  0.0000  0.0000  0.0000  0.0000
                                            0.0000 -0.0002  0.9996  0.0157  0.0051
                                           -0.0021  0.0000  0.0000  0.0000  0.0072
                                            0.0164  0.0090  0.0045  0.0038  0.0014
                                            0.0000  0.0000  0.0000  0.0000  0.0000
                                            0.0000 -0.0055  0.0008  0.0000  0.0000
                                            0.0000  0.0000  0.0070 -0.0012  0.0009
                                           -0.0007  0.0000  0.0000  0.0000  0.0000
    18. (1.95506) LP ( 3)Cl   2           s(  0.01%)p 1.00( 99.94%)d 0.00(  0.04%)
                                                  f 0.00(  0.01%)
                                            0.0000 -0.0000  0.0033  0.0070  0.0038
                                            0.0019  0.0000 -0.0066 -0.0005 -0.0002
                                           -0.0009 -0.0002  0.9996  0.0128  0.0018
                                            0.0001  0.0000  0.0000  0.0000  0.0000
                                            0.0000 -0.0025  0.0131  0.0081  0.0000
                                            0.0000  0.0000  0.0000  0.0000  0.0000
                                           -0.0092 -0.0057 -0.0035 -0.0016 -0.0033
                                           -0.0010  0.0000  0.0000  0.0003 -0.0001
                                           -0.0022 -0.0001  0.0000  0.0000  0.0000
                                            0.0000 -0.0014  0.0004  0.0091 -0.0015
    19. (1.97976) LP ( 1)Cl   3           s( 98.13%)p 0.02(  1.87%)d 0.00(  0.00%)
                                                  f 0.00(  0.00%)
                                           -0.0000  0.0000  0.9906 -0.0002  0.0001
                                           -0.0001  0.0000 -0.0346  0.0003 -0.0002
                                            0.0001  0.0000 -0.1322  0.0012 -0.0008
                                            0.0004  0.0000  0.0000  0.0000  0.0000
                                            0.0000  0.0010  0.0003 -0.0001  0.0000
                                            0.0000  0.0000  0.0000  0.0000  0.0000
                                           -0.0018 -0.0006  0.0002 -0.0012 -0.0004
                                            0.0001  0.0000  0.0000 -0.0001 -0.0001
                                           -0.0005 -0.0003  0.0000  0.0000  0.0000
                                            0.0000 -0.0004 -0.0002 -0.0004 -0.0002
    20. (1.95254) LP ( 2)Cl   3           s(  0.00%)p 1.00( 99.99%)d 0.00(  0.01%)
                                                  f 0.00(  0.00%)
                                            0.0000  0.0000  0.0000  0.0000  0.0000
                                            0.0000  0.0000  0.0000  0.0000  0.0000
                                            0.0000  0.0000  0.0000  0.0000  0.0000
                                            0.0000 -0.0000  1.0000  0.0006  0.0012
                                           -0.0004  0.0000  0.0000  0.0000  0.0022
                                            0.0008  0.0002  0.0083  0.0027  0.0002
                                            0.0000  0.0000  0.0000  0.0000  0.0000
                                            0.0000 -0.0017 -0.0012  0.0000  0.0000
                                            0.0000  0.0000 -0.0017 -0.0011  0.0010
                                            0.0008  0.0000  0.0000  0.0000  0.0000
    21. (1.95221) LP ( 3)Cl   3           s(  0.00%)p 1.00( 99.99%)d 0.00(  0.01%)
                                                  f 0.00(  0.00%)
                                           -0.0000 -0.0000  0.0044  0.0005  0.0001
                                            0.0003 -0.0000  0.9750  0.0008  0.0009
                                           -0.0003  0.0000 -0.2219  0.0001 -0.0003
                                            0.0002  0.0000  0.0000  0.0000  0.0000
                                            0.0000  0.0085  0.0024  0.0000  0.0000
                                            0.0000  0.0000  0.0000  0.0000  0.0000
                                            0.0036  0.0007 -0.0002 -0.0002 -0.0002
                                           -0.0000  0.0000  0.0000 -0.0007 -0.0005
                                            0.0000 -0.0000  0.0000  0.0000  0.0000
                                            0.0000 -0.0019 -0.0011  0.0015  0.0010
    22. (1.92815) LP ( 4)Cl   3           s(  1.86%)p52.65( 98.10%)d 0.02(  0.03%)
                                                  f 0.00(  0.00%)
                                            0.0000 -0.0000  0.1365  0.0017 -0.0004
                                            0.0010  0.0000  0.2192 -0.0005 -0.0004
                                            0.0008  0.0001  0.9659 -0.0012 -0.0022
                                            0.0006  0.0000  0.0000  0.0000  0.0000
                                            0.0000  0.0068  0.0020  0.0003  0.0000
                                            0.0000  0.0000  0.0000  0.0000  0.0000
                                           -0.0129 -0.0027  0.0002 -0.0090 -0.0023
                                           -0.0003  0.0000  0.0000 -0.0006 -0.0004
                                           -0.0024 -0.0013  0.0000  0.0000  0.0000
                                            0.0000 -0.0019 -0.0011 -0.0020 -0.0007
    23. (0.01724) RY*( 1) O   1           s(  0.00%)p 1.00( 98.75%)d 0.01(  1.15%)
                                                  f 0.00(  0.10%)
                                            0.0000  0.0000  0.0000  0.0000  0.0000
                                            0.0000  0.0000  0.0000  0.0000  0.0000
                                            0.0000  0.0000  0.0000 -0.0313  0.9924
                                           -0.0388 -0.0126  0.0000  0.0000  0.0000
                                            0.0947  0.0321  0.0102 -0.0242  0.0126
                                            0.0259  0.0000  0.0000  0.0000  0.0000
                                            0.0000  0.0000 -0.0009  0.0077  0.0000
                                            0.0000  0.0000  0.0000  0.0241 -0.0161
                                           -0.0083  0.0027  0.0000  0.0000  0.0000
                                            0.0000
    24. (0.01452) RY*( 2) O   1           s( 32.30%)p 2.05( 66.24%)d 0.04(  1.29%)
                                                  f 0.01(  0.17%)
                                           -0.0000 -0.0094  0.5623 -0.0815  0.0089
                                            0.0489 -0.3264  0.0090  0.0172 -0.0097
                                            0.7427 -0.0160 -0.0348  0.0000  0.0000
                                            0.0000  0.0000  0.1050  0.0212  0.0010
                                            0.0000  0.0000  0.0000  0.0000  0.0000
                                            0.0000 -0.0001  0.0061 -0.0040  0.0331
                                           -0.0035 -0.0149  0.0000  0.0000 -0.0053
                                            0.0030  0.0061  0.0033  0.0000  0.0000
                                            0.0000  0.0000  0.0265 -0.0096  0.0265
                                           -0.0125
    25. (0.00707) RY*( 3) O   1           s(  9.13%)p 0.54(  4.90%)d 9.26( 84.48%)
                                                  f 0.16(  1.50%)
                                           -0.0000  0.0175  0.2997 -0.0333  0.0008
                                           -0.0276 -0.1402  0.0047  0.0079 -0.0069
                                           -0.1569  0.0377 -0.0485 -0.0000 -0.0000
                                           -0.0000 -0.0000 -0.9157 -0.0320 -0.0228
                                           -0.0000 -0.0000 -0.0000 -0.0000 -0.0000
                                           -0.0000  0.0486  0.0212  0.0264  0.0339
                                            0.0060  0.0093 -0.0000 -0.0000 -0.0327
                                            0.0136  0.0125 -0.0069 -0.0000 -0.0000
                                           -0.0000 -0.0000 -0.0723  0.0163 -0.0817
                                            0.0368
    26. (0.00677) RY*( 4) O   1           s(  0.00%)p 1.00(  0.89%)d99.99( 97.66%)
                                                  f 1.64(  1.45%)
                                            0.0000  0.0000  0.0000  0.0000  0.0000
                                            0.0000  0.0000  0.0000  0.0000  0.0000
                                            0.0000  0.0000  0.0000 -0.0174 -0.0907
                                           -0.0182  0.0050  0.0000  0.0000  0.0000
                                            0.9620 -0.0026  0.0142  0.2249 -0.0172
                                           -0.0033  0.0000  0.0000  0.0000  0.0000
                                            0.0000  0.0000 -0.0481  0.0242  0.0000
                                            0.0000  0.0000  0.0000  0.0955 -0.0401
                                           -0.0288  0.0086  0.0000  0.0000  0.0000
                                            0.0000
    27. (0.00592) RY*( 5) O   1           s(  0.00%)p 1.00(  0.37%)d99.99( 98.56%)
                                                  f 2.89(  1.07%)
                                            0.0000  0.0000  0.0000  0.0000  0.0000
                                            0.0000  0.0000  0.0000  0.0000  0.0000
                                            0.0000  0.0000  0.0000  0.0359  0.0448
                                            0.0050 -0.0193  0.0000  0.0000  0.0000
                                           -0.2205  0.0100  0.0020  0.9665 -0.0463
                                            0.0237  0.0000  0.0000  0.0000  0.0000
                                            0.0000  0.0000  0.0755 -0.0285  0.0000
                                            0.0000  0.0000  0.0000  0.0437 -0.0104
                                            0.0408 -0.0217  0.0000  0.0000  0.0000
                                            0.0000
    28. (0.00561) RY*( 6) O   1           s(  3.64%)p 1.38(  5.02%)d24.67( 89.81%)
                                                  f 0.42(  1.53%)
                                           -0.0000  0.0246  0.1861 -0.0310  0.0149
                                            0.0542  0.1772  0.0061 -0.0230 -0.0252
                                           -0.1178  0.0253 -0.0100  0.0000  0.0000
                                            0.0000  0.0000  0.0779 -0.0182 -0.0092
                                            0.0000  0.0000  0.0000  0.0000  0.0000
                                            0.0000 -0.2315  0.0088  0.0232  0.9140
                                           -0.0410  0.0168  0.0000  0.0000  0.0882
                                           -0.0379 -0.0448  0.0188  0.0000  0.0000
                                            0.0000  0.0000 -0.0554  0.0228  0.0105
                                           -0.0041
    29. (0.00540) RY*( 7) O   1           s(  2.40%)p11.40( 27.38%)d28.52( 68.49%)
                                                  f 0.72(  1.73%)
                                           -0.0000  0.0135  0.1472 -0.0305 -0.0351
                                           -0.0431 -0.3974  0.0074  0.0350 -0.0719
                                           -0.3258  0.0387  0.0045  0.0000  0.0000
                                            0.0000  0.0000  0.2177 -0.0136  0.0092
                                            0.0000  0.0000  0.0000  0.0000  0.0000
                                            0.0000  0.7748  0.0030  0.0304  0.1875
                                            0.0047  0.0292  0.0000  0.0000 -0.0303
                                            0.0098 -0.0626  0.0248  0.0000  0.0000
                                            0.0000  0.0000  0.0840 -0.0368 -0.0562
                                            0.0114
    30. (0.00246) RY*( 8) O   1           s( 14.03%)p 4.79( 67.14%)d 1.31( 18.38%)
                                                  f 0.03(  0.45%)
                                           -0.0000 -0.0007  0.3508 -0.1302  0.0167
                                            0.0077  0.8101 -0.0546 -0.0186 -0.0067
                                            0.0775  0.0193 -0.0725  0.0000  0.0000
                                            0.0000  0.0000  0.0057 -0.0138  0.0009
                                            0.0000  0.0000  0.0000  0.0000  0.0000
                                            0.0000  0.3931  0.0151  0.1081 -0.1232
                                            0.0178 -0.0407  0.0000  0.0000 -0.0041
                                            0.0247 -0.0050  0.0119  0.0000  0.0000
                                            0.0000  0.0000  0.0423 -0.0285 -0.0338
                                            0.0013
    31. (0.00182) RY*( 9) O   1           s( 33.49%)p 0.89( 29.82%)d 1.07( 35.98%)
                                                  f 0.02(  0.71%)
                                           -0.0000  0.0031  0.5693 -0.1039 -0.0011
                                            0.0261 -0.0850  0.0376  0.0183  0.0027
                                           -0.5066  0.1464 -0.1025  0.0000  0.0000
                                            0.0000  0.0000  0.2798 -0.0830  0.0278
                                            0.0000  0.0000  0.0000  0.0000  0.0000
                                            0.0000 -0.3810  0.1105 -0.0709 -0.2922
                                            0.1508 -0.0576  0.0000  0.0000 -0.0067
                                            0.0049 -0.0494 -0.0142  0.0000  0.0000
                                            0.0000  0.0000 -0.0604 -0.0129 -0.0242
                                            0.0055
    32. (0.00079) RY*(10) O   1           s( 36.98%)p 1.36( 50.36%)d 0.24(  8.90%)
                                                  f 0.10(  3.76%)
                                           -0.0000 -0.0058  0.0395  0.6014 -0.0803
                                            0.0129  0.0349 -0.1225 -0.2355 -0.0048
                                            0.0828  0.6511 -0.0298  0.0000  0.0000
                                            0.0000  0.0000  0.0274 -0.2169 -0.1148
                                            0.0000  0.0000  0.0000  0.0000  0.0000
                                            0.0000  0.0444 -0.1062 -0.0723 -0.0058
                                           -0.0864  0.0452  0.0000  0.0000 -0.0831
                                            0.0268 -0.0107  0.0302  0.0000  0.0000
                                            0.0000  0.0000 -0.1331  0.0651 -0.0817
                                            0.0185
    33. (0.00067) RY*(11) O   1           s(  0.00%)p 1.00( 75.97%)d 0.22( 16.34%)
                                                  f 0.10(  7.69%)
                                            0.0000  0.0000  0.0000  0.0000  0.0000
                                            0.0000  0.0000  0.0000  0.0000  0.0000
                                            0.0000  0.0000  0.0000 -0.0058  0.0325
                                            0.8659 -0.0942  0.0000  0.0000  0.0000
                                            0.0490 -0.1907 -0.0089  0.0044  0.3500
                                            0.0453  0.0000  0.0000  0.0000  0.0000
                                            0.0000  0.0000  0.1709  0.0035  0.0000
                                            0.0000  0.0000  0.0000 -0.1135 -0.0302
                                            0.1812 -0.0326  0.0000  0.0000  0.0000
                                            0.0000
    34. (0.00055) RY*(12) O   1           s(  0.00%)p 1.00( 15.69%)d 1.91( 30.01%)
                                                  f 3.46( 54.30%)
                                            0.0000  0.0000  0.0000  0.0000  0.0000
                                            0.0000  0.0000  0.0000  0.0000  0.0000
                                            0.0000  0.0000  0.0000 -0.0025 -0.0132
                                           -0.3721  0.1352  0.0000  0.0000  0.0000
                                            0.0251 -0.0430  0.0137  0.0103  0.5450
                                            0.0170  0.0000  0.0000  0.0000  0.0000
                                            0.0000  0.0000 -0.0406 -0.0122  0.0000
                                            0.0000  0.0000  0.0000 -0.0615  0.0046
                                            0.7295 -0.0730  0.0000  0.0000  0.0000
                                            0.0000
    35. (0.00052) RY*(13) O   1           s( 14.40%)p 0.12(  1.70%)d 1.51( 21.79%)
                                                  f 4.31( 62.10%)
                                           -0.0000  0.0024  0.0458  0.3480  0.1442
                                            0.0120  0.0150  0.0925  0.0227 -0.0021
                                            0.0099 -0.0652  0.0569  0.0000  0.0000
                                            0.0000  0.0000 -0.0593  0.0081 -0.0704
                                            0.0000  0.0000  0.0000  0.0000  0.0000
                                            0.0000  0.0277  0.0383 -0.0737 -0.0160
                                            0.4485  0.0186  0.0000  0.0000  0.6936
                                           -0.0326 -0.0703 -0.0057  0.0000  0.0000
                                            0.0000  0.0000  0.3643 -0.0309  0.0138
                                            0.0012
    36. (0.00048) RY*(14) O   1           s(  0.00%)p 1.00(  5.99%)d 3.35( 20.04%)
                                                  f12.35( 73.97%)
                                            0.0000  0.0000  0.0000  0.0000  0.0000
                                            0.0000  0.0000  0.0000  0.0000  0.0000
                                            0.0000  0.0000  0.0000  0.0103  0.0094
                                           -0.2349  0.0673  0.0000  0.0000  0.0000
                                            0.0740 -0.4054  0.1641  0.0023 -0.0565
                                            0.0210  0.0000  0.0000  0.0000  0.0000
                                            0.0000  0.0000  0.6292  0.0271  0.0000
                                            0.0000  0.0000  0.0000 -0.5704 -0.0181
                                           -0.1316  0.0087  0.0000  0.0000  0.0000
                                            0.0000
    37. (0.00048) RY*(15) O   1           s(  0.63%)p51.85( 32.52%)d26.83( 16.83%)
                                                  f79.77( 50.03%)
                                           -0.0000  0.0046 -0.0184  0.0177  0.0748
                                            0.0021  0.0066  0.5265 -0.0841 -0.0067
                                            0.0060  0.1520 -0.1328 -0.0000 -0.0000
                                           -0.0000 -0.0000 -0.0139  0.3536 -0.1027
                                           -0.0000 -0.0000 -0.0000 -0.0000 -0.0000
                                           -0.0000  0.0784  0.0190  0.1438 -0.0452
                                           -0.0524 -0.0217 -0.0000 -0.0000  0.1357
                                            0.0107 -0.3212 -0.0167 -0.0000 -0.0000
                                           -0.0000 -0.0000 -0.4099 -0.0289  0.4575
                                            0.0142
    38. (0.00044) RY*(16) O   1           s(  0.09%)p99.99( 31.00%)d99.99( 11.66%)
                                                  f99.99( 57.25%)
                                           -0.0000  0.0040 -0.0143 -0.0183  0.0193
                                            0.0071 -0.0025  0.5469 -0.0714  0.0067
                                            0.0230 -0.0717 -0.0071 -0.0000 -0.0000
                                           -0.0000 -0.0000  0.0595 -0.2754  0.1039
                                           -0.0000 -0.0000 -0.0000 -0.0000 -0.0000
                                           -0.0000  0.0407 -0.0487  0.0994 -0.0170
                                           -0.1044 -0.0361 -0.0000 -0.0000  0.2423
                                            0.0213  0.4800  0.0564 -0.0000 -0.0000
                                           -0.0000 -0.0000 -0.2970 -0.0027 -0.4358
                                           -0.0411
    39. (0.00042) RY*(17) O   1           s(  0.00%)p 1.00(  1.67%)d10.17( 16.96%)
                                                  f48.80( 81.37%)
                                            0.0000  0.0000  0.0000  0.0000  0.0000
                                            0.0000  0.0000  0.0000  0.0000  0.0000
                                            0.0000  0.0000  0.0000  0.0030 -0.0019
                                           -0.0700  0.1084  0.0000  0.0000  0.0000
                                           -0.0395 -0.3845 -0.0608 -0.0602  0.0774
                                           -0.0834  0.0000  0.0000  0.0000  0.0000
                                            0.0000  0.0000  0.4366  0.0834  0.0000
                                            0.0000  0.0000  0.0000  0.7722  0.1336
                                           -0.0423 -0.0120  0.0000  0.0000  0.0000
                                            0.0000
    40. (0.00043) RY*(18) O   1           s( 14.33%)p 0.68(  9.72%)d 0.99( 14.21%)
                                                  f 4.31( 61.74%)
                                           -0.0000  0.0031  0.1150  0.3222  0.1619
                                            0.0033  0.0158 -0.1045 -0.0435 -0.0081
                                           -0.0635 -0.2490  0.1343  0.0000  0.0000
                                            0.0000  0.0000  0.0241  0.1451 -0.0492
                                            0.0000  0.0000  0.0000  0.0000  0.0000
[...]
   152. (0.00040) RY*( 7) H   4           s(  5.59%)p15.08( 84.27%)d 1.81( 10.14%)
                                           -0.0034  0.0041  0.2340 -0.0334 -0.0168
                                           -0.7748 -0.1294  0.0176  0.3885  0.2722
                                           -0.0000 -0.0000 -0.0000 -0.2264 -0.0965
                                           -0.0000 -0.0000 -0.0000 -0.0000 -0.0720
                                            0.1524  0.0247  0.1087
   153. (0.00029) RY*( 8) H   4           s(  0.00%)p 1.00( 82.13%)d 0.22( 17.87%)
                                            0.0000  0.0000  0.0000  0.0000  0.0000
                                            0.0000  0.0000  0.0000  0.0000  0.0000
                                           -0.0673  0.8535  0.2971  0.0000  0.0000
                                           -0.0608  0.0683 -0.3966  0.1142  0.0000
                                            0.0000  0.0000  0.0000
   154. (0.00024) RY*( 9) H   4           s( 22.74%)p 1.19( 26.98%)d 2.21( 50.28%)
                                            0.0038  0.0029  0.4671  0.0957 -0.0765
                                            0.1344  0.4589  0.0136 -0.1827  0.0422
                                           -0.0000 -0.0000 -0.0000 -0.6213 -0.0010
                                           -0.0000 -0.0000 -0.0000 -0.0000  0.3193
                                            0.0050 -0.1219 -0.0018
   155. (0.00021) RY*(10) H   4           s(  1.05%)p40.36( 42.18%)d54.32( 56.78%)
                                            0.0123 -0.0077  0.0372  0.0941  0.0024
                                           -0.3652  0.0417 -0.1241 -0.5208  0.0053
                                           -0.0000 -0.0000 -0.0000  0.1497 -0.0603
                                           -0.0000 -0.0000 -0.0000 -0.0000  0.2556
                                           -0.2333  0.6373 -0.1259
   156. (0.00019) RY*(11) H   4           s(  0.00%)p 1.00(  0.33%)d99.99( 99.67%)
                                            0.0000  0.0000  0.0000  0.0000  0.0000
                                            0.0000  0.0000  0.0000  0.0000  0.0000
                                           -0.0350  0.0240  0.0384  0.0000  0.0000
                                            0.9913  0.0845 -0.0657 -0.0508  0.0000
                                            0.0000  0.0000  0.0000
   157. (0.00018) RY*(12) H   4           s( 23.97%)p 0.84( 20.23%)d 2.33( 55.80%)
                                           -0.0101  0.0348  0.4877 -0.0231  0.0962
                                            0.3041  0.1372  0.0617  0.2764 -0.0384
                                            0.0000  0.0000  0.0000  0.1220 -0.0250
                                            0.0000  0.0000  0.0000  0.0000 -0.3990
                                           -0.0387  0.5494  0.2827
   158. (0.00017) RY*(13) H   4           s(  0.00%)p 1.00( 58.86%)d 0.70( 41.14%)
                                            0.0000  0.0000  0.0000  0.0000  0.0000
                                            0.0000  0.0000  0.0000  0.0000  0.0000
                                           -0.0329 -0.0034  0.7665  0.0000  0.0000
                                           -0.0107 -0.1896  0.4106 -0.4547  0.0000
                                            0.0000  0.0000  0.0000
   159. (0.00015) RY*(14) H   4           s( 17.35%)p 2.91( 50.53%)d 1.85( 32.12%)
                                            0.0003  0.0279  0.4130  0.0467  0.0015
                                            0.2069 -0.6661 -0.0208 -0.0338  0.1311
                                           -0.0000 -0.0000 -0.0000  0.0171  0.3487
                                           -0.0000 -0.0000 -0.0000 -0.0000  0.2700
                                            0.2524  0.0641 -0.2419
   160. (0.00013) RY*(15) H   4           s(  8.67%)p 3.19( 27.66%)d 7.35( 63.67%)
                                           -0.0158  0.0627  0.1875  0.2176  0.0586
                                            0.0057  0.1968  0.0666  0.4550 -0.1515
                                           -0.0000 -0.0000 -0.0000  0.4103 -0.3497
                                           -0.0000 -0.0000 -0.0000 -0.0000  0.4367
                                           -0.0574 -0.0673 -0.3842
   161. (0.00010) RY*(16) H   4           s( 45.94%)p 0.38( 17.26%)d 0.80( 36.80%)
   162. (0.00010) RY*(17) H   4           s(  0.00%)p 1.00(  0.18%)d99.99( 99.82%)
   163. (0.00008) RY*(18) H   4           s(  1.03%)p 1.96(  2.02%)d94.43( 96.96%)
   164. (0.00004) RY*(19) H   4           s(  0.00%)p 1.00( 21.61%)d 3.63( 78.39%)
   165. (0.00003) RY*(20) H   4           s(  2.09%)p14.47( 30.24%)d32.39( 67.67%)
   166. (0.00003) RY*(21) H   4           s(  1.33%)p23.02( 30.66%)d51.06( 68.01%)
   167. (0.00003) RY*(22) H   4           s( 66.18%)p 0.16( 10.54%)d 0.35( 23.28%)
   168. (0.05558) BD*( 1) O   1 -Cl   2  
                ( 40.67%)   0.6378* O   1 s( 10.95%)p 8.09( 88.55%)d 0.04(  0.49%)
                                                  f 0.00(  0.02%)
                                           -0.0003 -0.3275  0.0455  0.0122  0.0003
                                           -0.9402  0.0200  0.0123  0.0080 -0.0116
                                            0.0277  0.0042  0.0008 -0.0000 -0.0000
                                           -0.0000 -0.0000  0.0275  0.0005 -0.0031
                                           -0.0000 -0.0000 -0.0000 -0.0000 -0.0000
                                           -0.0000 -0.0503 -0.0069 -0.0022  0.0388
                                            0.0033 -0.0011 -0.0000 -0.0000  0.0113
                                           -0.0008  0.0006 -0.0001 -0.0000 -0.0000
                                           -0.0000 -0.0000 -0.0048  0.0009  0.0007
                                           -0.0033
                ( 59.33%)  -0.7702*Cl   2 s(  8.06%)p11.24( 90.56%)d 0.16(  1.27%)
                                                  f 0.01(  0.11%)
                                            0.0000 -0.0005 -0.2784  0.0546  0.0105
                                           -0.0016  0.0003  0.9491 -0.0669 -0.0148
                                            0.0043  0.0000  0.0060  0.0008 -0.0025
                                            0.0006 -0.0000 -0.0000 -0.0000 -0.0000
                                           -0.0000 -0.0125  0.0000 -0.0010 -0.0000
                                           -0.0000 -0.0000 -0.0000 -0.0000 -0.0000
                                           -0.0947  0.0097 -0.0003  0.0588 -0.0054
                                           -0.0005 -0.0000 -0.0000 -0.0204  0.0030
                                           -0.0002  0.0000 -0.0000 -0.0000 -0.0000
                                           -0.0000  0.0248 -0.0030  0.0004  0.0003
   169. (0.03050) BD*( 1) O   1 - H   4  
                ( 27.17%)   0.5212* O   1 s( 39.72%)p 1.51( 59.82%)d 0.01(  0.44%)
                                                  f 0.00(  0.01%)
                                            0.0003  0.6300 -0.0166 -0.0038  0.0011
                                           -0.2080  0.0218  0.0007  0.0011 -0.7438
                                            0.0350  0.0050  0.0030 -0.0000 -0.0000
                                           -0.0000 -0.0000  0.0054 -0.0049  0.0012
                                           -0.0000 -0.0000 -0.0000 -0.0000 -0.0000
                                           -0.0000 -0.0553 -0.0007 -0.0055 -0.0358
                                            0.0024  0.0006 -0.0000 -0.0000  0.0012
                                            0.0012  0.0070  0.0030 -0.0000 -0.0000
                                           -0.0000 -0.0000  0.0014  0.0043 -0.0008
                                            0.0051
                ( 72.83%)  -0.8534* H   4 s( 99.89%)p 0.00(  0.11%)d 0.00(  0.01%)
                                            0.9993 -0.0173  0.0009 -0.0002  0.0124
                                            0.0059  0.0010 -0.0050  0.0282 -0.0065
                                           -0.0000 -0.0000 -0.0000 -0.0014  0.0001
                                           -0.0000 -0.0000 -0.0000 -0.0000  0.0017
                                           -0.0039  0.0030 -0.0056


 NHO Directionality and "Bond Bending" (deviations from line of nuclear centers)

         [Thresholds for printing:  angular deviation  >  1.0 degree]
                                    hybrid p-character > 25.0%
                                    orbital occupancy  >  0.10e

                                Line of Centers        Hybrid 1              Hybrid 2
                                ---------------  -------------------   ------------------
                NBO               Theta   Phi    Theta   Phi    Dev    Theta   Phi    Dev
 ========================================================================================
     1. BD (   1) O   1 -Cl   2    90.0    0.0    90.0  358.7   1.3      --     --    --
     2. BD (   1) O   1 - H   4    90.0  256.5    90.0  255.3   1.2      --     --    --
    14. LP (   1) O   1             --     --     90.0  111.2   --       --     --    --
    15. LP (   2) O   1             --     --      0.0    0.0   --       --     --    --
    17. LP (   2)Cl   2             --     --      0.0    0.0   --       --     --    --
    18. LP (   3)Cl   2             --     --     90.0   90.5   --       --     --    --
    20. LP (   2)Cl   3             --     --      0.0    0.0   --       --     --    --
    21. LP (   3)Cl   3             --     --     90.0  347.2   --       --     --    --
    22. LP (   4)Cl   3             --     --     90.0   77.2   --       --     --    --


 Natural Bond Orbitals (Summary):

           NBO                  Occupancy  
 -----------------------------------------------
 Molecular unit  1  (HOCl)
     1. BD (   1) O   1 -Cl   2          1.94263
     2. BD (   1) O   1 - H   4          1.97643
     3. CR (   1) O   1                  1.99934
     4. CR (   1)Cl   2                  2.00000
     5. CR (   2)Cl   2                  1.99986
     6. CR (   3)Cl   2                  1.99997
     7. CR (   4)Cl   2                  2.00003
     8. CR (   5)Cl   2                  2.00003
    14. LP (   1) O   1                  1.96635
    15. LP (   2) O   1                  1.95441
    16. LP (   1)Cl   2                  1.97517
    17. LP (   2)Cl   2                  1.95646
    18. LP (   3)Cl   2                  1.95506
    23. RY*(   1) O   1                  0.01724
    24. RY*(   2) O   1                  0.01452
    25. RY*(   3) O   1                  0.00707
    26. RY*(   4) O   1                  0.00677
    27. RY*(   5) O   1                  0.00592
    28. RY*(   6) O   1                  0.00561
    29. RY*(   7) O   1                  0.00540
    30. RY*(   8) O   1                  0.00246
    31. RY*(   9) O   1                  0.00182
    32. RY*(  10) O   1                  0.00079
    33. RY*(  11) O   1                  0.00067
    34. RY*(  12) O   1                  0.00055
    35. RY*(  13) O   1                  0.00052
    36. RY*(  14) O   1                  0.00048
    37. RY*(  15) O   1                  0.00048
    38. RY*(  16) O   1                  0.00044
    39. RY*(  17) O   1                  0.00042
    40. RY*(  18) O   1                  0.00043
    41. RY*(  19) O   1                  0.00043
    42. RY*(  20) O   1                  0.00042
    43. RY*(  21) O   1                  0.00038
    44. RY*(  22) O   1                  0.00039
    45. RY*(  23) O   1                  0.00030
    46. RY*(  24) O   1                  0.00025
    47. RY*(  25) O   1                  0.00021
    48. RY*(  26) O   1                  0.00017
    49. RY*(  27) O   1                  0.00013
    50. RY*(  28) O   1                  0.00012
    51. RY*(  29) O   1                  0.00012
    52. RY*(  30) O   1                  0.00009
    53. RY*(  31) O   1                  0.00008
    54. RY*(  32) O   1                  0.00007
    55. RY*(  33) O   1                  0.00008
    56. RY*(  34) O   1                  0.00008
    57. RY*(  35) O   1                  0.00007
    58. RY*(  36) O   1                  0.00008
    59. RY*(  37) O   1                  0.00006
    60. RY*(  38) O   1                  0.00002
    61. RY*(  39) O   1                  0.00003
    62. RY*(  40) O   1                  0.00003
    63. RY*(  41) O   1                  0.00003
    64. RY*(   1)Cl   2                  0.02265
    65. RY*(   2)Cl   2                  0.01706
    66. RY*(   3)Cl   2                  0.01662
    67. RY*(   4)Cl   2                  0.01610
    68. RY*(   5)Cl   2                  0.01124
    69. RY*(   6)Cl   2                  0.00902
    70. RY*(   7)Cl   2                  0.00877
    71. RY*(   8)Cl   2                  0.00608
    72. RY*(   9)Cl   2                  0.00166
    73. RY*(  10)Cl   2                  0.00126
    74. RY*(  11)Cl   2                  0.00126
    75. RY*(  12)Cl   2                  0.00119
    76. RY*(  13)Cl   2                  0.00118
    77. RY*(  14)Cl   2                  0.00116
    78. RY*(  15)Cl   2                  0.00109
    79. RY*(  16)Cl   2                  0.00091
    80. RY*(  17)Cl   2                  0.00074
    81. RY*(  18)Cl   2                  0.00075
    82. RY*(  19)Cl   2                  0.00063
    83. RY*(  20)Cl   2                  0.00052
    84. RY*(  21)Cl   2                  0.00040
    85. RY*(  22)Cl   2                  0.00036
    86. RY*(  23)Cl   2                  0.00034
    87. RY*(  24)Cl   2                  0.00026
    88. RY*(  25)Cl   2                  0.00017
    89. RY*(  26)Cl   2                  0.00015
    90. RY*(  27)Cl   2                  0.00012
    91. RY*(  28)Cl   2                  0.00012
    92. RY*(  29)Cl   2                  0.00012
    93. RY*(  30)Cl   2                  0.00012
    94. RY*(  31)Cl   2                  0.00010
    95. RY*(  32)Cl   2                  0.00010
    96. RY*(  33)Cl   2                  0.00009
    97. RY*(  34)Cl   2                  0.00009
    98. RY*(  35)Cl   2                  0.00009
    99. RY*(  36)Cl   2                  0.00007
   100. RY*(  37)Cl   2                  0.00005
   101. RY*(  38)Cl   2                  0.00005
   102. RY*(  39)Cl   2                  0.00003
   103. RY*(  40)Cl   2                  0.00003
   104. RY*(  41)Cl   2                  0.00000
   146. RY*(   1) H   4                  0.01110
   147. RY*(   2) H   4                  0.00559
   148. RY*(   3) H   4                  0.00527
   149. RY*(   4) H   4                  0.00325
   150. RY*(   5) H   4                  0.00063
   151. RY*(   6) H   4                  0.00042
   152. RY*(   7) H   4                  0.00040
   153. RY*(   8) H   4                  0.00029
   154. RY*(   9) H   4                  0.00024
   155. RY*(  10) H   4                  0.00021
   156. RY*(  11) H   4                  0.00019
   157. RY*(  12) H   4                  0.00018
   158. RY*(  13) H   4                  0.00017
   159. RY*(  14) H   4                  0.00015
   160. RY*(  15) H   4                  0.00013
   161. RY*(  16) H   4                  0.00010
   162. RY*(  17) H   4                  0.00010
   163. RY*(  18) H   4                  0.00008
   164. RY*(  19) H   4                  0.00004
   165. RY*(  20) H   4                  0.00003
   166. RY*(  21) H   4                  0.00003
   167. RY*(  22) H   4                  0.00003
   168. BD*(   1) O   1 -Cl   2          0.05558
   169. BD*(   1) O   1 - H   4          0.03050
       -------------------------------
              Total Lewis   25.72573  ( 98.7992%)
        Valence non-Lewis    0.08608  (  0.3306%)
        Rydberg non-Lewis    0.22659  (  0.8702%)
       -------------------------------
            Total unit  1   26.03840  (100.0000%)
           Charge unit  1   -0.03840

 Molecular unit  2  (Cl)
     9. CR (   1)Cl   3                  2.00001
    10. CR (   2)Cl   3                  2.00000
    11. CR (   3)Cl   3                  2.00003
    12. CR (   4)Cl   3                  2.00002
    13. CR (   5)Cl   3                  2.00003
    19. LP (   1)Cl   3                  1.97976
    20. LP (   2)Cl   3                  1.95254
    21. LP (   3)Cl   3                  1.95221
    22. LP (   4)Cl   3                  1.92815
   105. RY*(   1)Cl   3                  0.01852
   106. RY*(   2)Cl   3                  0.01850
   107. RY*(   3)Cl   3                  0.01834
   108. RY*(   4)Cl   3                  0.01834
   109. RY*(   5)Cl   3                  0.01797
   110. RY*(   6)Cl   3                  0.01321
   111. RY*(   7)Cl   3                  0.01311
   112. RY*(   8)Cl   3                  0.01154
   113. RY*(   9)Cl   3                  0.00247
   114. RY*(  10)Cl   3                  0.00130
   115. RY*(  11)Cl   3                  0.00131
   116. RY*(  12)Cl   3                  0.00129
   117. RY*(  13)Cl   3                  0.00129
   118. RY*(  14)Cl   3                  0.00129
   119. RY*(  15)Cl   3                  0.00128
   120. RY*(  16)Cl   3                  0.00125
   121. RY*(  17)Cl   3                  0.00100
   122. RY*(  18)Cl   3                  0.00101
   123. RY*(  19)Cl   3                  0.00080
   124. RY*(  20)Cl   3                  0.00078
   125. RY*(  21)Cl   3                  0.00074
   126. RY*(  22)Cl   3                  0.00055
   127. RY*(  23)Cl   3                  0.00054
   128. RY*(  24)Cl   3                  0.00052
   129. RY*(  25)Cl   3                  0.00020
   130. RY*(  26)Cl   3                  0.00017
   131. RY*(  27)Cl   3                  0.00015
   132. RY*(  28)Cl   3                  0.00014
   133. RY*(  29)Cl   3                  0.00014
   134. RY*(  30)Cl   3                  0.00015
   135. RY*(  31)Cl   3                  0.00015
   136. RY*(  32)Cl   3                  0.00014
   137. RY*(  33)Cl   3                  0.00012
   138. RY*(  34)Cl   3                  0.00011
   139. RY*(  35)Cl   3                  0.00011
   140. RY*(  36)Cl   3                  0.00010
   141. RY*(  37)Cl   3                  0.00009
   142. RY*(  38)Cl   3                  0.00007
   143. RY*(  39)Cl   3                  0.00003
   144. RY*(  40)Cl   3                  0.00002
   145. RY*(  41)Cl   3                  0.00000
       -------------------------------
              Total Lewis   17.81275  ( 99.1713%)
        Valence non-Lewis    0.00000  (  0.0000%)
        Rydberg non-Lewis    0.14885  (  0.8287%)
       -------------------------------
            Total unit  2   17.96160  (100.0000%)
           Charge unit  2   -0.96160
 Leave Link  607 at Fri Oct  8 12:22:51 2021, MaxMem= 16106127360 cpu:              69.5 elap:               2.5
 (Enter /sw/contrib/gaussian/g16/B01/g16/l9999.exe)
 1\1\GINC-N2218\SP\RMP2-FC\Aug-CC-pVTZ\Cl2H1O1(1-)\CGAVINH\08-Oct-2021\
 0\\#p pop=NBO SP NoSymm mp2/aug-cc-pvtz density=current\\title\\-1,1\O
 \X,1,10.\Cl,1,1.68274941,2,90.\Cl,1,2.90467605,2,90.,3,103.53015695,0\
 H,1,0.75,2,90.,3,103.53015695,0\\Version=ES64L-G16RevB.01\HF=-994.4496
 75\MP2=-995.102925\RMSD=3.438e-09\Dipole=1.6290048,2.1311135,0.\Quadru
 pole=7.5263606,-16.2815301,8.7551695,-6.3218909,0.,0.\PG=CS [SG(Cl2H1O
 1)]\\@


 LAW OF COMPENSATION:
      NO CALCULATION IS EVER A COMPLETE FAILURE; IT 
      CAN ALWAYS SERVE AS A BAD EXAMPLE.

                                           -- ANON
 Job cpu time:       0 days  0 hours  4 minutes 32.0 seconds.
 Elapsed time:       0 days  0 hours  0 minutes 15.1 seconds.
 File lengths (MBytes):  RWF=     14 Int=      0 D2E=      0 Chk=      8 Scr=      1
 Normal termination of Gaussian 16 at Fri Oct  8 12:22:52 2021.
