 Entering Gaussian System, Link 0=g16
 Input=clhocl_rOH_125_sp.gjf
 Output=clhocl_rOH_125_sp.log
 Initial command:
 /sw/contrib/gaussian/g16/B01/g16/l1.exe "/scr/Gau-29592.inp" -scrdir="/scr/"
 Entering Link 1 = /sw/contrib/gaussian/g16/B01/g16/l1.exe PID=     29593.
  
 Copyright (c) 1988-2017, Gaussian, Inc.  All Rights Reserved.
  
 This is part of the Gaussian(R) 16 program.  It is based on
 the Gaussian(R) 09 system (copyright 2009, Gaussian, Inc.),
 the Gaussian(R) 03 system (copyright 2003, Gaussian, Inc.),
 the Gaussian(R) 98 system (copyright 1998, Gaussian, Inc.),
 the Gaussian(R) 94 system (copyright 1995, Gaussian, Inc.),
 the Gaussian 92(TM) system (copyright 1992, Gaussian, Inc.),
 the Gaussian 90(TM) system (copyright 1990, Gaussian, Inc.),
 the Gaussian 88(TM) system (copyright 1988, Gaussian, Inc.),
 the Gaussian 86(TM) system (copyright 1986, Carnegie Mellon
 University), and the Gaussian 82(TM) system (copyright 1983,
 Carnegie Mellon University). Gaussian is a federally registered
 trademark of Gaussian, Inc.
  
 This software contains proprietary and confidential information,
 including trade secrets, belonging to Gaussian, Inc.
  
 This software is provided under written license and may be
 used, copied, transmitted, or stored only in accord with that
 written license.
  
 The following legend is applicable only to US Government
 contracts under FAR:
  
                    RESTRICTED RIGHTS LEGEND
  
 Use, reproduction and disclosure by the US Government is
 subject to restrictions as set forth in subparagraphs (a)
 and (c) of the Commercial Computer Software - Restricted
 Rights clause in FAR 52.227-19.
  
 Gaussian, Inc.
 340 Quinnipiac St., Bldg. 40, Wallingford CT 06492
  
  
 ---------------------------------------------------------------
 Warning -- This program may not be used in any manner that
 competes with the business of Gaussian, Inc. or will provide
 assistance to any competitor of Gaussian, Inc.  The licensee
 of this program is prohibited from giving any competitor of
 Gaussian, Inc. access to this program.  By using this program,
 the user acknowledges that Gaussian, Inc. is engaged in the
 business of creating and licensing software in the field of
 computational chemistry and represents and warrants to the
 licensee that it is not a competitor of Gaussian, Inc. and that
 it will not use this program in any manner prohibited above.
 ---------------------------------------------------------------
  

 Cite this work as:
 Gaussian 16, Revision B.01,
 M. J. Frisch, G. W. Trucks, H. B. Schlegel, G. E. Scuseria, 
 M. A. Robb, J. R. Cheeseman, G. Scalmani, V. Barone, 
 G. A. Petersson, H. Nakatsuji, X. Li, M. Caricato, A. V. Marenich, 
 J. Bloino, B. G. Janesko, R. Gomperts, B. Mennucci, H. P. Hratchian, 
 J. V. Ortiz, A. F. Izmaylov, J. L. Sonnenberg, D. Williams-Young, 
 F. Ding, F. Lipparini, F. Egidi, J. Goings, B. Peng, A. Petrone, 
 T. Henderson, D. Ranasinghe, V. G. Zakrzewski, J. Gao, N. Rega, 
 G. Zheng, W. Liang, M. Hada, M. Ehara, K. Toyota, R. Fukuda, 
 J. Hasegawa, M. Ishida, T. Nakajima, Y. Honda, O. Kitao, H. Nakai, 
 T. Vreven, K. Throssell, J. A. Montgomery, Jr., J. E. Peralta, 
 F. Ogliaro, M. J. Bearpark, J. J. Heyd, E. N. Brothers, K. N. Kudin, 
 V. N. Staroverov, T. A. Keith, R. Kobayashi, J. Normand, 
 K. Raghavachari, A. P. Rendell, J. C. Burant, S. S. Iyengar, 
 J. Tomasi, M. Cossi, J. M. Millam, M. Klene, C. Adamo, R. Cammi, 
 J. W. Ochterski, R. L. Martin, K. Morokuma, O. Farkas, 
 J. B. Foresman, and D. J. Fox, Gaussian, Inc., Wallingford CT, 2016.
 
 ******************************************
 Gaussian 16:  ES64L-G16RevB.01 20-Dec-2017
                 8-Oct-2021 
 ******************************************
 %nproc=28
 Will use up to   28 processors via shared memory.
 %mem=120GB
 %chk=/gscratch/ilahie/mccoygrp/coire_hocl/rOH_s_oop_0/clhocl/clhocl_125_sp.chk
 ----------------------------------------------------
 #p pop=NBO SP NoSymm mp2/aug-cc-pvtz density=current
 ----------------------------------------------------
 1/30=1,38=1,172=1/1;
 2/12=2,15=1,17=6,18=5,40=1/2;
 3/5=16,6=1,7=10,11=9,25=1,30=1,71=1/1,2,3;
 4//1;
 5/5=2,38=5/2;
 8/6=4,10=1/1;
 9/15=1,16=-3/6;
 10/5=1,13=10,31=1/2;
 6/7=2,8=2,9=2,10=2,22=-1,40=1/1,7;
 99/5=1,9=1/99;
 Leave Link    1 at Fri Oct  8 12:25:09 2021, MaxMem= 16106127360 cpu:               0.7 elap:               0.0
 (Enter /sw/contrib/gaussian/g16/B01/g16/l101.exe)
 -----
 title
 -----
 Symbolic Z-matrix:
 Charge = -1 Multiplicity = 1
 O
 X                    1     10. 
 Cl                   1    r1       2     90. 
 Cl                   1    r2       2     90.      3    a1       0
 H                    1    r3       2    oop      3    a1       0
       Variables:
  r1                    1.68275                  
  r2                    2.90468                  
  r3                    1.25                     
  a1                  103.53016                  
  OOP                  90.                       
 
 ITRead=  0  0  0  0
 MicOpt= -1 -1 -1 -1
 NAtoms=      4 NQM=        4 NQMF=       0 NMMI=      0 NMMIF=      0
                NMic=       0 NMicF=      0.
                    Isotopes and Nuclear Properties:
 (Nuclear quadrupole moments (NQMom) in fm**2, nuclear magnetic moments (NMagM)
  in nuclear magnetons)

  Atom         1           2           3           4
 IAtWgt=          16          35          35           1
 AtmWgt=  15.9949146  34.9688527  34.9688527   1.0078250
 NucSpn=           0           3           3           1
 AtZEff=  -0.0000000  -0.0000000  -0.0000000  -0.0000000
 NQMom=    0.0000000  -8.1650000  -8.1650000   0.0000000
 NMagM=    0.0000000   0.8218740   0.8218740   2.7928460
 AtZNuc=   8.0000000  17.0000000  17.0000000   1.0000000
 Leave Link  101 at Fri Oct  8 12:25:09 2021, MaxMem= 16106127360 cpu:               2.2 elap:               0.1
 (Enter /sw/contrib/gaussian/g16/B01/g16/l202.exe)
                          Input orientation:                          
 ---------------------------------------------------------------------
 Center     Atomic      Atomic             Coordinates (Angstroms)
 Number     Number       Type             X           Y           Z
 ---------------------------------------------------------------------
      1          8           0        0.000000    0.000000    0.000000
      2         17           0        1.682749    0.000000    0.000000
      3         17           0       -0.679570   -2.824062    0.000000
      4          1           0       -0.292446   -1.215309    0.000000
 ---------------------------------------------------------------------
                    Distance matrix (angstroms):
                    1          2          3          4
     1  O    0.000000
     2  Cl   1.682749   0.000000
     3  Cl   2.904676   3.681831   0.000000
     4  H    1.250000   2.319132   1.654676   0.000000
 Symmetry turned off by external request.
 Stoichiometry    Cl2HO(1-)
 Framework group  CS[SG(Cl2HO)]
 Deg. of freedom     5
 Full point group                 CS      NOp   2
 Rotational constants (GHZ):          23.8081641           2.0584581           1.8946467
 Leave Link  202 at Fri Oct  8 12:25:09 2021, MaxMem= 16106127360 cpu:               2.0 elap:               0.1
 (Enter /sw/contrib/gaussian/g16/B01/g16/l301.exe)
 Standard basis: Aug-CC-pVTZ (5D, 7F)
 Ernie: Thresh=  0.10000D-02 Tol=  0.10000D-05 Strict=F.
 Ernie:  29 primitive shells out of 169 were deleted.
   169 basis functions,   327 primitive gaussians,   198 cartesian basis functions
    22 alpha electrons       22 beta electrons
       nuclear repulsion energy       121.7842969283 Hartrees.
 IExCor=    0 DFT=F Ex=HF Corr=None ExCW=0 ScaHFX=  1.000000
 ScaDFX=  1.000000  1.000000  1.000000  1.000000 ScalE2=  1.000000  1.000000
 IRadAn=      5 IRanWt=     -1 IRanGd=            0 ICorTp=0 IEmpDi=  4
 NAtoms=    4 NActive=    4 NUniq=    4 SFac= 1.00D+00 NAtFMM=   60 NAOKFM=F Big=F
 Integral buffers will be    131072 words long.
 Raffenetti 1 integral format.
 Two-electron integral symmetry is turned off.
 Leave Link  301 at Fri Oct  8 12:25:10 2021, MaxMem= 16106127360 cpu:               1.1 elap:               0.1
 (Enter /sw/contrib/gaussian/g16/B01/g16/l302.exe)
 NPDir=0 NMtPBC=     1 NCelOv=     1 NCel=       1 NClECP=     1 NCelD=      1
         NCelK=      1 NCelE2=     1 NClLst=     1 CellRange=     0.0.
 One-electron integrals computed using PRISM.
 NBasis=   169 RedAO= T EigKep=  3.51D-04  NBF=   169
 NBsUse=   169 1.00D-06 EigRej= -1.00D+00 NBFU=   169
 Leave Link  302 at Fri Oct  8 12:25:10 2021, MaxMem= 16106127360 cpu:               4.2 elap:               0.2
 (Enter /sw/contrib/gaussian/g16/B01/g16/l303.exe)
 DipDrv:  MaxL=1.
 Leave Link  303 at Fri Oct  8 12:25:10 2021, MaxMem= 16106127360 cpu:               0.7 elap:               0.1
 (Enter /sw/contrib/gaussian/g16/B01/g16/l401.exe)
 ExpMin= 2.53D-02 ExpMax= 4.56D+05 ExpMxC= 1.44D+03 IAcc=3 IRadAn=         5 AccDes= 0.00D+00
 Harris functional with IExCor=  205 and IRadAn=       5 diagonalized for initial guess.
 HarFok:  IExCor=  205 AccDes= 0.00D+00 IRadAn=         5 IDoV= 1 UseB2=F ITyADJ=14
 ICtDFT=  3500011 ScaDFX=  1.000000  1.000000  1.000000  1.000000
 FoFCou: FMM=F IPFlag=           0 FMFlag=      100000 FMFlg1=           0
         NFxFlg=           0 DoJE=T BraDBF=F KetDBF=T FulRan=T
         wScrn=  0.000000 ICntrl=       500 IOpCl=  0 I1Cent=   200000004 NGrid=           0
         NMat0=    1 NMatS0=      1 NMatT0=    0 NMatD0=    1 NMtDS0=    0 NMtDT0=    0
 Symmetry not used in FoFCou.
 Harris En= -993.808301439023    
 JPrj=0 DoOrth=F DoCkMO=F.
 Leave Link  401 at Fri Oct  8 12:25:10 2021, MaxMem= 16106127360 cpu:               8.2 elap:               0.3
 (Enter /sw/contrib/gaussian/g16/B01/g16/l502.exe)
 Keep R1 ints in memory in canonical form, NReq=117119429.
 FoFCou: FMM=F IPFlag=           0 FMFlag=           0 FMFlg1=           0
         NFxFlg=           0 DoJE=F BraDBF=F KetDBF=F FulRan=T
         wScrn=  0.000000 ICntrl=       600 IOpCl=  0 I1Cent=           0 NGrid=           0
         NMat0=    1 NMatS0=  14365 NMatT0=    0 NMatD0=    1 NMtDS0=    0 NMtDT0=    0
 Symmetry not used in FoFCou.
 Two-electron integral symmetry not used.
 Closed shell SCF:
 Using DIIS extrapolation, IDIIS=  1040.
 NGot= 16106127360 LenX= 16002858357 LenY= 16002818712
 Requested convergence on RMS density matrix=1.00D-08 within 128 cycles.
 Requested convergence on MAX density matrix=1.00D-06.
 Requested convergence on             energy=1.00D-06.
 No special actions if energy rises.

 Cycle   1  Pass 1  IDiag  1:
 E= -994.377811721479    
 DIIS: error= 2.96D-02 at cycle   1 NSaved=   1.
 NSaved= 1 IEnMin= 1 EnMin= -994.377811721479     IErMin= 1 ErrMin= 2.96D-02
 ErrMax= 2.96D-02  0.00D+00 EMaxC= 1.00D-01 BMatC= 4.25D-01 BMatP= 4.25D-01
 IDIUse=3 WtCom= 7.04D-01 WtEn= 2.96D-01
 Coeff-Com:  0.100D+01
 Coeff-En:   0.100D+01
 Coeff:      0.100D+01
 Gap=     0.545 Goal=   None    Shift=    0.000
 GapD=    0.545 DampG=2.000 DampE=0.500 DampFc=1.0000 IDamp=-1.
 RMSDP=2.15D-03 MaxDP=6.97D-02              OVMax= 1.35D-01

 Cycle   2  Pass 1  IDiag  1:
 E= -994.458596382098     Delta-E=       -0.080784660619 Rises=F Damp=F
 DIIS: error= 2.81D-02 at cycle   2 NSaved=   2.
 NSaved= 2 IEnMin= 2 EnMin= -994.458596382098     IErMin= 2 ErrMin= 2.81D-02
 ErrMax= 2.81D-02  0.00D+00 EMaxC= 1.00D-01 BMatC= 6.15D-02 BMatP= 4.25D-01
 IDIUse=3 WtCom= 7.19D-01 WtEn= 2.81D-01
 Coeff-Com:  0.193D+00 0.807D+00
 Coeff-En:   0.256D-01 0.974D+00
 Coeff:      0.146D+00 0.854D+00
 Gap=     0.433 Goal=   None    Shift=    0.000
 RMSDP=1.05D-03 MaxDP=3.93D-02 DE=-8.08D-02 OVMax= 9.33D-02

 Cycle   3  Pass 1  IDiag  1:
 E= -994.486937140505     Delta-E=       -0.028340758407 Rises=F Damp=F
 DIIS: error= 1.37D-02 at cycle   3 NSaved=   3.
 NSaved= 3 IEnMin= 3 EnMin= -994.486937140505     IErMin= 3 ErrMin= 1.37D-02
 ErrMax= 1.37D-02  0.00D+00 EMaxC= 1.00D-01 BMatC= 2.24D-02 BMatP= 6.15D-02
 IDIUse=3 WtCom= 8.63D-01 WtEn= 1.37D-01
 Coeff-Com: -0.180D-01 0.369D+00 0.649D+00
 Coeff-En:   0.000D+00 0.214D+00 0.786D+00
 Coeff:     -0.155D-01 0.347D+00 0.668D+00
 Gap=     0.392 Goal=   None    Shift=    0.000
 RMSDP=4.41D-04 MaxDP=1.73D-02 DE=-2.83D-02 OVMax= 4.38D-02

 Cycle   4  Pass 1  IDiag  1:
 E= -994.502487404763     Delta-E=       -0.015550264258 Rises=F Damp=F
 DIIS: error= 1.64D-03 at cycle   4 NSaved=   4.
 NSaved= 4 IEnMin= 4 EnMin= -994.502487404763     IErMin= 4 ErrMin= 1.64D-03
 ErrMax= 1.64D-03  0.00D+00 EMaxC= 1.00D-01 BMatC= 1.88D-04 BMatP= 2.24D-02
 IDIUse=3 WtCom= 9.84D-01 WtEn= 1.64D-02
 Coeff-Com: -0.284D-02-0.122D-01 0.452D-01 0.970D+00
 Coeff-En:   0.000D+00 0.000D+00 0.000D+00 0.100D+01
 Coeff:     -0.279D-02-0.120D-01 0.445D-01 0.970D+00
 Gap=     0.380 Goal=   None    Shift=    0.000
 RMSDP=6.38D-05 MaxDP=1.64D-03 DE=-1.56D-02 OVMax= 3.81D-03

 Cycle   5  Pass 1  IDiag  1:
 E= -994.502720836782     Delta-E=       -0.000233432018 Rises=F Damp=F
 DIIS: error= 3.10D-04 at cycle   5 NSaved=   5.
 NSaved= 5 IEnMin= 5 EnMin= -994.502720836782     IErMin= 5 ErrMin= 3.10D-04
 ErrMax= 3.10D-04  0.00D+00 EMaxC= 1.00D-01 BMatC= 1.93D-05 BMatP= 1.88D-04
 IDIUse=3 WtCom= 9.97D-01 WtEn= 3.10D-03
 Coeff-Com:  0.119D-02-0.412D-01-0.633D-01 0.709D-01 0.103D+01
 Coeff-En:   0.000D+00 0.000D+00 0.000D+00 0.000D+00 0.100D+01
 Coeff:      0.119D-02-0.411D-01-0.632D-01 0.707D-01 0.103D+01
 Gap=     0.382 Goal=   None    Shift=    0.000
 RMSDP=3.39D-05 MaxDP=1.27D-03 DE=-2.33D-04 OVMax= 3.31D-03

 Cycle   6  Pass 1  IDiag  1:
 E= -994.502768385496     Delta-E=       -0.000047548714 Rises=F Damp=F
 DIIS: error= 1.70D-04 at cycle   6 NSaved=   6.
 NSaved= 6 IEnMin= 6 EnMin= -994.502768385496     IErMin= 6 ErrMin= 1.70D-04
 ErrMax= 1.70D-04  0.00D+00 EMaxC= 1.00D-01 BMatC= 2.81D-06 BMatP= 1.93D-05
 IDIUse=3 WtCom= 9.98D-01 WtEn= 1.70D-03
 Coeff-Com:  0.160D-03 0.111D-01 0.163D-01-0.118D+00-0.397D+00 0.149D+01
 Coeff-En:   0.000D+00 0.000D+00 0.000D+00 0.000D+00 0.000D+00 0.100D+01
 Coeff:      0.159D-03 0.111D-01 0.162D-01-0.117D+00-0.396D+00 0.149D+01
 Gap=     0.382 Goal=   None    Shift=    0.000
 RMSDP=1.99D-05 MaxDP=7.73D-04 DE=-4.75D-05 OVMax= 2.09D-03

 Cycle   7  Pass 1  IDiag  1:
 E= -994.502779024095     Delta-E=       -0.000010638600 Rises=F Damp=F
 DIIS: error= 4.26D-05 at cycle   7 NSaved=   7.
 NSaved= 7 IEnMin= 7 EnMin= -994.502779024095     IErMin= 7 ErrMin= 4.26D-05
 ErrMax= 4.26D-05  0.00D+00 EMaxC= 1.00D-01 BMatC= 1.68D-07 BMatP= 2.81D-06
 IDIUse=1 WtCom= 1.00D+00 WtEn= 0.00D+00
 Coeff-Com: -0.880D-04-0.108D-02-0.989D-03 0.362D-01 0.522D-01-0.504D+00
 Coeff-Com:  0.142D+01
 Coeff:     -0.880D-04-0.108D-02-0.989D-03 0.362D-01 0.522D-01-0.504D+00
 Coeff:      0.142D+01
 Gap=     0.382 Goal=   None    Shift=    0.000
 RMSDP=5.52D-06 MaxDP=1.98D-04 DE=-1.06D-05 OVMax= 6.15D-04

 Cycle   8  Pass 1  IDiag  1:
 E= -994.502779751908     Delta-E=       -0.000000727813 Rises=F Damp=F
 DIIS: error= 8.25D-06 at cycle   8 NSaved=   8.
 NSaved= 8 IEnMin= 8 EnMin= -994.502779751908     IErMin= 8 ErrMin= 8.25D-06
 ErrMax= 8.25D-06  0.00D+00 EMaxC= 1.00D-01 BMatC= 1.29D-08 BMatP= 1.68D-07
 IDIUse=1 WtCom= 1.00D+00 WtEn= 0.00D+00
 Coeff-Com: -0.430D-04-0.629D-03-0.523D-03 0.888D-02 0.225D-01-0.111D+00
 Coeff-Com:  0.565D-01 0.102D+01
 Coeff:     -0.430D-04-0.629D-03-0.523D-03 0.888D-02 0.225D-01-0.111D+00
 Coeff:      0.565D-01 0.102D+01
 Gap=     0.382 Goal=   None    Shift=    0.000
 RMSDP=1.10D-06 MaxDP=2.28D-05 DE=-7.28D-07 OVMax= 9.22D-05

 Cycle   9  Pass 1  IDiag  1:
 E= -994.502779790849     Delta-E=       -0.000000038941 Rises=F Damp=F
 DIIS: error= 3.72D-06 at cycle   9 NSaved=   9.
 NSaved= 9 IEnMin= 9 EnMin= -994.502779790849     IErMin= 9 ErrMin= 3.72D-06
 ErrMax= 3.72D-06  0.00D+00 EMaxC= 1.00D-01 BMatC= 1.97D-09 BMatP= 1.29D-08
 IDIUse=1 WtCom= 1.00D+00 WtEn= 0.00D+00
 Coeff-Com:  0.248D-04 0.934D-04 0.494D-04-0.521D-02-0.739D-02 0.690D-01
 Coeff-Com: -0.168D+00-0.183D+00 0.129D+01
 Coeff:      0.248D-04 0.934D-04 0.494D-04-0.521D-02-0.739D-02 0.690D-01
 Coeff:     -0.168D+00-0.183D+00 0.129D+01
 Gap=     0.382 Goal=   None    Shift=    0.000
 RMSDP=6.31D-07 MaxDP=1.32D-05 DE=-3.89D-08 OVMax= 5.84D-05

 Cycle  10  Pass 1  IDiag  1:
 E= -994.502779799578     Delta-E=       -0.000000008728 Rises=F Damp=F
 DIIS: error= 2.05D-06 at cycle  10 NSaved=  10.
 NSaved=10 IEnMin=10 EnMin= -994.502779799578     IErMin=10 ErrMin= 2.05D-06
 ErrMax= 2.05D-06  0.00D+00 EMaxC= 1.00D-01 BMatC= 3.52D-10 BMatP= 1.97D-09
 IDIUse=1 WtCom= 1.00D+00 WtEn= 0.00D+00
 Coeff-Com: -0.186D-05 0.856D-04 0.684D-04 0.317D-03-0.139D-02-0.479D-02
 Coeff-Com:  0.513D-01-0.113D+00-0.392D+00 0.146D+01
 Coeff:     -0.186D-05 0.856D-04 0.684D-04 0.317D-03-0.139D-02-0.479D-02
 Coeff:      0.513D-01-0.113D+00-0.392D+00 0.146D+01
 Gap=     0.382 Goal=   None    Shift=    0.000
 RMSDP=3.39D-07 MaxDP=7.46D-06 DE=-8.73D-09 OVMax= 3.48D-05

 Cycle  11  Pass 1  IDiag  1:
 E= -994.502779801520     Delta-E=       -0.000000001942 Rises=F Damp=F
 DIIS: error= 9.02D-07 at cycle  11 NSaved=  11.
 NSaved=11 IEnMin=11 EnMin= -994.502779801520     IErMin=11 ErrMin= 9.02D-07
 ErrMax= 9.02D-07  0.00D+00 EMaxC= 1.00D-01 BMatC= 4.52D-11 BMatP= 3.52D-10
 IDIUse=1 WtCom= 1.00D+00 WtEn= 0.00D+00
 Coeff-Com: -0.457D-05-0.368D-04-0.260D-04 0.946D-03 0.179D-02-0.118D-01
 Coeff-Com:  0.167D-01 0.639D-01-0.124D+00-0.422D+00 0.148D+01
 Coeff:     -0.457D-05-0.368D-04-0.260D-04 0.946D-03 0.179D-02-0.118D-01
 Coeff:      0.167D-01 0.639D-01-0.124D+00-0.422D+00 0.148D+01
 Gap=     0.382 Goal=   None    Shift=    0.000
 RMSDP=1.53D-07 MaxDP=3.32D-06 DE=-1.94D-09 OVMax= 1.68D-05

 Cycle  12  Pass 1  IDiag  1:
 E= -994.502779801800     Delta-E=       -0.000000000279 Rises=F Damp=F
 DIIS: error= 2.06D-07 at cycle  12 NSaved=  12.
 NSaved=12 IEnMin=12 EnMin= -994.502779801800     IErMin=12 ErrMin= 2.06D-07
 ErrMax= 2.06D-07  0.00D+00 EMaxC= 1.00D-01 BMatC= 2.49D-12 BMatP= 4.52D-11
 IDIUse=1 WtCom= 1.00D+00 WtEn= 0.00D+00
 Coeff-Com:  0.118D-05 0.819D-07-0.186D-07-0.230D-03-0.277D-03 0.267D-02
 Coeff-Com: -0.646D-02-0.650D-02 0.515D-01-0.160D-01-0.292D+00 0.127D+01
 Coeff:      0.118D-05 0.819D-07-0.186D-07-0.230D-03-0.277D-03 0.267D-02
 Coeff:     -0.646D-02-0.650D-02 0.515D-01-0.160D-01-0.292D+00 0.127D+01
 Gap=     0.382 Goal=   None    Shift=    0.000
 RMSDP=2.91D-08 MaxDP=5.61D-07 DE=-2.79D-10 OVMax= 2.96D-06

 Cycle  13  Pass 1  IDiag  1:
 E= -994.502779801811     Delta-E=       -0.000000000012 Rises=F Damp=F
 DIIS: error= 5.05D-08 at cycle  13 NSaved=  13.
 NSaved=13 IEnMin=13 EnMin= -994.502779801811     IErMin=13 ErrMin= 5.05D-08
 ErrMax= 5.05D-08  0.00D+00 EMaxC= 1.00D-01 BMatC= 2.31D-13 BMatP= 2.49D-12
 IDIUse=1 WtCom= 1.00D+00 WtEn= 0.00D+00
 Coeff-Com:  0.137D-06 0.256D-05 0.117D-05-0.251D-04-0.762D-04 0.394D-03
 Coeff-Com:  0.111D-04-0.474D-02 0.199D-02 0.427D-01-0.820D-01-0.259D+00
 Coeff-Com:  0.130D+01
 Coeff:      0.137D-06 0.256D-05 0.117D-05-0.251D-04-0.762D-04 0.394D-03
 Coeff:      0.111D-04-0.474D-02 0.199D-02 0.427D-01-0.820D-01-0.259D+00
 Coeff:      0.130D+01
 Gap=     0.382 Goal=   None    Shift=    0.000
 RMSDP=8.71D-09 MaxDP=1.71D-07 DE=-1.16D-11 OVMax= 7.82D-07

 SCF Done:  E(RHF) =  -994.502779802     A.U. after   13 cycles
            NFock= 13  Conv=0.87D-08     -V/T= 2.0003
 KE= 9.942330841674D+02 PE=-2.621493105073D+03 EE= 5.109729441754D+02
 Leave Link  502 at Fri Oct  8 12:25:13 2021, MaxMem= 16106127360 cpu:              27.1 elap:               3.3
 (Enter /sw/contrib/gaussian/g16/B01/g16/l801.exe)
 ExpMin= 2.53D-02 ExpMax= 4.56D+05 ExpMxC= 1.44D+03 IAcc=3 IRadAn=         5 AccDes= 0.00D+00
 HarFok:  IExCor=  205 AccDes= 0.00D+00 IRadAn=         5 IDoV=-2 UseB2=F ITyADJ=14
 ICtDFT= 12500011 ScaDFX=  1.000000  1.000000  1.000000  1.000000
 Largest valence mixing into a core orbital is  4.46D-04
 Largest core mixing into a valence orbital is  1.67D-04
 Range of M.O.s used for correlation:    12   169
 NBasis=   169 NAE=    22 NBE=    22 NFC=    11 NFV=     0
 NROrb=    158 NOA=    11 NOB=    11 NVA=   147 NVB=   147

 **** Warning!!: The largest alpha MO coefficient is  0.14082681D+02

 Leave Link  801 at Fri Oct  8 12:25:13 2021, MaxMem= 16106127360 cpu:               2.0 elap:               0.1
 (Enter /sw/contrib/gaussian/g16/B01/g16/l906.exe)
 Frozen-core derivative calculation, NFC=  11 NFV=   0.
 FulOut=F Deriv=T AODrv=F NAtomX=     4
   MMem=         144  MDisk=          11 MDiskD=          11
  W3Min=      736164 MinDsk=     1250177 NBas6D=         198
 NBas2D=       20187    NTT=       19701    LW2=     3500000
    MDV= 16105751340 MDiskM=      406660 NBas2p=       19980
 Fully in-core method, ICMem=   420417501.
 IMap=   1   2   3   4   5   6   7   8   9  10  11  12  13  14  15  16  17  18  19  20
 IMap=  21  22
 JobTyp=1 Pass  1 fully in-core, NPsUse= 28.
 Compute canonical integrals.
 FoFCou: FMM=F IPFlag=           0 FMFlag=           0 FMFlg1=           0
         NFxFlg=           0 DoJE=F BraDBF=F KetDBF=F FulRan=T
         wScrn=  0.000000 ICntrl=       600 IOpCl=  1 I1Cent=           0 NGrid=           0
         NMat0=    1 NMatS0=  20187 NMatT0=    0 NMatD0=    1 NMtDS0=    0 NMtDT0=    0
 Symmetry not used in FoFCou.
 Spin components of T(2) and E(2):
     alpha-alpha T2 =       0.3064079661D-01 E2=     -0.8634932147D-01
     alpha-beta  T2 =       0.1646029194D+00 E2=     -0.5054679042D+00
     beta-beta   T2 =       0.3064079661D-01 E2=     -0.8634932147D-01
 The integrals were generated   1 times.
 ANorm=    0.1107196691D+01
 E2 =    -0.6781665472D+00 EUMP2 =    -0.99518094634898D+03
 Leave Link  906 at Fri Oct  8 12:25:18 2021, MaxMem= 16106127360 cpu:             114.2 elap:               4.1
 (Enter /sw/contrib/gaussian/g16/B01/g16/l1002.exe)
 Minotr:  Closed shell wavefunction.
          Computing MP2/KS-MP2 derivatives.
          Using Z-Vector for PSCF gradient.
          Skipping F1 and S1 gradient terms here.
          Frozen-core window.
          Direct CPHF calculation.
          Differentiating once with respect to electric field.
                with respect to dipole field.
          Electric field/nuclear overlap derivatives assumed to be zero.
          Requested convergence is 1.0D-10 RMS, and 1.0D-09 maximum.
          NewPWx=F KeepS1=T KeepF1=T KeepIn=T MapXYZ=F SortEE=F KeepMc=T.
 Keep R1 ints in memory in canonical form, NReq=117123541.
 FoFCou: FMM=F IPFlag=           0 FMFlag=           0 FMFlg1=           0
         NFxFlg=           0 DoJE=F BraDBF=F KetDBF=F FulRan=T
         wScrn=  0.000000 ICntrl=       600 IOpCl=  0 I1Cent=           0 NGrid=           0
         NMat0=    1 NMatS0=  14365 NMatT0=    0 NMatD0=    1 NMtDS0=    0 NMtDT0=    0
 Symmetry not used in FoFCou.
 Two-electron integral symmetry not used.
          MDV=   16106127360 using IRadAn=       5.
          Solving linear equations separately, MaxMat=       0.
          There are     1 degrees of freedom in the 1st order CPHF.  IDoFFX=0 NUNeed=     1.
 LinEq1:  Iter=  0 NonCon=     1 RMS=3.46D-03 Max=5.25D-02 NDo=     1
 AX will form     1 AO Fock derivatives at one time.
 LinEq1:  Iter=  1 NonCon=     1 RMS=4.77D-04 Max=8.68D-03 NDo=     1
 LinEq1:  Iter=  2 NonCon=     1 RMS=1.70D-04 Max=2.06D-03 NDo=     1
 LinEq1:  Iter=  3 NonCon=     1 RMS=5.02D-05 Max=7.82D-04 NDo=     1
 LinEq1:  Iter=  4 NonCon=     1 RMS=1.92D-05 Max=3.93D-04 NDo=     1
 LinEq1:  Iter=  5 NonCon=     1 RMS=6.31D-06 Max=7.10D-05 NDo=     1
 LinEq1:  Iter=  6 NonCon=     1 RMS=1.84D-06 Max=2.38D-05 NDo=     1
 LinEq1:  Iter=  7 NonCon=     1 RMS=4.80D-07 Max=5.79D-06 NDo=     1
 LinEq1:  Iter=  8 NonCon=     1 RMS=1.22D-07 Max=2.21D-06 NDo=     1
 LinEq1:  Iter=  9 NonCon=     1 RMS=4.08D-08 Max=6.80D-07 NDo=     1
 LinEq1:  Iter= 10 NonCon=     1 RMS=1.14D-08 Max=1.27D-07 NDo=     1
 LinEq1:  Iter= 11 NonCon=     1 RMS=2.66D-09 Max=3.96D-08 NDo=     1
 LinEq1:  Iter= 12 NonCon=     1 RMS=4.72D-10 Max=6.09D-09 NDo=     1
 LinEq1:  Iter= 13 NonCon=     1 RMS=8.70D-11 Max=1.12D-09 NDo=     1
 LinEq1:  Iter= 14 NonCon=     0 RMS=2.46D-11 Max=2.40D-10 NDo=     1
 Linear equations converged to 1.000D-10 1.000D-09 after    14 iterations.
 End of Minotr F.D. properties file   721 does not exist.
 End of Minotr F.D. properties file   722 does not exist.
 End of Minotr F.D. properties file   788 does not exist.
 Leave Link 1002 at Fri Oct  8 12:25:21 2021, MaxMem= 16106127360 cpu:              26.1 elap:               3.6
 (Enter /sw/contrib/gaussian/g16/B01/g16/l601.exe)
 Copying SCF densities to generalized density rwf, IOpCl= 0 IROHF=0.

 **********************************************************************

            Population analysis using the MP2 Density.

 **********************************************************************

 Alpha  occ. eigenvalues -- -104.69485-104.58318 -20.41256 -10.41457 -10.30804
 Alpha  occ. eigenvalues --   -7.88169  -7.87938  -7.87931  -7.77438  -7.77393
 Alpha  occ. eigenvalues --   -7.77392  -1.15663  -0.85017  -0.82412  -0.46619
 Alpha  occ. eigenvalues --   -0.39578  -0.38736  -0.28742  -0.24073  -0.22817
 Alpha  occ. eigenvalues --   -0.22625  -0.21843
 Alpha virt. eigenvalues --    0.16357   0.19431   0.22690   0.24097   0.25658
 Alpha virt. eigenvalues --    0.26598   0.26889   0.31091   0.32233   0.34001
 Alpha virt. eigenvalues --    0.34498   0.35120   0.38018   0.46832   0.46975
 Alpha virt. eigenvalues --    0.50870   0.51635   0.53417   0.54780   0.57216
 Alpha virt. eigenvalues --    0.57870   0.60322   0.62228   0.63932   0.66701
 Alpha virt. eigenvalues --    0.67697   0.68523   0.75979   0.77136   0.79918
 Alpha virt. eigenvalues --    0.84422   0.84664   0.87435   0.90109   0.93732
 Alpha virt. eigenvalues --    0.93875   0.97911   0.98862   1.04599   1.06672
 Alpha virt. eigenvalues --    1.08361   1.09304   1.10717   1.12137   1.13114
 Alpha virt. eigenvalues --    1.15249   1.17076   1.17556   1.21054   1.22426
 Alpha virt. eigenvalues --    1.23459   1.24913   1.31581   1.34040   1.34297
 Alpha virt. eigenvalues --    1.38672   1.40331   1.40585   1.42129   1.47325
 Alpha virt. eigenvalues --    1.48252   1.50485   1.51037   1.63114   1.66713
 Alpha virt. eigenvalues --    1.68110   1.69558   1.72440   1.75389   1.76515
 Alpha virt. eigenvalues --    1.80051   1.86204   1.93535   1.94386   1.94602
 Alpha virt. eigenvalues --    2.03244   2.32708   2.36775   2.42730   2.54300
 Alpha virt. eigenvalues --    2.54508   2.59822   2.61326   2.63090   2.65462
 Alpha virt. eigenvalues --    2.70096   2.70388   2.73977   2.75349   2.77384
 Alpha virt. eigenvalues --    2.77439   2.80111   2.80863   2.85170   2.86084
 Alpha virt. eigenvalues --    2.89514   2.97119   2.99053   3.11906   3.12506
 Alpha virt. eigenvalues --    3.21739   3.24444   3.26326   3.27996   3.28927
 Alpha virt. eigenvalues --    3.30141   3.30303   3.33065   3.33499   3.34728
 Alpha virt. eigenvalues --    3.37498   3.37742   3.43867   3.45450   3.48982
 Alpha virt. eigenvalues --    3.56575   3.57950   3.63223   3.72927   3.93914
 Alpha virt. eigenvalues --    4.15003   4.20907   4.37959   4.41781   4.58331
 Alpha virt. eigenvalues --    4.67291   4.85499   4.94093   5.04878   5.13625
 Alpha virt. eigenvalues --    5.42977   6.41893   6.55311   6.87431   6.91533
 Alpha virt. eigenvalues --    6.94540   6.95736   7.05461   7.06488   7.16115
 Alpha virt. eigenvalues --    7.38566   7.43864   7.58369   7.69429   8.03132
 Alpha virt. eigenvalues --    8.14385  12.92241
          Condensed to atoms (all electrons):
               1          2          3          4
     1  O    8.683067  -0.139083  -0.116968   0.141458
     2  Cl  -0.139083  17.148459   0.012134  -0.020547
     3  Cl  -0.116968   0.012134  17.677722   0.106299
     4  H    0.141458  -0.020547   0.106299   0.524166
 Mulliken charges:
               1
     1  O   -0.568474
     2  Cl  -0.000962
     3  Cl  -0.679188
     4  H    0.248624
 Sum of Mulliken charges =  -1.00000
 Mulliken charges with hydrogens summed into heavy atoms:
               1
     1  O   -0.319850
     2  Cl  -0.000962
     3  Cl  -0.679188
 Electronic spatial extent (au):  <R**2>=            791.1447
 Charge=             -1.0000 electrons
 Dipole moment (field-independent basis, Debye):
    X=              0.5363    Y=              7.5349    Z=              0.0000  Tot=              7.5540
 Quadrupole moment (field-independent basis, Debye-Ang):
   XX=            -39.5662   YY=            -60.3491   ZZ=            -36.5495
   XY=             -6.0647   XZ=             -0.0000   YZ=             -0.0000
 Traceless Quadrupole moment (field-independent basis, Debye-Ang):
   XX=              5.9221   YY=            -14.8609   ZZ=              8.9388
   XY=             -6.0647   XZ=             -0.0000   YZ=             -0.0000
 Octapole moment (field-independent basis, Debye-Ang**2):
  XXX=            -36.2379  YYY=            202.9036  ZZZ=             -0.0000  XYY=              4.1949
  XXY=             48.8129  XXZ=             -0.0000  XZZ=            -12.7123  YZZ=             44.9271
  YYZ=              0.0000  XYZ=              0.0000
 Hexadecapole moment (field-independent basis, Debye-Ang**3):
 XXXX=           -312.9750 YYYY=           -983.6406 ZZZZ=            -48.4412 XXXY=            -94.5700
 XXXZ=             -0.0000 YYYX=           -136.0354 YYYZ=             -0.0000 ZZZX=             -0.0000
 ZZZY=              0.0000 XXYY=           -200.6109 XXZZ=            -64.2809 YYZZ=           -142.1973
 XXYZ=             -0.0000 YYXZ=             -0.0000 ZZXY=            -30.6151
 N-N= 1.217842969283D+02 E-N=-2.621504716522D+03  KE= 9.948924923177D+02
 No NMR shielding tensors so no spin-rotation constants.
 Leave Link  601 at Fri Oct  8 12:25:21 2021, MaxMem= 16106127360 cpu:               4.6 elap:               0.2
 (Enter /sw/contrib/gaussian/g16/B01/g16/l607.exe)
 ******************************Gaussian NBO Version 3.1******************************
             N A T U R A L   A T O M I C   O R B I T A L   A N D
          N A T U R A L   B O N D   O R B I T A L   A N A L Y S I S
 ******************************Gaussian NBO Version 3.1******************************
       /RESON  / : Allow strongly delocalized NBO set

 Analyzing the MP2 density

 Job title: title                                                           

 Storage needed:     86521 in NPA,    114817 in NBO (********** available)
 GSVD:  LWork=        1191 too small for GESVD, short by       52514 words or       52514 for optimal perf.


 NATURAL POPULATIONS:  Natural atomic orbital occupancies 
                                                          
   NAO  Atom  No  lang   Type(AO)    Occupancy
 --------------------------------------------
     1    O    1  S      Cor( 1S)     1.99981
     2    O    1  S      Val( 2S)     1.83707
     3    O    1  S      Ryd( 3S)     0.01172
     4    O    1  S      Ryd( 4S)     0.00117
     5    O    1  S      Ryd( 5S)     0.00018
     6    O    1  px     Val( 2p)     1.17624
     7    O    1  px     Ryd( 3p)     0.00775
     8    O    1  px     Ryd( 4p)     0.00067
     9    O    1  px     Ryd( 5p)     0.00065
    10    O    1  py     Val( 2p)     1.75017
    11    O    1  py     Ryd( 3p)     0.01472
    12    O    1  py     Ryd( 4p)     0.00068
    13    O    1  py     Ryd( 5p)     0.00030
    14    O    1  pz     Val( 2p)     1.94505
    15    O    1  pz     Ryd( 3p)     0.02229
    16    O    1  pz     Ryd( 4p)     0.00061
    17    O    1  pz     Ryd( 5p)     0.00010
    18    O    1  dxy    Ryd( 3d)     0.00839
    19    O    1  dxy    Ryd( 4d)     0.00051
    20    O    1  dxy    Ryd( 5d)     0.00013
    21    O    1  dxz    Ryd( 3d)     0.00880
    22    O    1  dxz    Ryd( 4d)     0.00059
    23    O    1  dxz    Ryd( 5d)     0.00010
    24    O    1  dyz    Ryd( 3d)     0.00684
    25    O    1  dyz    Ryd( 4d)     0.00066
    26    O    1  dyz    Ryd( 5d)     0.00029
    27    O    1  dx2y2  Ryd( 3d)     0.01120
    28    O    1  dx2y2  Ryd( 4d)     0.00044
    29    O    1  dx2y2  Ryd( 5d)     0.00014
    30    O    1  dz2    Ryd( 3d)     0.00839
    31    O    1  dz2    Ryd( 4d)     0.00064
    32    O    1  dz2    Ryd( 5d)     0.00016
    33    O    1  f(0)   Ryd( 4f)     0.00066
    34    O    1  f(0)   Ryd( 5f)     0.00011
    35    O    1  f(C1)  Ryd( 4f)     0.00066
    36    O    1  f(C1)  Ryd( 5f)     0.00012
    37    O    1  f(S1)  Ryd( 4f)     0.00064
    38    O    1  f(S1)  Ryd( 5f)     0.00012
    39    O    1  f(C2)  Ryd( 4f)     0.00065
    40    O    1  f(C2)  Ryd( 5f)     0.00013
    41    O    1  f(S2)  Ryd( 4f)     0.00056
    42    O    1  f(S2)  Ryd( 5f)     0.00012
    43    O    1  f(C3)  Ryd( 4f)     0.00064
    44    O    1  f(C3)  Ryd( 5f)     0.00014
    45    O    1  f(S3)  Ryd( 4f)     0.00059
    46    O    1  f(S3)  Ryd( 5f)     0.00012

    47   Cl    2  S      Cor( 1S)     2.00000
    48   Cl    2  S      Cor( 2S)     1.99976
    49   Cl    2  S      Val( 3S)     1.87600
    50   Cl    2  S      Ryd( 4S)     0.00894
    51   Cl    2  S      Ryd( 5S)     0.00057
    52   Cl    2  S      Ryd( 6S)     0.00017
    53   Cl    2  px     Cor( 2p)     1.99996
    54   Cl    2  px     Val( 3p)     0.94394
    55   Cl    2  px     Ryd( 4p)     0.00721
    56   Cl    2  px     Ryd( 5p)     0.00055
    57   Cl    2  px     Ryd( 6p)     0.00022
    58   Cl    2  py     Cor( 2p)     2.00003
    59   Cl    2  py     Val( 3p)     1.95223
    60   Cl    2  py     Ryd( 4p)     0.01074
    61   Cl    2  py     Ryd( 5p)     0.00055
    62   Cl    2  py     Ryd( 6p)     0.00006
    63   Cl    2  pz     Cor( 2p)     2.00003
    64   Cl    2  pz     Val( 3p)     1.95331
    65   Cl    2  pz     Ryd( 4p)     0.01163
    66   Cl    2  pz     Ryd( 5p)     0.00074
    67   Cl    2  pz     Ryd( 6p)     0.00002
    68   Cl    2  dxy    Ryd( 3d)     0.01941
    69   Cl    2  dxy    Ryd( 4d)     0.00123
    70   Cl    2  dxy    Ryd( 5d)     0.00038
    71   Cl    2  dxz    Ryd( 3d)     0.02327
    72   Cl    2  dxz    Ryd( 4d)     0.00139
    73   Cl    2  dxz    Ryd( 5d)     0.00037
    74   Cl    2  dyz    Ryd( 3d)     0.01697
    75   Cl    2  dyz    Ryd( 4d)     0.00070
    76   Cl    2  dyz    Ryd( 5d)     0.00025
    77   Cl    2  dx2y2  Ryd( 3d)     0.01885
    78   Cl    2  dx2y2  Ryd( 4d)     0.00049
    79   Cl    2  dx2y2  Ryd( 5d)     0.00019
    80   Cl    2  dz2    Ryd( 3d)     0.01778
    81   Cl    2  dz2    Ryd( 4d)     0.00059
    82   Cl    2  dz2    Ryd( 5d)     0.00021
    83   Cl    2  f(0)   Ryd( 4f)     0.00132
    84   Cl    2  f(0)   Ryd( 5f)     0.00015
    85   Cl    2  f(C1)  Ryd( 4f)     0.00151
    86   Cl    2  f(C1)  Ryd( 5f)     0.00015
    87   Cl    2  f(S1)  Ryd( 4f)     0.00128
    88   Cl    2  f(S1)  Ryd( 5f)     0.00013
    89   Cl    2  f(C2)  Ryd( 4f)     0.00136
    90   Cl    2  f(C2)  Ryd( 5f)     0.00014
    91   Cl    2  f(S2)  Ryd( 4f)     0.00122
    92   Cl    2  f(S2)  Ryd( 5f)     0.00014
    93   Cl    2  f(C3)  Ryd( 4f)     0.00167
    94   Cl    2  f(C3)  Ryd( 5f)     0.00014
    95   Cl    2  f(S3)  Ryd( 4f)     0.00132
    96   Cl    2  f(S3)  Ryd( 5f)     0.00016

    97   Cl    3  S      Cor( 1S)     2.00000
    98   Cl    3  S      Cor( 2S)     1.99981
    99   Cl    3  S      Val( 3S)     1.93182
   100   Cl    3  S      Ryd( 4S)     0.00122
   101   Cl    3  S      Ryd( 5S)     0.00032
   102   Cl    3  S      Ryd( 6S)     0.00011
   103   Cl    3  px     Cor( 2p)     2.00003
   104   Cl    3  px     Val( 3p)     1.93962
   105   Cl    3  px     Ryd( 4p)     0.01124
   106   Cl    3  px     Ryd( 5p)     0.00054
   107   Cl    3  px     Ryd( 6p)     0.00011
   108   Cl    3  py     Cor( 2p)     2.00000
   109   Cl    3  py     Val( 3p)     1.73533
   110   Cl    3  py     Ryd( 4p)     0.00905
   111   Cl    3  py     Ryd( 5p)     0.00050
   112   Cl    3  py     Ryd( 6p)     0.00010
   113   Cl    3  pz     Cor( 2p)     2.00003
   114   Cl    3  pz     Val( 3p)     1.95262
   115   Cl    3  pz     Ryd( 4p)     0.01141
   116   Cl    3  pz     Ryd( 5p)     0.00054
   117   Cl    3  pz     Ryd( 6p)     0.00007
   118   Cl    3  dxy    Ryd( 3d)     0.01839
   119   Cl    3  dxy    Ryd( 4d)     0.00057
   120   Cl    3  dxy    Ryd( 5d)     0.00014
   121   Cl    3  dxz    Ryd( 3d)     0.01800
   122   Cl    3  dxz    Ryd( 4d)     0.00088
   123   Cl    3  dxz    Ryd( 5d)     0.00013
   124   Cl    3  dyz    Ryd( 3d)     0.01823
   125   Cl    3  dyz    Ryd( 4d)     0.00059
   126   Cl    3  dyz    Ryd( 5d)     0.00014
   127   Cl    3  dx2y2  Ryd( 3d)     0.01900
   128   Cl    3  dx2y2  Ryd( 4d)     0.00071
   129   Cl    3  dx2y2  Ryd( 5d)     0.00016
   130   Cl    3  dz2    Ryd( 3d)     0.01842
   131   Cl    3  dz2    Ryd( 4d)     0.00086
   132   Cl    3  dz2    Ryd( 5d)     0.00011
   133   Cl    3  f(0)   Ryd( 4f)     0.00126
   134   Cl    3  f(0)   Ryd( 5f)     0.00015
   135   Cl    3  f(C1)  Ryd( 4f)     0.00127
   136   Cl    3  f(C1)  Ryd( 5f)     0.00014
   137   Cl    3  f(S1)  Ryd( 4f)     0.00133
   138   Cl    3  f(S1)  Ryd( 5f)     0.00017
   139   Cl    3  f(C2)  Ryd( 4f)     0.00126
   140   Cl    3  f(C2)  Ryd( 5f)     0.00015
   141   Cl    3  f(S2)  Ryd( 4f)     0.00126
   142   Cl    3  f(S2)  Ryd( 5f)     0.00014
   143   Cl    3  f(C3)  Ryd( 4f)     0.00129
   144   Cl    3  f(C3)  Ryd( 5f)     0.00016
   145   Cl    3  f(S3)  Ryd( 4f)     0.00131
   146   Cl    3  f(S3)  Ryd( 5f)     0.00018

   147    H    4  S      Val( 1S)     0.57197
   148    H    4  S      Ryd( 2S)     0.00521
   149    H    4  S      Ryd( 3S)     0.00070
   150    H    4  S      Ryd( 4S)     0.00020
   151    H    4  px     Ryd( 2p)     0.00454
   152    H    4  px     Ryd( 3p)     0.00050
   153    H    4  px     Ryd( 4p)     0.00012
   154    H    4  py     Ryd( 2p)     0.00485
   155    H    4  py     Ryd( 3p)     0.00139
   156    H    4  py     Ryd( 4p)     0.00018
   157    H    4  pz     Ryd( 2p)     0.00577
   158    H    4  pz     Ryd( 3p)     0.00038
   159    H    4  pz     Ryd( 4p)     0.00030
   160    H    4  dxy    Ryd( 3d)     0.00027
   161    H    4  dxy    Ryd( 4d)     0.00011
   162    H    4  dxz    Ryd( 3d)     0.00023
   163    H    4  dxz    Ryd( 4d)     0.00007
   164    H    4  dyz    Ryd( 3d)     0.00034
   165    H    4  dyz    Ryd( 4d)     0.00010
   166    H    4  dx2y2  Ryd( 3d)     0.00025
   167    H    4  dx2y2  Ryd( 4d)     0.00016
   168    H    4  dz2    Ryd( 3d)     0.00024
   169    H    4  dz2    Ryd( 4d)     0.00013


 Summary of Natural Population Analysis:                  
                                                          
                                       Natural Population 
                Natural  -----------------------------------------------
    Atom  No    Charge         Core      Valence    Rydberg      Total
 -----------------------------------------------------------------------
      O    1   -0.82172      1.99981     6.70853    0.11338     8.82172
     Cl    2    0.12058      9.99977     6.72547    0.15418    16.87942
     Cl    3   -0.70088      9.99987     7.55940    0.14161    17.70088
      H    4    0.40202      0.00000     0.57197    0.02601     0.59798
 =======================================================================
   * Total *   -1.00000     21.99945    21.56537    0.43518    44.00000

                                 Natural Population      
 --------------------------------------------------------
   Core                      21.99945 ( 99.9975% of  22)
   Valence                   21.56537 ( 98.0244% of  22)
   Natural Minimal Basis     43.56482 ( 99.0110% of  44)
   Natural Rydberg Basis      0.43518 (  0.9890% of  44)
 --------------------------------------------------------

    Atom  No          Natural Electron Configuration
 ----------------------------------------------------------------------------
      O    1      [core]2S( 1.84)2p( 4.87)3S( 0.01)3p( 0.04)3d( 0.04)
     Cl    2      [core]3S( 1.88)3p( 4.85)4S( 0.01)3d( 0.10)4p( 0.03)4f( 0.01)
     Cl    3      [core]3S( 1.93)3p( 5.63)3d( 0.09)4p( 0.03)4f( 0.01)
      H    4            1S( 0.57)2S( 0.01)2p( 0.02)


 NATURAL BOND ORBITAL ANALYSIS:
 Warning:  a bond orbital has occupanc of -0.00016

                       Occupancies       Lewis Structure    Low   High
           Occ.    -------------------  -----------------   occ   occ
  Cycle   Thresh.   Lewis   Non-Lewis     CR  BD  3C  LP    (L)   (NL)   Dev
 =============================================================================
   1(1)    1.90    43.25336   0.74664     11   2   0   9     1      1    0.38
 Warning:  a bond orbital has occupanc of -0.00016
   2(2)    1.90    43.24411   0.75589     11   2   0   9     1      1    0.39
 Warning:  a bond orbital has occupanc of -0.00016
   3(3)    1.90    43.25336   0.74664     11   2   0   9     1      1    0.38
 Warning:  a bond orbital has occupanc of -0.00016
   4(1)    1.80    43.25336   0.74664     11   2   0   9     1      1    0.38
 Warning:  a bond orbital has occupanc of -0.00016
   5(2)    1.80    43.24411   0.75589     11   2   0   9     1      1    0.39
 Warning:  a bond orbital has occupanc of -0.00016
   6(3)    1.80    43.25336   0.74664     11   2   0   9     1      1    0.38
 Warning:  a bond orbital has occupanc of -0.00016
   7(1)    1.70    43.25336   0.74664     11   2   0   9     1      1    0.38
 Warning:  a bond orbital has occupanc of -0.00016
   8(2)    1.70    43.24411   0.75589     11   2   0   9     1      1    0.39
 Warning:  a bond orbital has occupanc of -0.00016
   9(3)    1.70    43.25336   0.74664     11   2   0   9     1      1    0.38
 Warning:  a bond orbital has occupanc of -0.00016
  10(1)    1.60    42.98413   1.01587     11   1   0  10     0      1    0.39
 Warning:  a bond orbital has occupanc of -0.00016
  11(2)    1.60    42.98413   1.01587     11   1   0  10     0      1    0.39
 Warning:  a bond orbital has occupanc of -0.00016
  12(1)    1.50    42.98413   1.01587     11   1   0  10     0      1    0.39
 Warning:  a bond orbital has occupanc of -0.00016
  13(2)    1.50    42.98413   1.01587     11   1   0  10     0      1    0.39
 Warning:  a bond orbital has occupanc of -0.00016
  14(1)    1.90    43.25336   0.74664     11   2   0   9     1      1    0.38
 -----------------------------------------------------------------------------

 Structure accepted: RESONANCE keyword permits strongly delocalized structure

 --------------------------------------------------------
   Core                     21.99946 ( 99.998% of  22)
   Valence Lewis            21.25391 ( 96.609% of  22)
  ==================       ============================
   Total Lewis              43.25336 ( 98.303% of  44)
  -----------------------------------------------------
   Valence non-Lewis         0.35824 (  0.814% of  44)
   Rydberg non-Lewis         0.38840 (  0.883% of  44)
  ==================       ============================
   Total non-Lewis           0.74664 (  1.697% of  44)
 --------------------------------------------------------


       (Occupancy)   Bond orbital/ Coefficients/ Hybrids
 ---------------------------------------------------------------------------------
     1. (1.93775) BD ( 1) O   1 -Cl   2  
                ( 57.24%)   0.7565* O   1 s( 10.58%)p 8.41( 88.92%)d 0.05(  0.49%)
                                                  f 0.00(  0.02%)
                                            0.0003  0.3196 -0.0574  0.0171 -0.0010
                                            0.9400 -0.0433 -0.0112 -0.0168 -0.0523
                                           -0.0233 -0.0039  0.0020  0.0000  0.0000
                                            0.0000  0.0000 -0.0147 -0.0014  0.0015
                                            0.0000  0.0000  0.0000  0.0000  0.0000
                                            0.0000  0.0538  0.0038  0.0020 -0.0418
                                           -0.0037 -0.0001  0.0000  0.0000 -0.0107
                                            0.0010 -0.0000  0.0001  0.0000  0.0000
                                            0.0000  0.0000  0.0081  0.0008 -0.0009
                                            0.0013
                ( 42.76%)   0.6539*Cl   2 s(  9.40%)p 9.50( 89.38%)d 0.12(  1.09%)
                                                  f 0.01(  0.12%)
                                           -0.0000  0.0006  0.3001 -0.0621 -0.0108
                                           -0.0020 -0.0004 -0.9429  0.0665  0.0137
                                           -0.0038 -0.0000 -0.0100 -0.0008  0.0031
                                           -0.0013  0.0000  0.0000  0.0000  0.0000
                                            0.0000  0.0132  0.0000  0.0002  0.0000
                                            0.0000  0.0000  0.0000  0.0000  0.0000
                                            0.0865 -0.0128 -0.0015 -0.0549  0.0080
                                            0.0018  0.0000  0.0000  0.0217 -0.0029
                                            0.0006 -0.0001  0.0000  0.0000  0.0000
                                            0.0000 -0.0267  0.0030 -0.0022  0.0003
     2. (1.95381) BD ( 1) O   1 - H   4  
                ( 83.59%)   0.9143* O   1 s( 21.12%)p 3.72( 78.60%)d 0.01(  0.27%)
                                                  f 0.00(  0.01%)
                                           -0.0002 -0.4595 -0.0055 -0.0071 -0.0032
                                            0.2023 -0.0110 -0.0021 -0.0066  0.8630
                                            0.0095 -0.0022 -0.0027  0.0000  0.0000
                                            0.0000  0.0000  0.0118  0.0026  0.0003
                                            0.0000  0.0000  0.0000  0.0000  0.0000
                                            0.0000  0.0444  0.0064 -0.0010  0.0227
                                            0.0011 -0.0046  0.0000  0.0000 -0.0018
                                           -0.0003 -0.0087  0.0012  0.0000  0.0000
                                            0.0000  0.0000 -0.0020 -0.0009  0.0014
                                            0.0004
                ( 16.41%)   0.4051* H   4 s( 99.73%)p 0.00(  0.24%)d 0.00(  0.03%)
                                           -0.9982  0.0167 -0.0236  0.0002 -0.0062
                                           -0.0166  0.0043  0.0167 -0.0403 -0.0116
                                            0.0000  0.0000  0.0000 -0.0022 -0.0049
                                            0.0000  0.0000  0.0000  0.0000  0.0088
                                            0.0094  0.0024  0.0111
     3. (1.99981) CR ( 1) O   1           s(100.00%)p 0.00(  0.00%)
                                            1.0000 -0.0003  0.0000 -0.0000 -0.0000
                                           -0.0002  0.0000  0.0000  0.0000  0.0001
                                            0.0000 -0.0000 -0.0000  0.0000  0.0000
                                            0.0000  0.0000  0.0000  0.0000  0.0000
                                            0.0000  0.0000  0.0000  0.0000  0.0000
                                            0.0000 -0.0000  0.0000 -0.0000  0.0000
                                            0.0000 -0.0000  0.0000  0.0000  0.0000
                                           -0.0000 -0.0000  0.0000  0.0000  0.0000
                                            0.0000  0.0000 -0.0000 -0.0000 -0.0000
                                           -0.0000
     4. (2.00000) CR ( 1)Cl   2           s(100.00%)
                                            1.0000  0.0000 -0.0000 -0.0000 -0.0000
                                           -0.0000 -0.0000 -0.0000  0.0000  0.0000
                                           -0.0000 -0.0000 -0.0000 -0.0000  0.0000
                                           -0.0000  0.0000  0.0000  0.0000  0.0000
                                            0.0000  0.0000 -0.0000  0.0000  0.0000
                                            0.0000  0.0000  0.0000  0.0000  0.0000
                                            0.0000 -0.0000 -0.0000 -0.0000  0.0000
                                            0.0000  0.0000  0.0000  0.0000 -0.0000
                                            0.0000 -0.0000  0.0000  0.0000  0.0000
                                            0.0000 -0.0000  0.0000 -0.0000  0.0000
     5. (1.99976) CR ( 2)Cl   2           s(100.00%)p 0.00(  0.00%)
                                            0.0000  1.0000 -0.0004  0.0000  0.0000
                                            0.0000  0.0000  0.0005 -0.0000 -0.0000
                                            0.0000  0.0000  0.0000  0.0000 -0.0000
                                            0.0000  0.0000  0.0000  0.0000  0.0000
                                            0.0000 -0.0000  0.0000  0.0000  0.0000
                                            0.0000  0.0000  0.0000  0.0000  0.0000
                                           -0.0000  0.0000  0.0000  0.0000 -0.0000
                                           -0.0000  0.0000  0.0000 -0.0000  0.0000
                                           -0.0000  0.0000  0.0000  0.0000  0.0000
                                            0.0000  0.0000 -0.0000  0.0000 -0.0000
     6. (1.99995) CR ( 3)Cl   2           s(  0.00%)p 1.00(100.00%)
                                           -0.0000  0.0000  0.0001 -0.0000 -0.0000
                                           -0.0000  1.0000 -0.0004  0.0000  0.0000
                                           -0.0000 -0.0000 -0.0000 -0.0000  0.0000
                                           -0.0000  0.0000  0.0000  0.0000  0.0000
                                            0.0000  0.0000 -0.0000 -0.0000  0.0000
                                            0.0000  0.0000  0.0000  0.0000  0.0000
                                            0.0000 -0.0000 -0.0000 -0.0000  0.0000
                                            0.0000  0.0000  0.0000  0.0000 -0.0000
                                            0.0000 -0.0000  0.0000  0.0000  0.0000
                                            0.0000 -0.0000  0.0000 -0.0000  0.0000
     7. (2.00003) CR ( 4)Cl   2           s(  0.00%)p 1.00(100.00%)
                                           -0.0000  0.0000  0.0000  0.0000  0.0000
                                           -0.0000 -0.0000 -0.0000  0.0000  0.0000
                                           -0.0000  1.0000  0.0002  0.0000  0.0000
                                            0.0000  0.0000  0.0000  0.0000  0.0000
                                            0.0000  0.0000  0.0000  0.0000  0.0000
                                            0.0000  0.0000  0.0000  0.0000  0.0000
                                            0.0000 -0.0000 -0.0000 -0.0000 -0.0000
                                            0.0000  0.0000  0.0000  0.0000 -0.0000
                                           -0.0000  0.0000  0.0000  0.0000  0.0000
                                            0.0000 -0.0000  0.0000  0.0000 -0.0000
     8. (2.00003) CR ( 5)Cl   2           s(  0.00%)p 1.00(100.00%)
                                            0.0000  0.0000  0.0000  0.0000  0.0000
                                            0.0000  0.0000  0.0000  0.0000  0.0000
                                            0.0000  0.0000  0.0000  0.0000  0.0000
                                            0.0000  1.0000  0.0001  0.0000  0.0000
                                           -0.0000  0.0000  0.0000  0.0000  0.0000
                                            0.0000  0.0000  0.0000  0.0000  0.0000
                                            0.0000  0.0000  0.0000  0.0000  0.0000
                                            0.0000 -0.0000  0.0000  0.0000  0.0000
                                            0.0000  0.0000  0.0000 -0.0000  0.0000
                                           -0.0000  0.0000  0.0000  0.0000  0.0000
     9. (2.00000) CR ( 1)Cl   3           s(100.00%)
                                            1.0000 -0.0000 -0.0000 -0.0000 -0.0000
                                            0.0000  0.0000  0.0000 -0.0000  0.0000
                                            0.0000  0.0000  0.0000 -0.0000  0.0000
                                            0.0000  0.0000  0.0000  0.0000  0.0000
                                            0.0000  0.0000  0.0000  0.0000  0.0000
                                            0.0000  0.0000  0.0000  0.0000  0.0000
                                           -0.0000  0.0000 -0.0000 -0.0000 -0.0000
                                           -0.0000  0.0000  0.0000  0.0000 -0.0000
                                           -0.0000 -0.0000  0.0000  0.0000  0.0000
                                            0.0000  0.0000 -0.0000 -0.0000 -0.0000
    10. (1.99981) CR ( 2)Cl   3           s(100.00%)
                                           -0.0000  1.0000 -0.0002 -0.0000 -0.0000
                                            0.0000  0.0000  0.0000 -0.0000  0.0000
                                            0.0000  0.0000  0.0001 -0.0000  0.0000
                                            0.0000  0.0000  0.0000  0.0000  0.0000
                                            0.0000  0.0000  0.0000  0.0000  0.0000
                                            0.0000  0.0000  0.0000  0.0000  0.0000
                                           -0.0000 -0.0000 -0.0000 -0.0000 -0.0000
                                           -0.0000  0.0000  0.0000 -0.0000 -0.0000
                                           -0.0000 -0.0000  0.0000  0.0000  0.0000
                                            0.0000 -0.0000 -0.0000 -0.0000 -0.0000
    11. (2.00003) CR ( 3)Cl   3           s(  0.00%)p 1.00(100.00%)
                                            0.0000  0.0000  0.0000  0.0000  0.0000
                                           -0.0000  1.0000 -0.0000  0.0000 -0.0000
                                           -0.0000 -0.0000 -0.0000  0.0000 -0.0000
                                           -0.0000  0.0000  0.0000  0.0000  0.0000
                                            0.0000 -0.0000 -0.0000 -0.0000  0.0000
                                            0.0000  0.0000  0.0000  0.0000  0.0000
                                            0.0000  0.0000  0.0000  0.0000  0.0000
                                            0.0000  0.0000  0.0000  0.0000  0.0000
                                            0.0000  0.0000  0.0000  0.0000  0.0000
                                            0.0000  0.0000  0.0000  0.0000  0.0000
    12. (2.00000) CR ( 4)Cl   3           s(  0.00%)p 1.00(100.00%)
                                            0.0000  0.0000  0.0000  0.0000  0.0000
                                           -0.0000 -0.0000 -0.0000  0.0000 -0.0000
                                           -0.0000  1.0000 -0.0000  0.0000 -0.0000
                                           -0.0000  0.0000  0.0000  0.0000  0.0000
                                            0.0000 -0.0000 -0.0000 -0.0000  0.0000
                                            0.0000  0.0000  0.0000  0.0000  0.0000
                                            0.0000 -0.0000  0.0000  0.0000  0.0000
                                            0.0000  0.0000  0.0000 -0.0000  0.0000
                                            0.0000  0.0000  0.0000  0.0000  0.0000
                                            0.0000 -0.0000  0.0000  0.0000  0.0000
    13. (2.00003) CR ( 5)Cl   3           s(  0.00%)p 1.00(100.00%)
                                            0.0000  0.0000  0.0000  0.0000  0.0000
                                            0.0000  0.0000  0.0000  0.0000  0.0000
                                            0.0000  0.0000  0.0000  0.0000  0.0000
                                            0.0000  1.0000  0.0000  0.0000  0.0000
                                           -0.0000  0.0000  0.0000  0.0000  0.0000
                                           -0.0000 -0.0000  0.0000  0.0000 -0.0000
                                            0.0000  0.0000  0.0000  0.0000  0.0000
                                            0.0000 -0.0000  0.0000  0.0000  0.0000
                                            0.0000  0.0000 -0.0000  0.0000  0.0000
                                           -0.0000  0.0000  0.0000  0.0000  0.0000
    14. (1.96634) LP ( 1) O   1           s( 68.61%)p 0.46( 31.33%)d 0.00(  0.05%)
                                                  f 0.00(  0.00%)
                                            0.0002  0.8282  0.0085 -0.0076 -0.0017
                                           -0.2528  0.0021 -0.0039 -0.0009  0.4993
                                            0.0073  0.0050  0.0020  0.0000  0.0000
                                            0.0000  0.0000  0.0204  0.0024 -0.0025
                                            0.0000  0.0000  0.0000  0.0000  0.0000
                                            0.0000  0.0080 -0.0001 -0.0034  0.0061
                                            0.0001  0.0008  0.0000  0.0000 -0.0003
                                            0.0005 -0.0016 -0.0001  0.0000  0.0000
                                            0.0000  0.0000  0.0032 -0.0021  0.0044
                                           -0.0010
    15. (1.94883) LP ( 2) O   1           s(  0.00%)p 1.00( 99.84%)d 0.00(  0.14%)
                                                  f 0.00(  0.01%)
                                            0.0000  0.0000  0.0000  0.0000  0.0000
                                            0.0000  0.0000  0.0000  0.0000  0.0000
                                            0.0000  0.0000  0.0000  0.9990  0.0155
                                            0.0045  0.0100  0.0000  0.0000  0.0000
                                            0.0321  0.0045 -0.0021 -0.0165  0.0043
                                            0.0102  0.0000  0.0000  0.0000  0.0000
                                            0.0000  0.0000 -0.0085  0.0000  0.0000
                                            0.0000  0.0000  0.0000  0.0075 -0.0025
                                            0.0001  0.0012  0.0000  0.0000  0.0000
                                            0.0000
    16. (1.97405) LP ( 1)Cl   2           s( 90.87%)p 0.10(  9.11%)d 0.00(  0.03%)
                                                  f 0.00(  0.00%)
                                            0.0000  0.0003  0.9532  0.0081  0.0014
                                            0.0003  0.0001  0.3007 -0.0064 -0.0032
                                            0.0015  0.0000 -0.0245  0.0011  0.0000
                                           -0.0005  0.0000  0.0000  0.0000  0.0000
                                            0.0000 -0.0003 -0.0003 -0.0002  0.0000
                                            0.0000  0.0000  0.0000  0.0000  0.0000
                                           -0.0135  0.0003  0.0004  0.0083  0.0004
                                            0.0001  0.0000  0.0000 -0.0023 -0.0003
                                            0.0001 -0.0000  0.0000  0.0000  0.0000
                                            0.0000  0.0036 -0.0001 -0.0002  0.0001
    17. (1.95520) LP ( 2)Cl   2           s(  0.00%)p 1.00( 99.93%)d 0.00(  0.06%)
                                                  f 0.00(  0.01%)
                                            0.0000  0.0000  0.0000  0.0000  0.0000
                                            0.0000  0.0000  0.0000  0.0000  0.0000
                                            0.0000  0.0000  0.0000  0.0000  0.0000
                                            0.0000 -0.0001  0.9995  0.0159  0.0051
                                           -0.0023  0.0000  0.0000  0.0000  0.0119
                                            0.0204  0.0072  0.0025  0.0018  0.0001
                                            0.0000  0.0000  0.0000  0.0000  0.0000
                                            0.0000 -0.0054  0.0015  0.0000  0.0000
                                            0.0000  0.0000  0.0063 -0.0013  0.0006
                                           -0.0005  0.0000  0.0000  0.0000  0.0000
    18. (1.95391) LP ( 3)Cl   2           s(  0.07%)p99.99( 99.87%)d 0.66(  0.05%)
                                                  f 0.11(  0.01%)
                                            0.0000 -0.0000  0.0264  0.0047  0.0035
                                           -0.0022  0.0000 -0.0029  0.0001  0.0001
                                           -0.0007 -0.0002  0.9992  0.0141  0.0015
                                            0.0003  0.0000  0.0000  0.0000  0.0000
                                            0.0000  0.0049  0.0189  0.0073  0.0000
                                            0.0000  0.0000  0.0000  0.0000  0.0000
                                           -0.0054 -0.0038 -0.0022 -0.0003 -0.0021
                                            0.0001  0.0000  0.0000  0.0002  0.0002
                                           -0.0024  0.0005  0.0000  0.0000  0.0000
                                            0.0000 -0.0011  0.0002  0.0083 -0.0019
    19. (1.97461) LP ( 1)Cl   3           s( 85.38%)p 0.17( 14.61%)d 0.00(  0.00%)
                                                  f 0.00(  0.00%)
                                            0.0000  0.0003  0.9240  0.0010  0.0015
                                           -0.0001 -0.0000 -0.0975  0.0005 -0.0003
                                           -0.0000 -0.0001 -0.3696  0.0041 -0.0005
                                           -0.0004  0.0000  0.0000  0.0000  0.0000
                                            0.0000 -0.0021 -0.0002 -0.0005  0.0000
                                            0.0000  0.0000  0.0000  0.0000  0.0000
                                            0.0040  0.0000  0.0009  0.0029  0.0002
                                            0.0008  0.0000  0.0000  0.0001  0.0000
                                            0.0001  0.0002  0.0000  0.0000  0.0000
                                            0.0000  0.0001  0.0001  0.0001  0.0002
    20. (1.95308) LP ( 2)Cl   3           s(  0.00%)p 1.00( 99.98%)d 0.00(  0.02%)
                                                  f 0.00(  0.00%)
                                            0.0000  0.0000  0.0000  0.0000  0.0000
                                            0.0000  0.0000  0.0000  0.0000  0.0000
                                            0.0000  0.0000  0.0000  0.0000  0.0000
                                            0.0000 -0.0000  0.9999  0.0044  0.0022
                                           -0.0008  0.0000  0.0000  0.0000  0.0025
                                           -0.0004 -0.0010  0.0127  0.0002 -0.0031
                                            0.0000  0.0000  0.0000  0.0000  0.0000
                                            0.0000 -0.0033  0.0014  0.0000  0.0000
                                            0.0000  0.0000 -0.0037  0.0015  0.0019
                                           -0.0008  0.0000  0.0000  0.0000  0.0000
    21. (1.95273) LP ( 3)Cl   3           s(  0.01%)p 1.00( 99.97%)d 0.00(  0.02%)
                                                  f 0.00(  0.00%)
                                            0.0000 -0.0000  0.0076 -0.0006 -0.0007
                                            0.0003 -0.0000  0.9713  0.0043  0.0019
                                           -0.0008 -0.0000 -0.2374 -0.0009 -0.0007
                                            0.0003  0.0000  0.0000  0.0000  0.0000
                                            0.0000  0.0126  0.0001 -0.0028  0.0000
                                            0.0000  0.0000  0.0000  0.0000  0.0000
                                            0.0051 -0.0008 -0.0020  0.0003  0.0003
                                            0.0002  0.0000  0.0000 -0.0013  0.0006
                                            0.0003 -0.0001  0.0000  0.0000  0.0000
                                            0.0000 -0.0039  0.0014  0.0031 -0.0012
    22. (1.68359) LP ( 4)Cl   3           s( 14.60%)p 5.84( 85.20%)d 0.01(  0.19%)
                                                  f 0.00(  0.01%)
                                           -0.0000  0.0000  0.3820 -0.0027 -0.0044
                                            0.0004  0.0000  0.2163 -0.0012 -0.0007
                                           -0.0002  0.0000  0.8973 -0.0090 -0.0056
                                            0.0019  0.0000  0.0000  0.0000  0.0000
                                            0.0000  0.0166  0.0022  0.0002  0.0000
                                            0.0000  0.0000  0.0000  0.0000  0.0000
                                           -0.0326 -0.0035  0.0007 -0.0222 -0.0030
                                           -0.0005  0.0000  0.0000 -0.0017  0.0004
                                           -0.0070  0.0012  0.0000  0.0000  0.0000
                                            0.0000 -0.0059  0.0009 -0.0067  0.0007
    23. (0.02198) RY*( 1) O   1           s(  0.00%)p 1.00( 99.20%)d 0.01(  0.75%)
                                                  f 0.00(  0.04%)
                                            0.0000  0.0000  0.0000  0.0000  0.0000
                                            0.0000  0.0000  0.0000  0.0000  0.0000
                                            0.0000  0.0000  0.0000 -0.0185  0.9953
                                           -0.0290 -0.0164  0.0000  0.0000  0.0000
                                            0.0676  0.0258  0.0060 -0.0459  0.0011
                                            0.0130  0.0000  0.0000  0.0000  0.0000
                                            0.0000  0.0000 -0.0117  0.0092  0.0000
                                            0.0000  0.0000  0.0000  0.0107 -0.0099
                                           -0.0014  0.0012  0.0000  0.0000  0.0000
                                            0.0000
    24. (0.01785) RY*( 2) O   1           s( 24.04%)p 3.09( 74.32%)d 0.06(  1.52%)
                                                  f 0.01(  0.12%)
                                           -0.0000  0.0066  0.4897  0.0151 -0.0186
                                            0.0355 -0.3022 -0.0138  0.0257 -0.0167
                                            0.8043 -0.0104 -0.0493  0.0000  0.0000
                                            0.0000  0.0000  0.1161  0.0309  0.0129
                                            0.0000  0.0000  0.0000  0.0000  0.0000
                                            0.0000 -0.0019  0.0069  0.0039  0.0215
                                            0.0005 -0.0080  0.0000  0.0000 -0.0045
                                            0.0008  0.0006  0.0038  0.0000  0.0000
                                            0.0000  0.0000  0.0240 -0.0099  0.0202
                                           -0.0093
    25. (0.00861) RY*( 3) O   1           s( 31.81%)p 0.85( 27.00%)d 1.27( 40.52%)
                                                  f 0.02(  0.67%)
                                           -0.0000  0.0076  0.5527  0.1114  0.0096
                                           -0.0054 -0.3237  0.0086  0.0871  0.0015
                                           -0.3890  0.0317 -0.0720  0.0000  0.0000
                                            0.0000  0.0000 -0.5563 -0.0117 -0.0139
                                            0.0000  0.0000  0.0000  0.0000  0.0000
                                            0.0000  0.2190 -0.0130  0.0150  0.2161
                                           -0.0186 -0.0034  0.0000  0.0000 -0.0188
                                            0.0106  0.0081 -0.0058  0.0000  0.0000
                                            0.0000  0.0000  0.0092 -0.0059 -0.0721
                                            0.0280
    26. (0.00695) RY*( 4) O   1           s(  0.00%)p 1.00(  0.34%)d99.99( 97.83%)
                                                  f 5.38(  1.83%)
                                            0.0000  0.0000  0.0000  0.0000  0.0000
                                            0.0000  0.0000  0.0000  0.0000  0.0000
                                            0.0000  0.0000  0.0000 -0.0240 -0.0490
                                           -0.0131 -0.0162  0.0000  0.0000  0.0000
                                            0.9219 -0.0395  0.0126  0.3553 -0.0171
                                            0.0098  0.0000  0.0000  0.0000  0.0000
                                            0.0000  0.0000 -0.0450  0.0177  0.0000
                                            0.0000  0.0000  0.0000  0.1134 -0.0537
                                           -0.0128  0.0090  0.0000  0.0000  0.0000
                                            0.0000
    27. (0.00674) RY*( 5) O   1           s(  0.68%)p23.53( 15.97%)d99.99( 81.42%)
                                                  f 2.83(  1.92%)
                                           -0.0000 -0.0052  0.0673  0.0467 -0.0072
                                           -0.0204 -0.2879 -0.0063  0.0518 -0.0386
                                           -0.2678  0.0224 -0.0047  0.0000  0.0000
                                            0.0000  0.0000  0.7240  0.0053  0.0374
                                            0.0000  0.0000  0.0000  0.0000  0.0000
                                            0.0000  0.4657 -0.0121  0.0224  0.2660
                                           -0.0172  0.0096  0.0000  0.0000  0.0136
                                           -0.0125 -0.0497  0.0274  0.0000  0.0000
                                            0.0000  0.0000  0.1102 -0.0501  0.0315
                                           -0.0061
    28. (0.00631) RY*( 6) O   1           s(  0.00%)p 1.00(  0.58%)d99.99( 98.22%)
                                                  f 2.06(  1.20%)
                                            0.0000  0.0000  0.0000  0.0000  0.0000
                                            0.0000  0.0000  0.0000  0.0000  0.0000
                                            0.0000  0.0000  0.0000  0.0261  0.0659
                                           -0.0140 -0.0246  0.0000  0.0000  0.0000
                                           -0.3507  0.0318  0.0072  0.9239 -0.0613
                                            0.0285  0.0000  0.0000  0.0000  0.0000
                                            0.0000  0.0000  0.0789 -0.0430  0.0000
                                            0.0000  0.0000  0.0000  0.0216 -0.0170
                                            0.0529 -0.0189  0.0000  0.0000  0.0000
                                            0.0000
    29. (0.00572) RY*( 7) O   1           s(  0.55%)p26.84( 14.87%)d99.99( 82.57%)
                                                  f 3.61(  2.00%)
                                           -0.0000  0.0211  0.0696  0.0123  0.0099
                                            0.0685  0.3658 -0.0001 -0.0701 -0.0109
                                            0.0708 -0.0012  0.0138  0.0000  0.0000
                                            0.0000  0.0000  0.0263 -0.0199 -0.0179
                                            0.0000  0.0000  0.0000  0.0000  0.0000
                                            0.0000 -0.2581  0.0143  0.0129  0.8642
                                           -0.1016 -0.0098  0.0000  0.0000  0.1003
                                           -0.0363 -0.0326  0.0161  0.0000  0.0000
                                            0.0000  0.0000 -0.0782  0.0316  0.0126
                                           -0.0071
    30. (0.00473) RY*( 8) O   1           s( 22.85%)p 0.60( 13.72%)d 2.68( 61.20%)
                                                  f 0.10(  2.23%)
                                            0.0000 -0.0020  0.4555  0.1435  0.0217
                                            0.0554  0.0317  0.0174  0.0251  0.0295
                                           -0.3272  0.0371 -0.1512 -0.0000 -0.0000
                                           -0.0000 -0.0000  0.3500 -0.0193  0.0171
                                           -0.0000 -0.0000 -0.0000 -0.0000 -0.0000
                                           -0.0000 -0.6577  0.0257 -0.0067 -0.2331
                                            0.0301 -0.0177 -0.0000 -0.0000  0.0365
                                           -0.0192  0.0693 -0.0454 -0.0000 -0.0000
                                           -0.0000 -0.0000 -0.0085 -0.0112  0.1037
                                           -0.0532
    31. (0.00228) RY*( 9) O   1           s( 16.68%)p 3.43( 57.19%)d 1.53( 25.43%)
                                                  f 0.04(  0.70%)
                                           -0.0000  0.0029  0.3950  0.1033 -0.0091
                                            0.0223  0.7516  0.0141 -0.0171 -0.0085
                                            0.0323  0.0150 -0.0678  0.0000  0.0000
                                            0.0000  0.0000  0.0554 -0.0134 -0.0024
                                            0.0000  0.0000  0.0000  0.0000  0.0000
                                            0.0000  0.4342 -0.0658  0.0981 -0.2111
                                            0.0558 -0.0307  0.0000  0.0000 -0.0361
                                            0.0390  0.0011  0.0039  0.0000  0.0000
                                            0.0000  0.0000  0.0454 -0.0456 -0.0015
                                            0.0048
    32. (0.00070) RY*(10) O   1           s( 28.06%)p 2.25( 63.18%)d 0.25(  7.11%)
                                                  f 0.06(  1.65%)
                                            0.0000  0.0015 -0.0624  0.5194 -0.0831
                                           -0.0096  0.0118  0.0611  0.2428  0.0082
                                            0.0155 -0.7384  0.1528 -0.0000 -0.0000
                                           -0.0000 -0.0000 -0.0104  0.1937  0.0555
                                           -0.0000 -0.0000 -0.0000 -0.0000 -0.0000
                                           -0.0000 -0.0381 -0.1101 -0.0345  0.0045
                                           -0.0961 -0.0798 -0.0000 -0.0000 -0.0572
                                            0.0014 -0.0841 -0.0004 -0.0000 -0.0000
                                           -0.0000 -0.0000  0.0726 -0.0057  0.0046
                                            0.0289
    33. (0.00067) RY*(11) O   1           s(  0.00%)p 1.00(  0.24%)d99.99( 70.15%)
                                                  f99.99( 29.61%)
                                            0.0000  0.0000  0.0000  0.0000  0.0000
                                            0.0000  0.0000  0.0000  0.0000  0.0000
                                            0.0000  0.0000  0.0000 -0.0028  0.0074
                                            0.0067  0.0475  0.0000  0.0000  0.0000
                                            0.0075 -0.2111 -0.0164  0.0290  0.8092
                                            0.0322  0.0000  0.0000  0.0000  0.0000
                                            0.0000  0.0000  0.0330 -0.0041  0.0000
                                            0.0000  0.0000  0.0000 -0.0206 -0.0125
                                            0.5390 -0.0624  0.0000  0.0000  0.0000
                                            0.0000
    34. (0.00066) RY*(12) O   1           s(  0.72%)p 3.85(  2.79%)d94.80( 68.59%)
                                                  f38.56( 27.90%)
                                            0.0000 -0.0030 -0.0037  0.0807 -0.0265
                                           -0.0076 -0.0156  0.0003 -0.0456  0.0031
                                            0.0060  0.1583 -0.0195 -0.0000 -0.0000
                                           -0.0000 -0.0000  0.0516 -0.1020  0.0368
                                           -0.0000 -0.0000 -0.0000 -0.0000 -0.0000
                                           -0.0000  0.0047 -0.2720  0.0220 -0.0640
                                           -0.7659 -0.0793 -0.0000 -0.0000 -0.4059
                                            0.0486  0.0361 -0.0084 -0.0000 -0.0000
                                           -0.0000 -0.0000 -0.3226  0.0296 -0.0743
                                           -0.0059
    35. (0.00060) RY*(13) O   1           s(  0.00%)p 1.00( 93.08%)d 0.04(  3.80%)
                                                  f 0.03(  3.12%)
                                            0.0000  0.0000  0.0000  0.0000  0.0000
                                            0.0000  0.0000  0.0000  0.0000  0.0000
                                            0.0000  0.0000  0.0000 -0.0023  0.0180
                                            0.9351 -0.2368  0.0000  0.0000  0.0000
                                            0.0339  0.1854  0.0469  0.0027  0.0096
                                            0.0123  0.0000  0.0000  0.0000  0.0000
                                            0.0000  0.0000  0.1223  0.0300  0.0000
                                            0.0000  0.0000  0.0000 -0.1069 -0.0308
                                            0.0547 -0.0046  0.0000  0.0000  0.0000
                                            0.0000
    36. (0.00055) RY*(14) O   1           s( 10.04%)p 2.65( 26.64%)d 5.53( 55.53%)
                                                  f 0.78(  7.79%)
                                            0.0000 -0.0025 -0.1233  0.2829 -0.0716
                                           -0.0035  0.0153  0.0770  0.1212  0.0004
                                            0.0356  0.4527 -0.1984  0.0000  0.0000
                                            0.0000  0.0000 -0.0568  0.7357 -0.0257
                                            0.0000  0.0000  0.0000  0.0000  0.0000
                                            0.0000 -0.0136 -0.0854  0.0242  0.0394
                                           -0.0029  0.0234  0.0000  0.0000 -0.0627
                                           -0.0163 -0.0561  0.0080  0.0000  0.0000
                                            0.0000  0.0000  0.1357  0.0121  0.2268
                                            0.0215
    37. (0.00053) RY*(15) O   1           s(  0.00%)p 1.00(  1.36%)d54.11( 73.37%)
                                                  f18.64( 25.28%)
                                            0.0000  0.0000  0.0000  0.0000  0.0000
                                            0.0000  0.0000  0.0000  0.0000  0.0000
                                            0.0000  0.0000  0.0000 -0.0079 -0.0319
                                           -0.1091 -0.0240  0.0000  0.0000  0.0000
                                           -0.0035  0.8500 -0.0561 -0.0119  0.0855
                                           -0.0229  0.0000  0.0000  0.0000  0.0000
                                            0.0000  0.0000 -0.3726 -0.0189  0.0000
                                            0.0000  0.0000  0.0000  0.2367  0.0056
                                            0.2398 -0.0059  0.0000  0.0000  0.0000
                                            0.0000
    38. (0.00049) RY*(16) O   1           s(  1.23%)p73.43( 89.97%)d 1.34(  1.64%)
                                                  f 5.84(  7.16%)
                                            0.0000 -0.0056 -0.0225  0.1046 -0.0277
                                           -0.0078  0.0370 -0.9367  0.1316 -0.0006
                                            0.0019  0.0564 -0.0197 -0.0000 -0.0000
                                           -0.0000 -0.0000 -0.0004 -0.0111  0.0286
                                           -0.0000 -0.0000 -0.0000 -0.0000 -0.0000
                                           -0.0000 -0.0393  0.0359 -0.0733  0.0306
[...]
                                            0.0000  0.0000  0.0000
   152. (0.00036) RY*( 7) H   4           s(  7.09%)p12.26( 86.96%)d 0.84(  5.94%)
                                            0.0036 -0.0381  0.1232  0.2330 -0.0011
                                           -0.9075 -0.0658 -0.0460  0.1922  0.0510
                                           -0.0000 -0.0000 -0.0000 -0.1795 -0.0226
                                           -0.0000 -0.0000 -0.0000 -0.0000  0.1219
                                           -0.0368  0.1020 -0.0096
   153. (0.00031) RY*( 8) H   4           s( 28.50%)p 0.92( 26.33%)d 1.58( 45.17%)
                                            0.0003 -0.0131  0.1641  0.5078 -0.0745
                                            0.3134 -0.1381  0.0470 -0.2093  0.3074
                                            0.0000  0.0000  0.0000 -0.4828 -0.0170
                                            0.0000  0.0000  0.0000  0.0000  0.3798
                                           -0.0944  0.2546 -0.0169
   154. (0.00027) RY*( 9) H   4           s(  0.00%)p 1.00(  4.42%)d21.64( 95.58%)
                                            0.0000  0.0000  0.0000  0.0000  0.0000
                                            0.0000  0.0000  0.0000  0.0000  0.0000
                                            0.0188 -0.2089 -0.0140  0.0000  0.0000
                                            0.8889 -0.3644 -0.1659  0.0738  0.0000
                                            0.0000  0.0000  0.0000
   155. (0.00027) RY*(10) H   4           s(  0.46%)p 4.42(  2.02%)d99.99( 97.53%)
                                           -0.0033  0.0123 -0.0448  0.0490  0.0430
                                           -0.0043  0.0249 -0.0059 -0.0548  0.1210
                                            0.0000  0.0000  0.0000  0.1369 -0.1123
                                            0.0000  0.0000  0.0000  0.0000 -0.4932
                                            0.0735  0.7664 -0.3285
   156. (0.00023) RY*(11) H   4           s(  0.00%)p 1.00( 63.29%)d 0.58( 36.71%)
                                            0.0000  0.0000  0.0000  0.0000  0.0000
                                            0.0000  0.0000  0.0000  0.0000  0.0000
                                           -0.0437  0.7616  0.2257  0.0000  0.0000
                                            0.2707  0.0069  0.5202  0.1522  0.0000
                                            0.0000  0.0000  0.0000
   157. (0.00020) RY*(12) H   4           s(  3.59%)p 2.30(  8.26%)d24.57( 88.15%)
                                            0.0064  0.0042  0.0092  0.1890  0.1200
                                            0.0097  0.2240 -0.0147  0.0161 -0.1319
                                            0.0000  0.0000  0.0000  0.6093  0.1514
                                            0.0000  0.0000  0.0000  0.0000  0.6061
                                            0.2095  0.2757 -0.0090
   158. (0.00018) RY*(13) H   4           s( 25.02%)p 0.60( 14.91%)d 2.40( 60.07%)
                                           -0.0134  0.0570 -0.1256  0.4807  0.0139
                                           -0.0018  0.0403  0.0188  0.0479  0.3803
                                            0.0000  0.0000  0.0000  0.3727  0.2595
                                            0.0000  0.0000  0.0000  0.0000 -0.2350
                                           -0.3802 -0.3538 -0.2635
   159. (0.00014) RY*(14) H   4           s( 58.35%)p 0.52( 30.08%)d 0.20( 11.57%)
                                           -0.0015 -0.0233  0.7559 -0.1074 -0.0338
                                           -0.0687 -0.2231  0.0445 -0.4587 -0.1810
                                            0.0000  0.0000  0.0000  0.2030  0.1409
                                            0.0000  0.0000  0.0000  0.0000 -0.0749
                                           -0.1643 -0.0514 -0.1393
   160. (0.00011) RY*(15) H   4           s( 27.82%)p 2.42( 67.32%)d 0.17(  4.86%)
                                            0.0014  0.0055 -0.0569  0.5243 -0.0100
                                            0.1093 -0.1030  0.0501  0.1465 -0.7916
                                           -0.0000 -0.0000 -0.0000 -0.0684 -0.0735
                                           -0.0000 -0.0000 -0.0000 -0.0000 -0.1823
                                           -0.0589 -0.0223 -0.0362
   161. (0.00009) RY*(16) H   4           s(  0.00%)p 1.00(  1.25%)d78.86( 98.75%)
   162. (0.00009) RY*(17) H   4           s(  0.00%)p 1.00( 65.44%)d 0.53( 34.56%)
   163. (0.00008) RY*(18) H   4           s(  0.49%)p18.55(  9.04%)d99.99( 90.47%)
   164. (0.00005) RY*(19) H   4           s(  4.15%)p16.83( 69.81%)d 6.28( 26.05%)
   165. (0.00004) RY*(20) H   4           s(  9.45%)p 0.94(  8.87%)d 8.65( 81.68%)
   166. (0.00003) RY*(21) H   4           s(  0.00%)p 1.00(  0.33%)d99.99( 99.67%)
   167. (0.00003) RY*(22) H   4           s(  5.98%)p 1.38(  8.26%)d14.34( 85.76%)
   168. (0.05856) BD*( 1) O   1 -Cl   2  
                ( 42.76%)   0.6539* O   1 s( 10.58%)p 8.41( 88.92%)d 0.05(  0.49%)
                                                  f 0.00(  0.02%)
                                           -0.0003 -0.3196  0.0574 -0.0171  0.0010
                                           -0.9400  0.0433  0.0112  0.0168  0.0523
                                            0.0233  0.0039 -0.0020 -0.0000 -0.0000
                                           -0.0000 -0.0000  0.0147  0.0014 -0.0015
                                           -0.0000 -0.0000 -0.0000 -0.0000 -0.0000
                                           -0.0000 -0.0538 -0.0038 -0.0020  0.0418
                                            0.0037  0.0001 -0.0000 -0.0000  0.0107
                                           -0.0010  0.0000 -0.0001 -0.0000 -0.0000
                                           -0.0000 -0.0000 -0.0081 -0.0008  0.0009
                                           -0.0013
                ( 57.24%)  -0.7565*Cl   2 s(  9.40%)p 9.50( 89.38%)d 0.12(  1.09%)
                                                  f 0.01(  0.12%)
                                            0.0000 -0.0006 -0.3001  0.0621  0.0108
                                            0.0020  0.0004  0.9429 -0.0665 -0.0137
                                            0.0038  0.0000  0.0100  0.0008 -0.0031
                                            0.0013 -0.0000 -0.0000 -0.0000 -0.0000
                                           -0.0000 -0.0132 -0.0000 -0.0002 -0.0000
                                           -0.0000 -0.0000 -0.0000 -0.0000 -0.0000
                                           -0.0865  0.0128  0.0015  0.0549 -0.0080
                                           -0.0018 -0.0000 -0.0000 -0.0217  0.0029
                                           -0.0006  0.0001 -0.0000 -0.0000 -0.0000
                                           -0.0000  0.0267 -0.0030  0.0022 -0.0003
   169. (0.29968) BD*( 1) O   1 - H   4  
                ( 16.41%)   0.4051* O   1 s( 21.12%)p 3.72( 78.60%)d 0.01(  0.27%)
                                                  f 0.00(  0.01%)
                                            0.0002  0.4595  0.0055  0.0071  0.0032
                                           -0.2023  0.0110  0.0021  0.0066 -0.8630
                                           -0.0095  0.0022  0.0027 -0.0000 -0.0000
                                           -0.0000 -0.0000 -0.0118 -0.0026 -0.0003
                                           -0.0000 -0.0000 -0.0000 -0.0000 -0.0000
                                           -0.0000 -0.0444 -0.0064  0.0010 -0.0227
                                           -0.0011  0.0046 -0.0000 -0.0000  0.0018
                                            0.0003  0.0087 -0.0012 -0.0000 -0.0000
                                           -0.0000 -0.0000  0.0020  0.0009 -0.0014
                                           -0.0004
                ( 83.59%)  -0.9143* H   4 s( 99.73%)p 0.00(  0.24%)d 0.00(  0.03%)
                                            0.9982 -0.0167  0.0236 -0.0002  0.0062
                                            0.0166 -0.0043 -0.0167  0.0403  0.0116
                                           -0.0000 -0.0000 -0.0000  0.0022  0.0049
                                           -0.0000 -0.0000 -0.0000 -0.0000 -0.0088
                                           -0.0094 -0.0024 -0.0111


 NHO Directionality and "Bond Bending" (deviations from line of nuclear centers)

         [Thresholds for printing:  angular deviation  >  1.0 degree]
                                    hybrid p-character > 25.0%
                                    orbital occupancy  >  0.10e

                                Line of Centers        Hybrid 1              Hybrid 2
                                ---------------  -------------------   ------------------
                NBO               Theta   Phi    Theta   Phi    Dev    Theta   Phi    Dev
 ========================================================================================
     1. BD (   1) O   1 -Cl   2    90.0    0.0    90.0  354.9   5.1      --     --    --
     2. BD (   1) O   1 - H   4    90.0  256.5    90.0  258.1   1.6      --     --    --
    14. LP (   1) O   1             --     --     90.0  116.5   --       --     --    --
    15. LP (   2) O   1             --     --      0.0    0.0   --       --     --    --
    17. LP (   2)Cl   2             --     --      0.0    0.0   --       --     --    --
    18. LP (   3)Cl   2             --     --     90.0   90.2   --       --     --    --
    20. LP (   2)Cl   3             --     --      0.0    0.0   --       --     --    --
    21. LP (   3)Cl   3             --     --     90.0  346.3   --       --     --    --
    22. LP (   4)Cl   3             --     --     90.0   76.4   --       --     --    --
   169. BD*(   1) O   1 - H   4    90.0  256.5    90.0  258.1   1.6      --     --    --


 Natural Bond Orbitals (Summary):

           NBO                  Occupancy  
 -----------------------------------------------
 Molecular unit  1  (HOCl)
     1. BD (   1) O   1 -Cl   2          1.93775
     2. BD (   1) O   1 - H   4          1.95381
     3. CR (   1) O   1                  1.99981
     4. CR (   1)Cl   2                  2.00000
     5. CR (   2)Cl   2                  1.99976
     6. CR (   3)Cl   2                  1.99995
     7. CR (   4)Cl   2                  2.00003
     8. CR (   5)Cl   2                  2.00003
    14. LP (   1) O   1                  1.96634
    15. LP (   2) O   1                  1.94883
    16. LP (   1)Cl   2                  1.97405
    17. LP (   2)Cl   2                  1.95520
    18. LP (   3)Cl   2                  1.95391
    23. RY*(   1) O   1                  0.02198
    24. RY*(   2) O   1                  0.01785
    25. RY*(   3) O   1                  0.00861
    26. RY*(   4) O   1                  0.00695
    27. RY*(   5) O   1                  0.00674
    28. RY*(   6) O   1                  0.00631
    29. RY*(   7) O   1                  0.00572
    30. RY*(   8) O   1                  0.00473
    31. RY*(   9) O   1                  0.00228
    32. RY*(  10) O   1                  0.00070
    33. RY*(  11) O   1                  0.00067
    34. RY*(  12) O   1                  0.00066
    35. RY*(  13) O   1                  0.00060
    36. RY*(  14) O   1                  0.00055
    37. RY*(  15) O   1                  0.00053
    38. RY*(  16) O   1                  0.00049
    39. RY*(  17) O   1                  0.00050
    40. RY*(  18) O   1                  0.00048
    41. RY*(  19) O   1                  0.00047
    42. RY*(  20) O   1                  0.00047
    43. RY*(  21) O   1                  0.00046
    44. RY*(  22) O   1                  0.00046
    45. RY*(  23) O   1                  0.00041
    46. RY*(  24) O   1                  0.00035
    47. RY*(  25) O   1                  0.00027
    48. RY*(  26) O   1                  0.00014
    49. RY*(  27) O   1                  0.00013
    50. RY*(  28) O   1                  0.00012
    51. RY*(  29) O   1                  0.00010
    52. RY*(  30) O   1                  0.00008
    53. RY*(  31) O   1                  0.00009
    54. RY*(  32) O   1                  0.00008
    55. RY*(  33) O   1                  0.00008
    56. RY*(  34) O   1                  0.00009
    57. RY*(  35) O   1                  0.00008
    58. RY*(  36) O   1                  0.00007
    59. RY*(  37) O   1                  0.00006
    60. RY*(  38) O   1                  0.00006
    61. RY*(  39) O   1                  0.00004
    62. RY*(  40) O   1                  0.00002
    63. RY*(  41) O   1                 -0.00016
    64. RY*(   1)Cl   2                  0.02480
    65. RY*(   2)Cl   2                  0.02054
    66. RY*(   3)Cl   2                  0.01698
    67. RY*(   4)Cl   2                  0.01696
    68. RY*(   5)Cl   2                  0.01252
    69. RY*(   6)Cl   2                  0.00985
    70. RY*(   7)Cl   2                  0.00954
    71. RY*(   8)Cl   2                  0.00676
    72. RY*(   9)Cl   2                  0.00187
    73. RY*(  10)Cl   2                  0.00127
    74. RY*(  11)Cl   2                  0.00127
    75. RY*(  12)Cl   2                  0.00122
    76. RY*(  13)Cl   2                  0.00122
    77. RY*(  14)Cl   2                  0.00119
    78. RY*(  15)Cl   2                  0.00113
    79. RY*(  16)Cl   2                  0.00099
    80. RY*(  17)Cl   2                  0.00080
    81. RY*(  18)Cl   2                  0.00078
    82. RY*(  19)Cl   2                  0.00070
    83. RY*(  20)Cl   2                  0.00065
    84. RY*(  21)Cl   2                  0.00046
    85. RY*(  22)Cl   2                  0.00037
    86. RY*(  23)Cl   2                  0.00037
    87. RY*(  24)Cl   2                  0.00032
    88. RY*(  25)Cl   2                  0.00018
    89. RY*(  26)Cl   2                  0.00018
    90. RY*(  27)Cl   2                  0.00017
    91. RY*(  28)Cl   2                  0.00014
    92. RY*(  29)Cl   2                  0.00013
    93. RY*(  30)Cl   2                  0.00012
    94. RY*(  31)Cl   2                  0.00013
    95. RY*(  32)Cl   2                  0.00012
    96. RY*(  33)Cl   2                  0.00010
    97. RY*(  34)Cl   2                  0.00010
    98. RY*(  35)Cl   2                  0.00010
    99. RY*(  36)Cl   2                  0.00008
   100. RY*(  37)Cl   2                  0.00009
   101. RY*(  38)Cl   2                  0.00004
   102. RY*(  39)Cl   2                  0.00003
   103. RY*(  40)Cl   2                  0.00002
   104. RY*(  41)Cl   2                  0.00000
   146. RY*(   1) H   4                  0.00622
   147. RY*(   2) H   4                  0.00580
   148. RY*(   3) H   4                  0.00470
   149. RY*(   4) H   4                  0.00413
   150. RY*(   5) H   4                  0.00279
   151. RY*(   6) H   4                  0.00068
   152. RY*(   7) H   4                  0.00036
   153. RY*(   8) H   4                  0.00031
   154. RY*(   9) H   4                  0.00027
   155. RY*(  10) H   4                  0.00027
   156. RY*(  11) H   4                  0.00023
   157. RY*(  12) H   4                  0.00020
   158. RY*(  13) H   4                  0.00018
   159. RY*(  14) H   4                  0.00014
   160. RY*(  15) H   4                  0.00011
   161. RY*(  16) H   4                  0.00009
   162. RY*(  17) H   4                  0.00009
   163. RY*(  18) H   4                  0.00008
   164. RY*(  19) H   4                  0.00005
   165. RY*(  20) H   4                  0.00004
   166. RY*(  21) H   4                  0.00003
   167. RY*(  22) H   4                  0.00003
   168. BD*(   1) O   1 -Cl   2          0.05856
   169. BD*(   1) O   1 - H   4          0.29968
       -------------------------------
              Total Lewis   25.68947  ( 97.6819%)
        Valence non-Lewis    0.35824  (  1.3622%)
        Rydberg non-Lewis    0.25141  (  0.9560%)
       -------------------------------
            Total unit  1   26.29912  (100.0000%)
           Charge unit  1   -0.29912

 Molecular unit  2  (Cl)
     9. CR (   1)Cl   3                  2.00000
    10. CR (   2)Cl   3                  1.99981
    11. CR (   3)Cl   3                  2.00003
    12. CR (   4)Cl   3                  2.00000
    13. CR (   5)Cl   3                  2.00003
    19. LP (   1)Cl   3                  1.97461
    20. LP (   2)Cl   3                  1.95308
    21. LP (   3)Cl   3                  1.95273
    22. LP (   4)Cl   3                  1.68359
   105. RY*(   1)Cl   3                  0.01802
   106. RY*(   2)Cl   3                  0.01801
   107. RY*(   3)Cl   3                  0.01792
   108. RY*(   4)Cl   3                  0.01783
   109. RY*(   5)Cl   3                  0.01709
   110. RY*(   6)Cl   3                  0.01137
   111. RY*(   7)Cl   3                  0.01130
   112. RY*(   8)Cl   3                  0.00850
   113. RY*(   9)Cl   3                  0.00129
   114. RY*(  10)Cl   3                  0.00127
   115. RY*(  11)Cl   3                  0.00127
   116. RY*(  12)Cl   3                  0.00126
   117. RY*(  13)Cl   3                  0.00126
   118. RY*(  14)Cl   3                  0.00123
   119. RY*(  15)Cl   3                  0.00123
   120. RY*(  16)Cl   3                  0.00114
   121. RY*(  17)Cl   3                  0.00090
   122. RY*(  18)Cl   3                  0.00090
   123. RY*(  19)Cl   3                  0.00069
   124. RY*(  20)Cl   3                  0.00060
   125. RY*(  21)Cl   3                  0.00058
   126. RY*(  22)Cl   3                  0.00048
   127. RY*(  23)Cl   3                  0.00046
   128. RY*(  24)Cl   3                  0.00041
   129. RY*(  25)Cl   3                  0.00031
   130. RY*(  26)Cl   3                  0.00019
   131. RY*(  27)Cl   3                  0.00016
   132. RY*(  28)Cl   3                  0.00013
   133. RY*(  29)Cl   3                  0.00014
   134. RY*(  30)Cl   3                  0.00013
   135. RY*(  31)Cl   3                  0.00014
   136. RY*(  32)Cl   3                  0.00013
   137. RY*(  33)Cl   3                  0.00011
   138. RY*(  34)Cl   3                  0.00010
   139. RY*(  35)Cl   3                  0.00009
   140. RY*(  36)Cl   3                  0.00009
   141. RY*(  37)Cl   3                  0.00008
   142. RY*(  38)Cl   3                  0.00007
   143. RY*(  39)Cl   3                  0.00005
   144. RY*(  40)Cl   3                  0.00004
   145. RY*(  41)Cl   3                  0.00002
       -------------------------------
              Total Lewis   17.56389  ( 99.2261%)
        Valence non-Lewis    0.00000  (  0.0000%)
        Rydberg non-Lewis    0.13699  (  0.7739%)
       -------------------------------
            Total unit  2   17.70088  (100.0000%)
           Charge unit  2   -0.70088
 Leave Link  607 at Fri Oct  8 12:25:24 2021, MaxMem= 16106127360 cpu:              78.8 elap:               2.8
 (Enter /sw/contrib/gaussian/g16/B01/g16/l9999.exe)
 1\1\GINC-N2218\SP\RMP2-FC\Aug-CC-pVTZ\Cl2H1O1(1-)\CGAVINH\08-Oct-2021\
 0\\#p pop=NBO SP NoSymm mp2/aug-cc-pvtz density=current\\title\\-1,1\O
 \X,1,10.\Cl,1,1.68274941,2,90.\Cl,1,2.90467605,2,90.,3,103.53015695,0\
 H,1,1.25,2,90.,3,103.53015695,0\\Version=ES64L-G16RevB.01\HF=-994.5027
 798\MP2=-995.1809463\RMSD=8.708e-09\Dipole=0.947618,0.8011951,0.\Quadr
 upole=4.4029273,-11.048698,6.6457707,-4.5089504,0.,0.\PG=CS [SG(Cl2H1O
 1)]\\@


 I LOVE MANKIND - IT'S PEOPLE I CAN'T STAND.
     -- LINUS OF PEANUTS
 Job cpu time:       0 days  0 hours  4 minutes 33.9 seconds.
 Elapsed time:       0 days  0 hours  0 minutes 15.1 seconds.
 File lengths (MBytes):  RWF=     14 Int=      0 D2E=      0 Chk=      8 Scr=      1
 Normal termination of Gaussian 16 at Fri Oct  8 12:25:25 2021.
