 Entering Gaussian System, Link 0=g16
 Input=clhocl_rOH_105_sp.gjf
 Output=clhocl_rOH_105_sp.log
 Initial command:
 /sw/contrib/gaussian/g16/B01/g16/l1.exe "/scr/Gau-27712.inp" -scrdir="/scr/"
 Entering Link 1 = /sw/contrib/gaussian/g16/B01/g16/l1.exe PID=     27713.
  
 Copyright (c) 1988-2017, Gaussian, Inc.  All Rights Reserved.
  
 This is part of the Gaussian(R) 16 program.  It is based on
 the Gaussian(R) 09 system (copyright 2009, Gaussian, Inc.),
 the Gaussian(R) 03 system (copyright 2003, Gaussian, Inc.),
 the Gaussian(R) 98 system (copyright 1998, Gaussian, Inc.),
 the Gaussian(R) 94 system (copyright 1995, Gaussian, Inc.),
 the Gaussian 92(TM) system (copyright 1992, Gaussian, Inc.),
 the Gaussian 90(TM) system (copyright 1990, Gaussian, Inc.),
 the Gaussian 88(TM) system (copyright 1988, Gaussian, Inc.),
 the Gaussian 86(TM) system (copyright 1986, Carnegie Mellon
 University), and the Gaussian 82(TM) system (copyright 1983,
 Carnegie Mellon University). Gaussian is a federally registered
 trademark of Gaussian, Inc.
  
 This software contains proprietary and confidential information,
 including trade secrets, belonging to Gaussian, Inc.
  
 This software is provided under written license and may be
 used, copied, transmitted, or stored only in accord with that
 written license.
  
 The following legend is applicable only to US Government
 contracts under FAR:
  
                    RESTRICTED RIGHTS LEGEND
  
 Use, reproduction and disclosure by the US Government is
 subject to restrictions as set forth in subparagraphs (a)
 and (c) of the Commercial Computer Software - Restricted
 Rights clause in FAR 52.227-19.
  
 Gaussian, Inc.
 340 Quinnipiac St., Bldg. 40, Wallingford CT 06492
  
  
 ---------------------------------------------------------------
 Warning -- This program may not be used in any manner that
 competes with the business of Gaussian, Inc. or will provide
 assistance to any competitor of Gaussian, Inc.  The licensee
 of this program is prohibited from giving any competitor of
 Gaussian, Inc. access to this program.  By using this program,
 the user acknowledges that Gaussian, Inc. is engaged in the
 business of creating and licensing software in the field of
 computational chemistry and represents and warrants to the
 licensee that it is not a competitor of Gaussian, Inc. and that
 it will not use this program in any manner prohibited above.
 ---------------------------------------------------------------
  

 Cite this work as:
 Gaussian 16, Revision B.01,
 M. J. Frisch, G. W. Trucks, H. B. Schlegel, G. E. Scuseria, 
 M. A. Robb, J. R. Cheeseman, G. Scalmani, V. Barone, 
 G. A. Petersson, H. Nakatsuji, X. Li, M. Caricato, A. V. Marenich, 
 J. Bloino, B. G. Janesko, R. Gomperts, B. Mennucci, H. P. Hratchian, 
 J. V. Ortiz, A. F. Izmaylov, J. L. Sonnenberg, D. Williams-Young, 
 F. Ding, F. Lipparini, F. Egidi, J. Goings, B. Peng, A. Petrone, 
 T. Henderson, D. Ranasinghe, V. G. Zakrzewski, J. Gao, N. Rega, 
 G. Zheng, W. Liang, M. Hada, M. Ehara, K. Toyota, R. Fukuda, 
 J. Hasegawa, M. Ishida, T. Nakajima, Y. Honda, O. Kitao, H. Nakai, 
 T. Vreven, K. Throssell, J. A. Montgomery, Jr., J. E. Peralta, 
 F. Ogliaro, M. J. Bearpark, J. J. Heyd, E. N. Brothers, K. N. Kudin, 
 V. N. Staroverov, T. A. Keith, R. Kobayashi, J. Normand, 
 K. Raghavachari, A. P. Rendell, J. C. Burant, S. S. Iyengar, 
 J. Tomasi, M. Cossi, J. M. Millam, M. Klene, C. Adamo, R. Cammi, 
 J. W. Ochterski, R. L. Martin, K. Morokuma, O. Farkas, 
 J. B. Foresman, and D. J. Fox, Gaussian, Inc., Wallingford CT, 2016.
 
 ******************************************
 Gaussian 16:  ES64L-G16RevB.01 20-Dec-2017
                 8-Oct-2021 
 ******************************************
 %nproc=28
 Will use up to   28 processors via shared memory.
 %mem=120GB
 %chk=/gscratch/ilahie/mccoygrp/coire_hocl/rOH_s_oop_0/clhocl/clhocl_105_sp.chk
 ----------------------------------------------------
 #p pop=NBO SP NoSymm mp2/aug-cc-pvtz density=current
 ----------------------------------------------------
 1/30=1,38=1,172=1/1;
 2/12=2,15=1,17=6,18=5,40=1/2;
 3/5=16,6=1,7=10,11=9,25=1,30=1,71=1/1,2,3;
 4//1;
 5/5=2,38=5/2;
 8/6=4,10=1/1;
 9/15=1,16=-3/6;
 10/5=1,13=10,31=1/2;
 6/7=2,8=2,9=2,10=2,22=-1,40=1/1,7;
 99/5=1,9=1/99;
 Leave Link    1 at Fri Oct  8 12:24:08 2021, MaxMem= 16106127360 cpu:               0.6 elap:               0.0
 (Enter /sw/contrib/gaussian/g16/B01/g16/l101.exe)
 -----
 title
 -----
 Symbolic Z-matrix:
 Charge = -1 Multiplicity = 1
 O
 X                    1     10. 
 Cl                   1    r1       2     90. 
 Cl                   1    r2       2     90.      3    a1       0
 H                    1    r3       2    oop      3    a1       0
       Variables:
  r1                    1.68275                  
  r2                    2.90468                  
  r3                    1.05                     
  a1                  103.53016                  
  OOP                  90.                       
 
 ITRead=  0  0  0  0
 MicOpt= -1 -1 -1 -1
 NAtoms=      4 NQM=        4 NQMF=       0 NMMI=      0 NMMIF=      0
                NMic=       0 NMicF=      0.
                    Isotopes and Nuclear Properties:
 (Nuclear quadrupole moments (NQMom) in fm**2, nuclear magnetic moments (NMagM)
  in nuclear magnetons)

  Atom         1           2           3           4
 IAtWgt=          16          35          35           1
 AtmWgt=  15.9949146  34.9688527  34.9688527   1.0078250
 NucSpn=           0           3           3           1
 AtZEff=  -0.0000000  -0.0000000  -0.0000000  -0.0000000
 NQMom=    0.0000000  -8.1650000  -8.1650000   0.0000000
 NMagM=    0.0000000   0.8218740   0.8218740   2.7928460
 AtZNuc=   8.0000000  17.0000000  17.0000000   1.0000000
 Leave Link  101 at Fri Oct  8 12:24:08 2021, MaxMem= 16106127360 cpu:               2.2 elap:               0.1
 (Enter /sw/contrib/gaussian/g16/B01/g16/l202.exe)
                          Input orientation:                          
 ---------------------------------------------------------------------
 Center     Atomic      Atomic             Coordinates (Angstroms)
 Number     Number       Type             X           Y           Z
 ---------------------------------------------------------------------
      1          8           0        0.000000    0.000000    0.000000
      2         17           0        1.682749    0.000000    0.000000
      3         17           0       -0.679570   -2.824062    0.000000
      4          1           0       -0.245655   -1.020859    0.000000
 ---------------------------------------------------------------------
                    Distance matrix (angstroms):
                    1          2          3          4
     1  O    0.000000
     2  Cl   1.682749   0.000000
     3  Cl   2.904676   3.681831   0.000000
     4  H    1.050000   2.181948   1.854676   0.000000
 Symmetry turned off by external request.
 Stoichiometry    Cl2HO(1-)
 Framework group  CS[SG(Cl2HO)]
 Deg. of freedom     5
 Full point group                 CS      NOp   2
 Rotational constants (GHZ):          23.7098398           2.0596251           1.8950096
 Leave Link  202 at Fri Oct  8 12:24:08 2021, MaxMem= 16106127360 cpu:               0.2 elap:               0.0
 (Enter /sw/contrib/gaussian/g16/B01/g16/l301.exe)
 Standard basis: Aug-CC-pVTZ (5D, 7F)
 Ernie: Thresh=  0.10000D-02 Tol=  0.10000D-05 Strict=F.
 Ernie:  29 primitive shells out of 169 were deleted.
   169 basis functions,   327 primitive gaussians,   198 cartesian basis functions
    22 alpha electrons       22 beta electrons
       nuclear repulsion energy       122.0870016530 Hartrees.
 IExCor=    0 DFT=F Ex=HF Corr=None ExCW=0 ScaHFX=  1.000000
 ScaDFX=  1.000000  1.000000  1.000000  1.000000 ScalE2=  1.000000  1.000000
 IRadAn=      5 IRanWt=     -1 IRanGd=            0 ICorTp=0 IEmpDi=  4
 NAtoms=    4 NActive=    4 NUniq=    4 SFac= 1.00D+00 NAtFMM=   60 NAOKFM=F Big=F
 Integral buffers will be    131072 words long.
 Raffenetti 1 integral format.
 Two-electron integral symmetry is turned off.
 Leave Link  301 at Fri Oct  8 12:24:08 2021, MaxMem= 16106127360 cpu:               1.3 elap:               0.1
 (Enter /sw/contrib/gaussian/g16/B01/g16/l302.exe)
 NPDir=0 NMtPBC=     1 NCelOv=     1 NCel=       1 NClECP=     1 NCelD=      1
         NCelK=      1 NCelE2=     1 NClLst=     1 CellRange=     0.0.
 One-electron integrals computed using PRISM.
 NBasis=   169 RedAO= T EigKep=  2.48D-04  NBF=   169
 NBsUse=   169 1.00D-06 EigRej= -1.00D+00 NBFU=   169
 Leave Link  302 at Fri Oct  8 12:24:08 2021, MaxMem= 16106127360 cpu:               4.1 elap:               0.2
 (Enter /sw/contrib/gaussian/g16/B01/g16/l303.exe)
 DipDrv:  MaxL=1.
 Leave Link  303 at Fri Oct  8 12:24:08 2021, MaxMem= 16106127360 cpu:               0.8 elap:               0.1
 (Enter /sw/contrib/gaussian/g16/B01/g16/l401.exe)
 ExpMin= 2.53D-02 ExpMax= 4.56D+05 ExpMxC= 1.44D+03 IAcc=3 IRadAn=         5 AccDes= 0.00D+00
 Harris functional with IExCor=  205 and IRadAn=       5 diagonalized for initial guess.
 HarFok:  IExCor=  205 AccDes= 0.00D+00 IRadAn=         5 IDoV= 1 UseB2=F ITyADJ=14
 ICtDFT=  3500011 ScaDFX=  1.000000  1.000000  1.000000  1.000000
 FoFCou: FMM=F IPFlag=           0 FMFlag=      100000 FMFlg1=           0
         NFxFlg=           0 DoJE=T BraDBF=F KetDBF=T FulRan=T
         wScrn=  0.000000 ICntrl=       500 IOpCl=  0 I1Cent=   200000004 NGrid=           0
         NMat0=    1 NMatS0=      1 NMatT0=    0 NMatD0=    1 NMtDS0=    0 NMtDT0=    0
 Symmetry not used in FoFCou.
 Harris En= -993.821407179498    
 JPrj=0 DoOrth=F DoCkMO=F.
 Leave Link  401 at Fri Oct  8 12:24:08 2021, MaxMem= 16106127360 cpu:               6.8 elap:               0.3
 (Enter /sw/contrib/gaussian/g16/B01/g16/l502.exe)
 Keep R1 ints in memory in canonical form, NReq=117119305.
 FoFCou: FMM=F IPFlag=           0 FMFlag=           0 FMFlg1=           0
         NFxFlg=           0 DoJE=F BraDBF=F KetDBF=F FulRan=T
         wScrn=  0.000000 ICntrl=       600 IOpCl=  0 I1Cent=           0 NGrid=           0
         NMat0=    1 NMatS0=  14365 NMatT0=    0 NMatD0=    1 NMtDS0=    0 NMtDT0=    0
 Symmetry not used in FoFCou.
 Two-electron integral symmetry not used.
 Closed shell SCF:
 Using DIIS extrapolation, IDIIS=  1040.
 NGot= 16106127360 LenX= 16002858349 LenY= 16002818704
 Requested convergence on RMS density matrix=1.00D-08 within 128 cycles.
 Requested convergence on MAX density matrix=1.00D-06.
 Requested convergence on             energy=1.00D-06.
 No special actions if energy rises.

 Cycle   1  Pass 1  IDiag  1:
 E= -994.396538201064    
 DIIS: error= 3.40D-02 at cycle   1 NSaved=   1.
 NSaved= 1 IEnMin= 1 EnMin= -994.396538201064     IErMin= 1 ErrMin= 3.40D-02
 ErrMax= 3.40D-02  0.00D+00 EMaxC= 1.00D-01 BMatC= 4.23D-01 BMatP= 4.23D-01
 IDIUse=3 WtCom= 6.60D-01 WtEn= 3.40D-01
 Coeff-Com:  0.100D+01
 Coeff-En:   0.100D+01
 Coeff:      0.100D+01
 Gap=     0.556 Goal=   None    Shift=    0.000
 GapD=    0.556 DampG=2.000 DampE=0.500 DampFc=1.0000 IDamp=-1.
 RMSDP=2.15D-03 MaxDP=7.07D-02              OVMax= 1.24D-01

 Cycle   2  Pass 1  IDiag  1:
 E= -994.487231672892     Delta-E=       -0.090693471828 Rises=F Damp=F
 DIIS: error= 2.12D-02 at cycle   2 NSaved=   2.
 NSaved= 2 IEnMin= 2 EnMin= -994.487231672892     IErMin= 2 ErrMin= 2.12D-02
 ErrMax= 2.12D-02  0.00D+00 EMaxC= 1.00D-01 BMatC= 5.02D-02 BMatP= 4.23D-01
 IDIUse=3 WtCom= 7.88D-01 WtEn= 2.12D-01
 Coeff-Com:  0.169D+00 0.831D+00
 Coeff-En:   0.000D+00 0.100D+01
 Coeff:      0.133D+00 0.867D+00
 Gap=     0.390 Goal=   None    Shift=    0.000
 RMSDP=9.85D-04 MaxDP=3.91D-02 DE=-9.07D-02 OVMax= 8.14D-02

 Cycle   3  Pass 1  IDiag  1:
 E= -994.511518282961     Delta-E=       -0.024286610069 Rises=F Damp=F
 DIIS: error= 9.97D-03 at cycle   3 NSaved=   3.
 NSaved= 3 IEnMin= 3 EnMin= -994.511518282961     IErMin= 3 ErrMin= 9.97D-03
 ErrMax= 9.97D-03  0.00D+00 EMaxC= 1.00D-01 BMatC= 1.57D-02 BMatP= 5.02D-02
 IDIUse=3 WtCom= 9.00D-01 WtEn= 9.97D-02
 Coeff-Com: -0.159D-01 0.349D+00 0.666D+00
 Coeff-En:   0.000D+00 0.155D+00 0.845D+00
 Coeff:     -0.143D-01 0.330D+00 0.684D+00
 Gap=     0.367 Goal=   None    Shift=    0.000
 RMSDP=3.82D-04 MaxDP=1.50D-02 DE=-2.43D-02 OVMax= 3.75D-02

 Cycle   4  Pass 1  IDiag  1:
 E= -994.522251900311     Delta-E=       -0.010733617350 Rises=F Damp=F
 DIIS: error= 1.37D-03 at cycle   4 NSaved=   4.
 NSaved= 4 IEnMin= 4 EnMin= -994.522251900311     IErMin= 4 ErrMin= 1.37D-03
 ErrMax= 1.37D-03  0.00D+00 EMaxC= 1.00D-01 BMatC= 1.78D-04 BMatP= 1.57D-02
 IDIUse=3 WtCom= 9.86D-01 WtEn= 1.37D-02
 Coeff-Com: -0.388D-02 0.154D-01 0.969D-01 0.892D+00
 Coeff-En:   0.000D+00 0.000D+00 0.000D+00 0.100D+01
 Coeff:     -0.383D-02 0.152D-01 0.956D-01 0.893D+00
 Gap=     0.360 Goal=   None    Shift=    0.000
 RMSDP=5.66D-05 MaxDP=1.52D-03 DE=-1.07D-02 OVMax= 3.09D-03

 Cycle   5  Pass 1  IDiag  1:
 E= -994.522443236793     Delta-E=       -0.000191336482 Rises=F Damp=F
 DIIS: error= 2.64D-04 at cycle   5 NSaved=   5.
 NSaved= 5 IEnMin= 5 EnMin= -994.522443236793     IErMin= 5 ErrMin= 2.64D-04
 ErrMax= 2.64D-04  0.00D+00 EMaxC= 1.00D-01 BMatC= 1.63D-05 BMatP= 1.78D-04
 IDIUse=3 WtCom= 9.97D-01 WtEn= 2.64D-03
 Coeff-Com:  0.106D-02-0.403D-01-0.686D-01 0.272D-01 0.108D+01
 Coeff-En:   0.000D+00 0.000D+00 0.000D+00 0.000D+00 0.100D+01
 Coeff:      0.106D-02-0.402D-01-0.684D-01 0.271D-01 0.108D+01
 Gap=     0.361 Goal=   None    Shift=    0.000
 RMSDP=3.21D-05 MaxDP=1.19D-03 DE=-1.91D-04 OVMax= 3.10D-03

 Cycle   6  Pass 1  IDiag  1:
 E= -994.522483759586     Delta-E=       -0.000040522793 Rises=F Damp=F
 DIIS: error= 1.38D-04 at cycle   6 NSaved=   6.
 NSaved= 6 IEnMin= 6 EnMin= -994.522483759586     IErMin= 6 ErrMin= 1.38D-04
 ErrMax= 1.38D-04  0.00D+00 EMaxC= 1.00D-01 BMatC= 2.13D-06 BMatP= 1.63D-05
 IDIUse=3 WtCom= 9.99D-01 WtEn= 1.38D-03
 Coeff-Com:  0.203D-03 0.954D-02 0.165D-01-0.829D-01-0.418D+00 0.147D+01
 Coeff-En:   0.000D+00 0.000D+00 0.000D+00 0.000D+00 0.000D+00 0.100D+01
 Coeff:      0.202D-03 0.953D-02 0.164D-01-0.828D-01-0.417D+00 0.147D+01
 Gap=     0.362 Goal=   None    Shift=    0.000
 RMSDP=1.70D-05 MaxDP=6.24D-04 DE=-4.05D-05 OVMax= 1.70D-03

 Cycle   7  Pass 1  IDiag  1:
 E= -994.522491494840     Delta-E=       -0.000007735254 Rises=F Damp=F
 DIIS: error= 4.29D-05 at cycle   7 NSaved=   7.
 NSaved= 7 IEnMin= 7 EnMin= -994.522491494840     IErMin= 7 ErrMin= 4.29D-05
 ErrMax= 4.29D-05  0.00D+00 EMaxC= 1.00D-01 BMatC= 1.33D-07 BMatP= 2.13D-06
 IDIUse=1 WtCom= 1.00D+00 WtEn= 0.00D+00
 Coeff-Com: -0.143D-03-0.132D-02-0.163D-02 0.316D-01 0.954D-01-0.623D+00
 Coeff-Com:  0.150D+01
 Coeff:     -0.143D-03-0.132D-02-0.163D-02 0.316D-01 0.954D-01-0.623D+00
 Coeff:      0.150D+01
 Gap=     0.362 Goal=   None    Shift=    0.000
 RMSDP=5.25D-06 MaxDP=1.73D-04 DE=-7.74D-06 OVMax= 5.21D-04

 Cycle   8  Pass 1  IDiag  1:
 E= -994.522492103524     Delta-E=       -0.000000608683 Rises=F Damp=F
 DIIS: error= 7.82D-06 at cycle   8 NSaved=   8.
 NSaved= 8 IEnMin= 8 EnMin= -994.522492103524     IErMin= 8 ErrMin= 7.82D-06
 ErrMax= 7.82D-06  0.00D+00 EMaxC= 1.00D-01 BMatC= 9.06D-09 BMatP= 1.33D-07
 IDIUse=1 WtCom= 1.00D+00 WtEn= 0.00D+00
 Coeff-Com:  0.282D-05-0.405D-03-0.473D-03-0.170D-03 0.687D-02 0.172D-01
 Coeff-Com: -0.251D+00 0.123D+01
 Coeff:      0.282D-05-0.405D-03-0.473D-03-0.170D-03 0.687D-02 0.172D-01
 Coeff:     -0.251D+00 0.123D+01
 Gap=     0.362 Goal=   None    Shift=    0.000
 RMSDP=1.20D-06 MaxDP=2.51D-05 DE=-6.09D-07 OVMax= 1.30D-04

 Cycle   9  Pass 1  IDiag  1:
 E= -994.522492139163     Delta-E=       -0.000000035639 Rises=F Damp=F
 DIIS: error= 3.96D-06 at cycle   9 NSaved=   9.
 NSaved= 9 IEnMin= 9 EnMin= -994.522492139163     IErMin= 9 ErrMin= 3.96D-06
 ErrMax= 3.96D-06  0.00D+00 EMaxC= 1.00D-01 BMatC= 1.32D-09 BMatP= 9.06D-09
 IDIUse=1 WtCom= 1.00D+00 WtEn= 0.00D+00
 Coeff-Com:  0.218D-04 0.175D-03 0.171D-03-0.366D-02-0.113D-01 0.675D-01
 Coeff-Com: -0.115D+00-0.331D+00 0.139D+01
 Coeff:      0.218D-04 0.175D-03 0.171D-03-0.366D-02-0.113D-01 0.675D-01
 Coeff:     -0.115D+00-0.331D+00 0.139D+01
 Gap=     0.362 Goal=   None    Shift=    0.000
 RMSDP=6.11D-07 MaxDP=1.46D-05 DE=-3.56D-08 OVMax= 6.81D-05

 Cycle  10  Pass 1  IDiag  1:
 E= -994.522492146113     Delta-E=       -0.000000006950 Rises=F Damp=F
 DIIS: error= 1.72D-06 at cycle  10 NSaved=  10.
 NSaved=10 IEnMin=10 EnMin= -994.522492146113     IErMin=10 ErrMin= 1.72D-06
 ErrMax= 1.72D-06  0.00D+00 EMaxC= 1.00D-01 BMatC= 2.05D-10 BMatP= 1.32D-09
 IDIUse=1 WtCom= 1.00D+00 WtEn= 0.00D+00
 Coeff-Com: -0.566D-05 0.466D-04 0.418D-04 0.846D-03 0.106D-02-0.167D-01
 Coeff-Com:  0.682D-01-0.159D+00-0.192D+00 0.130D+01
 Coeff:     -0.566D-05 0.466D-04 0.418D-04 0.846D-03 0.106D-02-0.167D-01
 Coeff:      0.682D-01-0.159D+00-0.192D+00 0.130D+01
 Gap=     0.362 Goal=   None    Shift=    0.000
 RMSDP=2.41D-07 MaxDP=6.12D-06 DE=-6.95D-09 OVMax= 2.55D-05

 Cycle  11  Pass 1  IDiag  1:
 E= -994.522492147077     Delta-E=       -0.000000000965 Rises=F Damp=F
 DIIS: error= 5.77D-07 at cycle  11 NSaved=  11.
 NSaved=11 IEnMin=11 EnMin= -994.522492147077     IErMin=11 ErrMin= 5.77D-07
 ErrMax= 5.77D-07  0.00D+00 EMaxC= 1.00D-01 BMatC= 1.60D-11 BMatP= 2.05D-10
 IDIUse=1 WtCom= 1.00D+00 WtEn= 0.00D+00
 Coeff-Com: -0.245D-05-0.301D-04-0.339D-04 0.481D-03 0.157D-02-0.832D-02
 Coeff-Com:  0.106D-01 0.521D-01-0.155D+00-0.144D+00 0.124D+01
 Coeff:     -0.245D-05-0.301D-04-0.339D-04 0.481D-03 0.157D-02-0.832D-02
 Coeff:      0.106D-01 0.521D-01-0.155D+00-0.144D+00 0.124D+01
 Gap=     0.362 Goal=   None    Shift=    0.000
 RMSDP=7.57D-08 MaxDP=2.02D-06 DE=-9.65D-10 OVMax= 7.82D-06

 Cycle  12  Pass 1  IDiag  1:
 E= -994.522492147159     Delta-E=       -0.000000000082 Rises=F Damp=F
 DIIS: error= 1.10D-07 at cycle  12 NSaved=  12.
 NSaved=12 IEnMin=12 EnMin= -994.522492147159     IErMin=12 ErrMin= 1.10D-07
 ErrMax= 1.10D-07  0.00D+00 EMaxC= 1.00D-01 BMatC= 8.68D-13 BMatP= 1.60D-11
 IDIUse=1 WtCom= 1.00D+00 WtEn= 0.00D+00
 Coeff-Com:  0.657D-06 0.232D-05 0.397D-05-0.124D-03-0.334D-03 0.220D-02
 Coeff-Com: -0.494D-02-0.866D-03 0.382D-01-0.595D-01-0.169D+00 0.119D+01
 Coeff:      0.657D-06 0.232D-05 0.397D-05-0.124D-03-0.334D-03 0.220D-02
 Coeff:     -0.494D-02-0.866D-03 0.382D-01-0.595D-01-0.169D+00 0.119D+01
 Gap=     0.362 Goal=   None    Shift=    0.000
 RMSDP=1.42D-08 MaxDP=3.38D-07 DE=-8.16D-11 OVMax= 1.22D-06

 Cycle  13  Pass 1  IDiag  1:
 E= -994.522492147160     Delta-E=       -0.000000000001 Rises=F Damp=F
 DIIS: error= 2.79D-08 at cycle  13 NSaved=  13.
 NSaved=13 IEnMin=13 EnMin= -994.522492147160     IErMin=13 ErrMin= 2.79D-08
 ErrMax= 2.79D-08  0.00D+00 EMaxC= 1.00D-01 BMatC= 8.90D-14 BMatP= 8.68D-13
 IDIUse=1 WtCom= 1.00D+00 WtEn= 0.00D+00
 Coeff-Com:  0.209D-06 0.165D-05 0.766D-06-0.301D-04-0.874D-04 0.533D-03
 Coeff-Com: -0.688D-03-0.453D-02 0.129D-01 0.116D-01-0.101D+00-0.674D-01
 Coeff-Com:  0.115D+01
 Coeff:      0.209D-06 0.165D-05 0.766D-06-0.301D-04-0.874D-04 0.533D-03
 Coeff:     -0.688D-03-0.453D-02 0.129D-01 0.116D-01-0.101D+00-0.674D-01
 Coeff:      0.115D+01
 Gap=     0.362 Goal=   None    Shift=    0.000
 RMSDP=4.37D-09 MaxDP=9.36D-08 DE=-9.09D-13 OVMax= 3.81D-07

 SCF Done:  E(RHF) =  -994.522492147     A.U. after   13 cycles
            NFock= 13  Conv=0.44D-08     -V/T= 2.0002
 KE= 9.943410603407D+02 PE=-2.621949629056D+03 EE= 5.109990749152D+02
 Leave Link  502 at Fri Oct  8 12:24:11 2021, MaxMem= 16106127360 cpu:              24.2 elap:               3.0
 (Enter /sw/contrib/gaussian/g16/B01/g16/l801.exe)
 ExpMin= 2.53D-02 ExpMax= 4.56D+05 ExpMxC= 1.44D+03 IAcc=3 IRadAn=         5 AccDes= 0.00D+00
 HarFok:  IExCor=  205 AccDes= 0.00D+00 IRadAn=         5 IDoV=-2 UseB2=F ITyADJ=14
 ICtDFT= 12500011 ScaDFX=  1.000000  1.000000  1.000000  1.000000
 Largest valence mixing into a core orbital is  4.47D-04
 Largest core mixing into a valence orbital is  1.72D-04
 Range of M.O.s used for correlation:    12   169
 NBasis=   169 NAE=    22 NBE=    22 NFC=    11 NFV=     0
 NROrb=    158 NOA=    11 NOB=    11 NVA=   147 NVB=   147

 **** Warning!!: The largest alpha MO coefficient is  0.20390664D+02

 Leave Link  801 at Fri Oct  8 12:24:11 2021, MaxMem= 16106127360 cpu:               2.0 elap:               0.1
 (Enter /sw/contrib/gaussian/g16/B01/g16/l906.exe)
 Frozen-core derivative calculation, NFC=  11 NFV=   0.
 FulOut=F Deriv=T AODrv=F NAtomX=     4
   MMem=         144  MDisk=          11 MDiskD=          11
  W3Min=      736164 MinDsk=     1250177 NBas6D=         198
 NBas2D=       20187    NTT=       19701    LW2=     3500000
    MDV= 16105751214 MDiskM=      406660 NBas2p=       19980
 Fully in-core method, ICMem=   420417501.
 IMap=   1   2   3   4   5   6   7   8   9  10  11  12  13  14  15  16  17  18  19  20
 IMap=  21  22
 JobTyp=1 Pass  1 fully in-core, NPsUse= 28.
 Compute canonical integrals.
 FoFCou: FMM=F IPFlag=           0 FMFlag=           0 FMFlg1=           0
         NFxFlg=           0 DoJE=F BraDBF=F KetDBF=F FulRan=T
         wScrn=  0.000000 ICntrl=       600 IOpCl=  1 I1Cent=           0 NGrid=           0
         NMat0=    1 NMatS0=  20187 NMatT0=    0 NMatD0=    1 NMtDS0=    0 NMtDT0=    0
 Symmetry not used in FoFCou.
 Spin components of T(2) and E(2):
     alpha-alpha T2 =       0.2954783615D-01 E2=     -0.8468268931D-01
     alpha-beta  T2 =       0.1602897962D+00 E2=     -0.5000660436D+00
     beta-beta   T2 =       0.2954783615D-01 E2=     -0.8468268931D-01
 The integrals were generated   1 times.
 ANorm=    0.1104257881D+01
 E2 =    -0.6694314222D+00 EUMP2 =    -0.99519192356938D+03
 Leave Link  906 at Fri Oct  8 12:24:16 2021, MaxMem= 16106127360 cpu:             115.9 elap:               4.2
 (Enter /sw/contrib/gaussian/g16/B01/g16/l1002.exe)
 Minotr:  Closed shell wavefunction.
          Computing MP2/KS-MP2 derivatives.
          Using Z-Vector for PSCF gradient.
          Skipping F1 and S1 gradient terms here.
          Frozen-core window.
          Direct CPHF calculation.
          Differentiating once with respect to electric field.
                with respect to dipole field.
          Electric field/nuclear overlap derivatives assumed to be zero.
          Requested convergence is 1.0D-10 RMS, and 1.0D-09 maximum.
          NewPWx=F KeepS1=T KeepF1=T KeepIn=T MapXYZ=F SortEE=F KeepMc=T.
 Keep R1 ints in memory in canonical form, NReq=117123329.
 FoFCou: FMM=F IPFlag=           0 FMFlag=           0 FMFlg1=           0
         NFxFlg=           0 DoJE=F BraDBF=F KetDBF=F FulRan=T
         wScrn=  0.000000 ICntrl=       600 IOpCl=  0 I1Cent=           0 NGrid=           0
         NMat0=    1 NMatS0=  14365 NMatT0=    0 NMatD0=    1 NMtDS0=    0 NMtDT0=    0
 Symmetry not used in FoFCou.
 Two-electron integral symmetry not used.
          MDV=   16106127360 using IRadAn=       5.
          Solving linear equations separately, MaxMat=       0.
          There are     1 degrees of freedom in the 1st order CPHF.  IDoFFX=0 NUNeed=     1.
 LinEq1:  Iter=  0 NonCon=     1 RMS=3.13D-03 Max=4.64D-02 NDo=     1
 AX will form     1 AO Fock derivatives at one time.
 LinEq1:  Iter=  1 NonCon=     1 RMS=3.94D-04 Max=5.12D-03 NDo=     1
 LinEq1:  Iter=  2 NonCon=     1 RMS=1.65D-04 Max=3.38D-03 NDo=     1
 LinEq1:  Iter=  3 NonCon=     1 RMS=6.39D-05 Max=1.06D-03 NDo=     1
 LinEq1:  Iter=  4 NonCon=     1 RMS=2.72D-05 Max=6.76D-04 NDo=     1
 LinEq1:  Iter=  5 NonCon=     1 RMS=6.03D-06 Max=7.44D-05 NDo=     1
 LinEq1:  Iter=  6 NonCon=     1 RMS=1.57D-06 Max=1.81D-05 NDo=     1
 LinEq1:  Iter=  7 NonCon=     1 RMS=3.35D-07 Max=4.36D-06 NDo=     1
 LinEq1:  Iter=  8 NonCon=     1 RMS=5.82D-08 Max=7.57D-07 NDo=     1
 LinEq1:  Iter=  9 NonCon=     1 RMS=1.43D-08 Max=1.87D-07 NDo=     1
 LinEq1:  Iter= 10 NonCon=     1 RMS=3.93D-09 Max=7.19D-08 NDo=     1
 LinEq1:  Iter= 11 NonCon=     1 RMS=1.05D-09 Max=2.21D-08 NDo=     1
 LinEq1:  Iter= 12 NonCon=     1 RMS=2.56D-10 Max=4.42D-09 NDo=     1
 LinEq1:  Iter= 13 NonCon=     0 RMS=5.54D-11 Max=6.54D-10 NDo=     1
 Linear equations converged to 1.000D-10 1.000D-09 after    13 iterations.
 End of Minotr F.D. properties file   721 does not exist.
 End of Minotr F.D. properties file   722 does not exist.
 End of Minotr F.D. properties file   788 does not exist.
 Leave Link 1002 at Fri Oct  8 12:24:19 2021, MaxMem= 16106127360 cpu:              26.0 elap:               3.4
 (Enter /sw/contrib/gaussian/g16/B01/g16/l601.exe)
 Copying SCF densities to generalized density rwf, IOpCl= 0 IROHF=0.

 **********************************************************************

            Population analysis using the MP2 Density.

 **********************************************************************

 Alpha  occ. eigenvalues -- -104.71978-104.55246 -20.44598 -10.43933 -10.27737
 Alpha  occ. eigenvalues --   -7.90649  -7.90394  -7.90385  -7.74356  -7.74336
 Alpha  occ. eigenvalues --   -7.74335  -1.20894  -0.88167  -0.79287  -0.52024
 Alpha  occ. eigenvalues --   -0.42812  -0.42007  -0.29771  -0.26804  -0.20793
 Alpha  occ. eigenvalues --   -0.20011  -0.20005
 Alpha virt. eigenvalues --    0.16159   0.18738   0.22590   0.23606   0.25797
 Alpha virt. eigenvalues --    0.27212   0.27432   0.29808   0.31136   0.32860
 Alpha virt. eigenvalues --    0.33808   0.35045   0.38488   0.45477   0.46338
 Alpha virt. eigenvalues --    0.51585   0.52480   0.53858   0.56271   0.56984
 Alpha virt. eigenvalues --    0.58363   0.60021   0.60727   0.65136   0.66132
 Alpha virt. eigenvalues --    0.68390   0.68524   0.75460   0.78633   0.78759
 Alpha virt. eigenvalues --    0.83096   0.87195   0.88312   0.90075   0.91317
 Alpha virt. eigenvalues --    0.92337   0.96874   1.01071   1.04092   1.05865
 Alpha virt. eigenvalues --    1.06587   1.09099   1.09365   1.10405   1.14153
 Alpha virt. eigenvalues --    1.15206   1.17175   1.18416   1.18837   1.21597
 Alpha virt. eigenvalues --    1.22960   1.24546   1.29741   1.32712   1.33263
 Alpha virt. eigenvalues --    1.37781   1.40904   1.42390   1.42801   1.47650
 Alpha virt. eigenvalues --    1.48641   1.50224   1.54228   1.62062   1.65923
 Alpha virt. eigenvalues --    1.67774   1.68408   1.72744   1.74770   1.79274
 Alpha virt. eigenvalues --    1.80600   1.84738   1.86876   1.91587   1.94276
 Alpha virt. eigenvalues --    2.01239   2.30061   2.39886   2.49784   2.52088
 Alpha virt. eigenvalues --    2.53856   2.59689   2.60665   2.62662   2.66374
 Alpha virt. eigenvalues --    2.69139   2.71451   2.72783   2.74063   2.77481
 Alpha virt. eigenvalues --    2.78062   2.80058   2.81936   2.82449   2.89061
 Alpha virt. eigenvalues --    2.91827   2.98981   2.99220   3.04351   3.09782
 Alpha virt. eigenvalues --    3.16599   3.16879   3.20923   3.22782   3.24537
 Alpha virt. eigenvalues --    3.28961   3.30568   3.32444   3.33721   3.34531
 Alpha virt. eigenvalues --    3.39814   3.39866   3.41615   3.46938   3.50927
 Alpha virt. eigenvalues --    3.54543   3.56577   3.59794   3.70544   3.95237
 Alpha virt. eigenvalues --    4.25322   4.29869   4.46493   4.52793   4.59305
 Alpha virt. eigenvalues --    4.78759   4.97875   5.15913   5.32615   5.33254
 Alpha virt. eigenvalues --    5.62534   6.43098   6.60159   6.69947   6.86529
 Alpha virt. eigenvalues --    6.91183   6.93038   7.01980   7.22847   7.28656
 Alpha virt. eigenvalues --    7.35823   7.45730   7.58232   7.78249   7.83642
 Alpha virt. eigenvalues --    8.34718  14.12257
          Condensed to atoms (all electrons):
               1          2          3          4
     1  O    8.663578  -0.122872  -0.100050   0.068494
     2  Cl  -0.122872  17.088313   0.004307  -0.003632
     3  Cl  -0.100050   0.004307  17.844010   0.069333
     4  H    0.068494  -0.003632   0.069333   0.572939
 Mulliken charges:
               1
     1  O   -0.509150
     2  Cl   0.033885
     3  Cl  -0.817600
     4  H    0.292865
 Sum of Mulliken charges =  -1.00000
 Mulliken charges with hydrogens summed into heavy atoms:
               1
     1  O   -0.216285
     2  Cl   0.033885
     3  Cl  -0.817600
 Electronic spatial extent (au):  <R**2>=            793.1617
 Charge=             -1.0000 electrons
 Dipole moment (field-independent basis, Debye):
    X=              1.3823    Y=              9.2781    Z=             -0.0000  Tot=              9.3805
 Quadrupole moment (field-independent basis, Debye-Ang):
   XX=            -39.0486   YY=            -65.6832   ZZ=            -36.6553
   XY=             -7.3677   XZ=              0.0000   YZ=              0.0000
 Traceless Quadrupole moment (field-independent basis, Debye-Ang):
   XX=              8.0804   YY=            -18.5541   ZZ=             10.4737
   XY=             -7.3677   XZ=              0.0000   YZ=              0.0000
 Octapole moment (field-independent basis, Debye-Ang**2):
  XXX=            -31.4194  YYY=            223.1879  ZZZ=             -0.0000  XYY=              8.6768
  XXY=             51.2034  XXZ=              0.0000  XZZ=            -11.8860  YZZ=             46.5809
  YYZ=             -0.0000  XYZ=             -0.0000
 Hexadecapole moment (field-independent basis, Debye-Ang**3):
 XXXX=           -306.6547 YYYY=          -1060.8835 ZZZZ=            -49.4775 XXXY=            -98.9070
 XXXZ=              0.0000 YYYX=           -150.8259 YYYZ=              0.0000 ZZZX=              0.0000
 ZZZY=              0.0000 XXYY=           -207.6557 XXZZ=            -63.9398 YYZZ=           -147.3833
 XXYZ=              0.0000 YYXZ=              0.0000 ZZXY=            -31.8257
 N-N= 1.220870016530D+02 E-N=-2.622001357528D+03  KE= 9.949994545807D+02
 No NMR shielding tensors so no spin-rotation constants.
 Leave Link  601 at Fri Oct  8 12:24:19 2021, MaxMem= 16106127360 cpu:               4.1 elap:               0.2
 (Enter /sw/contrib/gaussian/g16/B01/g16/l607.exe)
 ******************************Gaussian NBO Version 3.1******************************
             N A T U R A L   A T O M I C   O R B I T A L   A N D
          N A T U R A L   B O N D   O R B I T A L   A N A L Y S I S
 ******************************Gaussian NBO Version 3.1******************************
       /RESON  / : Allow strongly delocalized NBO set

 Analyzing the MP2 density

 Job title: title                                                           

 Storage needed:     86521 in NPA,    114817 in NBO (********** available)
 GSVD:  LWork=        1191 too small for GESVD, short by       52514 words or       52514 for optimal perf.


 NATURAL POPULATIONS:  Natural atomic orbital occupancies 
                                                          
   NAO  Atom  No  lang   Type(AO)    Occupancy
 --------------------------------------------
     1    O    1  S      Cor( 1S)     1.99970
     2    O    1  S      Val( 2S)     1.79782
     3    O    1  S      Ryd( 3S)     0.01008
     4    O    1  S      Ryd( 4S)     0.00112
     5    O    1  S      Ryd( 5S)     0.00018
     6    O    1  px     Val( 2p)     1.19751
     7    O    1  px     Ryd( 3p)     0.00687
     8    O    1  px     Ryd( 4p)     0.00063
     9    O    1  px     Ryd( 5p)     0.00043
    10    O    1  py     Val( 2p)     1.72327
    11    O    1  py     Ryd( 3p)     0.01265
    12    O    1  py     Ryd( 4p)     0.00075
    13    O    1  py     Ryd( 5p)     0.00043
    14    O    1  pz     Val( 2p)     1.94728
    15    O    1  pz     Ryd( 3p)     0.02051
    16    O    1  pz     Ryd( 4p)     0.00066
    17    O    1  pz     Ryd( 5p)     0.00013
    18    O    1  dxy    Ryd( 3d)     0.00855
    19    O    1  dxy    Ryd( 4d)     0.00047
    20    O    1  dxy    Ryd( 5d)     0.00014
    21    O    1  dxz    Ryd( 3d)     0.00876
    22    O    1  dxz    Ryd( 4d)     0.00058
    23    O    1  dxz    Ryd( 5d)     0.00010
    24    O    1  dyz    Ryd( 3d)     0.00736
    25    O    1  dyz    Ryd( 4d)     0.00062
    26    O    1  dyz    Ryd( 5d)     0.00037
    27    O    1  dx2y2  Ryd( 3d)     0.01342
    28    O    1  dx2y2  Ryd( 4d)     0.00038
    29    O    1  dx2y2  Ryd( 5d)     0.00017
    30    O    1  dz2    Ryd( 3d)     0.00954
    31    O    1  dz2    Ryd( 4d)     0.00058
    32    O    1  dz2    Ryd( 5d)     0.00015
    33    O    1  f(0)   Ryd( 4f)     0.00069
    34    O    1  f(0)   Ryd( 5f)     0.00010
    35    O    1  f(C1)  Ryd( 4f)     0.00067
    36    O    1  f(C1)  Ryd( 5f)     0.00012
    37    O    1  f(S1)  Ryd( 4f)     0.00060
    38    O    1  f(S1)  Ryd( 5f)     0.00011
    39    O    1  f(C2)  Ryd( 4f)     0.00060
    40    O    1  f(C2)  Ryd( 5f)     0.00013
    41    O    1  f(S2)  Ryd( 4f)     0.00054
    42    O    1  f(S2)  Ryd( 5f)     0.00012
    43    O    1  f(C3)  Ryd( 4f)     0.00059
    44    O    1  f(C3)  Ryd( 5f)     0.00014
    45    O    1  f(S3)  Ryd( 4f)     0.00055
    46    O    1  f(S3)  Ryd( 5f)     0.00013

    47   Cl    2  S      Cor( 1S)     2.00000
    48   Cl    2  S      Cor( 2S)     1.99978
    49   Cl    2  S      Val( 3S)     1.88003
    50   Cl    2  S      Ryd( 4S)     0.00821
    51   Cl    2  S      Ryd( 5S)     0.00054
    52   Cl    2  S      Ryd( 6S)     0.00017
    53   Cl    2  px     Cor( 2p)     1.99996
    54   Cl    2  px     Val( 3p)     0.91861
    55   Cl    2  px     Ryd( 4p)     0.00673
    56   Cl    2  px     Ryd( 5p)     0.00053
    57   Cl    2  px     Ryd( 6p)     0.00021
    58   Cl    2  py     Cor( 2p)     2.00003
    59   Cl    2  py     Val( 3p)     1.95311
    60   Cl    2  py     Ryd( 4p)     0.01004
    61   Cl    2  py     Ryd( 5p)     0.00052
    62   Cl    2  py     Ryd( 6p)     0.00008
    63   Cl    2  pz     Cor( 2p)     2.00003
    64   Cl    2  pz     Val( 3p)     1.95420
    65   Cl    2  pz     Ryd( 4p)     0.01089
    66   Cl    2  pz     Ryd( 5p)     0.00069
    67   Cl    2  pz     Ryd( 6p)     0.00002
    68   Cl    2  dxy    Ryd( 3d)     0.01724
    69   Cl    2  dxy    Ryd( 4d)     0.00096
    70   Cl    2  dxy    Ryd( 5d)     0.00035
    71   Cl    2  dxz    Ryd( 3d)     0.02195
    72   Cl    2  dxz    Ryd( 4d)     0.00120
    73   Cl    2  dxz    Ryd( 5d)     0.00037
    74   Cl    2  dyz    Ryd( 3d)     0.01683
    75   Cl    2  dyz    Ryd( 4d)     0.00071
    76   Cl    2  dyz    Ryd( 5d)     0.00021
    77   Cl    2  dx2y2  Ryd( 3d)     0.01857
    78   Cl    2  dx2y2  Ryd( 4d)     0.00047
    79   Cl    2  dx2y2  Ryd( 5d)     0.00017
    80   Cl    2  dz2    Ryd( 3d)     0.01757
    81   Cl    2  dz2    Ryd( 4d)     0.00059
    82   Cl    2  dz2    Ryd( 5d)     0.00018
    83   Cl    2  f(0)   Ryd( 4f)     0.00131
    84   Cl    2  f(0)   Ryd( 5f)     0.00014
    85   Cl    2  f(C1)  Ryd( 4f)     0.00146
    86   Cl    2  f(C1)  Ryd( 5f)     0.00015
    87   Cl    2  f(S1)  Ryd( 4f)     0.00127
    88   Cl    2  f(S1)  Ryd( 5f)     0.00013
    89   Cl    2  f(C2)  Ryd( 4f)     0.00135
    90   Cl    2  f(C2)  Ryd( 5f)     0.00013
    91   Cl    2  f(S2)  Ryd( 4f)     0.00120
    92   Cl    2  f(S2)  Ryd( 5f)     0.00013
    93   Cl    2  f(C3)  Ryd( 4f)     0.00158
    94   Cl    2  f(C3)  Ryd( 5f)     0.00013
    95   Cl    2  f(S3)  Ryd( 4f)     0.00127
    96   Cl    2  f(S3)  Ryd( 5f)     0.00014

    97   Cl    3  S      Cor( 1S)     2.00000
    98   Cl    3  S      Cor( 2S)     1.99993
    99   Cl    3  S      Val( 3S)     1.95811
   100   Cl    3  S      Ryd( 4S)     0.00155
   101   Cl    3  S      Ryd( 5S)     0.00023
   102   Cl    3  S      Ryd( 6S)     0.00010
   103   Cl    3  px     Cor( 2p)     2.00003
   104   Cl    3  px     Val( 3p)     1.94529
   105   Cl    3  px     Ryd( 4p)     0.01212
   106   Cl    3  px     Ryd( 5p)     0.00056
   107   Cl    3  px     Ryd( 6p)     0.00008
   108   Cl    3  py     Cor( 2p)     2.00002
   109   Cl    3  py     Val( 3p)     1.83656
   110   Cl    3  py     Ryd( 4p)     0.01010
   111   Cl    3  py     Ryd( 5p)     0.00052
   112   Cl    3  py     Ryd( 6p)     0.00008
   113   Cl    3  pz     Cor( 2p)     2.00003
   114   Cl    3  pz     Val( 3p)     1.95230
   115   Cl    3  pz     Ryd( 4p)     0.01232
   116   Cl    3  pz     Ryd( 5p)     0.00056
   117   Cl    3  pz     Ryd( 6p)     0.00006
   118   Cl    3  dxy    Ryd( 3d)     0.01851
   119   Cl    3  dxy    Ryd( 4d)     0.00065
   120   Cl    3  dxy    Ryd( 5d)     0.00012
   121   Cl    3  dxz    Ryd( 3d)     0.01822
   122   Cl    3  dxz    Ryd( 4d)     0.00094
   123   Cl    3  dxz    Ryd( 5d)     0.00013
   124   Cl    3  dyz    Ryd( 3d)     0.01854
   125   Cl    3  dyz    Ryd( 4d)     0.00068
   126   Cl    3  dyz    Ryd( 5d)     0.00012
   127   Cl    3  dx2y2  Ryd( 3d)     0.01848
   128   Cl    3  dx2y2  Ryd( 4d)     0.00079
   129   Cl    3  dx2y2  Ryd( 5d)     0.00013
   130   Cl    3  dz2    Ryd( 3d)     0.01831
   131   Cl    3  dz2    Ryd( 4d)     0.00091
   132   Cl    3  dz2    Ryd( 5d)     0.00011
   133   Cl    3  f(0)   Ryd( 4f)     0.00127
   134   Cl    3  f(0)   Ryd( 5f)     0.00016
   135   Cl    3  f(C1)  Ryd( 4f)     0.00128
   136   Cl    3  f(C1)  Ryd( 5f)     0.00014
   137   Cl    3  f(S1)  Ryd( 4f)     0.00131
   138   Cl    3  f(S1)  Ryd( 5f)     0.00017
   139   Cl    3  f(C2)  Ryd( 4f)     0.00127
   140   Cl    3  f(C2)  Ryd( 5f)     0.00016
   141   Cl    3  f(S2)  Ryd( 4f)     0.00129
   142   Cl    3  f(S2)  Ryd( 5f)     0.00015
   143   Cl    3  f(C3)  Ryd( 4f)     0.00127
   144   Cl    3  f(C3)  Ryd( 5f)     0.00017
   145   Cl    3  f(S3)  Ryd( 4f)     0.00129
   146   Cl    3  f(S3)  Ryd( 5f)     0.00017

   147    H    4  S      Val( 1S)     0.50690
   148    H    4  S      Ryd( 2S)     0.00765
   149    H    4  S      Ryd( 3S)     0.00029
   150    H    4  S      Ryd( 4S)     0.00021
   151    H    4  px     Ryd( 2p)     0.00419
   152    H    4  px     Ryd( 3p)     0.00052
   153    H    4  px     Ryd( 4p)     0.00012
   154    H    4  py     Ryd( 2p)     0.00514
   155    H    4  py     Ryd( 3p)     0.00115
   156    H    4  py     Ryd( 4p)     0.00027
   157    H    4  pz     Ryd( 2p)     0.00535
   158    H    4  pz     Ryd( 3p)     0.00035
   159    H    4  pz     Ryd( 4p)     0.00030
   160    H    4  dxy    Ryd( 3d)     0.00026
   161    H    4  dxy    Ryd( 4d)     0.00011
   162    H    4  dxz    Ryd( 3d)     0.00023
   163    H    4  dxz    Ryd( 4d)     0.00007
   164    H    4  dyz    Ryd( 3d)     0.00040
   165    H    4  dyz    Ryd( 4d)     0.00011
   166    H    4  dx2y2  Ryd( 3d)     0.00021
   167    H    4  dx2y2  Ryd( 4d)     0.00012
   168    H    4  dz2    Ryd( 3d)     0.00024
   169    H    4  dz2    Ryd( 4d)     0.00009


 Summary of Natural Population Analysis:                  
                                                          
                                       Natural Population 
                Natural  -----------------------------------------------
    Atom  No    Charge         Core      Valence    Rydberg      Total
 -----------------------------------------------------------------------
      O    1   -0.77629      1.99970     6.66588    0.11070     8.77629
     Cl    2    0.14785      9.99980     6.70595    0.14639    16.85215
     Cl    3   -0.83728     10.00001     7.69227    0.14501    17.83728
      H    4    0.46572      0.00000     0.50690    0.02738     0.53428
 =======================================================================
   * Total *   -1.00000     21.99951    21.57101    0.42948    44.00000

                                 Natural Population      
 --------------------------------------------------------
   Core                      21.99951 ( 99.9978% of  22)
   Valence                   21.57101 ( 98.0500% of  22)
   Natural Minimal Basis     43.57052 ( 99.0239% of  44)
   Natural Rydberg Basis      0.42948 (  0.9761% of  44)
 --------------------------------------------------------

    Atom  No          Natural Electron Configuration
 ----------------------------------------------------------------------------
      O    1      [core]2S( 1.80)2p( 4.87)3S( 0.01)3p( 0.04)3d( 0.05)
     Cl    2      [core]3S( 1.88)3p( 4.83)4S( 0.01)3d( 0.09)4p( 0.03)4f( 0.01)
     Cl    3      [core]3S( 1.96)3p( 5.73)3d( 0.09)4p( 0.03)4f( 0.01)
      H    4            1S( 0.51)2S( 0.01)2p( 0.01)


 NATURAL BOND ORBITAL ANALYSIS:
 Warning:  a bond orbital has occupanc of -0.00004
 Warning:  a bond orbital has occupanc of -0.00000

                       Occupancies       Lewis Structure    Low   High
           Occ.    -------------------  -----------------   occ   occ
  Cycle   Thresh.   Lewis   Non-Lewis     CR  BD  3C  LP    (L)   (NL)   Dev
 =============================================================================
   1(1)    1.90    43.39862   0.60138     11   2   0   9     1      1    0.20
 Warning:  a bond orbital has occupanc of -0.00004
 Warning:  a bond orbital has occupanc of -0.00000
   2(2)    1.90    43.18566   0.81434     11   2   0   9     1      1    0.51
 Warning:  a bond orbital has occupanc of -0.00004
 Warning:  a bond orbital has occupanc of -0.00000
   3(3)    1.90    43.39862   0.60138     11   2   0   9     1      1    0.20
 Warning:  a bond orbital has occupanc of -0.00004
 Warning:  a bond orbital has occupanc of -0.00000
   4(1)    1.80    43.39862   0.60138     11   2   0   9     0      1    0.20
 Warning:  a bond orbital has occupanc of -0.00004
 Warning:  a bond orbital has occupanc of -0.00000
   5(2)    1.80    43.39862   0.60138     11   2   0   9     0      1    0.20
 Warning:  a bond orbital has occupanc of -0.00004
 Warning:  a bond orbital has occupanc of -0.00000
   6(1)    1.70    43.39862   0.60138     11   2   0   9     0      1    0.20
 Warning:  a bond orbital has occupanc of -0.00004
 Warning:  a bond orbital has occupanc of -0.00000
   7(2)    1.70    43.39862   0.60138     11   2   0   9     0      1    0.20
 Warning:  a bond orbital has occupanc of -0.00004
 Warning:  a bond orbital has occupanc of -0.00000
   8(1)    1.60    43.05378   0.94622     11   1   0  10     0      1    0.51
 Warning:  a bond orbital has occupanc of -0.00004
 Warning:  a bond orbital has occupanc of -0.00000
   9(2)    1.60    43.05378   0.94622     11   1   0  10     0      1    0.51
 Warning:  a bond orbital has occupanc of -0.00004
 Warning:  a bond orbital has occupanc of -0.00000
  10(1)    1.50    43.05378   0.94622     11   1   0  10     0      1    0.51
 Warning:  a bond orbital has occupanc of -0.00004
 Warning:  a bond orbital has occupanc of -0.00000
  11(2)    1.50    43.05378   0.94622     11   1   0  10     0      1    0.51
 Warning:  a bond orbital has occupanc of -0.00004
 Warning:  a bond orbital has occupanc of -0.00000
  12(1)    1.90    43.39862   0.60138     11   2   0   9     1      1    0.20
 -----------------------------------------------------------------------------

 Structure accepted: RESONANCE keyword permits strongly delocalized structure

 --------------------------------------------------------
   Core                     21.99951 ( 99.998% of  22)
   Valence Lewis            21.39910 ( 97.269% of  22)
  ==================       ============================
   Total Lewis              43.39862 ( 98.633% of  44)
  -----------------------------------------------------
   Valence non-Lewis         0.21821 (  0.496% of  44)
   Rydberg non-Lewis         0.38318 (  0.871% of  44)
  ==================       ============================
   Total non-Lewis           0.60138 (  1.367% of  44)
 --------------------------------------------------------


       (Occupancy)   Bond orbital/ Coefficients/ Hybrids
 ---------------------------------------------------------------------------------
     1. (1.93921) BD ( 1) O   1 -Cl   2  
                ( 58.40%)   0.7642* O   1 s( 10.58%)p 8.40( 88.89%)d 0.05(  0.52%)
                                                  f 0.00(  0.02%)
                                            0.0003  0.3215 -0.0465 -0.0157 -0.0006
                                            0.9410 -0.0344 -0.0106 -0.0127 -0.0326
                                           -0.0276 -0.0050  0.0004  0.0000  0.0000
                                            0.0000  0.0000 -0.0200 -0.0013  0.0026
                                            0.0000  0.0000  0.0000  0.0000  0.0000
                                            0.0000  0.0541  0.0045  0.0026 -0.0425
                                           -0.0036  0.0004  0.0000  0.0000 -0.0112
                                            0.0012 -0.0002  0.0002  0.0000  0.0000
                                            0.0000  0.0000  0.0065  0.0008 -0.0007
                                            0.0019
                ( 41.60%)   0.6449*Cl   2 s(  8.81%)p10.20( 89.94%)d 0.13(  1.13%)
                                                  f 0.01(  0.11%)
                                           -0.0000  0.0005  0.2910 -0.0579 -0.0104
                                           -0.0022 -0.0004 -0.9459  0.0659  0.0139
                                           -0.0046 -0.0000 -0.0111 -0.0015  0.0028
                                           -0.0010  0.0000  0.0000  0.0000  0.0000
                                            0.0000  0.0126 -0.0000  0.0006  0.0000
                                            0.0000  0.0000  0.0000  0.0000  0.0000
                                            0.0886 -0.0112 -0.0005 -0.0562  0.0066
                                            0.0011  0.0000  0.0000  0.0211 -0.0031
                                            0.0005 -0.0002  0.0000  0.0000  0.0000
                                            0.0000 -0.0258  0.0030 -0.0016  0.0002
     2. (1.96293) BD ( 1) O   1 - H   4  
                ( 80.81%)   0.8990* O   1 s( 28.22%)p 2.53( 71.32%)d 0.02(  0.45%)
                                                  f 0.00(  0.01%)
                                           -0.0003 -0.5312  0.0016  0.0080 -0.0027
                                            0.2076 -0.0147 -0.0027 -0.0042  0.8184
                                           -0.0009 -0.0060 -0.0037  0.0000  0.0000
                                            0.0000  0.0000  0.0019  0.0023  0.0003
                                            0.0000  0.0000  0.0000  0.0000  0.0000
                                            0.0000  0.0569  0.0064  0.0011  0.0338
                                            0.0015 -0.0037  0.0000  0.0000 -0.0019
                                           -0.0005 -0.0089  0.0001  0.0000  0.0000
                                            0.0000  0.0000 -0.0021 -0.0022  0.0003
                                           -0.0015
                ( 19.19%)   0.4380* H   4 s( 99.80%)p 0.00(  0.20%)d 0.00(  0.00%)
                                           -0.9980 -0.0437 -0.0063  0.0011 -0.0089
                                           -0.0113 -0.0026  0.0197 -0.0350  0.0112
                                            0.0000  0.0000  0.0000  0.0005  0.0010
                                            0.0000  0.0000  0.0000  0.0000  0.0027
                                            0.0020 -0.0003  0.0048
     3. (1.99970) CR ( 1) O   1           s(100.00%)p 0.00(  0.00%)
                                            1.0000 -0.0004  0.0000  0.0000 -0.0000
                                           -0.0002  0.0000  0.0000  0.0000  0.0001
                                            0.0000 -0.0000 -0.0000  0.0000  0.0000
                                            0.0000  0.0000  0.0000  0.0000 -0.0000
                                            0.0000  0.0000  0.0000  0.0000  0.0000
                                            0.0000 -0.0000  0.0000  0.0000  0.0000
                                            0.0000 -0.0000  0.0000  0.0000  0.0000
                                           -0.0000 -0.0000 -0.0000  0.0000  0.0000
                                            0.0000  0.0000 -0.0000 -0.0000 -0.0000
                                           -0.0000
     4. (2.00000) CR ( 1)Cl   2           s(100.00%)
                                            1.0000  0.0000 -0.0000 -0.0000 -0.0000
                                           -0.0000 -0.0000 -0.0000  0.0000  0.0000
                                           -0.0000 -0.0000 -0.0000 -0.0000  0.0000
                                           -0.0000  0.0000  0.0000  0.0000  0.0000
                                            0.0000  0.0000 -0.0000  0.0000  0.0000
                                            0.0000  0.0000  0.0000  0.0000  0.0000
                                            0.0000 -0.0000 -0.0000 -0.0000  0.0000
                                            0.0000  0.0000  0.0000  0.0000 -0.0000
                                            0.0000 -0.0000  0.0000  0.0000  0.0000
                                            0.0000 -0.0000  0.0000 -0.0000  0.0000
     5. (1.99978) CR ( 2)Cl   2           s(100.00%)p 0.00(  0.00%)
                                            0.0000  1.0000 -0.0004  0.0000  0.0000
                                            0.0000  0.0000  0.0004 -0.0000 -0.0000
                                            0.0000  0.0000  0.0000  0.0000 -0.0000
                                            0.0000  0.0000  0.0000  0.0000  0.0000
                                            0.0000 -0.0000  0.0000 -0.0000  0.0000
                                            0.0000  0.0000  0.0000  0.0000  0.0000
                                           -0.0000  0.0000  0.0000  0.0000 -0.0000
                                           -0.0000  0.0000  0.0000 -0.0000  0.0000
                                           -0.0000  0.0000  0.0000  0.0000  0.0000
                                            0.0000  0.0000 -0.0000  0.0000 -0.0000
     6. (1.99996) CR ( 3)Cl   2           s(  0.00%)p 1.00(100.00%)
                                           -0.0000  0.0000  0.0001 -0.0000 -0.0000
                                           -0.0000  1.0000 -0.0004  0.0000  0.0000
                                           -0.0000  0.0000 -0.0000 -0.0000  0.0000
                                           -0.0000  0.0000  0.0000  0.0000  0.0000
                                            0.0000  0.0000 -0.0000  0.0000  0.0000
                                            0.0000  0.0000  0.0000  0.0000  0.0000
                                            0.0000 -0.0000 -0.0000 -0.0000  0.0000
                                            0.0000  0.0000  0.0000  0.0000 -0.0000
                                            0.0000 -0.0000  0.0000  0.0000  0.0000
                                            0.0000 -0.0000  0.0000 -0.0000  0.0000
     7. (2.00003) CR ( 4)Cl   2           s(  0.00%)p 1.00(100.00%)
                                           -0.0000  0.0000  0.0000  0.0000  0.0000
                                           -0.0000  0.0000 -0.0000  0.0000  0.0000
                                           -0.0000  1.0000  0.0002  0.0000  0.0000
                                            0.0000  0.0000  0.0000  0.0000  0.0000
                                            0.0000  0.0000  0.0000  0.0000  0.0000
                                            0.0000  0.0000  0.0000  0.0000  0.0000
                                           -0.0000 -0.0000 -0.0000 -0.0000 -0.0000
                                           -0.0000  0.0000  0.0000  0.0000  0.0000
                                           -0.0000  0.0000  0.0000  0.0000  0.0000
                                            0.0000 -0.0000  0.0000  0.0000 -0.0000
     8. (2.00003) CR ( 5)Cl   2           s(  0.00%)p 1.00(100.00%)
                                            0.0000  0.0000  0.0000  0.0000  0.0000
                                            0.0000  0.0000  0.0000  0.0000  0.0000
                                            0.0000  0.0000  0.0000  0.0000  0.0000
                                            0.0000  1.0000  0.0002  0.0000  0.0000
                                           -0.0000  0.0000  0.0000  0.0000  0.0000
                                            0.0000  0.0000  0.0000  0.0000  0.0000
                                            0.0000  0.0000  0.0000  0.0000  0.0000
                                            0.0000 -0.0000  0.0000  0.0000  0.0000
                                            0.0000  0.0000  0.0000 -0.0000  0.0000
                                           -0.0000  0.0000  0.0000  0.0000  0.0000
     9. (2.00000) CR ( 1)Cl   3           s(100.00%)
                                            1.0000  0.0000  0.0000 -0.0000  0.0000
                                           -0.0000  0.0000 -0.0000  0.0000 -0.0000
                                            0.0000 -0.0000 -0.0000  0.0000 -0.0000
                                            0.0000  0.0000  0.0000  0.0000  0.0000
                                            0.0000 -0.0000 -0.0000 -0.0000  0.0000
                                            0.0000  0.0000  0.0000  0.0000  0.0000
                                            0.0000 -0.0000  0.0000  0.0000  0.0000
                                            0.0000  0.0000  0.0000  0.0000  0.0000
                                           -0.0000 -0.0000  0.0000  0.0000  0.0000
                                            0.0000  0.0000  0.0000 -0.0000 -0.0000
    10. (1.99993) CR ( 2)Cl   3           s(100.00%)
                                            0.0000  1.0000 -0.0001  0.0000 -0.0000
                                            0.0000  0.0000  0.0000 -0.0000  0.0000
                                           -0.0000  0.0000  0.0000 -0.0000  0.0000
                                           -0.0000  0.0000  0.0000  0.0000  0.0000
                                            0.0000  0.0000  0.0000  0.0000  0.0000
                                            0.0000  0.0000  0.0000  0.0000  0.0000
                                           -0.0000  0.0000 -0.0000 -0.0000 -0.0000
                                           -0.0000  0.0000  0.0000 -0.0000 -0.0000
                                            0.0000  0.0000  0.0000  0.0000  0.0000
                                            0.0000  0.0000  0.0000  0.0000  0.0000
    11. (2.00003) CR ( 3)Cl   3           s(  0.00%)p 1.00(100.00%)
                                            0.0000  0.0000  0.0000  0.0000 -0.0000
                                            0.0000  1.0000  0.0000  0.0000  0.0000
                                           -0.0000  0.0000 -0.0000 -0.0000 -0.0000
                                            0.0000  0.0000  0.0000  0.0000  0.0000
                                            0.0000  0.0000  0.0000 -0.0000  0.0000
                                            0.0000  0.0000  0.0000  0.0000  0.0000
                                            0.0000 -0.0000 -0.0000  0.0000  0.0000
                                            0.0000  0.0000  0.0000 -0.0000 -0.0000
                                            0.0000  0.0000  0.0000  0.0000  0.0000
                                            0.0000 -0.0000 -0.0000  0.0000  0.0000
    12. (2.00002) CR ( 4)Cl   3           s(  0.00%)p 1.00(100.00%)
                                           -0.0000  0.0000  0.0000 -0.0000  0.0000
                                           -0.0000  0.0000 -0.0000  0.0000 -0.0000
                                            0.0000  1.0000 -0.0000  0.0000 -0.0000
                                            0.0000  0.0000  0.0000  0.0000  0.0000
                                            0.0000 -0.0000 -0.0000 -0.0000  0.0000
                                            0.0000  0.0000  0.0000  0.0000  0.0000
                                            0.0000 -0.0000  0.0000  0.0000  0.0000
                                            0.0000  0.0000  0.0000  0.0000  0.0000
                                           -0.0000 -0.0000  0.0000  0.0000  0.0000
                                            0.0000  0.0000  0.0000 -0.0000 -0.0000
    13. (2.00003) CR ( 5)Cl   3           s(  0.00%)p 1.00(100.00%)
                                            0.0000  0.0000  0.0000  0.0000  0.0000
                                            0.0000  0.0000  0.0000  0.0000  0.0000
                                            0.0000  0.0000  0.0000  0.0000  0.0000
                                            0.0000  1.0000  0.0000  0.0000  0.0000
                                           -0.0000  0.0000  0.0000  0.0000  0.0000
                                            0.0000 -0.0000  0.0000  0.0000 -0.0000
                                            0.0000  0.0000  0.0000  0.0000  0.0000
                                            0.0000 -0.0000 -0.0000  0.0000  0.0000
                                            0.0000  0.0000 -0.0000 -0.0000  0.0000
                                            0.0000  0.0000  0.0000  0.0000  0.0000
    14. (1.96595) LP ( 1) O   1           s( 61.37%)p 0.63( 38.54%)d 0.00(  0.09%)
                                                  f 0.00(  0.00%)
                                            0.0002  0.7833  0.0100  0.0085 -0.0018
                                           -0.2470 -0.0016 -0.0041 -0.0021  0.5694
                                            0.0083  0.0058  0.0020  0.0000  0.0000
                                            0.0000  0.0000  0.0222  0.0021 -0.0035
                                            0.0000  0.0000  0.0000  0.0000  0.0000
                                            0.0000  0.0146  0.0001 -0.0042  0.0110
                                            0.0006  0.0006  0.0000  0.0000 -0.0000
                                            0.0005 -0.0026  0.0000  0.0000  0.0000
                                            0.0000  0.0000  0.0033 -0.0023  0.0039
                                           -0.0016
    15. (1.95167) LP ( 2) O   1           s(  0.00%)p 1.00( 99.82%)d 0.00(  0.17%)
                                                  f 0.00(  0.01%)
                                            0.0000  0.0000  0.0000  0.0000  0.0000
                                            0.0000  0.0000  0.0000  0.0000  0.0000
                                            0.0000  0.0000  0.0000  0.9989  0.0179
                                            0.0059  0.0075  0.0000  0.0000  0.0000
                                            0.0311  0.0050 -0.0009 -0.0236  0.0044
                                            0.0120  0.0000  0.0000  0.0000  0.0000
                                            0.0000  0.0000 -0.0097  0.0004  0.0000
                                            0.0000  0.0000  0.0000  0.0055 -0.0024
                                            0.0007  0.0013  0.0000  0.0000  0.0000
                                            0.0000
    16. (1.97398) LP ( 1)Cl   2           s( 91.39%)p 0.09(  8.59%)d 0.00(  0.02%)
                                                  f 0.00(  0.00%)
                                            0.0000  0.0003  0.9559  0.0070  0.0012
                                            0.0003  0.0000  0.2917 -0.0064 -0.0031
                                            0.0014  0.0000 -0.0277  0.0013  0.0001
                                           -0.0005  0.0000  0.0000  0.0000  0.0000
                                            0.0000 -0.0002 -0.0005 -0.0004  0.0000
                                            0.0000  0.0000  0.0000  0.0000  0.0000
                                           -0.0124  0.0005  0.0001  0.0079  0.0005
                                            0.0003  0.0000  0.0000 -0.0021 -0.0004
                                            0.0001 -0.0000  0.0000  0.0000  0.0000
                                            0.0000  0.0034 -0.0001 -0.0004  0.0002
    17. (1.95591) LP ( 2)Cl   2           s(  0.00%)p 1.00( 99.94%)d 0.00(  0.05%)
                                                  f 0.00(  0.01%)
                                            0.0000  0.0000  0.0000  0.0000  0.0000
                                            0.0000  0.0000  0.0000  0.0000  0.0000
                                            0.0000  0.0000  0.0000  0.0000  0.0000
                                            0.0000 -0.0002  0.9996  0.0157  0.0052
                                           -0.0024  0.0000  0.0000  0.0000  0.0093
                                            0.0187  0.0081  0.0034  0.0028  0.0005
                                            0.0000  0.0000  0.0000  0.0000  0.0000
                                            0.0000 -0.0054  0.0011  0.0000  0.0000
                                            0.0000  0.0000  0.0065 -0.0011  0.0008
                                           -0.0007  0.0000  0.0000  0.0000  0.0000
    18. (1.95470) LP ( 3)Cl   2           s(  0.09%)p99.99( 99.85%)d 0.45(  0.04%)
                                                  f 0.09(  0.01%)
                                            0.0000 -0.0000  0.0299  0.0060  0.0036
                                           -0.0018  0.0000 -0.0035 -0.0004 -0.0002
                                           -0.0007 -0.0002  0.9992  0.0133  0.0015
                                            0.0001  0.0000  0.0000  0.0000  0.0000
                                            0.0000  0.0008  0.0165  0.0078  0.0000
                                            0.0000  0.0000  0.0000  0.0000  0.0000
                                           -0.0074 -0.0046 -0.0027 -0.0008 -0.0027
                                           -0.0002  0.0000  0.0000  0.0001  0.0003
                                           -0.0023  0.0002  0.0000  0.0000  0.0000
                                            0.0000 -0.0012  0.0002  0.0086 -0.0016
    19. (1.97651) LP ( 1)Cl   3           s( 88.80%)p 0.13( 11.20%)d 0.00(  0.00%)
                                                  f 0.00(  0.00%)
                                           -0.0000  0.0002  0.9423 -0.0004  0.0011
                                           -0.0003 -0.0000 -0.0858  0.0003 -0.0003
                                            0.0000 -0.0000 -0.3234  0.0023 -0.0007
                                            0.0001  0.0000  0.0000  0.0000  0.0000
                                            0.0000 -0.0008 -0.0001 -0.0003  0.0000
                                            0.0000  0.0000  0.0000  0.0000  0.0000
                                            0.0014 -0.0001  0.0004  0.0011  0.0001
                                            0.0005  0.0000  0.0000 -0.0000  0.0000
                                           -0.0001 -0.0001  0.0000  0.0000  0.0000
                                            0.0000 -0.0001 -0.0000 -0.0001 -0.0001
    20. (1.95262) LP ( 2)Cl   3           s(  0.00%)p 1.00( 99.98%)d 0.00(  0.01%)
                                                  f 0.00(  0.00%)
                                            0.0000  0.0000  0.0000  0.0000  0.0000
                                            0.0000  0.0000  0.0000  0.0000  0.0000
                                            0.0000  0.0000  0.0000  0.0000  0.0000
                                            0.0000 -0.0000  0.9999  0.0034  0.0019
                                           -0.0006  0.0000  0.0000  0.0000  0.0024
                                            0.0002 -0.0004  0.0110  0.0016 -0.0014
                                            0.0000  0.0000  0.0000  0.0000  0.0000
                                            0.0000 -0.0025 -0.0013  0.0000  0.0000
                                            0.0000  0.0000 -0.0027 -0.0014  0.0014
                                            0.0008  0.0000  0.0000  0.0000  0.0000
    21. (1.95224) LP ( 3)Cl   3           s(  0.01%)p 1.00( 99.98%)d 0.00(  0.01%)
                                                  f 0.00(  0.00%)
                                            0.0000 -0.0000  0.0077  0.0005 -0.0003
                                            0.0004 -0.0000  0.9718  0.0034  0.0016
                                           -0.0006  0.0000 -0.2354 -0.0007 -0.0005
                                            0.0002  0.0000  0.0000  0.0000  0.0000
                                            0.0000  0.0110  0.0013 -0.0013  0.0000
                                            0.0000  0.0000  0.0000  0.0000  0.0000
                                            0.0046 -0.0001 -0.0011  0.0001  0.0001
                                            0.0001  0.0000  0.0000 -0.0010 -0.0005
                                            0.0002  0.0001  0.0000  0.0000  0.0000
                                            0.0000 -0.0029 -0.0013  0.0023  0.0011
    22. (1.81339) LP ( 4)Cl   3           s( 11.19%)p 7.93( 88.72%)d 0.01(  0.08%)
                                                  f 0.00(  0.01%)
                                            0.0000 -0.0000  0.3344  0.0012 -0.0033
                                            0.0009  0.0000  0.2192 -0.0011 -0.0006
                                            0.0001 -0.0000  0.9160 -0.0068 -0.0043
                                            0.0015  0.0000  0.0000  0.0000  0.0000
                                            0.0000  0.0111  0.0021 -0.0000  0.0000
                                            0.0000  0.0000  0.0000  0.0000  0.0000
                                           -0.0218 -0.0035  0.0010 -0.0150 -0.0030
                                           -0.0002  0.0000  0.0000 -0.0012 -0.0006
                                           -0.0048 -0.0021  0.0000  0.0000  0.0000
                                            0.0000 -0.0039 -0.0015 -0.0045 -0.0015
    23. (0.02009) RY*( 1) O   1           s(  0.00%)p 1.00( 98.86%)d 0.01(  1.09%)
                                                  f 0.00(  0.05%)
                                            0.0000  0.0000  0.0000  0.0000  0.0000
                                            0.0000  0.0000  0.0000  0.0000  0.0000
                                            0.0000  0.0000  0.0000 -0.0219  0.9933
                                           -0.0346 -0.0155  0.0000  0.0000  0.0000
                                            0.0799  0.0275  0.0092 -0.0585  0.0027
                                            0.0167  0.0000  0.0000  0.0000  0.0000
                                            0.0000  0.0000 -0.0117  0.0102  0.0000
                                            0.0000  0.0000  0.0000  0.0117 -0.0106
                                           -0.0026  0.0015  0.0000  0.0000  0.0000
                                            0.0000
    24. (0.01644) RY*( 2) O   1           s( 28.65%)p 2.42( 69.39%)d 0.06(  1.78%)
                                                  f 0.01(  0.18%)
                                           -0.0000  0.0040  0.5342 -0.0309 -0.0098
                                            0.0373 -0.3349 -0.0069  0.0235 -0.0167
                                            0.7594 -0.0036 -0.0529  0.0000  0.0000
                                            0.0000  0.0000  0.1205  0.0261  0.0087
                                            0.0000  0.0000  0.0000  0.0000  0.0000
                                            0.0000  0.0214  0.0054  0.0034  0.0445
                                            0.0026 -0.0064  0.0000  0.0000 -0.0043
                                            0.0008  0.0034  0.0018  0.0000  0.0000
                                            0.0000  0.0000  0.0309 -0.0140  0.0218
                                           -0.0116
    25. (0.00812) RY*( 3) O   1           s( 20.44%)p 0.67( 13.69%)d 3.17( 64.82%)
                                                  f 0.05(  1.05%)
                                           -0.0000  0.0154  0.4456 -0.0734  0.0134
                                           -0.0164 -0.1925  0.0097  0.0467 -0.0094
                                           -0.3008  0.0312 -0.0758 -0.0000 -0.0000
                                           -0.0000 -0.0000 -0.7525 -0.0109 -0.0240
                                           -0.0000 -0.0000 -0.0000 -0.0000 -0.0000
                                           -0.0000  0.1789  0.0010  0.0262  0.2200
                                           -0.0134  0.0038 -0.0000 -0.0000 -0.0227
                                            0.0149  0.0040  0.0019 -0.0000 -0.0000
                                           -0.0000 -0.0000 -0.0302  0.0126 -0.0851
                                            0.0380
    26. (0.00703) RY*( 4) O   1           s(  0.00%)p 1.00(  0.36%)d99.99( 97.90%)
                                                  f 4.81(  1.74%)
                                            0.0000  0.0000  0.0000  0.0000  0.0000
                                            0.0000  0.0000  0.0000  0.0000  0.0000
                                            0.0000  0.0000  0.0000 -0.0198 -0.0550
                                           -0.0116 -0.0086  0.0000  0.0000  0.0000
                                            0.9181 -0.0408  0.0170  0.3656 -0.0202
                                            0.0092  0.0000  0.0000  0.0000  0.0000
                                            0.0000  0.0000 -0.0379  0.0160  0.0000
                                            0.0000  0.0000  0.0000  0.1121 -0.0514
                                           -0.0197  0.0104  0.0000  0.0000  0.0000
                                            0.0000
    27. (0.00645) RY*( 5) O   1           s(  1.45%)p14.70( 21.26%)d52.19( 75.48%)
                                                  f 1.25(  1.81%)
                                           -0.0000  0.0027  0.1109 -0.0458 -0.0079
                                           -0.0235 -0.2993  0.0012  0.0480 -0.0542
                                           -0.3409  0.0306 -0.0101  0.0000  0.0000
                                            0.0000  0.0000  0.5322 -0.0026  0.0314
                                            0.0000  0.0000  0.0000  0.0000  0.0000
                                            0.0000  0.5713 -0.0176  0.0309  0.3767
                                           -0.0284  0.0152  0.0000  0.0000  0.0120
                                           -0.0089 -0.0617  0.0360  0.0000  0.0000
                                            0.0000  0.0000  0.1035 -0.0421 -0.0108
                                            0.0119
    28. (0.00623) RY*( 6) O   1           s(  0.00%)p 1.00(  0.86%)d99.99( 97.89%)
                                                  f 1.46(  1.26%)
                                            0.0000  0.0000  0.0000  0.0000  0.0000
                                            0.0000  0.0000  0.0000  0.0000  0.0000
                                            0.0000  0.0000  0.0000  0.0321  0.0827
                                           -0.0093 -0.0248  0.0000  0.0000  0.0000
                                           -0.3595  0.0343  0.0050  0.9182 -0.0662
                                            0.0314  0.0000  0.0000  0.0000  0.0000
                                            0.0000  0.0000  0.0837 -0.0424  0.0000
                                            0.0000  0.0000  0.0000  0.0276 -0.0160
                                            0.0486 -0.0196  0.0000  0.0000  0.0000
                                            0.0000
    29. (0.00573) RY*( 7) O   1           s(  1.10%)p12.47( 13.73%)d75.36( 83.00%)
                                                  f 1.97(  2.16%)
                                           -0.0000  0.0201  0.0992 -0.0208  0.0182
                                            0.0740  0.3564 -0.0009 -0.0562 -0.0048
                                            0.0388  0.0053 -0.0102  0.0000  0.0000
                                            0.0000  0.0000  0.0871 -0.0205 -0.0155
                                            0.0000  0.0000  0.0000  0.0000  0.0000
                                            0.0000 -0.4071  0.0184  0.0074  0.8045
                                           -0.0916 -0.0021  0.0000  0.0000  0.1019
                                           -0.0396 -0.0230  0.0107  0.0000  0.0000
                                            0.0000  0.0000 -0.0800  0.0327  0.0359
                                           -0.0173
    30. (0.00377) RY*( 8) O   1           s( 29.58%)p 0.82( 24.24%)d 1.53( 45.13%)
                                                  f 0.04(  1.05%)
                                            0.0000 -0.0078  0.5190 -0.1605  0.0260
                                            0.0350 -0.0616  0.0260  0.0501  0.0316
                                           -0.4361  0.0706 -0.1952 -0.0000 -0.0000
                                           -0.0000 -0.0000  0.3177 -0.0250  0.0325
                                           -0.0000 -0.0000 -0.0000 -0.0000 -0.0000
                                           -0.0000 -0.4983  0.0454 -0.0107 -0.3040
                                            0.0746 -0.0151 -0.0000 -0.0000  0.0145
                                           -0.0058  0.0534 -0.0280 -0.0000 -0.0000
                                           -0.0000 -0.0000  0.0122 -0.0140  0.0744
                                           -0.0267
    31. (0.00242) RY*( 9) O   1           s( 14.09%)p 4.42( 62.30%)d 1.64( 23.13%)
                                                  f 0.03(  0.48%)
                                           -0.0000  0.0023  0.3674 -0.0761 -0.0113
                                            0.0142  0.7823 -0.0216 -0.0294 -0.0105
                                            0.0659  0.0209 -0.0683  0.0000  0.0000
                                            0.0000  0.0000  0.0558 -0.0169 -0.0085
                                            0.0000  0.0000  0.0000  0.0000  0.0000
                                            0.0000  0.4231 -0.0477  0.1085 -0.1776
                                            0.0491 -0.0275  0.0000  0.0000 -0.0260
                                            0.0344 -0.0008  0.0079  0.0000  0.0000
                                            0.0000  0.0000  0.0394 -0.0358 -0.0055
                                            0.0045
    32. (0.00076) RY*(10) O   1           s( 32.65%)p 1.76( 57.62%)d 0.26(  8.36%)
                                                  f 0.04(  1.37%)
                                           -0.0000 -0.0028  0.0290  0.5665  0.0691
                                            0.0102 -0.0218 -0.0608 -0.2492 -0.0086
                                            0.0005  0.6888 -0.1879  0.0000  0.0000
                                            0.0000  0.0000  0.0167 -0.1906 -0.1087
                                            0.0000  0.0000  0.0000  0.0000  0.0000
                                            0.0000  0.0262  0.0587  0.0351 -0.0033
                                            0.1142  0.1292  0.0000  0.0000  0.0186
                                            0.0007  0.0213  0.0169  0.0000  0.0000
                                            0.0000  0.0000 -0.1048  0.0342 -0.0171
                                           -0.0138
    33. (0.00065) RY*(11) O   1           s(  0.00%)p 1.00( 21.69%)d 2.46( 53.30%)
                                                  f 1.15( 25.02%)
                                            0.0000  0.0000  0.0000  0.0000  0.0000
                                            0.0000  0.0000  0.0000  0.0000  0.0000
                                            0.0000  0.0000  0.0000 -0.0043  0.0217
                                            0.4649 -0.0153  0.0000  0.0000  0.0000
                                            0.0236 -0.1879 -0.0095  0.0295  0.7032
                                            0.0414  0.0000  0.0000  0.0000  0.0000
                                            0.0000  0.0000  0.1506  0.0044  0.0000
                                            0.0000  0.0000  0.0000 -0.0485 -0.0234
                                            0.4701 -0.0595  0.0000  0.0000  0.0000
                                            0.0000
    34. (0.00062) RY*(12) O   1           s(  2.86%)p 1.10(  3.15%)d20.30( 58.06%)
                                                  f12.56( 35.93%)
                                           -0.0000  0.0037 -0.0100  0.1417  0.0917
                                            0.0078  0.0176 -0.0015  0.0620 -0.0051
                                           -0.0001 -0.1636 -0.0227  0.0000  0.0000
                                            0.0000  0.0000 -0.0567  0.1882 -0.0456
                                            0.0000  0.0000  0.0000  0.0000  0.0000
                                            0.0000 -0.0003  0.1854 -0.0274  0.0575
                                            0.7014  0.0977  0.0000  0.0000  0.4654
                                           -0.0534 -0.0567  0.0064  0.0000  0.0000
                                            0.0000  0.0000  0.3641 -0.0364  0.0517
                                            0.0046
    35. (0.00060) RY*(13) O   1           s(  0.00%)p 1.00( 73.95%)d 0.19( 13.92%)
                                                  f 0.16( 12.13%)
                                            0.0000  0.0000  0.0000  0.0000  0.0000
                                            0.0000  0.0000  0.0000  0.0000  0.0000
                                            0.0000  0.0000  0.0000 -0.0022  0.0204
                                            0.8290 -0.2276  0.0000  0.0000  0.0000
                                            0.0229  0.1538  0.0257 -0.0089 -0.3377
                                            0.0145  0.0000  0.0000  0.0000  0.0000
                                            0.0000  0.0000  0.0953  0.0183  0.0000
                                            0.0000  0.0000  0.0000 -0.1309 -0.0301
                                           -0.3050  0.0287  0.0000  0.0000  0.0000
                                            0.0000
    36. (0.00051) RY*(14) O   1           s(  0.00%)p 1.00(  1.19%)d50.09( 59.70%)
                                                  f32.82( 39.11%)
                                            0.0000  0.0000  0.0000  0.0000  0.0000
                                            0.0000  0.0000  0.0000  0.0000  0.0000
                                            0.0000  0.0000  0.0000 -0.0094 -0.0263
                                            0.0855 -0.0618  0.0000  0.0000  0.0000
                                           -0.0112  0.7654 -0.0838 -0.0191  0.0509
                                           -0.0321  0.0000  0.0000  0.0000  0.0000
                                            0.0000  0.0000 -0.3855 -0.0116  0.0000
                                            0.0000  0.0000  0.0000  0.3820  0.0189
                                            0.3097 -0.0112  0.0000  0.0000  0.0000
                                            0.0000
    37. (0.00051) RY*(15) O   1           s(  3.35%)p 4.54( 15.22%)d14.33( 48.05%)
                                                  f 9.96( 33.38%)
                                            0.0000  0.0008  0.0810  0.1571  0.0478
                                            0.0025 -0.0107 -0.1485 -0.0628  0.0035
                                           -0.0172 -0.3107  0.1712 -0.0000 -0.0000
                                           -0.0000 -0.0000  0.0421 -0.6843  0.0753
                                           -0.0000 -0.0000 -0.0000 -0.0000 -0.0000
                                           -0.0000 -0.0136  0.0228 -0.0425 -0.0257
                                           -0.0330 -0.0210 -0.0000 -0.0000  0.2170
                                            0.0086  0.3024  0.0035 -0.0000 -0.0000
                                           -0.0000 -0.0000  0.0703 -0.0176 -0.4340
                                           -0.0395
    38. (0.00047) RY*(16) O   1           s(  0.01%)p99.99( 80.69%)d99.99(  2.40%)
                                                  f99.99( 16.90%)
                                           -0.0000  0.0049  0.0089  0.0024 -0.0001
                                            0.0085 -0.0081  0.8915 -0.0974  0.0041
[...]
                                           -0.0850 -0.1654 -0.6064  0.0000  0.0000
                                            0.0572  0.0575  0.7676  0.0433  0.0000
                                            0.0000  0.0000  0.0000
   152. (0.00044) RY*( 7) H   4           s( 13.85%)p 5.48( 75.88%)d 0.74( 10.27%)
                                           -0.0029  0.0256  0.2132  0.3039 -0.0489
                                           -0.8148  0.1546 -0.0424  0.1828 -0.1829
                                           -0.0000 -0.0000 -0.0000 -0.2307 -0.0963
                                           -0.0000 -0.0000 -0.0000 -0.0000  0.0064
                                           -0.1178  0.1453 -0.0719
   153. (0.00033) RY*( 8) H   4           s( 26.41%)p 1.76( 46.46%)d 1.03( 27.13%)
                                           -0.0046 -0.0086  0.3235  0.3992 -0.0673
                                            0.4819  0.1690  0.0644 -0.1650 -0.4099
                                            0.0000  0.0000  0.0000 -0.4085  0.1463
                                            0.0000  0.0000  0.0000  0.0000  0.1405
                                           -0.1414  0.1713 -0.1179
   154. (0.00030) RY*( 9) H   4           s(  0.00%)p 1.00( 92.58%)d 0.08(  7.42%)
                                            0.0000  0.0000  0.0000  0.0000  0.0000
                                            0.0000  0.0000  0.0000  0.0000  0.0000
                                           -0.1217  0.9474 -0.1156  0.0000  0.0000
                                           -0.0654  0.1043  0.0835  0.2281  0.0000
                                            0.0000  0.0000  0.0000
   155. (0.00025) RY*(10) H   4           s(  0.90%)p18.42( 16.56%)d91.79( 82.54%)
                                            0.0094  0.0323  0.0218  0.0859 -0.0807
                                           -0.0581  0.1335  0.0012 -0.0841  0.3617
                                           -0.0000 -0.0000 -0.0000 -0.3687  0.0148
                                           -0.0000 -0.0000 -0.0000 -0.0000  0.5477
                                            0.0766 -0.5742  0.2315
   156. (0.00023) RY*(11) H   4           s(  0.00%)p 1.00(  0.75%)d99.99( 99.25%)
                                            0.0000  0.0000  0.0000  0.0000  0.0000
                                            0.0000  0.0000  0.0000  0.0000  0.0000
                                           -0.0169  0.0724 -0.0449  0.0000  0.0000
                                            0.9653 -0.2202 -0.0814  0.0747  0.0000
                                            0.0000  0.0000  0.0000
   157. (0.00021) RY*(12) H   4           s(  6.97%)p 4.45( 31.03%)d 8.89( 62.00%)
                                            0.0148  0.0203  0.0526  0.2575  0.0575
                                           -0.0171 -0.0500 -0.0251 -0.2793  0.4749
                                            0.0000  0.0000  0.0000  0.1495 -0.0985
                                            0.0000  0.0000  0.0000  0.0000  0.3552
                                            0.2153  0.6440  0.0272
   158. (0.00017) RY*(13) H   4           s( 10.02%)p 1.61( 16.13%)d 7.37( 73.85%)
                                           -0.0050 -0.0372  0.1420  0.2804  0.0824
                                           -0.0461 -0.2903 -0.0028  0.1350 -0.2233
                                            0.0000  0.0000  0.0000  0.6103  0.2547
                                            0.0000  0.0000  0.0000  0.0000  0.4498
                                           -0.1269 -0.2316 -0.1706
   159. (0.00012) RY*(14) H   4           s(  0.00%)p 1.00( 30.87%)d 2.24( 69.13%)
                                            0.0000  0.0000  0.0000  0.0000  0.0000
                                            0.0000  0.0000  0.0000  0.0000  0.0000
                                            0.0167  0.1985  0.5187  0.0000  0.0000
                                            0.0644 -0.1619  0.4980 -0.6426  0.0000
                                            0.0000  0.0000  0.0000
   160. (0.00013) RY*(15) H   4           s( 63.80%)p 0.26( 16.87%)d 0.30( 19.33%)
                                           -0.0042 -0.0467 -0.3609  0.7110  0.0016
                                            0.1726  0.1756  0.0109  0.2433  0.2208
                                            0.0000  0.0000  0.0000  0.1274 -0.2247
                                            0.0000  0.0000  0.0000  0.0000 -0.3083
                                           -0.0589 -0.1669  0.0150
   161. (0.00009) RY*(16) H   4           s(  4.04%)p 5.38( 21.73%)d18.36( 74.23%)
   162. (0.00007) RY*(17) H   4           s( 26.37%)p 1.32( 34.91%)d 1.47( 38.72%)
   163. (0.00006) RY*(18) H   4           s(  0.00%)p 1.00( 34.24%)d 1.92( 65.76%)
   164. (0.00005) RY*(19) H   4           s(  0.00%)p 1.00(  2.08%)d46.98( 97.92%)
   165. (0.00004) RY*(20) H   4           s(  8.51%)p 6.59( 56.14%)d 4.15( 35.35%)
   166. (0.00004) RY*(21) H   4           s( 19.18%)p 0.54( 10.39%)d 3.67( 70.43%)
   167. (0.00004) RY*(22) H   4           s(  3.12%)p 0.45(  1.40%)d30.61( 95.48%)
   168. (0.05780) BD*( 1) O   1 -Cl   2  
                ( 41.60%)   0.6449* O   1 s( 10.58%)p 8.40( 88.89%)d 0.05(  0.52%)
                                                  f 0.00(  0.02%)
                                           -0.0003 -0.3215  0.0465  0.0157  0.0006
                                           -0.9410  0.0344  0.0106  0.0127  0.0326
                                            0.0276  0.0050 -0.0004 -0.0000 -0.0000
                                           -0.0000 -0.0000  0.0200  0.0013 -0.0026
                                           -0.0000 -0.0000 -0.0000 -0.0000 -0.0000
                                           -0.0000 -0.0541 -0.0045 -0.0026  0.0425
                                            0.0036 -0.0004 -0.0000 -0.0000  0.0112
                                           -0.0012  0.0002 -0.0002 -0.0000 -0.0000
                                           -0.0000 -0.0000 -0.0065 -0.0008  0.0007
                                           -0.0019
                ( 58.40%)  -0.7642*Cl   2 s(  8.81%)p10.20( 89.94%)d 0.13(  1.13%)
                                                  f 0.01(  0.11%)
                                            0.0000 -0.0005 -0.2910  0.0579  0.0104
                                            0.0022  0.0004  0.9459 -0.0659 -0.0139
                                            0.0046  0.0000  0.0111  0.0015 -0.0028
                                            0.0010 -0.0000 -0.0000 -0.0000 -0.0000
                                           -0.0000 -0.0126  0.0000 -0.0006 -0.0000
                                           -0.0000 -0.0000 -0.0000 -0.0000 -0.0000
                                           -0.0886  0.0112  0.0005  0.0562 -0.0066
                                           -0.0011 -0.0000 -0.0000 -0.0211  0.0031
                                           -0.0005  0.0002 -0.0000 -0.0000 -0.0000
                                           -0.0000  0.0258 -0.0030  0.0016 -0.0002
   169. (0.16041) BD*( 1) O   1 - H   4  
                ( 19.19%)   0.4380* O   1 s( 28.22%)p 2.53( 71.32%)d 0.02(  0.45%)
                                                  f 0.00(  0.01%)
                                            0.0003  0.5312 -0.0016 -0.0080  0.0027
                                           -0.2076  0.0147  0.0027  0.0042 -0.8184
                                            0.0009  0.0060  0.0037 -0.0000 -0.0000
                                           -0.0000 -0.0000 -0.0019 -0.0023 -0.0003
                                           -0.0000 -0.0000 -0.0000 -0.0000 -0.0000
                                           -0.0000 -0.0569 -0.0064 -0.0011 -0.0338
                                           -0.0015  0.0037 -0.0000 -0.0000  0.0019
                                            0.0005  0.0089 -0.0001 -0.0000 -0.0000
                                           -0.0000 -0.0000  0.0021  0.0022 -0.0003
                                            0.0015
                ( 80.81%)  -0.8990* H   4 s( 99.80%)p 0.00(  0.20%)d 0.00(  0.00%)
                                            0.9980  0.0437  0.0063 -0.0011  0.0089
                                            0.0113  0.0026 -0.0197  0.0350 -0.0112
                                           -0.0000 -0.0000 -0.0000 -0.0005 -0.0010
                                           -0.0000 -0.0000 -0.0000 -0.0000 -0.0027
                                           -0.0020  0.0003 -0.0048


 NHO Directionality and "Bond Bending" (deviations from line of nuclear centers)

         [Thresholds for printing:  angular deviation  >  1.0 degree]
                                    hybrid p-character > 25.0%
                                    orbital occupancy  >  0.10e

                                Line of Centers        Hybrid 1              Hybrid 2
                                ---------------  -------------------   ------------------
                NBO               Theta   Phi    Theta   Phi    Dev    Theta   Phi    Dev
 ========================================================================================
     1. BD (   1) O   1 -Cl   2    90.0    0.0    90.0  355.8   4.2      --     --    --
    14. LP (   1) O   1             --     --     90.0  113.5   --       --     --    --
    15. LP (   2) O   1             --     --      0.0    0.0   --       --     --    --
    17. LP (   2)Cl   2             --     --      0.0    0.0   --       --     --    --
    18. LP (   3)Cl   2             --     --     90.0   90.3   --       --     --    --
    20. LP (   2)Cl   3             --     --      0.0    0.0   --       --     --    --
    21. LP (   3)Cl   3             --     --     90.0  346.4   --       --     --    --
    22. LP (   4)Cl   3             --     --     90.0   76.5   --       --     --    --


 Natural Bond Orbitals (Summary):

           NBO                  Occupancy  
 -----------------------------------------------
 Molecular unit  1  (HOCl)
     1. BD (   1) O   1 -Cl   2          1.93921
     2. BD (   1) O   1 - H   4          1.96293
     3. CR (   1) O   1                  1.99970
     4. CR (   1)Cl   2                  2.00000
     5. CR (   2)Cl   2                  1.99978
     6. CR (   3)Cl   2                  1.99996
     7. CR (   4)Cl   2                  2.00003
     8. CR (   5)Cl   2                  2.00003
    14. LP (   1) O   1                  1.96595
    15. LP (   2) O   1                  1.95167
    16. LP (   1)Cl   2                  1.97398
    17. LP (   2)Cl   2                  1.95591
    18. LP (   3)Cl   2                  1.95470
    23. RY*(   1) O   1                  0.02009
    24. RY*(   2) O   1                  0.01644
    25. RY*(   3) O   1                  0.00812
    26. RY*(   4) O   1                  0.00703
    27. RY*(   5) O   1                  0.00645
    28. RY*(   6) O   1                  0.00623
    29. RY*(   7) O   1                  0.00573
    30. RY*(   8) O   1                  0.00377
    31. RY*(   9) O   1                  0.00242
    32. RY*(  10) O   1                  0.00076
    33. RY*(  11) O   1                  0.00065
    34. RY*(  12) O   1                  0.00062
    35. RY*(  13) O   1                  0.00060
    36. RY*(  14) O   1                  0.00051
    37. RY*(  15) O   1                  0.00051
    38. RY*(  16) O   1                  0.00047
    39. RY*(  17) O   1                  0.00048
    40. RY*(  18) O   1                  0.00047
    41. RY*(  19) O   1                  0.00045
    42. RY*(  20) O   1                  0.00045
    43. RY*(  21) O   1                  0.00045
    44. RY*(  22) O   1                  0.00042
    45. RY*(  23) O   1                  0.00036
    46. RY*(  24) O   1                  0.00032
    47. RY*(  25) O   1                  0.00025
    48. RY*(  26) O   1                  0.00016
    49. RY*(  27) O   1                  0.00012
    50. RY*(  28) O   1                  0.00013
    51. RY*(  29) O   1                  0.00012
    52. RY*(  30) O   1                  0.00009
    53. RY*(  31) O   1                  0.00008
    54. RY*(  32) O   1                  0.00008
    55. RY*(  33) O   1                  0.00008
    56. RY*(  34) O   1                  0.00008
    57. RY*(  35) O   1                  0.00008
    58. RY*(  36) O   1                  0.00006
    59. RY*(  37) O   1                  0.00005
    60. RY*(  38) O   1                  0.00006
    61. RY*(  39) O   1                  0.00004
    62. RY*(  40) O   1                  0.00002
    63. RY*(  41) O   1                 -0.00004
    64. RY*(   1)Cl   2                  0.02322
    65. RY*(   2)Cl   2                  0.01805
    66. RY*(   3)Cl   2                  0.01680
    67. RY*(   4)Cl   2                  0.01678
    68. RY*(   5)Cl   2                  0.01178
    69. RY*(   6)Cl   2                  0.00942
    70. RY*(   7)Cl   2                  0.00916
    71. RY*(   8)Cl   2                  0.00641
    72. RY*(   9)Cl   2                  0.00171
    73. RY*(  10)Cl   2                  0.00127
    74. RY*(  11)Cl   2                  0.00127
    75. RY*(  12)Cl   2                  0.00120
    76. RY*(  13)Cl   2                  0.00120
    77. RY*(  14)Cl   2                  0.00117
    78. RY*(  15)Cl   2                  0.00111
    79. RY*(  16)Cl   2                  0.00096
    80. RY*(  17)Cl   2                  0.00077
    81. RY*(  18)Cl   2                  0.00076
    82. RY*(  19)Cl   2                  0.00065
    83. RY*(  20)Cl   2                  0.00058
    84. RY*(  21)Cl   2                  0.00044
    85. RY*(  22)Cl   2                  0.00036
    86. RY*(  23)Cl   2                  0.00036
    87. RY*(  24)Cl   2                  0.00031
    88. RY*(  25)Cl   2                  0.00018
    89. RY*(  26)Cl   2                  0.00016
    90. RY*(  27)Cl   2                  0.00015
    91. RY*(  28)Cl   2                  0.00013
    92. RY*(  29)Cl   2                  0.00013
    93. RY*(  30)Cl   2                  0.00012
    94. RY*(  31)Cl   2                  0.00011
    95. RY*(  32)Cl   2                  0.00011
    96. RY*(  33)Cl   2                  0.00010
    97. RY*(  34)Cl   2                  0.00010
    98. RY*(  35)Cl   2                  0.00009
    99. RY*(  36)Cl   2                  0.00008
   100. RY*(  37)Cl   2                  0.00007
   101. RY*(  38)Cl   2                  0.00003
   102. RY*(  39)Cl   2                  0.00003
   103. RY*(  40)Cl   2                  0.00003
   104. RY*(  41)Cl   2                 -0.00000
   146. RY*(   1) H   4                  0.00966
   147. RY*(   2) H   4                  0.00546
   148. RY*(   3) H   4                  0.00503
   149. RY*(   4) H   4                  0.00381
   150. RY*(   5) H   4                  0.00089
   151. RY*(   6) H   4                  0.00057
   152. RY*(   7) H   4                  0.00044
   153. RY*(   8) H   4                  0.00033
   154. RY*(   9) H   4                  0.00030
   155. RY*(  10) H   4                  0.00025
   156. RY*(  11) H   4                  0.00023
   157. RY*(  12) H   4                  0.00021
   158. RY*(  13) H   4                  0.00017
   159. RY*(  14) H   4                  0.00012
   160. RY*(  15) H   4                  0.00013
   161. RY*(  16) H   4                  0.00009
   162. RY*(  17) H   4                  0.00007
   163. RY*(  18) H   4                  0.00006
   164. RY*(  19) H   4                  0.00005
   165. RY*(  20) H   4                  0.00004
   166. RY*(  21) H   4                  0.00004
   167. RY*(  22) H   4                  0.00004
   168. BD*(   1) O   1 -Cl   2          0.05780
   169. BD*(   1) O   1 - H   4          0.16041
       -------------------------------
              Total Lewis   25.70385  ( 98.2461%)
        Valence non-Lewis    0.21821  (  0.8340%)
        Rydberg non-Lewis    0.24066  (  0.9199%)
       -------------------------------
            Total unit  1   26.16272  (100.0000%)
           Charge unit  1   -0.16272

 Molecular unit  2  (Cl)
     9. CR (   1)Cl   3                  2.00000
    10. CR (   2)Cl   3                  1.99993
    11. CR (   3)Cl   3                  2.00003
    12. CR (   4)Cl   3                  2.00002
    13. CR (   5)Cl   3                  2.00003
    19. LP (   1)Cl   3                  1.97651
    20. LP (   2)Cl   3                  1.95262
    21. LP (   3)Cl   3                  1.95224
    22. LP (   4)Cl   3                  1.81339
   105. RY*(   1)Cl   3                  0.01832
   106. RY*(   2)Cl   3                  0.01827
   107. RY*(   3)Cl   3                  0.01822
   108. RY*(   4)Cl   3                  0.01821
   109. RY*(   5)Cl   3                  0.01764
   110. RY*(   6)Cl   3                  0.01229
   111. RY*(   7)Cl   3                  0.01220
   112. RY*(   8)Cl   3                  0.00954
   113. RY*(   9)Cl   3                  0.00162
   114. RY*(  10)Cl   3                  0.00128
   115. RY*(  11)Cl   3                  0.00129
   116. RY*(  12)Cl   3                  0.00128
   117. RY*(  13)Cl   3                  0.00129
   118. RY*(  14)Cl   3                  0.00126
   119. RY*(  15)Cl   3                  0.00126
   120. RY*(  16)Cl   3                  0.00122
   121. RY*(  17)Cl   3                  0.00095
   122. RY*(  18)Cl   3                  0.00096
   123. RY*(  19)Cl   3                  0.00068
   124. RY*(  20)Cl   3                  0.00066
   125. RY*(  21)Cl   3                  0.00063
   126. RY*(  22)Cl   3                  0.00052
   127. RY*(  23)Cl   3                  0.00050
   128. RY*(  24)Cl   3                  0.00048
   129. RY*(  25)Cl   3                  0.00021
   130. RY*(  26)Cl   3                  0.00018
   131. RY*(  27)Cl   3                  0.00018
   132. RY*(  28)Cl   3                  0.00014
   133. RY*(  29)Cl   3                  0.00014
   134. RY*(  30)Cl   3                  0.00014
   135. RY*(  31)Cl   3                  0.00014
   136. RY*(  32)Cl   3                  0.00014
   137. RY*(  33)Cl   3                  0.00012
   138. RY*(  34)Cl   3                  0.00010
   139. RY*(  35)Cl   3                  0.00010
   140. RY*(  36)Cl   3                  0.00009
   141. RY*(  37)Cl   3                  0.00009
   142. RY*(  38)Cl   3                  0.00007
   143. RY*(  39)Cl   3                  0.00005
   144. RY*(  40)Cl   3                  0.00003
   145. RY*(  41)Cl   3                  0.00001
       -------------------------------
              Total Lewis   17.69477  ( 99.2010%)
        Valence non-Lewis    0.00000  (  0.0000%)
        Rydberg non-Lewis    0.14252  (  0.7990%)
       -------------------------------
            Total unit  2   17.83728  (100.0000%)
           Charge unit  2   -0.83728
 Leave Link  607 at Fri Oct  8 12:24:22 2021, MaxMem= 16106127360 cpu:              76.1 elap:               2.7
 (Enter /sw/contrib/gaussian/g16/B01/g16/l9999.exe)
 1\1\GINC-N2218\SP\RMP2-FC\Aug-CC-pVTZ\Cl2H1O1(1-)\CGAVINH\08-Oct-2021\
 0\\#p pop=NBO SP NoSymm mp2/aug-cc-pvtz density=current\\title\\-1,1\O
 \X,1,10.\Cl,1,1.68274941,2,90.\Cl,1,2.90467605,2,90.,3,103.53015695,0\
 H,1,1.05,2,90.,3,103.53015695,0\\Version=ES64L-G16RevB.01\HF=-994.5224
 921\MP2=-995.1919236\RMSD=4.367e-09\Dipole=1.2825241,1.4955434,0.\Quad
 rupole=6.0075769,-13.794551,7.7869741,-5.4777272,0.,0.\PG=CS [SG(Cl2H1
 O1)]\\@


 YOU CAN WIPE THE SLATE CLEAN, BUT YOU'LL STILL
 HAVE TO EAT A LITTLE CHALK DUST.
 Job cpu time:       0 days  0 hours  4 minutes 26.1 seconds.
 Elapsed time:       0 days  0 hours  0 minutes 14.5 seconds.
 File lengths (MBytes):  RWF=     14 Int=      0 D2E=      0 Chk=      8 Scr=      1
 Normal termination of Gaussian 16 at Fri Oct  8 12:24:22 2021.
