 Entering Gaussian System, Link 0=g16
 Input=clhocl_rOH_115_sp.gjf
 Output=clhocl_rOH_115_sp.log
 Initial command:
 /sw/contrib/gaussian/g16/B01/g16/l1.exe "/scr/Gau-28662.inp" -scrdir="/scr/"
 Entering Link 1 = /sw/contrib/gaussian/g16/B01/g16/l1.exe PID=     28663.
  
 Copyright (c) 1988-2017, Gaussian, Inc.  All Rights Reserved.
  
 This is part of the Gaussian(R) 16 program.  It is based on
 the Gaussian(R) 09 system (copyright 2009, Gaussian, Inc.),
 the Gaussian(R) 03 system (copyright 2003, Gaussian, Inc.),
 the Gaussian(R) 98 system (copyright 1998, Gaussian, Inc.),
 the Gaussian(R) 94 system (copyright 1995, Gaussian, Inc.),
 the Gaussian 92(TM) system (copyright 1992, Gaussian, Inc.),
 the Gaussian 90(TM) system (copyright 1990, Gaussian, Inc.),
 the Gaussian 88(TM) system (copyright 1988, Gaussian, Inc.),
 the Gaussian 86(TM) system (copyright 1986, Carnegie Mellon
 University), and the Gaussian 82(TM) system (copyright 1983,
 Carnegie Mellon University). Gaussian is a federally registered
 trademark of Gaussian, Inc.
  
 This software contains proprietary and confidential information,
 including trade secrets, belonging to Gaussian, Inc.
  
 This software is provided under written license and may be
 used, copied, transmitted, or stored only in accord with that
 written license.
  
 The following legend is applicable only to US Government
 contracts under FAR:
  
                    RESTRICTED RIGHTS LEGEND
  
 Use, reproduction and disclosure by the US Government is
 subject to restrictions as set forth in subparagraphs (a)
 and (c) of the Commercial Computer Software - Restricted
 Rights clause in FAR 52.227-19.
  
 Gaussian, Inc.
 340 Quinnipiac St., Bldg. 40, Wallingford CT 06492
  
  
 ---------------------------------------------------------------
 Warning -- This program may not be used in any manner that
 competes with the business of Gaussian, Inc. or will provide
 assistance to any competitor of Gaussian, Inc.  The licensee
 of this program is prohibited from giving any competitor of
 Gaussian, Inc. access to this program.  By using this program,
 the user acknowledges that Gaussian, Inc. is engaged in the
 business of creating and licensing software in the field of
 computational chemistry and represents and warrants to the
 licensee that it is not a competitor of Gaussian, Inc. and that
 it will not use this program in any manner prohibited above.
 ---------------------------------------------------------------
  

 Cite this work as:
 Gaussian 16, Revision B.01,
 M. J. Frisch, G. W. Trucks, H. B. Schlegel, G. E. Scuseria, 
 M. A. Robb, J. R. Cheeseman, G. Scalmani, V. Barone, 
 G. A. Petersson, H. Nakatsuji, X. Li, M. Caricato, A. V. Marenich, 
 J. Bloino, B. G. Janesko, R. Gomperts, B. Mennucci, H. P. Hratchian, 
 J. V. Ortiz, A. F. Izmaylov, J. L. Sonnenberg, D. Williams-Young, 
 F. Ding, F. Lipparini, F. Egidi, J. Goings, B. Peng, A. Petrone, 
 T. Henderson, D. Ranasinghe, V. G. Zakrzewski, J. Gao, N. Rega, 
 G. Zheng, W. Liang, M. Hada, M. Ehara, K. Toyota, R. Fukuda, 
 J. Hasegawa, M. Ishida, T. Nakajima, Y. Honda, O. Kitao, H. Nakai, 
 T. Vreven, K. Throssell, J. A. Montgomery, Jr., J. E. Peralta, 
 F. Ogliaro, M. J. Bearpark, J. J. Heyd, E. N. Brothers, K. N. Kudin, 
 V. N. Staroverov, T. A. Keith, R. Kobayashi, J. Normand, 
 K. Raghavachari, A. P. Rendell, J. C. Burant, S. S. Iyengar, 
 J. Tomasi, M. Cossi, J. M. Millam, M. Klene, C. Adamo, R. Cammi, 
 J. W. Ochterski, R. L. Martin, K. Morokuma, O. Farkas, 
 J. B. Foresman, and D. J. Fox, Gaussian, Inc., Wallingford CT, 2016.
 
 ******************************************
 Gaussian 16:  ES64L-G16RevB.01 20-Dec-2017
                 8-Oct-2021 
 ******************************************
 %nproc=28
 Will use up to   28 processors via shared memory.
 %mem=120GB
 %chk=/gscratch/ilahie/mccoygrp/coire_hocl/rOH_s_oop_0/clhocl/clhocl_115_sp.chk
 ----------------------------------------------------
 #p pop=NBO SP NoSymm mp2/aug-cc-pvtz density=current
 ----------------------------------------------------
 1/30=1,38=1,172=1/1;
 2/12=2,15=1,17=6,18=5,40=1/2;
 3/5=16,6=1,7=10,11=9,25=1,30=1,71=1/1,2,3;
 4//1;
 5/5=2,38=5/2;
 8/6=4,10=1/1;
 9/15=1,16=-3/6;
 10/5=1,13=10,31=1/2;
 6/7=2,8=2,9=2,10=2,22=-1,40=1/1,7;
 99/5=1,9=1/99;
 Leave Link    1 at Fri Oct  8 12:24:38 2021, MaxMem= 16106127360 cpu:               0.9 elap:               0.0
 (Enter /sw/contrib/gaussian/g16/B01/g16/l101.exe)
 -----
 title
 -----
 Symbolic Z-matrix:
 Charge = -1 Multiplicity = 1
 O
 X                    1     10. 
 Cl                   1    r1       2     90. 
 Cl                   1    r2       2     90.      3    a1       0
 H                    1    r3       2    oop      3    a1       0
       Variables:
  r1                    1.68275                  
  r2                    2.90468                  
  r3                    1.15                     
  a1                  103.53016                  
  OOP                  90.                       
 
 ITRead=  0  0  0  0
 MicOpt= -1 -1 -1 -1
 NAtoms=      4 NQM=        4 NQMF=       0 NMMI=      0 NMMIF=      0
                NMic=       0 NMicF=      0.
                    Isotopes and Nuclear Properties:
 (Nuclear quadrupole moments (NQMom) in fm**2, nuclear magnetic moments (NMagM)
  in nuclear magnetons)

  Atom         1           2           3           4
 IAtWgt=          16          35          35           1
 AtmWgt=  15.9949146  34.9688527  34.9688527   1.0078250
 NucSpn=           0           3           3           1
 AtZEff=  -0.0000000  -0.0000000  -0.0000000  -0.0000000
 NQMom=    0.0000000  -8.1650000  -8.1650000   0.0000000
 NMagM=    0.0000000   0.8218740   0.8218740   2.7928460
 AtZNuc=   8.0000000  17.0000000  17.0000000   1.0000000
 Leave Link  101 at Fri Oct  8 12:24:38 2021, MaxMem= 16106127360 cpu:               2.3 elap:               0.1
 (Enter /sw/contrib/gaussian/g16/B01/g16/l202.exe)
                          Input orientation:                          
 ---------------------------------------------------------------------
 Center     Atomic      Atomic             Coordinates (Angstroms)
 Number     Number       Type             X           Y           Z
 ---------------------------------------------------------------------
      1          8           0        0.000000    0.000000    0.000000
      2         17           0        1.682749    0.000000    0.000000
      3         17           0       -0.679570   -2.824062    0.000000
      4          1           0       -0.269051   -1.118084    0.000000
 ---------------------------------------------------------------------
                    Distance matrix (angstroms):
                    1          2          3          4
     1  O    0.000000
     2  Cl   1.682749   0.000000
     3  Cl   2.904676   3.681831   0.000000
     4  H    1.150000   2.249363   1.754676   0.000000
 Symmetry turned off by external request.
 Stoichiometry    Cl2HO(1-)
 Framework group  CS[SG(Cl2HO)]
 Deg. of freedom     5
 Full point group                 CS      NOp   2
 Rotational constants (GHZ):          23.7606151           2.0591122           1.8948989
 Leave Link  202 at Fri Oct  8 12:24:38 2021, MaxMem= 16106127360 cpu:               0.3 elap:               0.0
 (Enter /sw/contrib/gaussian/g16/B01/g16/l301.exe)
 Standard basis: Aug-CC-pVTZ (5D, 7F)
 Ernie: Thresh=  0.10000D-02 Tol=  0.10000D-05 Strict=F.
 Ernie:  29 primitive shells out of 169 were deleted.
   169 basis functions,   327 primitive gaussians,   198 cartesian basis functions
    22 alpha electrons       22 beta electrons
       nuclear repulsion energy       121.8892703741 Hartrees.
 IExCor=    0 DFT=F Ex=HF Corr=None ExCW=0 ScaHFX=  1.000000
 ScaDFX=  1.000000  1.000000  1.000000  1.000000 ScalE2=  1.000000  1.000000
 IRadAn=      5 IRanWt=     -1 IRanGd=            0 ICorTp=0 IEmpDi=  4
 NAtoms=    4 NActive=    4 NUniq=    4 SFac= 1.00D+00 NAtFMM=   60 NAOKFM=F Big=F
 Integral buffers will be    131072 words long.
 Raffenetti 1 integral format.
 Two-electron integral symmetry is turned off.
 Leave Link  301 at Fri Oct  8 12:24:38 2021, MaxMem= 16106127360 cpu:               2.5 elap:               0.1
 (Enter /sw/contrib/gaussian/g16/B01/g16/l302.exe)
 NPDir=0 NMtPBC=     1 NCelOv=     1 NCel=       1 NClECP=     1 NCelD=      1
         NCelK=      1 NCelE2=     1 NClLst=     1 CellRange=     0.0.
 One-electron integrals computed using PRISM.
 NBasis=   169 RedAO= T EigKep=  2.95D-04  NBF=   169
 NBsUse=   169 1.00D-06 EigRej= -1.00D+00 NBFU=   169
 Leave Link  302 at Fri Oct  8 12:24:38 2021, MaxMem= 16106127360 cpu:               4.2 elap:               0.2
 (Enter /sw/contrib/gaussian/g16/B01/g16/l303.exe)
 DipDrv:  MaxL=1.
 Leave Link  303 at Fri Oct  8 12:24:38 2021, MaxMem= 16106127360 cpu:               0.9 elap:               0.1
 (Enter /sw/contrib/gaussian/g16/B01/g16/l401.exe)
 ExpMin= 2.53D-02 ExpMax= 4.56D+05 ExpMxC= 1.44D+03 IAcc=3 IRadAn=         5 AccDes= 0.00D+00
 Harris functional with IExCor=  205 and IRadAn=       5 diagonalized for initial guess.
 HarFok:  IExCor=  205 AccDes= 0.00D+00 IRadAn=         5 IDoV= 1 UseB2=F ITyADJ=14
 ICtDFT=  3500011 ScaDFX=  1.000000  1.000000  1.000000  1.000000
 FoFCou: FMM=F IPFlag=           0 FMFlag=      100000 FMFlg1=           0
         NFxFlg=           0 DoJE=T BraDBF=F KetDBF=T FulRan=T
         wScrn=  0.000000 ICntrl=       500 IOpCl=  0 I1Cent=   200000004 NGrid=           0
         NMat0=    1 NMatS0=      1 NMatT0=    0 NMatD0=    1 NMtDS0=    0 NMtDT0=    0
 Symmetry not used in FoFCou.
 Harris En= -993.815019942111    
 JPrj=0 DoOrth=F DoCkMO=F.
 Leave Link  401 at Fri Oct  8 12:24:39 2021, MaxMem= 16106127360 cpu:               6.8 elap:               0.3
 (Enter /sw/contrib/gaussian/g16/B01/g16/l502.exe)
 Keep R1 ints in memory in canonical form, NReq=117119341.
 FoFCou: FMM=F IPFlag=           0 FMFlag=           0 FMFlg1=           0
         NFxFlg=           0 DoJE=F BraDBF=F KetDBF=F FulRan=T
         wScrn=  0.000000 ICntrl=       600 IOpCl=  0 I1Cent=           0 NGrid=           0
         NMat0=    1 NMatS0=  14365 NMatT0=    0 NMatD0=    1 NMtDS0=    0 NMtDT0=    0
 Symmetry not used in FoFCou.
 Two-electron integral symmetry not used.
 Closed shell SCF:
 Using DIIS extrapolation, IDIIS=  1040.
 NGot= 16106127360 LenX= 16002858357 LenY= 16002818712
 Requested convergence on RMS density matrix=1.00D-08 within 128 cycles.
 Requested convergence on MAX density matrix=1.00D-06.
 Requested convergence on             energy=1.00D-06.
 No special actions if energy rises.

 Cycle   1  Pass 1  IDiag  1:
 E= -994.389884438767    
 DIIS: error= 2.98D-02 at cycle   1 NSaved=   1.
 NSaved= 1 IEnMin= 1 EnMin= -994.389884438767     IErMin= 1 ErrMin= 2.98D-02
 ErrMax= 2.98D-02  0.00D+00 EMaxC= 1.00D-01 BMatC= 4.21D-01 BMatP= 4.21D-01
 IDIUse=3 WtCom= 7.02D-01 WtEn= 2.98D-01
 Coeff-Com:  0.100D+01
 Coeff-En:   0.100D+01
 Coeff:      0.100D+01
 Gap=     0.550 Goal=   None    Shift=    0.000
 GapD=    0.550 DampG=2.000 DampE=0.500 DampFc=1.0000 IDamp=-1.
 RMSDP=2.13D-03 MaxDP=7.01D-02              OVMax= 1.30D-01

 Cycle   2  Pass 1  IDiag  1:
 E= -994.475431237822     Delta-E=       -0.085546799055 Rises=F Damp=F
 DIIS: error= 2.55D-02 at cycle   2 NSaved=   2.
 NSaved= 2 IEnMin= 2 EnMin= -994.475431237822     IErMin= 2 ErrMin= 2.55D-02
 ErrMax= 2.55D-02  0.00D+00 EMaxC= 1.00D-01 BMatC= 5.30D-02 BMatP= 4.21D-01
 IDIUse=3 WtCom= 7.45D-01 WtEn= 2.55D-01
 Coeff-Com:  0.175D+00 0.825D+00
 Coeff-En:   0.000D+00 0.100D+01
 Coeff:      0.130D+00 0.870D+00
 Gap=     0.409 Goal=   None    Shift=    0.000
 RMSDP=1.00D-03 MaxDP=3.88D-02 DE=-8.55D-02 OVMax= 8.59D-02

 Cycle   3  Pass 1  IDiag  1:
 E= -994.499751365642     Delta-E=       -0.024320127820 Rises=F Damp=F
 DIIS: error= 1.26D-02 at cycle   3 NSaved=   3.
 NSaved= 3 IEnMin= 3 EnMin= -994.499751365642     IErMin= 3 ErrMin= 1.26D-02
 ErrMax= 1.26D-02  0.00D+00 EMaxC= 1.00D-01 BMatC= 1.89D-02 BMatP= 5.30D-02
 IDIUse=3 WtCom= 8.74D-01 WtEn= 1.26D-01
 Coeff-Com: -0.167D-01 0.366D+00 0.651D+00
 Coeff-En:   0.000D+00 0.200D+00 0.800D+00
 Coeff:     -0.146D-01 0.345D+00 0.670D+00
 Gap=     0.380 Goal=   None    Shift=    0.000
 RMSDP=4.13D-04 MaxDP=1.61D-02 DE=-2.43D-02 OVMax= 4.05D-02

 Cycle   4  Pass 1  IDiag  1:
 E= -994.512737645698     Delta-E=       -0.012986280055 Rises=F Damp=F
 DIIS: error= 1.62D-03 at cycle   4 NSaved=   4.
 NSaved= 4 IEnMin= 4 EnMin= -994.512737645698     IErMin= 4 ErrMin= 1.62D-03
 ErrMax= 1.62D-03  0.00D+00 EMaxC= 1.00D-01 BMatC= 1.87D-04 BMatP= 1.89D-02
 IDIUse=3 WtCom= 9.84D-01 WtEn= 1.62D-02
 Coeff-Com: -0.356D-02 0.627D-02 0.784D-01 0.919D+00
 Coeff-En:   0.000D+00 0.000D+00 0.000D+00 0.100D+01
 Coeff:     -0.351D-02 0.616D-02 0.771D-01 0.920D+00
 Gap=     0.374 Goal=   None    Shift=    0.000
 RMSDP=5.89D-05 MaxDP=1.61D-03 DE=-1.30D-02 OVMax= 3.22D-03

 Cycle   5  Pass 1  IDiag  1:
 E= -994.512947291902     Delta-E=       -0.000209646205 Rises=F Damp=F
 DIIS: error= 2.96D-04 at cycle   5 NSaved=   5.
 NSaved= 5 IEnMin= 5 EnMin= -994.512947291902     IErMin= 5 ErrMin= 2.96D-04
 ErrMax= 2.96D-04  0.00D+00 EMaxC= 1.00D-01 BMatC= 1.75D-05 BMatP= 1.87D-04
 IDIUse=3 WtCom= 9.97D-01 WtEn= 2.96D-03
 Coeff-Com:  0.112D-02-0.416D-01-0.660D-01 0.467D-01 0.106D+01
 Coeff-En:   0.000D+00 0.000D+00 0.000D+00 0.000D+00 0.100D+01
 Coeff:      0.112D-02-0.415D-01-0.658D-01 0.466D-01 0.106D+01
 Gap=     0.374 Goal=   None    Shift=    0.000
 RMSDP=3.27D-05 MaxDP=1.23D-03 DE=-2.10D-04 OVMax= 3.18D-03

 Cycle   6  Pass 1  IDiag  1:
 E= -994.512990343850     Delta-E=       -0.000043051947 Rises=F Damp=F
 DIIS: error= 1.64D-04 at cycle   6 NSaved=   6.
 NSaved= 6 IEnMin= 6 EnMin= -994.512990343850     IErMin= 6 ErrMin= 1.64D-04
 ErrMax= 1.64D-04  0.00D+00 EMaxC= 1.00D-01 BMatC= 2.35D-06 BMatP= 1.75D-05
 IDIUse=3 WtCom= 9.98D-01 WtEn= 1.64D-03
 Coeff-Com:  0.177D-03 0.104D-01 0.164D-01-0.951D-01-0.414D+00 0.148D+01
 Coeff-En:   0.000D+00 0.000D+00 0.000D+00 0.000D+00 0.000D+00 0.100D+01
 Coeff:      0.177D-03 0.104D-01 0.163D-01-0.949D-01-0.413D+00 0.148D+01
 Gap=     0.375 Goal=   None    Shift=    0.000
 RMSDP=1.79D-05 MaxDP=6.80D-04 DE=-4.31D-05 OVMax= 1.84D-03

 Cycle   7  Pass 1  IDiag  1:
 E= -994.512998984625     Delta-E=       -0.000008640776 Rises=F Damp=F
 DIIS: error= 4.26D-05 at cycle   7 NSaved=   7.
 NSaved= 7 IEnMin= 7 EnMin= -994.512998984625     IErMin= 7 ErrMin= 4.26D-05
 ErrMax= 4.26D-05  0.00D+00 EMaxC= 1.00D-01 BMatC= 1.43D-07 BMatP= 2.35D-06
 IDIUse=1 WtCom= 1.00D+00 WtEn= 0.00D+00
 Coeff-Com: -0.112D-03-0.138D-02-0.155D-02 0.335D-01 0.819D-01-0.580D+00
 Coeff-Com:  0.147D+01
 Coeff:     -0.112D-03-0.138D-02-0.155D-02 0.335D-01 0.819D-01-0.580D+00
 Coeff:      0.147D+01
 Gap=     0.375 Goal=   None    Shift=    0.000
 RMSDP=5.26D-06 MaxDP=1.84D-04 DE=-8.64D-06 OVMax= 5.60D-04

 Cycle   8  Pass 1  IDiag  1:
 E= -994.512999623884     Delta-E=       -0.000000639259 Rises=F Damp=F
 DIIS: error= 7.94D-06 at cycle   8 NSaved=   8.
 NSaved= 8 IEnMin= 8 EnMin= -994.512999623884     IErMin= 8 ErrMin= 7.94D-06
 ErrMax= 7.94D-06  0.00D+00 EMaxC= 1.00D-01 BMatC= 1.04D-08 BMatP= 1.43D-07
 IDIUse=1 WtCom= 1.00D+00 WtEn= 0.00D+00
 Coeff-Com: -0.262D-04-0.495D-03-0.447D-03 0.425D-02 0.167D-01-0.592D-01
 Coeff-Com: -0.622D-01 0.110D+01
 Coeff:     -0.262D-04-0.495D-03-0.447D-03 0.425D-02 0.167D-01-0.592D-01
 Coeff:     -0.622D-01 0.110D+01
 Gap=     0.375 Goal=   None    Shift=    0.000
 RMSDP=1.11D-06 MaxDP=2.02D-05 DE=-6.39D-07 OVMax= 1.04D-04

 Cycle   9  Pass 1  IDiag  1:
 E= -994.512999659542     Delta-E=       -0.000000035658 Rises=F Damp=F
 DIIS: error= 3.93D-06 at cycle   9 NSaved=   9.
 NSaved= 9 IEnMin= 9 EnMin= -994.512999659542     IErMin= 9 ErrMin= 3.93D-06
 ErrMax= 3.93D-06  0.00D+00 EMaxC= 1.00D-01 BMatC= 1.74D-09 BMatP= 1.04D-08
 IDIUse=1 WtCom= 1.00D+00 WtEn= 0.00D+00
 Coeff-Com:  0.270D-04 0.123D-03 0.800D-04-0.476D-02-0.105D-01 0.783D-01
 Coeff-Com: -0.178D+00-0.204D+00 0.132D+01
 Coeff:      0.270D-04 0.123D-03 0.800D-04-0.476D-02-0.105D-01 0.783D-01
 Coeff:     -0.178D+00-0.204D+00 0.132D+01
 Gap=     0.375 Goal=   None    Shift=    0.000
 RMSDP=6.44D-07 MaxDP=1.35D-05 DE=-3.57D-08 OVMax= 6.10D-05

 Cycle  10  Pass 1  IDiag  1:
 E= -994.512999667880     Delta-E=       -0.000000008338 Rises=F Damp=F
 DIIS: error= 2.05D-06 at cycle  10 NSaved=  10.
 NSaved=10 IEnMin=10 EnMin= -994.512999667880     IErMin=10 ErrMin= 2.05D-06
 ErrMax= 2.05D-06  0.00D+00 EMaxC= 1.00D-01 BMatC= 2.96D-10 BMatP= 1.74D-09
 IDIUse=1 WtCom= 1.00D+00 WtEn= 0.00D+00
 Coeff-Com: -0.373D-05 0.742D-04 0.650D-04 0.575D-03-0.344D-03-0.106D-01
 Coeff-Com:  0.638D-01-0.153D+00-0.293D+00 0.139D+01
 Coeff:     -0.373D-05 0.742D-04 0.650D-04 0.575D-03-0.344D-03-0.106D-01
 Coeff:      0.638D-01-0.153D+00-0.293D+00 0.139D+01
 Gap=     0.375 Goal=   None    Shift=    0.000
 RMSDP=3.08D-07 MaxDP=6.77D-06 DE=-8.34D-09 OVMax= 2.70D-05

 Cycle  11  Pass 1  IDiag  1:
 E= -994.512999669419     Delta-E=       -0.000000001539 Rises=F Damp=F
 DIIS: error= 7.82D-07 at cycle  11 NSaved=  11.
 NSaved=11 IEnMin=11 EnMin= -994.512999669419     IErMin=11 ErrMin= 7.82D-07
 ErrMax= 7.82D-07  0.00D+00 EMaxC= 1.00D-01 BMatC= 2.89D-11 BMatP= 2.96D-10
 IDIUse=1 WtCom= 1.00D+00 WtEn= 0.00D+00
 Coeff-Com: -0.357D-05-0.351D-04-0.310D-04 0.687D-03 0.181D-02-0.104D-01
 Coeff-Com:  0.140D-01 0.604D-01-0.133D+00-0.311D+00 0.138D+01
 Coeff:     -0.357D-05-0.351D-04-0.310D-04 0.687D-03 0.181D-02-0.104D-01
 Coeff:      0.140D-01 0.604D-01-0.133D+00-0.311D+00 0.138D+01
 Gap=     0.375 Goal=   None    Shift=    0.000
 RMSDP=1.14D-07 MaxDP=2.67D-06 DE=-1.54D-09 OVMax= 9.81D-06

 Cycle  12  Pass 1  IDiag  1:
 E= -994.512999669583     Delta-E=       -0.000000000164 Rises=F Damp=F
 DIIS: error= 1.56D-07 at cycle  12 NSaved=  12.
 NSaved=12 IEnMin=12 EnMin= -994.512999669583     IErMin=12 ErrMin= 1.56D-07
 ErrMax= 1.56D-07  0.00D+00 EMaxC= 1.00D-01 BMatC= 1.41D-12 BMatP= 2.89D-11
 IDIUse=1 WtCom= 1.00D+00 WtEn= 0.00D+00
 Coeff-Com:  0.111D-05 0.272D-05 0.272D-05-0.200D-03-0.408D-03 0.296D-02
 Coeff-Com: -0.646D-02-0.650D-02 0.488D-01-0.119D-01-0.303D+00 0.128D+01
 Coeff:      0.111D-05 0.272D-05 0.272D-05-0.200D-03-0.408D-03 0.296D-02
 Coeff:     -0.646D-02-0.650D-02 0.488D-01-0.119D-01-0.303D+00 0.128D+01
 Gap=     0.375 Goal=   None    Shift=    0.000
 RMSDP=2.05D-08 MaxDP=4.23D-07 DE=-1.64D-10 OVMax= 1.77D-06

 Cycle  13  Pass 1  IDiag  1:
 E= -994.512999669588     Delta-E=       -0.000000000005 Rises=F Damp=F
 DIIS: error= 3.67D-08 at cycle  13 NSaved=  13.
 NSaved=13 IEnMin=13 EnMin= -994.512999669588     IErMin=13 ErrMin= 3.67D-08
 ErrMax= 3.67D-08  0.00D+00 EMaxC= 1.00D-01 BMatC= 1.32D-13 BMatP= 1.41D-12
 IDIUse=1 WtCom= 1.00D+00 WtEn= 0.00D+00
 Coeff-Com:  0.109D-06 0.187D-05 0.832D-06-0.169D-04-0.574D-04 0.304D-03
 Coeff-Com: -0.581D-04-0.431D-02 0.498D-02 0.266D-01-0.764D-01-0.190D+00
 Coeff-Com:  0.124D+01
 Coeff:      0.109D-06 0.187D-05 0.832D-06-0.169D-04-0.574D-04 0.304D-03
 Coeff:     -0.581D-04-0.431D-02 0.498D-02 0.266D-01-0.764D-01-0.190D+00
 Coeff:      0.124D+01
 Gap=     0.375 Goal=   None    Shift=    0.000
 RMSDP=6.03D-09 MaxDP=1.20D-07 DE=-5.00D-12 OVMax= 5.16D-07

 SCF Done:  E(RHF) =  -994.512999670     A.U. after   13 cycles
            NFock= 13  Conv=0.60D-08     -V/T= 2.0003
 KE= 9.942643792942D+02 PE=-2.621617153891D+03 EE= 5.109505045533D+02
 Leave Link  502 at Fri Oct  8 12:24:42 2021, MaxMem= 16106127360 cpu:              29.5 elap:               3.4
 (Enter /sw/contrib/gaussian/g16/B01/g16/l801.exe)
 ExpMin= 2.53D-02 ExpMax= 4.56D+05 ExpMxC= 1.44D+03 IAcc=3 IRadAn=         5 AccDes= 0.00D+00
 HarFok:  IExCor=  205 AccDes= 0.00D+00 IRadAn=         5 IDoV=-2 UseB2=F ITyADJ=14
 ICtDFT= 12500011 ScaDFX=  1.000000  1.000000  1.000000  1.000000
 Largest valence mixing into a core orbital is  4.47D-04
 Largest core mixing into a valence orbital is  1.71D-04
 Range of M.O.s used for correlation:    12   169
 NBasis=   169 NAE=    22 NBE=    22 NFC=    11 NFV=     0
 NROrb=    158 NOA=    11 NOB=    11 NVA=   147 NVB=   147

 **** Warning!!: The largest alpha MO coefficient is  0.18148332D+02

 Leave Link  801 at Fri Oct  8 12:24:42 2021, MaxMem= 16106127360 cpu:               4.9 elap:               0.2
 (Enter /sw/contrib/gaussian/g16/B01/g16/l906.exe)
 Frozen-core derivative calculation, NFC=  11 NFV=   0.
 FulOut=F Deriv=T AODrv=F NAtomX=     4
   MMem=         144  MDisk=          11 MDiskD=          11
  W3Min=      736164 MinDsk=     1250177 NBas6D=         198
 NBas2D=       20187    NTT=       19701    LW2=     3500000
    MDV= 16105751270 MDiskM=      406660 NBas2p=       19980
 Fully in-core method, ICMem=   420417501.
 IMap=   1   2   3   4   5   6   7   8   9  10  11  12  13  14  15  16  17  18  19  20
 IMap=  21  22
 JobTyp=1 Pass  1 fully in-core, NPsUse= 28.
 Compute canonical integrals.
 FoFCou: FMM=F IPFlag=           0 FMFlag=           0 FMFlg1=           0
         NFxFlg=           0 DoJE=F BraDBF=F KetDBF=F FulRan=T
         wScrn=  0.000000 ICntrl=       600 IOpCl=  1 I1Cent=           0 NGrid=           0
         NMat0=    1 NMatS0=  20187 NMatT0=    0 NMatD0=    1 NMtDS0=    0 NMtDT0=    0
 Symmetry not used in FoFCou.
 Spin components of T(2) and E(2):
     alpha-alpha T2 =       0.3016561548D-01 E2=     -0.8563974327D-01
     alpha-beta  T2 =       0.1627549619D+00 E2=     -0.5032028416D+00
     beta-beta   T2 =       0.3016561548D-01 E2=     -0.8563974327D-01
 The integrals were generated   1 times.
 ANorm=    0.1105932273D+01
 E2 =    -0.6744823282D+00 EUMP2 =    -0.99518748199775D+03
 Leave Link  906 at Fri Oct  8 12:24:46 2021, MaxMem= 16106127360 cpu:             114.0 elap:               4.1
 (Enter /sw/contrib/gaussian/g16/B01/g16/l1002.exe)
 Minotr:  Closed shell wavefunction.
          Computing MP2/KS-MP2 derivatives.
          Using Z-Vector for PSCF gradient.
          Skipping F1 and S1 gradient terms here.
          Frozen-core window.
          Direct CPHF calculation.
          Differentiating once with respect to electric field.
                with respect to dipole field.
          Electric field/nuclear overlap derivatives assumed to be zero.
          Requested convergence is 1.0D-10 RMS, and 1.0D-09 maximum.
          NewPWx=F KeepS1=T KeepF1=T KeepIn=T MapXYZ=F SortEE=F KeepMc=T.
 Keep R1 ints in memory in canonical form, NReq=117123409.
 FoFCou: FMM=F IPFlag=           0 FMFlag=           0 FMFlg1=           0
         NFxFlg=           0 DoJE=F BraDBF=F KetDBF=F FulRan=T
         wScrn=  0.000000 ICntrl=       600 IOpCl=  0 I1Cent=           0 NGrid=           0
         NMat0=    1 NMatS0=  14365 NMatT0=    0 NMatD0=    1 NMtDS0=    0 NMtDT0=    0
 Symmetry not used in FoFCou.
 Two-electron integral symmetry not used.
          MDV=   16106127360 using IRadAn=       5.
          Solving linear equations separately, MaxMat=       0.
          There are     1 degrees of freedom in the 1st order CPHF.  IDoFFX=0 NUNeed=     1.
 LinEq1:  Iter=  0 NonCon=     1 RMS=3.29D-03 Max=4.88D-02 NDo=     1
 AX will form     1 AO Fock derivatives at one time.
 LinEq1:  Iter=  1 NonCon=     1 RMS=4.28D-04 Max=5.63D-03 NDo=     1
 LinEq1:  Iter=  2 NonCon=     1 RMS=1.69D-04 Max=2.90D-03 NDo=     1
 LinEq1:  Iter=  3 NonCon=     1 RMS=6.42D-05 Max=9.36D-04 NDo=     1
 LinEq1:  Iter=  4 NonCon=     1 RMS=2.92D-05 Max=5.94D-04 NDo=     1
 LinEq1:  Iter=  5 NonCon=     1 RMS=6.76D-06 Max=6.92D-05 NDo=     1
 LinEq1:  Iter=  6 NonCon=     1 RMS=1.75D-06 Max=1.72D-05 NDo=     1
 LinEq1:  Iter=  7 NonCon=     1 RMS=4.04D-07 Max=5.95D-06 NDo=     1
 LinEq1:  Iter=  8 NonCon=     1 RMS=8.35D-08 Max=1.03D-06 NDo=     1
 LinEq1:  Iter=  9 NonCon=     1 RMS=2.58D-08 Max=4.26D-07 NDo=     1
 LinEq1:  Iter= 10 NonCon=     1 RMS=8.06D-09 Max=1.04D-07 NDo=     1
 LinEq1:  Iter= 11 NonCon=     1 RMS=2.12D-09 Max=2.77D-08 NDo=     1
 LinEq1:  Iter= 12 NonCon=     1 RMS=3.93D-10 Max=5.09D-09 NDo=     1
 LinEq1:  Iter= 13 NonCon=     1 RMS=7.01D-11 Max=1.00D-09 NDo=     1
 LinEq1:  Iter= 14 NonCon=     0 RMS=1.89D-11 Max=2.01D-10 NDo=     1
 Linear equations converged to 1.000D-10 1.000D-09 after    14 iterations.
 End of Minotr F.D. properties file   721 does not exist.
 End of Minotr F.D. properties file   722 does not exist.
 End of Minotr F.D. properties file   788 does not exist.
 Leave Link 1002 at Fri Oct  8 12:24:50 2021, MaxMem= 16106127360 cpu:              26.2 elap:               3.6
 (Enter /sw/contrib/gaussian/g16/B01/g16/l601.exe)
 Copying SCF densities to generalized density rwf, IOpCl= 0 IROHF=0.

 **********************************************************************

            Population analysis using the MP2 Density.

 **********************************************************************

 Alpha  occ. eigenvalues -- -104.70812-104.56626 -20.43191 -10.42776 -10.29116
 Alpha  occ. eigenvalues --   -7.89491  -7.89246  -7.89238  -7.75741  -7.75710
 Alpha  occ. eigenvalues --   -7.75709  -1.18217  -0.86501  -0.80779  -0.49142
 Alpha  occ. eigenvalues --   -0.41291  -0.40467  -0.28942  -0.25500  -0.21671
 Alpha  occ. eigenvalues --   -0.21235  -0.21187
 Alpha virt. eigenvalues --    0.16286   0.19076   0.22639   0.23850   0.25711
 Alpha virt. eigenvalues --    0.26926   0.27164   0.30564   0.31520   0.33419
 Alpha virt. eigenvalues --    0.34139   0.35102   0.38144   0.46227   0.46630
 Alpha virt. eigenvalues --    0.51566   0.51930   0.53727   0.55197   0.57434
 Alpha virt. eigenvalues --    0.57645   0.60073   0.61450   0.64540   0.66513
 Alpha virt. eigenvalues --    0.68165   0.68437   0.76080   0.77541   0.79222
 Alpha virt. eigenvalues --    0.83655   0.85815   0.87774   0.90169   0.92510
 Alpha virt. eigenvalues --    0.92918   0.97768   0.99882   1.03397   1.06405
 Alpha virt. eigenvalues --    1.07540   1.09174   1.09853   1.11245   1.13730
 Alpha virt. eigenvalues --    1.15487   1.17437   1.17659   1.19551   1.22008
 Alpha virt. eigenvalues --    1.23417   1.24415   1.30655   1.33430   1.34010
 Alpha virt. eigenvalues --    1.38217   1.40887   1.41563   1.42221   1.47535
 Alpha virt. eigenvalues --    1.48910   1.50406   1.52883   1.62661   1.66553
 Alpha virt. eigenvalues --    1.67467   1.68616   1.72938   1.75279   1.77208
 Alpha virt. eigenvalues --    1.80082   1.85538   1.90236   1.92387   1.93879
 Alpha virt. eigenvalues --    2.02280   2.31558   2.41180   2.43208   2.53117
 Alpha virt. eigenvalues --    2.53947   2.59607   2.61035   2.62922   2.65307
 Alpha virt. eigenvalues --    2.69697   2.71015   2.73436   2.74574   2.77697
 Alpha virt. eigenvalues --    2.77721   2.79760   2.81420   2.87366   2.88094
 Alpha virt. eigenvalues --    2.90621   2.98563   2.99088   3.07313   3.10733
 Alpha virt. eigenvalues --    3.19415   3.23406   3.23724   3.23805   3.25570
 Alpha virt. eigenvalues --    3.30299   3.30600   3.31683   3.33244   3.36754
 Alpha virt. eigenvalues --    3.37378   3.38912   3.42738   3.44792   3.48725
 Alpha virt. eigenvalues --    3.55286   3.57314   3.60500   3.70969   3.93741
 Alpha virt. eigenvalues --    4.19604   4.24491   4.43260   4.44551   4.57973
 Alpha virt. eigenvalues --    4.73689   4.91203   5.09171   5.10545   5.19318
 Alpha virt. eigenvalues --    5.49841   6.51426   6.59123   6.80809   6.86690
 Alpha virt. eigenvalues --    6.91050   6.94338   7.02666   7.11210   7.19034
 Alpha virt. eigenvalues --    7.37064   7.44459   7.59270   7.76530   7.95032
 Alpha virt. eigenvalues --    8.19568  13.18694
          Condensed to atoms (all electrons):
               1          2          3          4
     1  O    8.666896  -0.128845  -0.110091   0.110871
     2  Cl  -0.128845  17.116023   0.008145  -0.011994
     3  Cl  -0.110091   0.008145  17.772263   0.083722
     4  H    0.110871  -0.011994   0.083722   0.541203
 Mulliken charges:
               1
     1  O   -0.538831
     2  Cl   0.016672
     3  Cl  -0.754039
     4  H    0.276199
 Sum of Mulliken charges =  -1.00000
 Mulliken charges with hydrogens summed into heavy atoms:
               1
     1  O   -0.262632
     2  Cl   0.016672
     3  Cl  -0.754039
 Electronic spatial extent (au):  <R**2>=            792.2604
 Charge=             -1.0000 electrons
 Dipole moment (field-independent basis, Debye):
    X=              0.9812    Y=              8.4646    Z=              0.0000  Tot=              8.5212
 Quadrupole moment (field-independent basis, Debye-Ang):
   XX=            -39.3066   YY=            -63.1990   ZZ=            -36.6126
   XY=             -6.7618   XZ=              0.0000   YZ=              0.0000
 Traceless Quadrupole moment (field-independent basis, Debye-Ang):
   XX=              7.0661   YY=            -16.8263   ZZ=              9.7601
   XY=             -6.7618   XZ=              0.0000   YZ=              0.0000
 Octapole moment (field-independent basis, Debye-Ang**2):
  XXX=            -33.6897  YYY=            213.7510  ZZZ=              0.0000  XYY=              6.5944
  XXY=             50.0957  XXZ=              0.0000  XZZ=            -12.2724  YZZ=             45.8105
  YYZ=             -0.0000  XYZ=             -0.0000
 Hexadecapole moment (field-independent basis, Debye-Ang**3):
 XXXX=           -309.6146 YYYY=          -1024.6991 ZZZZ=            -48.9526 XXXY=            -96.8680
 XXXZ=              0.0000 YYYX=           -143.9325 YYYZ=              0.0000 ZZZX=              0.0000
 ZZZY=              0.0000 XXYY=           -204.3360 XXZZ=            -64.0842 YYZZ=           -144.9307
 XXYZ=              0.0000 YYXZ=              0.0000 ZZXY=            -31.2583
 N-N= 1.218892703741D+02 E-N=-2.621655080210D+03  KE= 9.949268800834D+02
 No NMR shielding tensors so no spin-rotation constants.
 Leave Link  601 at Fri Oct  8 12:24:50 2021, MaxMem= 16106127360 cpu:               5.9 elap:               0.3
 (Enter /sw/contrib/gaussian/g16/B01/g16/l607.exe)
 ******************************Gaussian NBO Version 3.1******************************
             N A T U R A L   A T O M I C   O R B I T A L   A N D
          N A T U R A L   B O N D   O R B I T A L   A N A L Y S I S
 ******************************Gaussian NBO Version 3.1******************************
       /RESON  / : Allow strongly delocalized NBO set

 Analyzing the MP2 density

 Job title: title                                                           

 Storage needed:     86521 in NPA,    114817 in NBO (********** available)
 GSVD:  LWork=        1191 too small for GESVD, short by       52514 words or       52514 for optimal perf.


 NATURAL POPULATIONS:  Natural atomic orbital occupancies 
                                                          
   NAO  Atom  No  lang   Type(AO)    Occupancy
 --------------------------------------------
     1    O    1  S      Cor( 1S)     1.99976
     2    O    1  S      Val( 2S)     1.81945
     3    O    1  S      Ryd( 3S)     0.01087
     4    O    1  S      Ryd( 4S)     0.00113
     5    O    1  S      Ryd( 5S)     0.00018
     6    O    1  px     Val( 2p)     1.18732
     7    O    1  px     Ryd( 3p)     0.00733
     8    O    1  px     Ryd( 4p)     0.00065
     9    O    1  px     Ryd( 5p)     0.00053
    10    O    1  py     Val( 2p)     1.73506
    11    O    1  py     Ryd( 3p)     0.01362
    12    O    1  py     Ryd( 4p)     0.00071
    13    O    1  py     Ryd( 5p)     0.00039
    14    O    1  pz     Val( 2p)     1.94631
    15    O    1  pz     Ryd( 3p)     0.02138
    16    O    1  pz     Ryd( 4p)     0.00063
    17    O    1  pz     Ryd( 5p)     0.00011
    18    O    1  dxy    Ryd( 3d)     0.00845
    19    O    1  dxy    Ryd( 4d)     0.00049
    20    O    1  dxy    Ryd( 5d)     0.00013
    21    O    1  dxz    Ryd( 3d)     0.00882
    22    O    1  dxz    Ryd( 4d)     0.00059
    23    O    1  dxz    Ryd( 5d)     0.00010
    24    O    1  dyz    Ryd( 3d)     0.00708
    25    O    1  dyz    Ryd( 4d)     0.00065
    26    O    1  dyz    Ryd( 5d)     0.00033
    27    O    1  dx2y2  Ryd( 3d)     0.01247
    28    O    1  dx2y2  Ryd( 4d)     0.00042
    29    O    1  dx2y2  Ryd( 5d)     0.00015
    30    O    1  dz2    Ryd( 3d)     0.00897
    31    O    1  dz2    Ryd( 4d)     0.00061
    32    O    1  dz2    Ryd( 5d)     0.00016
    33    O    1  f(0)   Ryd( 4f)     0.00067
    34    O    1  f(0)   Ryd( 5f)     0.00011
    35    O    1  f(C1)  Ryd( 4f)     0.00067
    36    O    1  f(C1)  Ryd( 5f)     0.00012
    37    O    1  f(S1)  Ryd( 4f)     0.00063
    38    O    1  f(S1)  Ryd( 5f)     0.00011
    39    O    1  f(C2)  Ryd( 4f)     0.00063
    40    O    1  f(C2)  Ryd( 5f)     0.00013
    41    O    1  f(S2)  Ryd( 4f)     0.00055
    42    O    1  f(S2)  Ryd( 5f)     0.00012
    43    O    1  f(C3)  Ryd( 4f)     0.00062
    44    O    1  f(C3)  Ryd( 5f)     0.00014
    45    O    1  f(S3)  Ryd( 4f)     0.00057
    46    O    1  f(S3)  Ryd( 5f)     0.00012

    47   Cl    2  S      Cor( 1S)     2.00000
    48   Cl    2  S      Cor( 2S)     1.99977
    49   Cl    2  S      Val( 3S)     1.87789
    50   Cl    2  S      Ryd( 4S)     0.00852
    51   Cl    2  S      Ryd( 5S)     0.00055
    52   Cl    2  S      Ryd( 6S)     0.00017
    53   Cl    2  px     Cor( 2p)     1.99996
    54   Cl    2  px     Val( 3p)     0.93079
    55   Cl    2  px     Ryd( 4p)     0.00694
    56   Cl    2  px     Ryd( 5p)     0.00053
    57   Cl    2  px     Ryd( 6p)     0.00022
    58   Cl    2  py     Cor( 2p)     2.00003
    59   Cl    2  py     Val( 3p)     1.95269
    60   Cl    2  py     Ryd( 4p)     0.01033
    61   Cl    2  py     Ryd( 5p)     0.00053
    62   Cl    2  py     Ryd( 6p)     0.00007
    63   Cl    2  pz     Cor( 2p)     2.00003
    64   Cl    2  pz     Val( 3p)     1.95379
    65   Cl    2  pz     Ryd( 4p)     0.01125
    66   Cl    2  pz     Ryd( 5p)     0.00071
    67   Cl    2  pz     Ryd( 6p)     0.00002
    68   Cl    2  dxy    Ryd( 3d)     0.01817
    69   Cl    2  dxy    Ryd( 4d)     0.00110
    70   Cl    2  dxy    Ryd( 5d)     0.00037
    71   Cl    2  dxz    Ryd( 3d)     0.02249
    72   Cl    2  dxz    Ryd( 4d)     0.00129
    73   Cl    2  dxz    Ryd( 5d)     0.00037
    74   Cl    2  dyz    Ryd( 3d)     0.01689
    75   Cl    2  dyz    Ryd( 4d)     0.00070
    76   Cl    2  dyz    Ryd( 5d)     0.00023
    77   Cl    2  dx2y2  Ryd( 3d)     0.01868
    78   Cl    2  dx2y2  Ryd( 4d)     0.00048
    79   Cl    2  dx2y2  Ryd( 5d)     0.00018
    80   Cl    2  dz2    Ryd( 3d)     0.01766
    81   Cl    2  dz2    Ryd( 4d)     0.00059
    82   Cl    2  dz2    Ryd( 5d)     0.00020
    83   Cl    2  f(0)   Ryd( 4f)     0.00132
    84   Cl    2  f(0)   Ryd( 5f)     0.00014
    85   Cl    2  f(C1)  Ryd( 4f)     0.00149
    86   Cl    2  f(C1)  Ryd( 5f)     0.00015
    87   Cl    2  f(S1)  Ryd( 4f)     0.00127
    88   Cl    2  f(S1)  Ryd( 5f)     0.00013
    89   Cl    2  f(C2)  Ryd( 4f)     0.00135
    90   Cl    2  f(C2)  Ryd( 5f)     0.00014
    91   Cl    2  f(S2)  Ryd( 4f)     0.00121
    92   Cl    2  f(S2)  Ryd( 5f)     0.00013
    93   Cl    2  f(C3)  Ryd( 4f)     0.00163
    94   Cl    2  f(C3)  Ryd( 5f)     0.00014
    95   Cl    2  f(S3)  Ryd( 4f)     0.00129
    96   Cl    2  f(S3)  Ryd( 5f)     0.00015

    97   Cl    3  S      Cor( 1S)     2.00000
    98   Cl    3  S      Cor( 2S)     1.99987
    99   Cl    3  S      Val( 3S)     1.94591
   100   Cl    3  S      Ryd( 4S)     0.00136
   101   Cl    3  S      Ryd( 5S)     0.00026
   102   Cl    3  S      Ryd( 6S)     0.00011
   103   Cl    3  px     Cor( 2p)     2.00003
   104   Cl    3  px     Val( 3p)     1.94254
   105   Cl    3  px     Ryd( 4p)     0.01171
   106   Cl    3  px     Ryd( 5p)     0.00055
   107   Cl    3  px     Ryd( 6p)     0.00009
   108   Cl    3  py     Cor( 2p)     2.00001
   109   Cl    3  py     Val( 3p)     1.78817
   110   Cl    3  py     Ryd( 4p)     0.00956
   111   Cl    3  py     Ryd( 5p)     0.00051
   112   Cl    3  py     Ryd( 6p)     0.00009
   113   Cl    3  pz     Cor( 2p)     2.00003
   114   Cl    3  pz     Val( 3p)     1.95241
   115   Cl    3  pz     Ryd( 4p)     0.01190
   116   Cl    3  pz     Ryd( 5p)     0.00055
   117   Cl    3  pz     Ryd( 6p)     0.00006
   118   Cl    3  dxy    Ryd( 3d)     0.01847
   119   Cl    3  dxy    Ryd( 4d)     0.00061
   120   Cl    3  dxy    Ryd( 5d)     0.00013
   121   Cl    3  dxz    Ryd( 3d)     0.01813
   122   Cl    3  dxz    Ryd( 4d)     0.00091
   123   Cl    3  dxz    Ryd( 5d)     0.00013
   124   Cl    3  dyz    Ryd( 3d)     0.01841
   125   Cl    3  dyz    Ryd( 4d)     0.00063
   126   Cl    3  dyz    Ryd( 5d)     0.00013
   127   Cl    3  dx2y2  Ryd( 3d)     0.01875
   128   Cl    3  dx2y2  Ryd( 4d)     0.00075
   129   Cl    3  dx2y2  Ryd( 5d)     0.00015
   130   Cl    3  dz2    Ryd( 3d)     0.01838
   131   Cl    3  dz2    Ryd( 4d)     0.00089
   132   Cl    3  dz2    Ryd( 5d)     0.00011
   133   Cl    3  f(0)   Ryd( 4f)     0.00127
   134   Cl    3  f(0)   Ryd( 5f)     0.00015
   135   Cl    3  f(C1)  Ryd( 4f)     0.00128
   136   Cl    3  f(C1)  Ryd( 5f)     0.00014
   137   Cl    3  f(S1)  Ryd( 4f)     0.00132
   138   Cl    3  f(S1)  Ryd( 5f)     0.00018
   139   Cl    3  f(C2)  Ryd( 4f)     0.00126
   140   Cl    3  f(C2)  Ryd( 5f)     0.00016
   141   Cl    3  f(S2)  Ryd( 4f)     0.00128
   142   Cl    3  f(S2)  Ryd( 5f)     0.00015
   143   Cl    3  f(C3)  Ryd( 4f)     0.00128
   144   Cl    3  f(C3)  Ryd( 5f)     0.00017
   145   Cl    3  f(S3)  Ryd( 4f)     0.00130
   146   Cl    3  f(S3)  Ryd( 5f)     0.00018

   147    H    4  S      Val( 1S)     0.53636
   148    H    4  S      Ryd( 2S)     0.00612
   149    H    4  S      Ryd( 3S)     0.00050
   150    H    4  S      Ryd( 4S)     0.00021
   151    H    4  px     Ryd( 2p)     0.00438
   152    H    4  px     Ryd( 3p)     0.00052
   153    H    4  px     Ryd( 4p)     0.00012
   154    H    4  py     Ryd( 2p)     0.00495
   155    H    4  py     Ryd( 3p)     0.00136
   156    H    4  py     Ryd( 4p)     0.00020
   157    H    4  pz     Ryd( 2p)     0.00555
   158    H    4  pz     Ryd( 3p)     0.00034
   159    H    4  pz     Ryd( 4p)     0.00030
   160    H    4  dxy    Ryd( 3d)     0.00027
   161    H    4  dxy    Ryd( 4d)     0.00011
   162    H    4  dxz    Ryd( 3d)     0.00023
   163    H    4  dxz    Ryd( 4d)     0.00007
   164    H    4  dyz    Ryd( 3d)     0.00038
   165    H    4  dyz    Ryd( 4d)     0.00010
   166    H    4  dx2y2  Ryd( 3d)     0.00022
   167    H    4  dx2y2  Ryd( 4d)     0.00013
   168    H    4  dz2    Ryd( 3d)     0.00024
   169    H    4  dz2    Ryd( 4d)     0.00010


 Summary of Natural Population Analysis:                  
                                                          
                                       Natural Population 
                Natural  -----------------------------------------------
    Atom  No    Charge         Core      Valence    Rydberg      Total
 -----------------------------------------------------------------------
      O    1   -0.80005      1.99976     6.68814    0.11215     8.80005
     Cl    2    0.13526      9.99978     6.71516    0.14980    16.86474
     Cl    3   -0.77244      9.99994     7.62902    0.14347    17.77244
      H    4    0.43724      0.00000     0.53636    0.02641     0.56276
 =======================================================================
   * Total *   -1.00000     21.99949    21.56869    0.43182    44.00000

                                 Natural Population      
 --------------------------------------------------------
   Core                      21.99949 ( 99.9977% of  22)
   Valence                   21.56869 ( 98.0395% of  22)
   Natural Minimal Basis     43.56818 ( 99.0186% of  44)
   Natural Rydberg Basis      0.43182 (  0.9814% of  44)
 --------------------------------------------------------

    Atom  No          Natural Electron Configuration
 ----------------------------------------------------------------------------
      O    1      [core]2S( 1.82)2p( 4.87)3S( 0.01)3p( 0.04)3d( 0.05)
     Cl    2      [core]3S( 1.88)3p( 4.84)4S( 0.01)3d( 0.09)4p( 0.03)4f( 0.01)
     Cl    3      [core]3S( 1.95)3p( 5.68)3d( 0.09)4p( 0.03)4f( 0.01)
      H    4            1S( 0.54)2S( 0.01)2p( 0.01)


 NATURAL BOND ORBITAL ANALYSIS:
 Warning:  a bond orbital has occupanc of -0.00009
 Warning:  a bond orbital has occupanc of -0.00000

                       Occupancies       Lewis Structure    Low   High
           Occ.    -------------------  -----------------   occ   occ
  Cycle   Thresh.   Lewis   Non-Lewis     CR  BD  3C  LP    (L)   (NL)   Dev
 =============================================================================
   1(1)    1.90    43.32854   0.67146     11   2   0   9     1      1    0.29
 Warning:  a bond orbital has occupanc of -0.00009
 Warning:  a bond orbital has occupanc of -0.00000
   2(2)    1.90    43.21498   0.78502     11   2   0   9     1      1    0.45
 Warning:  a bond orbital has occupanc of -0.00009
 Warning:  a bond orbital has occupanc of -0.00000
   3(3)    1.90    43.32854   0.67146     11   2   0   9     1      1    0.29
 Warning:  a bond orbital has occupanc of -0.00009
 Warning:  a bond orbital has occupanc of -0.00000
   4(1)    1.80    43.32854   0.67146     11   2   0   9     1      1    0.29
 Warning:  a bond orbital has occupanc of -0.00009
 Warning:  a bond orbital has occupanc of -0.00000
   5(2)    1.80    43.21498   0.78502     11   2   0   9     1      1    0.45
 Warning:  a bond orbital has occupanc of -0.00009
 Warning:  a bond orbital has occupanc of -0.00000
   6(3)    1.80    43.32854   0.67146     11   2   0   9     1      1    0.29
 Warning:  a bond orbital has occupanc of -0.00009
 Warning:  a bond orbital has occupanc of -0.00000
   7(1)    1.70    43.32854   0.67146     11   2   0   9     0      1    0.29
 Warning:  a bond orbital has occupanc of -0.00009
 Warning:  a bond orbital has occupanc of -0.00000
   8(2)    1.70    43.32854   0.67146     11   2   0   9     0      1    0.29
 Warning:  a bond orbital has occupanc of -0.00009
 Warning:  a bond orbital has occupanc of -0.00000
   9(1)    1.60    43.02206   0.97794     11   1   0  10     0      1    0.45
 Warning:  a bond orbital has occupanc of -0.00009
 Warning:  a bond orbital has occupanc of -0.00000
  10(2)    1.60    43.02206   0.97794     11   1   0  10     0      1    0.45
 Warning:  a bond orbital has occupanc of -0.00009
 Warning:  a bond orbital has occupanc of -0.00000
  11(1)    1.50    43.02206   0.97794     11   1   0  10     0      1    0.45
 Warning:  a bond orbital has occupanc of -0.00009
 Warning:  a bond orbital has occupanc of -0.00000
  12(2)    1.50    43.02206   0.97794     11   1   0  10     0      1    0.45
 Warning:  a bond orbital has occupanc of -0.00009
 Warning:  a bond orbital has occupanc of -0.00000
  13(1)    1.90    43.32854   0.67146     11   2   0   9     1      1    0.29
 -----------------------------------------------------------------------------

 Structure accepted: RESONANCE keyword permits strongly delocalized structure

 --------------------------------------------------------
   Core                     21.99949 ( 99.998% of  22)
   Valence Lewis            21.32905 ( 96.950% of  22)
  ==================       ============================
   Total Lewis              43.32854 ( 98.474% of  44)
  -----------------------------------------------------
   Valence non-Lewis         0.28587 (  0.650% of  44)
   Rydberg non-Lewis         0.38559 (  0.876% of  44)
  ==================       ============================
   Total non-Lewis           0.67146 (  1.526% of  44)
 --------------------------------------------------------


       (Occupancy)   Bond orbital/ Coefficients/ Hybrids
 ---------------------------------------------------------------------------------
     1. (1.93829) BD ( 1) O   1 -Cl   2  
                ( 57.85%)   0.7606* O   1 s( 10.54%)p 8.43( 88.93%)d 0.05(  0.51%)
                                                  f 0.00(  0.02%)
                                            0.0003  0.3201 -0.0517  0.0167 -0.0007
                                            0.9407 -0.0390 -0.0107 -0.0149 -0.0430
                                           -0.0253 -0.0045  0.0011  0.0000  0.0000
                                            0.0000  0.0000 -0.0173 -0.0014  0.0020
                                            0.0000  0.0000  0.0000  0.0000  0.0000
                                            0.0000  0.0543  0.0042  0.0025 -0.0423
                                           -0.0037  0.0001  0.0000  0.0000 -0.0109
                                            0.0011 -0.0001  0.0001  0.0000  0.0000
                                            0.0000  0.0000  0.0074  0.0009 -0.0009
                                            0.0016
                ( 42.15%)   0.6492*Cl   2 s(  9.10%)p 9.85( 89.67%)d 0.12(  1.11%)
                                                  f 0.01(  0.12%)
                                           -0.0000  0.0006  0.2955 -0.0597 -0.0106
                                           -0.0021 -0.0004 -0.9444  0.0661  0.0138
                                           -0.0043 -0.0000 -0.0110 -0.0013  0.0030
                                           -0.0011  0.0000  0.0000  0.0000  0.0000
                                            0.0000  0.0128 -0.0000  0.0004  0.0000
                                            0.0000  0.0000  0.0000  0.0000  0.0000
                                            0.0876 -0.0119 -0.0010 -0.0556  0.0073
                                            0.0015  0.0000  0.0000  0.0215 -0.0030
                                            0.0006 -0.0001  0.0000  0.0000  0.0000
                                            0.0000 -0.0264  0.0030 -0.0020  0.0003
     2. (1.95808) BD ( 1) O   1 - H   4  
                ( 82.20%)   0.9066* O   1 s( 24.49%)p 3.07( 75.13%)d 0.01(  0.36%)
                                                  f 0.00(  0.01%)
                                           -0.0002 -0.4948 -0.0026 -0.0075 -0.0030
                                            0.2048 -0.0125 -0.0024 -0.0054  0.8421
                                            0.0056 -0.0041 -0.0032  0.0000  0.0000
                                            0.0000  0.0000  0.0066  0.0023  0.0004
                                            0.0000  0.0000  0.0000  0.0000  0.0000
                                            0.0000  0.0517  0.0068 -0.0002  0.0288
                                            0.0015 -0.0044  0.0000  0.0000 -0.0019
                                           -0.0004 -0.0092  0.0007  0.0000  0.0000
                                            0.0000  0.0000 -0.0022 -0.0016  0.0005
                                           -0.0004
                ( 17.80%)   0.4219* H   4 s( 99.76%)p 0.00(  0.23%)d 0.00(  0.01%)
                                           -0.9980 -0.0356 -0.0141  0.0003 -0.0075
                                           -0.0146  0.0035  0.0187 -0.0393 -0.0115
                                            0.0000  0.0000  0.0000 -0.0003 -0.0019
                                            0.0000  0.0000  0.0000  0.0000  0.0051
                                            0.0056  0.0005  0.0079
     3. (1.99976) CR ( 1) O   1           s(100.00%)p 0.00(  0.00%)
                                            1.0000 -0.0003  0.0000 -0.0000 -0.0000
                                           -0.0002  0.0000  0.0000  0.0000  0.0001
                                            0.0000 -0.0000 -0.0000  0.0000  0.0000
                                            0.0000  0.0000  0.0000  0.0000  0.0000
                                            0.0000  0.0000  0.0000  0.0000  0.0000
                                            0.0000 -0.0000  0.0000 -0.0000  0.0000
                                            0.0000 -0.0000  0.0000  0.0000  0.0000
                                           -0.0000 -0.0000  0.0000  0.0000  0.0000
                                            0.0000  0.0000 -0.0000 -0.0000 -0.0000
                                           -0.0000
     4. (2.00000) CR ( 1)Cl   2           s(100.00%)
                                            1.0000  0.0000 -0.0000 -0.0000 -0.0000
                                           -0.0000 -0.0000 -0.0000  0.0000  0.0000
                                           -0.0000 -0.0000 -0.0000 -0.0000  0.0000
                                           -0.0000  0.0000  0.0000  0.0000  0.0000
                                            0.0000  0.0000 -0.0000  0.0000  0.0000
                                            0.0000  0.0000  0.0000  0.0000  0.0000
                                            0.0000 -0.0000 -0.0000 -0.0000  0.0000
                                            0.0000  0.0000  0.0000  0.0000 -0.0000
                                            0.0000 -0.0000  0.0000  0.0000  0.0000
                                            0.0000 -0.0000  0.0000 -0.0000  0.0000
     5. (1.99977) CR ( 2)Cl   2           s(100.00%)p 0.00(  0.00%)
                                            0.0000  1.0000 -0.0004  0.0000  0.0000
                                            0.0000  0.0000  0.0004 -0.0000 -0.0000
                                            0.0000  0.0000  0.0000  0.0000 -0.0000
                                            0.0000  0.0000  0.0000  0.0000  0.0000
                                            0.0000 -0.0000  0.0000  0.0000  0.0000
                                            0.0000  0.0000  0.0000  0.0000  0.0000
                                           -0.0000  0.0000  0.0000  0.0000 -0.0000
                                           -0.0000  0.0000  0.0000 -0.0000  0.0000
                                           -0.0000  0.0000  0.0000  0.0000  0.0000
                                            0.0000  0.0000 -0.0000  0.0000 -0.0000
     6. (1.99996) CR ( 3)Cl   2           s(  0.00%)p 1.00(100.00%)
                                           -0.0000  0.0000  0.0001 -0.0000 -0.0000
                                           -0.0000  1.0000 -0.0004  0.0000  0.0000
                                           -0.0000  0.0000 -0.0000 -0.0000  0.0000
                                           -0.0000  0.0000  0.0000  0.0000  0.0000
                                            0.0000  0.0000 -0.0000 -0.0000  0.0000
                                            0.0000  0.0000  0.0000  0.0000  0.0000
                                            0.0000 -0.0000 -0.0000 -0.0000  0.0000
                                            0.0000  0.0000  0.0000  0.0000 -0.0000
                                            0.0000 -0.0000  0.0000  0.0000  0.0000
                                            0.0000 -0.0000  0.0000 -0.0000  0.0000
     7. (2.00003) CR ( 4)Cl   2           s(  0.00%)p 1.00(100.00%)
                                           -0.0000  0.0000  0.0000  0.0000  0.0000
                                           -0.0000  0.0000 -0.0000  0.0000  0.0000
                                           -0.0000  1.0000  0.0002  0.0000  0.0000
                                            0.0000  0.0000  0.0000  0.0000  0.0000
                                            0.0000  0.0000  0.0000  0.0000  0.0000
                                            0.0000  0.0000  0.0000  0.0000  0.0000
                                           -0.0000 -0.0000 -0.0000 -0.0000 -0.0000
                                            0.0000  0.0000  0.0000  0.0000  0.0000
                                           -0.0000  0.0000  0.0000  0.0000  0.0000
                                            0.0000 -0.0000  0.0000  0.0000 -0.0000
     8. (2.00003) CR ( 5)Cl   2           s(  0.00%)p 1.00(100.00%)
                                            0.0000  0.0000  0.0000  0.0000  0.0000
                                            0.0000  0.0000  0.0000  0.0000  0.0000
                                            0.0000  0.0000  0.0000  0.0000  0.0000
                                            0.0000  1.0000  0.0002  0.0000  0.0000
                                           -0.0000  0.0000  0.0000  0.0000  0.0000
                                            0.0000  0.0000  0.0000  0.0000  0.0000
                                            0.0000  0.0000  0.0000  0.0000  0.0000
                                            0.0000 -0.0000  0.0000  0.0000  0.0000
                                            0.0000  0.0000  0.0000 -0.0000  0.0000
                                           -0.0000  0.0000  0.0000  0.0000  0.0000
     9. (2.00000) CR ( 1)Cl   3           s(100.00%)
                                            1.0000  0.0000  0.0000 -0.0000  0.0000
                                           -0.0000 -0.0000 -0.0000 -0.0000 -0.0000
                                            0.0000 -0.0000 -0.0000  0.0000 -0.0000
                                           -0.0000  0.0000  0.0000  0.0000  0.0000
                                            0.0000 -0.0000 -0.0000 -0.0000  0.0000
                                            0.0000  0.0000  0.0000  0.0000  0.0000
                                            0.0000  0.0000  0.0000  0.0000  0.0000
                                            0.0000  0.0000  0.0000  0.0000  0.0000
                                           -0.0000 -0.0000  0.0000  0.0000  0.0000
                                            0.0000  0.0000  0.0000 -0.0000 -0.0000
    10. (1.99987) CR ( 2)Cl   3           s(100.00%)
                                            0.0000  1.0000 -0.0002  0.0000 -0.0000
                                            0.0000  0.0000  0.0000 -0.0000  0.0000
                                           -0.0000  0.0000  0.0001 -0.0000  0.0000
                                            0.0000  0.0000  0.0000  0.0000  0.0000
                                            0.0000  0.0000  0.0000  0.0000  0.0000
                                            0.0000  0.0000  0.0000  0.0000  0.0000
                                           -0.0000 -0.0000 -0.0000 -0.0000 -0.0000
                                           -0.0000  0.0000  0.0000 -0.0000 -0.0000
                                           -0.0000  0.0000  0.0000  0.0000  0.0000
                                            0.0000 -0.0000  0.0000  0.0000  0.0000
    11. (2.00003) CR ( 3)Cl   3           s(  0.00%)p 1.00(100.00%)
                                           -0.0000  0.0000  0.0000  0.0000  0.0000
                                            0.0000  1.0000  0.0000  0.0000  0.0000
                                           -0.0000 -0.0000 -0.0000  0.0000 -0.0000
                                            0.0000  0.0000  0.0000  0.0000  0.0000
                                            0.0000  0.0000  0.0000 -0.0000  0.0000
                                            0.0000  0.0000  0.0000  0.0000  0.0000
                                            0.0000 -0.0000 -0.0000  0.0000  0.0000
                                            0.0000  0.0000  0.0000 -0.0000 -0.0000
                                            0.0000  0.0000  0.0000  0.0000  0.0000
                                            0.0000 -0.0000 -0.0000  0.0000  0.0000
    12. (2.00001) CR ( 4)Cl   3           s(  0.00%)p 1.00(100.00%)
                                           -0.0000  0.0000  0.0000 -0.0000  0.0000
                                           -0.0000 -0.0000 -0.0000  0.0000 -0.0000
                                           -0.0000  1.0000 -0.0000  0.0000 -0.0000
                                           -0.0000  0.0000  0.0000  0.0000  0.0000
                                            0.0000 -0.0000 -0.0000 -0.0000  0.0000
                                            0.0000  0.0000  0.0000  0.0000  0.0000
                                            0.0000 -0.0000  0.0000  0.0000  0.0000
                                            0.0000  0.0000  0.0000 -0.0000 -0.0000
                                            0.0000 -0.0000  0.0000  0.0000  0.0000
                                            0.0000 -0.0000 -0.0000  0.0000 -0.0000
    13. (2.00003) CR ( 5)Cl   3           s(  0.00%)p 1.00(100.00%)
                                            0.0000  0.0000  0.0000  0.0000  0.0000
                                            0.0000  0.0000  0.0000  0.0000  0.0000
                                            0.0000  0.0000  0.0000  0.0000  0.0000
                                            0.0000  1.0000  0.0000  0.0000  0.0000
                                           -0.0000  0.0000  0.0000  0.0000  0.0000
                                           -0.0000 -0.0000  0.0000  0.0000 -0.0000
                                            0.0000  0.0000  0.0000  0.0000  0.0000
                                            0.0000 -0.0000 -0.0000  0.0000  0.0000
                                            0.0000  0.0000 -0.0000 -0.0000  0.0000
                                            0.0000  0.0000  0.0000  0.0000  0.0000
    14. (1.96603) LP ( 1) O   1           s( 65.20%)p 0.53( 34.73%)d 0.00(  0.07%)
                                                  f 0.00(  0.00%)
                                            0.0002  0.8074  0.0086 -0.0081 -0.0018
                                           -0.2495  0.0003 -0.0041 -0.0017  0.5338
                                            0.0077  0.0055  0.0020  0.0000  0.0000
                                            0.0000  0.0000  0.0214  0.0022 -0.0030
                                            0.0000  0.0000  0.0000  0.0000  0.0000
                                            0.0000  0.0113  0.0001 -0.0038  0.0085
                                            0.0005  0.0008  0.0000  0.0000 -0.0002
                                            0.0005 -0.0021 -0.0001  0.0000  0.0000
                                            0.0000  0.0000  0.0032 -0.0023  0.0041
                                           -0.0012
    15. (1.95033) LP ( 2) O   1           s(  0.00%)p 1.00( 99.83%)d 0.00(  0.16%)
                                                  f 0.00(  0.01%)
                                            0.0000  0.0000  0.0000  0.0000  0.0000
                                            0.0000  0.0000  0.0000  0.0000  0.0000
                                            0.0000  0.0000  0.0000  0.9990  0.0161
                                            0.0052  0.0087  0.0000  0.0000  0.0000
                                            0.0318  0.0048 -0.0014 -0.0199  0.0043
                                            0.0111  0.0000  0.0000  0.0000  0.0000
                                            0.0000  0.0000 -0.0091  0.0003  0.0000
                                            0.0000  0.0000  0.0000  0.0065 -0.0024
                                            0.0004  0.0012  0.0000  0.0000  0.0000
                                            0.0000
    16. (1.97390) LP ( 1)Cl   2           s( 91.12%)p 0.10(  8.86%)d 0.00(  0.02%)
                                                  f 0.00(  0.00%)
                                            0.0000  0.0003  0.9545  0.0075  0.0013
                                            0.0003  0.0001  0.2962 -0.0064 -0.0032
                                            0.0015  0.0000 -0.0279  0.0012  0.0000
                                           -0.0005  0.0000  0.0000  0.0000  0.0000
                                            0.0000 -0.0003 -0.0004 -0.0003  0.0000
                                            0.0000  0.0000  0.0000  0.0000  0.0000
                                           -0.0129  0.0004  0.0003  0.0081  0.0005
                                            0.0002  0.0000  0.0000 -0.0022 -0.0003
                                            0.0001 -0.0000  0.0000  0.0000  0.0000
                                            0.0000  0.0035 -0.0001 -0.0003  0.0002
    17. (1.95559) LP ( 2)Cl   2           s(  0.00%)p 1.00( 99.94%)d 0.00(  0.06%)
                                                  f 0.00(  0.01%)
                                            0.0000  0.0000  0.0000  0.0000  0.0000
                                            0.0000  0.0000  0.0000  0.0000  0.0000
                                            0.0000  0.0000  0.0000  0.0000  0.0000
                                            0.0000 -0.0002  0.9995  0.0158  0.0052
                                           -0.0024  0.0000  0.0000  0.0000  0.0105
                                            0.0196  0.0076  0.0030  0.0023  0.0003
                                            0.0000  0.0000  0.0000  0.0000  0.0000
                                            0.0000 -0.0054  0.0013  0.0000  0.0000
                                            0.0000  0.0000  0.0064 -0.0012  0.0007
                                           -0.0006  0.0000  0.0000  0.0000  0.0000
    18. (1.95433) LP ( 3)Cl   2           s(  0.09%)p99.99( 99.85%)d 0.48(  0.05%)
                                                  f 0.09(  0.01%)
                                            0.0000 -0.0000  0.0300  0.0055  0.0036
                                           -0.0020  0.0000 -0.0032 -0.0002 -0.0000
                                           -0.0007 -0.0002  0.9992  0.0136  0.0015
                                            0.0002  0.0000  0.0000  0.0000  0.0000
                                            0.0000  0.0027  0.0177  0.0075  0.0000
                                            0.0000  0.0000  0.0000  0.0000  0.0000
                                           -0.0065 -0.0042 -0.0025 -0.0006 -0.0025
                                           -0.0000  0.0000  0.0000  0.0001  0.0002
                                           -0.0024  0.0003  0.0000  0.0000  0.0000
                                            0.0000 -0.0012  0.0002  0.0085 -0.0017
    19. (1.97557) LP ( 1)Cl   3           s( 86.83%)p 0.15( 13.17%)d 0.00(  0.00%)
                                                  f 0.00(  0.00%)
                                           -0.0000  0.0002  0.9318 -0.0006  0.0014
                                           -0.0002 -0.0000 -0.0929  0.0004 -0.0003
                                            0.0000 -0.0000 -0.3508  0.0032 -0.0006
                                           -0.0001  0.0000  0.0000  0.0000  0.0000
                                            0.0000 -0.0014 -0.0001 -0.0004  0.0000
                                            0.0000  0.0000  0.0000  0.0000  0.0000
                                            0.0027  0.0000  0.0006  0.0020  0.0002
                                            0.0006  0.0000  0.0000  0.0000  0.0000
                                            0.0000 -0.0001  0.0000  0.0000  0.0000
                                            0.0000  0.0000 -0.0001  0.0000 -0.0001
    20. (1.95279) LP ( 2)Cl   3           s(  0.00%)p 1.00( 99.98%)d 0.00(  0.02%)
                                                  f 0.00(  0.00%)
                                            0.0000  0.0000  0.0000  0.0000  0.0000
                                            0.0000  0.0000  0.0000  0.0000  0.0000
                                            0.0000  0.0000  0.0000  0.0000  0.0000
                                            0.0000 -0.0000  0.9999  0.0039  0.0021
                                           -0.0007  0.0000  0.0000  0.0000  0.0025
                                           -0.0001 -0.0007  0.0118  0.0009 -0.0022
                                            0.0000  0.0000  0.0000  0.0000  0.0000
                                            0.0000 -0.0029 -0.0014  0.0000  0.0000
                                            0.0000  0.0000 -0.0032 -0.0014  0.0017
                                            0.0008  0.0000  0.0000  0.0000  0.0000
    21. (1.95242) LP ( 3)Cl   3           s(  0.01%)p 1.00( 99.97%)d 0.00(  0.02%)
                                                  f 0.00(  0.00%)
                                            0.0000 -0.0000  0.0078  0.0005 -0.0005
                                            0.0004 -0.0000  0.9715  0.0038  0.0018
                                           -0.0007 -0.0000 -0.2366 -0.0008 -0.0006
                                            0.0003  0.0000  0.0000  0.0000  0.0000
                                            0.0000  0.0118  0.0007 -0.0020  0.0000
                                            0.0000  0.0000  0.0000  0.0000  0.0000
                                            0.0048 -0.0004 -0.0016  0.0002  0.0002
                                            0.0001  0.0000  0.0000 -0.0012 -0.0006
                                            0.0002  0.0001  0.0000  0.0000  0.0000
                                            0.0000 -0.0033 -0.0014  0.0027  0.0012
    22. (1.75171) LP ( 4)Cl   3           s( 13.15%)p 6.59( 86.71%)d 0.01(  0.13%)
                                                  f 0.00(  0.01%)
                                           -0.0000  0.0000  0.3626  0.0018 -0.0041
                                            0.0006  0.0000  0.2176 -0.0011 -0.0006
                                           -0.0001  0.0000  0.9053 -0.0080 -0.0051
                                            0.0018  0.0000  0.0000  0.0000  0.0000
                                            0.0000  0.0137  0.0023  0.0000  0.0000
                                            0.0000  0.0000  0.0000  0.0000  0.0000
                                           -0.0270 -0.0038  0.0009 -0.0185 -0.0032
                                           -0.0003  0.0000  0.0000 -0.0015 -0.0006
                                           -0.0060 -0.0019  0.0000  0.0000  0.0000
                                            0.0000 -0.0049 -0.0014 -0.0057 -0.0014
    23. (0.02106) RY*( 1) O   1           s(  0.00%)p 1.00( 99.01%)d 0.01(  0.94%)
                                                  f 0.00(  0.05%)
                                            0.0000  0.0000  0.0000  0.0000  0.0000
                                            0.0000  0.0000  0.0000  0.0000  0.0000
                                            0.0000  0.0000  0.0000 -0.0197  0.9942
                                           -0.0310 -0.0159  0.0000  0.0000  0.0000
                                            0.0742  0.0268  0.0079 -0.0538  0.0014
                                            0.0144  0.0000  0.0000  0.0000  0.0000
                                            0.0000  0.0000 -0.0122  0.0100  0.0000
                                            0.0000  0.0000  0.0000  0.0109 -0.0100
                                           -0.0019  0.0013  0.0000  0.0000  0.0000
                                            0.0000
    24. (0.01715) RY*( 2) O   1           s( 26.62%)p 2.69( 71.57%)d 0.06(  1.66%)
                                                  f 0.01(  0.15%)
                                           -0.0000  0.0057  0.5152  0.0216 -0.0147
                                            0.0359 -0.3228 -0.0112  0.0252 -0.0167
                                            0.7787 -0.0052 -0.0523  0.0000  0.0000
                                            0.0000  0.0000  0.1189  0.0285  0.0115
                                            0.0000  0.0000  0.0000  0.0000  0.0000
                                            0.0000  0.0126  0.0068  0.0045  0.0351
                                            0.0024 -0.0066  0.0000  0.0000 -0.0044
                                            0.0006  0.0020  0.0027  0.0000  0.0000
                                            0.0000  0.0000  0.0281 -0.0126  0.0207
                                           -0.0105
    25. (0.00838) RY*( 3) O   1           s( 25.61%)p 0.79( 20.22%)d 2.08( 53.33%)
                                                  f 0.03(  0.84%)
                                           -0.0000  0.0115  0.4975  0.0909  0.0131
                                           -0.0115 -0.2555  0.0096  0.0673 -0.0047
                                           -0.3538  0.0320 -0.0773 -0.0000 -0.0000
                                           -0.0000 -0.0000 -0.6586 -0.0104 -0.0197
                                           -0.0000 -0.0000 -0.0000 -0.0000 -0.0000
                                           -0.0000  0.2123 -0.0073  0.0219  0.2306
                                           -0.0173  0.0010 -0.0000 -0.0000 -0.0206
                                            0.0132  0.0055 -0.0012 -0.0000 -0.0000
                                           -0.0000 -0.0000 -0.0089  0.0032 -0.0805
                                            0.0342
    26. (0.00701) RY*( 4) O   1           s(  0.00%)p 1.00(  0.34%)d99.99( 97.86%)
                                                  f 5.29(  1.80%)
                                            0.0000  0.0000  0.0000  0.0000  0.0000
                                            0.0000  0.0000  0.0000  0.0000  0.0000
                                            0.0000  0.0000  0.0000 -0.0220 -0.0512
                                           -0.0118 -0.0125  0.0000  0.0000  0.0000
                                            0.9173 -0.0420  0.0153  0.3670 -0.0190
                                            0.0104  0.0000  0.0000  0.0000  0.0000
                                            0.0000  0.0000 -0.0406  0.0163  0.0000
                                            0.0000  0.0000  0.0000  0.1136 -0.0533
                                           -0.0162  0.0099  0.0000  0.0000  0.0000
                                            0.0000
    27. (0.00664) RY*( 5) O   1           s(  1.01%)p19.23( 19.35%)d77.25( 77.74%)
                                                  f 1.88(  1.90%)
                                           -0.0000 -0.0024  0.0883  0.0471 -0.0066
                                           -0.0222 -0.3005 -0.0033  0.0518 -0.0451
                                           -0.3117  0.0273 -0.0080  0.0000  0.0000
                                            0.0000  0.0000  0.6384  0.0019  0.0363
                                            0.0000  0.0000  0.0000  0.0000  0.0000
                                            0.0000  0.5191 -0.0171  0.0264  0.3121
                                           -0.0232  0.0119  0.0000  0.0000  0.0129
                                           -0.0109 -0.0544  0.0315  0.0000  0.0000
                                            0.0000  0.0000  0.1108 -0.0481  0.0112
                                            0.0030
    28. (0.00628) RY*( 6) O   1           s(  0.00%)p 1.00(  0.75%)d99.99( 98.00%)
                                                  f 1.67(  1.25%)
                                            0.0000  0.0000  0.0000  0.0000  0.0000
                                            0.0000  0.0000  0.0000  0.0000  0.0000
                                            0.0000  0.0000  0.0000  0.0293  0.0763
                                           -0.0125 -0.0253  0.0000  0.0000  0.0000
                                           -0.3615  0.0347  0.0063  0.9181 -0.0655
                                            0.0301  0.0000  0.0000  0.0000  0.0000
                                            0.0000  0.0000  0.0823 -0.0435  0.0000
                                            0.0000  0.0000  0.0000  0.0244 -0.0167
                                            0.0507 -0.0192  0.0000  0.0000  0.0000
                                            0.0000
    29. (0.00572) RY*( 7) O   1           s(  0.91%)p16.09( 14.57%)d91.01( 82.41%)
                                                  f 2.33(  2.11%)
                                           -0.0000  0.0209  0.0896  0.0192  0.0149
                                            0.0725  0.3656 -0.0000 -0.0636 -0.0083
                                            0.0517  0.0025 -0.0013  0.0000  0.0000
                                            0.0000  0.0000  0.0709 -0.0209 -0.0167
                                            0.0000  0.0000  0.0000  0.0000  0.0000
                                            0.0000 -0.3428  0.0170  0.0100  0.8310
                                           -0.0996 -0.0068  0.0000  0.0000  0.1024
                                           -0.0388 -0.0268  0.0124  0.0000  0.0000
                                            0.0000  0.0000 -0.0793  0.0318  0.0272
                                           -0.0142
    30. (0.00433) RY*( 8) O   1           s( 26.09%)p 0.72( 18.79%)d 2.05( 53.36%)
                                                  f 0.07(  1.76%)
                                            0.0000 -0.0061  0.4876  0.1502  0.0225
                                            0.0446 -0.0318  0.0210  0.0409  0.0336
                                           -0.3852  0.0524 -0.1748 -0.0000 -0.0000
                                           -0.0000 -0.0000  0.3317 -0.0209  0.0238
                                           -0.0000 -0.0000 -0.0000 -0.0000 -0.0000
                                           -0.0000 -0.5806  0.0350 -0.0068 -0.2850
                                            0.0532 -0.0134 -0.0000 -0.0000  0.0245
                                           -0.0125  0.0668 -0.0386 -0.0000 -0.0000
                                           -0.0000 -0.0000  0.0065 -0.0135  0.0940
                                           -0.0423
    31. (0.00237) RY*( 9) O   1           s( 15.55%)p 3.83( 59.48%)d 1.57( 24.37%)
                                                  f 0.04(  0.60%)
                                           -0.0000  0.0027  0.3843  0.0875 -0.0105
                                            0.0180  0.7655 -0.0013 -0.0229 -0.0097
                                            0.0459  0.0196 -0.0730  0.0000  0.0000
                                            0.0000  0.0000  0.0602 -0.0155 -0.0051
                                            0.0000  0.0000  0.0000  0.0000  0.0000
                                            0.0000  0.4270 -0.0570  0.1047 -0.1982
                                            0.0559 -0.0279  0.0000  0.0000 -0.0316
                                            0.0370  0.0009  0.0055  0.0000  0.0000
                                            0.0000  0.0000  0.0434 -0.0415 -0.0021
                                            0.0045
    32. (0.00072) RY*(10) O   1           s( 28.90%)p 2.16( 62.45%)d 0.25(  7.35%)
                                                  f 0.04(  1.30%)
                                            0.0000  0.0023 -0.0359  0.5301 -0.0823
                                           -0.0094  0.0184  0.0543  0.2441  0.0083
                                            0.0071 -0.7271  0.1809 -0.0000 -0.0000
                                           -0.0000 -0.0000 -0.0104  0.1843  0.0831
                                           -0.0000 -0.0000 -0.0000 -0.0000 -0.0000
                                           -0.0000 -0.0323 -0.0856 -0.0404  0.0013
                                           -0.1046 -0.1076 -0.0000 -0.0000 -0.0424
                                            0.0026 -0.0598 -0.0048 -0.0000 -0.0000
                                           -0.0000 -0.0000  0.0815 -0.0165  0.0082
                                            0.0243
    33. (0.00066) RY*(11) O   1           s(  0.00%)p 1.00(  2.34%)d29.05( 67.94%)
                                                  f12.71( 29.72%)
                                            0.0000  0.0000  0.0000  0.0000  0.0000
                                            0.0000  0.0000  0.0000  0.0000  0.0000
                                            0.0000  0.0000  0.0000 -0.0031  0.0123
                                            0.1471  0.0399  0.0000  0.0000  0.0000
                                            0.0121 -0.2111 -0.0143  0.0323  0.7951
                                            0.0364  0.0000  0.0000  0.0000  0.0000
                                            0.0000  0.0000  0.0838 -0.0018  0.0000
                                            0.0000  0.0000  0.0000 -0.0194 -0.0160
                                            0.5343 -0.0637  0.0000  0.0000  0.0000
                                            0.0000
    34. (0.00064) RY*(12) O   1           s(  1.30%)p 1.96(  2.54%)d49.10( 63.72%)
                                                  f25.00( 32.44%)
                                            0.0000 -0.0032  0.0124  0.0974 -0.0577
                                           -0.0075 -0.0169  0.0027 -0.0594  0.0042
                                            0.0009  0.1462  0.0134 -0.0000 -0.0000
                                           -0.0000 -0.0000  0.0569 -0.1693  0.0400
                                           -0.0000 -0.0000 -0.0000 -0.0000 -0.0000
                                           -0.0000  0.0028 -0.2229  0.0235 -0.0663
                                           -0.7352 -0.0927 -0.0000 -0.0000 -0.4359
                                            0.0528  0.0426 -0.0061 -0.0000 -0.0000
                                           -0.0000 -0.0000 -0.3522  0.0354 -0.0670
                                           -0.0049
    35. (0.00060) RY*(13) O   1           s(  0.00%)p 1.00( 92.34%)d 0.04(  3.80%)
                                                  f 0.04(  3.85%)
                                            0.0000  0.0000  0.0000  0.0000  0.0000
                                            0.0000  0.0000  0.0000  0.0000  0.0000
                                            0.0000  0.0000  0.0000 -0.0027  0.0205
                                            0.9329 -0.2295  0.0000  0.0000  0.0000
                                            0.0328  0.1609  0.0383 -0.0003 -0.0967
                                            0.0159  0.0000  0.0000  0.0000  0.0000
                                            0.0000  0.0000  0.1299  0.0264  0.0000
                                            0.0000  0.0000  0.0000 -0.1282 -0.0320
                                           -0.0588  0.0045  0.0000  0.0000  0.0000
                                            0.0000
    36. (0.00053) RY*(14) O   1           s(  0.00%)p 1.00(  0.33%)d99.99( 68.80%)
                                                  f94.41( 30.87%)
                                            0.0000  0.0000  0.0000  0.0000  0.0000
                                            0.0000  0.0000  0.0000  0.0000  0.0000
                                            0.0000  0.0000  0.0000 -0.0086 -0.0305
                                           -0.0271 -0.0391  0.0000  0.0000  0.0000
                                           -0.0039  0.8221 -0.0650 -0.0152  0.0827
                                           -0.0293  0.0000  0.0000  0.0000  0.0000
                                            0.0000  0.0000 -0.3685 -0.0144  0.0000
                                            0.0000  0.0000  0.0000  0.3049  0.0127
                                            0.2821 -0.0099  0.0000  0.0000  0.0000
                                            0.0000
    37. (0.00053) RY*(15) O   1           s(  6.74%)p 3.01( 20.31%)d 8.37( 56.40%)
                                                  f 2.46( 16.56%)
                                            0.0000 -0.0020 -0.1049  0.2282 -0.0659
                                           -0.0033  0.0144  0.0691  0.1018 -0.0013
                                            0.0259  0.3876 -0.1918  0.0000  0.0000
                                            0.0000  0.0000 -0.0465  0.7444 -0.0442
                                            0.0000  0.0000  0.0000  0.0000  0.0000
                                            0.0000 -0.0024 -0.0526  0.0334  0.0340
                                           -0.0049  0.0237  0.0000  0.0000 -0.1823
                                           -0.0119 -0.1695  0.0082  0.0000  0.0000
                                            0.0000  0.0000  0.0131  0.0168  0.3192
                                            0.0328
    38. (0.00048) RY*(16) O   1           s(  0.62%)p99.99( 86.36%)d 3.39(  2.09%)
[...]
   152. (0.00040) RY*( 7) H   4           s( 10.57%)p 7.57( 79.99%)d 0.89(  9.44%)
                                            0.0006  0.0398  0.1250  0.2975 -0.0335
                                           -0.8612 -0.1308 -0.0452  0.1565  0.1159
                                           -0.0000 -0.0000 -0.0000 -0.2292 -0.0961
                                           -0.0000 -0.0000 -0.0000 -0.0000  0.0502
                                           -0.0923  0.1396 -0.0459
   153. (0.00031) RY*( 8) H   4           s( 28.85%)p 1.32( 37.96%)d 1.15( 33.20%)
                                           -0.0021  0.0083  0.1720  0.5087 -0.0786
                                            0.4085 -0.1667  0.0546 -0.2336  0.3481
                                            0.0000  0.0000  0.0000 -0.4499  0.0631
                                            0.0000  0.0000  0.0000  0.0000  0.2522
                                           -0.1188  0.2072 -0.0702
   154. (0.00027) RY*( 9) H   4           s(  0.00%)p 1.00( 79.69%)d 0.25( 20.31%)
                                            0.0000  0.0000  0.0000  0.0000  0.0000
                                            0.0000  0.0000  0.0000  0.0000  0.0000
                                           -0.0885  0.8707  0.1761  0.0000  0.0000
                                           -0.2061  0.1658  0.3181  0.1787  0.0000
                                            0.0000  0.0000  0.0000
   155. (0.00025) RY*(10) H   4           s(  0.00%)p 1.00(  5.54%)d17.06( 94.46%)
                                            0.0000  0.0000  0.0000  0.0000  0.0000
                                            0.0000  0.0000  0.0000  0.0000  0.0000
                                           -0.0231  0.2170  0.0879  0.0000  0.0000
                                            0.9255 -0.2642  0.0128  0.1344  0.0000
                                            0.0000  0.0000  0.0000
   156. (0.00026) RY*(11) H   4           s(  0.31%)p19.69(  6.05%)d99.99( 93.64%)
                                            0.0053  0.0237  0.0488 -0.0101 -0.0607
                                           -0.0467 -0.0685  0.0070  0.0328 -0.2209
                                           -0.0000 -0.0000 -0.0000 -0.2532  0.0687
                                           -0.0000 -0.0000 -0.0000 -0.0000  0.5267
                                           -0.0027 -0.7110  0.2909
   157. (0.00021) RY*(12) H   4           s(  3.62%)p 6.38( 23.12%)d20.22( 73.26%)
                                            0.0132  0.0214  0.0500  0.1819  0.0856
                                           -0.0333  0.1468 -0.0158 -0.1056 -0.4356
                                            0.0000  0.0000  0.0000  0.2934 -0.0148
                                            0.0000  0.0000  0.0000  0.0000  0.5836
                                            0.2912  0.4652  0.0666
   158. (0.00018) RY*(13) H   4           s( 14.73%)p 1.38( 20.34%)d 4.41( 64.93%)
                                           -0.0091 -0.0563 -0.0430  0.3771  0.0704
                                           -0.0321  0.2138  0.0026  0.1414  0.3629
                                            0.0000  0.0000  0.0000  0.6018  0.2970
                                            0.0000  0.0000  0.0000  0.0000  0.1789
                                           -0.2248 -0.2755 -0.2012
   159. (0.00013) RY*(14) H   4           s( 60.76%)p 0.47( 28.42%)d 0.18( 10.82%)
                                           -0.0014 -0.0607 -0.5291  0.5691 -0.0025
                                            0.1472 -0.0736  0.0164  0.3278 -0.3865
                                           -0.0000 -0.0000 -0.0000 -0.0669 -0.1943
                                           -0.0000 -0.0000 -0.0000 -0.0000 -0.2433
                                           -0.0080 -0.0744  0.0347
   160. (0.00010) RY*(15) H   4           s( 32.11%)p 1.29( 41.40%)d 0.83( 26.50%)
   161. (0.00010) RY*(16) H   4           s(  0.00%)p 1.00( 23.84%)d 3.19( 76.16%)
                                            0.0000  0.0000  0.0000  0.0000  0.0000
                                            0.0000  0.0000  0.0000  0.0000  0.0000
                                            0.0324  0.0995 -0.4770  0.0000  0.0000
                                            0.0647 -0.1741  0.5150 -0.6796  0.0000
                                            0.0000  0.0000  0.0000
   162. (0.00009) RY*(17) H   4           s(  1.44%)p10.72( 15.49%)d57.51( 83.07%)
   163. (0.00007) RY*(18) H   4           s(  0.00%)p 1.00( 40.65%)d 1.46( 59.35%)
   164. (0.00004) RY*(19) H   4           s( 12.26%)p 4.79( 58.80%)d 2.36( 28.94%)
   165. (0.00004) RY*(20) H   4           s(  6.15%)p 2.72( 16.71%)d12.53( 77.13%)
   166. (0.00004) RY*(21) H   4           s(  0.00%)p 1.00(  0.14%)d99.99( 99.86%)
   167. (0.00003) RY*(22) H   4           s(  3.71%)p 0.54(  2.02%)d25.38( 94.26%)
   168. (0.05832) BD*( 1) O   1 -Cl   2  
                ( 42.15%)   0.6492* O   1 s( 10.54%)p 8.43( 88.93%)d 0.05(  0.51%)
                                                  f 0.00(  0.02%)
                                           -0.0003 -0.3201  0.0517 -0.0167  0.0007
                                           -0.9407  0.0390  0.0107  0.0149  0.0430
                                            0.0253  0.0045 -0.0011 -0.0000 -0.0000
                                           -0.0000 -0.0000  0.0173  0.0014 -0.0020
                                           -0.0000 -0.0000 -0.0000 -0.0000 -0.0000
                                           -0.0000 -0.0543 -0.0042 -0.0025  0.0423
                                            0.0037 -0.0001 -0.0000 -0.0000  0.0109
                                           -0.0011  0.0001 -0.0001 -0.0000 -0.0000
                                           -0.0000 -0.0000 -0.0074 -0.0009  0.0009
                                           -0.0016
                ( 57.85%)  -0.7606*Cl   2 s(  9.10%)p 9.85( 89.67%)d 0.12(  1.11%)
                                                  f 0.01(  0.12%)
                                            0.0000 -0.0006 -0.2955  0.0597  0.0106
                                            0.0021  0.0004  0.9444 -0.0661 -0.0138
                                            0.0043  0.0000  0.0110  0.0013 -0.0030
                                            0.0011 -0.0000 -0.0000 -0.0000 -0.0000
                                           -0.0000 -0.0128  0.0000 -0.0004 -0.0000
                                           -0.0000 -0.0000 -0.0000 -0.0000 -0.0000
                                           -0.0876  0.0119  0.0010  0.0556 -0.0073
                                           -0.0015 -0.0000 -0.0000 -0.0215  0.0030
                                           -0.0006  0.0001 -0.0000 -0.0000 -0.0000
                                           -0.0000  0.0264 -0.0030  0.0020 -0.0003
   169. (0.22756) BD*( 1) O   1 - H   4  
                ( 17.80%)   0.4219* O   1 s( 24.49%)p 3.07( 75.13%)d 0.01(  0.36%)
                                                  f 0.00(  0.01%)
                                            0.0002  0.4948  0.0026  0.0075  0.0030
                                           -0.2048  0.0125  0.0024  0.0054 -0.8421
                                           -0.0056  0.0041  0.0032 -0.0000 -0.0000
                                           -0.0000 -0.0000 -0.0066 -0.0023 -0.0004
                                           -0.0000 -0.0000 -0.0000 -0.0000 -0.0000
                                           -0.0000 -0.0517 -0.0068  0.0002 -0.0288
                                           -0.0015  0.0044 -0.0000 -0.0000  0.0019
                                            0.0004  0.0092 -0.0007 -0.0000 -0.0000
                                           -0.0000 -0.0000  0.0022  0.0016 -0.0005
                                            0.0004
                ( 82.20%)  -0.9066* H   4 s( 99.76%)p 0.00(  0.23%)d 0.00(  0.01%)
                                            0.9980  0.0356  0.0141 -0.0003  0.0075
                                            0.0146 -0.0035 -0.0187  0.0393  0.0115
                                           -0.0000 -0.0000 -0.0000  0.0003  0.0019
                                           -0.0000 -0.0000 -0.0000 -0.0000 -0.0051
                                           -0.0056 -0.0005 -0.0079


 NHO Directionality and "Bond Bending" (deviations from line of nuclear centers)

         [Thresholds for printing:  angular deviation  >  1.0 degree]
                                    hybrid p-character > 25.0%
                                    orbital occupancy  >  0.10e

                                Line of Centers        Hybrid 1              Hybrid 2
                                ---------------  -------------------   ------------------
                NBO               Theta   Phi    Theta   Phi    Dev    Theta   Phi    Dev
 ========================================================================================
     1. BD (   1) O   1 -Cl   2    90.0    0.0    90.0  355.3   4.7      --     --    --
     2. BD (   1) O   1 - H   4    90.0  256.5    90.0  257.6   1.2      --     --    --
    14. LP (   1) O   1             --     --     90.0  114.9   --       --     --    --
    15. LP (   2) O   1             --     --      0.0    0.0   --       --     --    --
    17. LP (   2)Cl   2             --     --      0.0    0.0   --       --     --    --
    18. LP (   3)Cl   2             --     --     90.0   90.2   --       --     --    --
    20. LP (   2)Cl   3             --     --      0.0    0.0   --       --     --    --
    21. LP (   3)Cl   3             --     --     90.0  346.3   --       --     --    --
    22. LP (   4)Cl   3             --     --     90.0   76.4   --       --     --    --
   169. BD*(   1) O   1 - H   4    90.0  256.5    90.0  257.6   1.2      --     --    --


 Natural Bond Orbitals (Summary):

           NBO                  Occupancy  
 -----------------------------------------------
 Molecular unit  1  (HOCl)
     1. BD (   1) O   1 -Cl   2          1.93829
     2. BD (   1) O   1 - H   4          1.95808
     3. CR (   1) O   1                  1.99976
     4. CR (   1)Cl   2                  2.00000
     5. CR (   2)Cl   2                  1.99977
     6. CR (   3)Cl   2                  1.99996
     7. CR (   4)Cl   2                  2.00003
     8. CR (   5)Cl   2                  2.00003
    14. LP (   1) O   1                  1.96603
    15. LP (   2) O   1                  1.95033
    16. LP (   1)Cl   2                  1.97390
    17. LP (   2)Cl   2                  1.95559
    18. LP (   3)Cl   2                  1.95433
    23. RY*(   1) O   1                  0.02106
    24. RY*(   2) O   1                  0.01715
    25. RY*(   3) O   1                  0.00838
    26. RY*(   4) O   1                  0.00701
    27. RY*(   5) O   1                  0.00664
    28. RY*(   6) O   1                  0.00628
    29. RY*(   7) O   1                  0.00572
    30. RY*(   8) O   1                  0.00433
    31. RY*(   9) O   1                  0.00237
    32. RY*(  10) O   1                  0.00072
    33. RY*(  11) O   1                  0.00066
    34. RY*(  12) O   1                  0.00064
    35. RY*(  13) O   1                  0.00060
    36. RY*(  14) O   1                  0.00053
    37. RY*(  15) O   1                  0.00053
    38. RY*(  16) O   1                  0.00048
    39. RY*(  17) O   1                  0.00048
    40. RY*(  18) O   1                  0.00048
    41. RY*(  19) O   1                  0.00046
    42. RY*(  20) O   1                  0.00045
    43. RY*(  21) O   1                  0.00046
    44. RY*(  22) O   1                  0.00044
    45. RY*(  23) O   1                  0.00039
    46. RY*(  24) O   1                  0.00034
    47. RY*(  25) O   1                  0.00026
    48. RY*(  26) O   1                  0.00014
    49. RY*(  27) O   1                  0.00013
    50. RY*(  28) O   1                  0.00012
    51. RY*(  29) O   1                  0.00012
    52. RY*(  30) O   1                  0.00009
    53. RY*(  31) O   1                  0.00008
    54. RY*(  32) O   1                  0.00008
    55. RY*(  33) O   1                  0.00008
    56. RY*(  34) O   1                  0.00008
    57. RY*(  35) O   1                  0.00008
    58. RY*(  36) O   1                  0.00006
    59. RY*(  37) O   1                  0.00005
    60. RY*(  38) O   1                  0.00005
    61. RY*(  39) O   1                  0.00006
    62. RY*(  40) O   1                  0.00002
    63. RY*(  41) O   1                 -0.00009
    64. RY*(   1)Cl   2                  0.02389
    65. RY*(   2)Cl   2                  0.01911
    66. RY*(   3)Cl   2                  0.01689
    67. RY*(   4)Cl   2                  0.01688
    68. RY*(   5)Cl   2                  0.01211
    69. RY*(   6)Cl   2                  0.00962
    70. RY*(   7)Cl   2                  0.00932
    71. RY*(   8)Cl   2                  0.00657
    72. RY*(   9)Cl   2                  0.00179
    73. RY*(  10)Cl   2                  0.00127
    74. RY*(  11)Cl   2                  0.00127
    75. RY*(  12)Cl   2                  0.00121
    76. RY*(  13)Cl   2                  0.00121
    77. RY*(  14)Cl   2                  0.00118
    78. RY*(  15)Cl   2                  0.00112
    79. RY*(  16)Cl   2                  0.00097
    80. RY*(  17)Cl   2                  0.00079
    81. RY*(  18)Cl   2                  0.00077
    82. RY*(  19)Cl   2                  0.00067
    83. RY*(  20)Cl   2                  0.00061
    84. RY*(  21)Cl   2                  0.00044
    85. RY*(  22)Cl   2                  0.00037
    86. RY*(  23)Cl   2                  0.00036
    87. RY*(  24)Cl   2                  0.00031
    88. RY*(  25)Cl   2                  0.00019
    89. RY*(  26)Cl   2                  0.00017
    90. RY*(  27)Cl   2                  0.00017
    91. RY*(  28)Cl   2                  0.00013
    92. RY*(  29)Cl   2                  0.00013
    93. RY*(  30)Cl   2                  0.00013
    94. RY*(  31)Cl   2                  0.00012
    95. RY*(  32)Cl   2                  0.00012
    96. RY*(  33)Cl   2                  0.00010
    97. RY*(  34)Cl   2                  0.00010
    98. RY*(  35)Cl   2                  0.00009
    99. RY*(  36)Cl   2                  0.00010
   100. RY*(  37)Cl   2                  0.00008
   101. RY*(  38)Cl   2                  0.00004
   102. RY*(  39)Cl   2                  0.00002
   103. RY*(  40)Cl   2                  0.00003
   104. RY*(  41)Cl   2                 -0.00000
   146. RY*(   1) H   4                  0.00794
   147. RY*(   2) H   4                  0.00562
   148. RY*(   3) H   4                  0.00486
   149. RY*(   4) H   4                  0.00398
   150. RY*(   5) H   4                  0.00159
   151. RY*(   6) H   4                  0.00062
   152. RY*(   7) H   4                  0.00040
   153. RY*(   8) H   4                  0.00031
   154. RY*(   9) H   4                  0.00027
   155. RY*(  10) H   4                  0.00025
   156. RY*(  11) H   4                  0.00026
   157. RY*(  12) H   4                  0.00021
   158. RY*(  13) H   4                  0.00018
   159. RY*(  14) H   4                  0.00013
   160. RY*(  15) H   4                  0.00010
   161. RY*(  16) H   4                  0.00010
   162. RY*(  17) H   4                  0.00009
   163. RY*(  18) H   4                  0.00007
   164. RY*(  19) H   4                  0.00004
   165. RY*(  20) H   4                  0.00004
   166. RY*(  21) H   4                  0.00004
   167. RY*(  22) H   4                  0.00003
   168. BD*(   1) O   1 -Cl   2          0.05832
   169. BD*(   1) O   1 - H   4          0.22756
       -------------------------------
              Total Lewis   25.69611  ( 97.9737%)
        Valence non-Lewis    0.28587  (  1.0900%)
        Rydberg non-Lewis    0.24558  (  0.9363%)
       -------------------------------
            Total unit  1   26.22756  (100.0000%)
           Charge unit  1   -0.22756

 Molecular unit  2  (Cl)
     9. CR (   1)Cl   3                  2.00000
    10. CR (   2)Cl   3                  1.99987
    11. CR (   3)Cl   3                  2.00003
    12. CR (   4)Cl   3                  2.00001
    13. CR (   5)Cl   3                  2.00003
    19. LP (   1)Cl   3                  1.97557
    20. LP (   2)Cl   3                  1.95279
    21. LP (   3)Cl   3                  1.95242
    22. LP (   4)Cl   3                  1.75171
   105. RY*(   1)Cl   3                  0.01817
   106. RY*(   2)Cl   3                  0.01813
   107. RY*(   3)Cl   3                  0.01812
   108. RY*(   4)Cl   3                  0.01808
   109. RY*(   5)Cl   3                  0.01747
   110. RY*(   6)Cl   3                  0.01187
   111. RY*(   7)Cl   3                  0.01179
   112. RY*(   8)Cl   3                  0.00900
   113. RY*(   9)Cl   3                  0.00143
   114. RY*(  10)Cl   3                  0.00128
   115. RY*(  11)Cl   3                  0.00128
   116. RY*(  12)Cl   3                  0.00127
   117. RY*(  13)Cl   3                  0.00127
   118. RY*(  14)Cl   3                  0.00125
   119. RY*(  15)Cl   3                  0.00125
   120. RY*(  16)Cl   3                  0.00119
   121. RY*(  17)Cl   3                  0.00093
   122. RY*(  18)Cl   3                  0.00093
   123. RY*(  19)Cl   3                  0.00065
   124. RY*(  20)Cl   3                  0.00064
   125. RY*(  21)Cl   3                  0.00061
   126. RY*(  22)Cl   3                  0.00050
   127. RY*(  23)Cl   3                  0.00048
   128. RY*(  24)Cl   3                  0.00045
   129. RY*(  25)Cl   3                  0.00027
   130. RY*(  26)Cl   3                  0.00018
   131. RY*(  27)Cl   3                  0.00017
   132. RY*(  28)Cl   3                  0.00014
   133. RY*(  29)Cl   3                  0.00014
   134. RY*(  30)Cl   3                  0.00014
   135. RY*(  31)Cl   3                  0.00014
   136. RY*(  32)Cl   3                  0.00014
   137. RY*(  33)Cl   3                  0.00012
   138. RY*(  34)Cl   3                  0.00010
   139. RY*(  35)Cl   3                  0.00009
   140. RY*(  36)Cl   3                  0.00009
   141. RY*(  37)Cl   3                  0.00007
   142. RY*(  38)Cl   3                  0.00008
   143. RY*(  39)Cl   3                  0.00005
   144. RY*(  40)Cl   3                  0.00003
   145. RY*(  41)Cl   3                  0.00001
       -------------------------------
              Total Lewis   17.63243  ( 99.2122%)
        Valence non-Lewis    0.00000  (  0.0000%)
        Rydberg non-Lewis    0.14001  (  0.7878%)
       -------------------------------
            Total unit  2   17.77244  (100.0000%)
           Charge unit  2   -0.77244
 Leave Link  607 at Fri Oct  8 12:24:53 2021, MaxMem= 16106127360 cpu:              77.9 elap:               2.8
 (Enter /sw/contrib/gaussian/g16/B01/g16/l9999.exe)
 1\1\GINC-N2218\SP\RMP2-FC\Aug-CC-pVTZ\Cl2H1O1(1-)\CGAVINH\08-Oct-2021\
 0\\#p pop=NBO SP NoSymm mp2/aug-cc-pvtz density=current\\title\\-1,1\O
 \X,1,10.\Cl,1,1.68274941,2,90.\Cl,1,2.90467605,2,90.,3,103.53015695,0\
 H,1,1.15,2,90.,3,103.53015695,0\\Version=ES64L-G16RevB.01\HF=-994.5129
 997\MP2=-995.187482\RMSD=6.032e-09\Dipole=1.1236693,1.1712183,0.\Quadr
 upole=5.2535031,-12.5099219,7.2564188,-5.0272251,0.,0.\PG=CS [SG(Cl2H1
 O1)]\\@


 DEPRESSION IS WAITING FOR YOUR SHIP TO COME IN,
 AND FINDING OUT IT'S THE TITANIC.
 Job cpu time:       0 days  0 hours  4 minutes 38.1 seconds.
 Elapsed time:       0 days  0 hours  0 minutes 15.3 seconds.
 File lengths (MBytes):  RWF=     14 Int=      0 D2E=      0 Chk=      8 Scr=      1
 Normal termination of Gaussian 16 at Fri Oct  8 12:24:54 2021.
