 Entering Gaussian System, Link 0=g16
 Input=clhocl_rOH_110_sp.gjf
 Output=clhocl_rOH_110_sp.log
 Initial command:
 /sw/contrib/gaussian/g16/B01/g16/l1.exe "/scr/Gau-28248.inp" -scrdir="/scr/"
 Entering Link 1 = /sw/contrib/gaussian/g16/B01/g16/l1.exe PID=     28249.
  
 Copyright (c) 1988-2017, Gaussian, Inc.  All Rights Reserved.
  
 This is part of the Gaussian(R) 16 program.  It is based on
 the Gaussian(R) 09 system (copyright 2009, Gaussian, Inc.),
 the Gaussian(R) 03 system (copyright 2003, Gaussian, Inc.),
 the Gaussian(R) 98 system (copyright 1998, Gaussian, Inc.),
 the Gaussian(R) 94 system (copyright 1995, Gaussian, Inc.),
 the Gaussian 92(TM) system (copyright 1992, Gaussian, Inc.),
 the Gaussian 90(TM) system (copyright 1990, Gaussian, Inc.),
 the Gaussian 88(TM) system (copyright 1988, Gaussian, Inc.),
 the Gaussian 86(TM) system (copyright 1986, Carnegie Mellon
 University), and the Gaussian 82(TM) system (copyright 1983,
 Carnegie Mellon University). Gaussian is a federally registered
 trademark of Gaussian, Inc.
  
 This software contains proprietary and confidential information,
 including trade secrets, belonging to Gaussian, Inc.
  
 This software is provided under written license and may be
 used, copied, transmitted, or stored only in accord with that
 written license.
  
 The following legend is applicable only to US Government
 contracts under FAR:
  
                    RESTRICTED RIGHTS LEGEND
  
 Use, reproduction and disclosure by the US Government is
 subject to restrictions as set forth in subparagraphs (a)
 and (c) of the Commercial Computer Software - Restricted
 Rights clause in FAR 52.227-19.
  
 Gaussian, Inc.
 340 Quinnipiac St., Bldg. 40, Wallingford CT 06492
  
  
 ---------------------------------------------------------------
 Warning -- This program may not be used in any manner that
 competes with the business of Gaussian, Inc. or will provide
 assistance to any competitor of Gaussian, Inc.  The licensee
 of this program is prohibited from giving any competitor of
 Gaussian, Inc. access to this program.  By using this program,
 the user acknowledges that Gaussian, Inc. is engaged in the
 business of creating and licensing software in the field of
 computational chemistry and represents and warrants to the
 licensee that it is not a competitor of Gaussian, Inc. and that
 it will not use this program in any manner prohibited above.
 ---------------------------------------------------------------
  

 Cite this work as:
 Gaussian 16, Revision B.01,
 M. J. Frisch, G. W. Trucks, H. B. Schlegel, G. E. Scuseria, 
 M. A. Robb, J. R. Cheeseman, G. Scalmani, V. Barone, 
 G. A. Petersson, H. Nakatsuji, X. Li, M. Caricato, A. V. Marenich, 
 J. Bloino, B. G. Janesko, R. Gomperts, B. Mennucci, H. P. Hratchian, 
 J. V. Ortiz, A. F. Izmaylov, J. L. Sonnenberg, D. Williams-Young, 
 F. Ding, F. Lipparini, F. Egidi, J. Goings, B. Peng, A. Petrone, 
 T. Henderson, D. Ranasinghe, V. G. Zakrzewski, J. Gao, N. Rega, 
 G. Zheng, W. Liang, M. Hada, M. Ehara, K. Toyota, R. Fukuda, 
 J. Hasegawa, M. Ishida, T. Nakajima, Y. Honda, O. Kitao, H. Nakai, 
 T. Vreven, K. Throssell, J. A. Montgomery, Jr., J. E. Peralta, 
 F. Ogliaro, M. J. Bearpark, J. J. Heyd, E. N. Brothers, K. N. Kudin, 
 V. N. Staroverov, T. A. Keith, R. Kobayashi, J. Normand, 
 K. Raghavachari, A. P. Rendell, J. C. Burant, S. S. Iyengar, 
 J. Tomasi, M. Cossi, J. M. Millam, M. Klene, C. Adamo, R. Cammi, 
 J. W. Ochterski, R. L. Martin, K. Morokuma, O. Farkas, 
 J. B. Foresman, and D. J. Fox, Gaussian, Inc., Wallingford CT, 2016.
 
 ******************************************
 Gaussian 16:  ES64L-G16RevB.01 20-Dec-2017
                 8-Oct-2021 
 ******************************************
 %nproc=28
 Will use up to   28 processors via shared memory.
 %mem=120GB
 %chk=/gscratch/ilahie/mccoygrp/coire_hocl/rOH_s_oop_0/clhocl/clhocl_110_sp.chk
 ----------------------------------------------------
 #p pop=NBO SP NoSymm mp2/aug-cc-pvtz density=current
 ----------------------------------------------------
 1/30=1,38=1,172=1/1;
 2/12=2,15=1,17=6,18=5,40=1/2;
 3/5=16,6=1,7=10,11=9,25=1,30=1,71=1/1,2,3;
 4//1;
 5/5=2,38=5/2;
 8/6=4,10=1/1;
 9/15=1,16=-3/6;
 10/5=1,13=10,31=1/2;
 6/7=2,8=2,9=2,10=2,22=-1,40=1/1,7;
 99/5=1,9=1/99;
 Leave Link    1 at Fri Oct  8 12:24:23 2021, MaxMem= 16106127360 cpu:               0.8 elap:               0.0
 (Enter /sw/contrib/gaussian/g16/B01/g16/l101.exe)
 -----
 title
 -----
 Symbolic Z-matrix:
 Charge = -1 Multiplicity = 1
 O
 X                    1     10. 
 Cl                   1    r1       2     90. 
 Cl                   1    r2       2     90.      3    a1       0
 H                    1    r3       2    oop      3    a1       0
       Variables:
  r1                    1.68275                  
  r2                    2.90468                  
  r3                    1.1                      
  a1                  103.53016                  
  OOP                  90.                       
 
 ITRead=  0  0  0  0
 MicOpt= -1 -1 -1 -1
 NAtoms=      4 NQM=        4 NQMF=       0 NMMI=      0 NMMIF=      0
                NMic=       0 NMicF=      0.
                    Isotopes and Nuclear Properties:
 (Nuclear quadrupole moments (NQMom) in fm**2, nuclear magnetic moments (NMagM)
  in nuclear magnetons)

  Atom         1           2           3           4
 IAtWgt=          16          35          35           1
 AtmWgt=  15.9949146  34.9688527  34.9688527   1.0078250
 NucSpn=           0           3           3           1
 AtZEff=  -0.0000000  -0.0000000  -0.0000000  -0.0000000
 NQMom=    0.0000000  -8.1650000  -8.1650000   0.0000000
 NMagM=    0.0000000   0.8218740   0.8218740   2.7928460
 AtZNuc=   8.0000000  17.0000000  17.0000000   1.0000000
 Leave Link  101 at Fri Oct  8 12:24:23 2021, MaxMem= 16106127360 cpu:               2.8 elap:               0.1
 (Enter /sw/contrib/gaussian/g16/B01/g16/l202.exe)
                          Input orientation:                          
 ---------------------------------------------------------------------
 Center     Atomic      Atomic             Coordinates (Angstroms)
 Number     Number       Type             X           Y           Z
 ---------------------------------------------------------------------
      1          8           0        0.000000    0.000000    0.000000
      2         17           0        1.682749    0.000000    0.000000
      3         17           0       -0.679570   -2.824062    0.000000
      4          1           0       -0.257353   -1.069472    0.000000
 ---------------------------------------------------------------------
                    Distance matrix (angstroms):
                    1          2          3          4
     1  O    0.000000
     2  Cl   1.682749   0.000000
     3  Cl   2.904676   3.681831   0.000000
     4  H    1.100000   2.215348   1.804676   0.000000
 Symmetry turned off by external request.
 Stoichiometry    Cl2HO(1-)
 Framework group  CS[SG(Cl2HO)]
 Deg. of freedom     5
 Full point group                 CS      NOp   2
 Rotational constants (GHZ):          23.7356276           2.0593863           1.8949719
 Leave Link  202 at Fri Oct  8 12:24:23 2021, MaxMem= 16106127360 cpu:               0.2 elap:               0.0
 (Enter /sw/contrib/gaussian/g16/B01/g16/l301.exe)
 Standard basis: Aug-CC-pVTZ (5D, 7F)
 Ernie: Thresh=  0.10000D-02 Tol=  0.10000D-05 Strict=F.
 Ernie:  29 primitive shells out of 169 were deleted.
   169 basis functions,   327 primitive gaussians,   198 cartesian basis functions
    22 alpha electrons       22 beta electrons
       nuclear repulsion energy       121.9759627744 Hartrees.
 IExCor=    0 DFT=F Ex=HF Corr=None ExCW=0 ScaHFX=  1.000000
 ScaDFX=  1.000000  1.000000  1.000000  1.000000 ScalE2=  1.000000  1.000000
 IRadAn=      5 IRanWt=     -1 IRanGd=            0 ICorTp=0 IEmpDi=  4
 NAtoms=    4 NActive=    4 NUniq=    4 SFac= 1.00D+00 NAtFMM=   60 NAOKFM=F Big=F
 Integral buffers will be    131072 words long.
 Raffenetti 1 integral format.
 Two-electron integral symmetry is turned off.
 Leave Link  301 at Fri Oct  8 12:24:23 2021, MaxMem= 16106127360 cpu:               1.4 elap:               0.1
 (Enter /sw/contrib/gaussian/g16/B01/g16/l302.exe)
 NPDir=0 NMtPBC=     1 NCelOv=     1 NCel=       1 NClECP=     1 NCelD=      1
         NCelK=      1 NCelE2=     1 NClLst=     1 CellRange=     0.0.
 One-electron integrals computed using PRISM.
 NBasis=   169 RedAO= T EigKep=  2.71D-04  NBF=   169
 NBsUse=   169 1.00D-06 EigRej= -1.00D+00 NBFU=   169
 Leave Link  302 at Fri Oct  8 12:24:23 2021, MaxMem= 16106127360 cpu:               4.4 elap:               0.2
 (Enter /sw/contrib/gaussian/g16/B01/g16/l303.exe)
 DipDrv:  MaxL=1.
 Leave Link  303 at Fri Oct  8 12:24:23 2021, MaxMem= 16106127360 cpu:               3.3 elap:               0.2
 (Enter /sw/contrib/gaussian/g16/B01/g16/l401.exe)
 ExpMin= 2.53D-02 ExpMax= 4.56D+05 ExpMxC= 1.44D+03 IAcc=3 IRadAn=         5 AccDes= 0.00D+00
 Harris functional with IExCor=  205 and IRadAn=       5 diagonalized for initial guess.
 HarFok:  IExCor=  205 AccDes= 0.00D+00 IRadAn=         5 IDoV= 1 UseB2=F ITyADJ=14
 ICtDFT=  3500011 ScaDFX=  1.000000  1.000000  1.000000  1.000000
 FoFCou: FMM=F IPFlag=           0 FMFlag=      100000 FMFlg1=           0
         NFxFlg=           0 DoJE=T BraDBF=F KetDBF=T FulRan=T
         wScrn=  0.000000 ICntrl=       500 IOpCl=  0 I1Cent=   200000004 NGrid=           0
         NMat0=    1 NMatS0=      1 NMatT0=    0 NMatD0=    1 NMtDS0=    0 NMtDT0=    0
 Symmetry not used in FoFCou.
 Harris En= -993.818506337378    
 JPrj=0 DoOrth=F DoCkMO=F.
 Leave Link  401 at Fri Oct  8 12:24:23 2021, MaxMem= 16106127360 cpu:               6.9 elap:               0.3
 (Enter /sw/contrib/gaussian/g16/B01/g16/l502.exe)
 Keep R1 ints in memory in canonical form, NReq=117119393.
 FoFCou: FMM=F IPFlag=           0 FMFlag=           0 FMFlg1=           0
         NFxFlg=           0 DoJE=F BraDBF=F KetDBF=F FulRan=T
         wScrn=  0.000000 ICntrl=       600 IOpCl=  0 I1Cent=           0 NGrid=           0
         NMat0=    1 NMatS0=  14365 NMatT0=    0 NMatD0=    1 NMtDS0=    0 NMtDT0=    0
 Symmetry not used in FoFCou.
 Two-electron integral symmetry not used.
 Closed shell SCF:
 Using DIIS extrapolation, IDIIS=  1040.
 NGot= 16106127360 LenX= 16002858349 LenY= 16002818704
 Requested convergence on RMS density matrix=1.00D-08 within 128 cycles.
 Requested convergence on MAX density matrix=1.00D-06.
 Requested convergence on             energy=1.00D-06.
 No special actions if energy rises.

 Cycle   1  Pass 1  IDiag  1:
 E= -994.394233549320    
 DIIS: error= 2.82D-02 at cycle   1 NSaved=   1.
 NSaved= 1 IEnMin= 1 EnMin= -994.394233549320     IErMin= 1 ErrMin= 2.82D-02
 ErrMax= 2.82D-02  0.00D+00 EMaxC= 1.00D-01 BMatC= 4.21D-01 BMatP= 4.21D-01
 IDIUse=3 WtCom= 7.18D-01 WtEn= 2.82D-01
 Coeff-Com:  0.100D+01
 Coeff-En:   0.100D+01
 Coeff:      0.100D+01
 Gap=     0.552 Goal=   None    Shift=    0.000
 GapD=    0.552 DampG=2.000 DampE=0.500 DampFc=1.0000 IDamp=-1.
 RMSDP=2.13D-03 MaxDP=7.04D-02              OVMax= 1.26D-01

 Cycle   2  Pass 1  IDiag  1:
 E= -994.482281549253     Delta-E=       -0.088047999933 Rises=F Damp=F
 DIIS: error= 2.34D-02 at cycle   2 NSaved=   2.
 NSaved= 2 IEnMin= 2 EnMin= -994.482281549253     IErMin= 2 ErrMin= 2.34D-02
 ErrMax= 2.34D-02  0.00D+00 EMaxC= 1.00D-01 BMatC= 5.08D-02 BMatP= 4.21D-01
 IDIUse=3 WtCom= 7.66D-01 WtEn= 2.34D-01
 Coeff-Com:  0.170D+00 0.830D+00
 Coeff-En:   0.000D+00 0.100D+01
 Coeff:      0.130D+00 0.870D+00
 Gap=     0.399 Goal=   None    Shift=    0.000
 RMSDP=9.87D-04 MaxDP=3.88D-02 DE=-8.80D-02 OVMax= 8.31D-02

 Cycle   3  Pass 1  IDiag  1:
 E= -994.506193849676     Delta-E=       -0.023912300423 Rises=F Damp=F
 DIIS: error= 1.13D-02 at cycle   3 NSaved=   3.
 NSaved= 3 IEnMin= 3 EnMin= -994.506193849676     IErMin= 3 ErrMin= 1.13D-02
 ErrMax= 1.13D-02  0.00D+00 EMaxC= 1.00D-01 BMatC= 1.71D-02 BMatP= 5.08D-02
 IDIUse=3 WtCom= 8.87D-01 WtEn= 1.13D-01
 Coeff-Com: -0.162D-01 0.358D+00 0.658D+00
 Coeff-En:   0.000D+00 0.180D+00 0.820D+00
 Coeff:     -0.144D-01 0.338D+00 0.676D+00
 Gap=     0.373 Goal=   None    Shift=    0.000
 RMSDP=3.96D-04 MaxDP=1.54D-02 DE=-2.39D-02 OVMax= 3.88D-02

 Cycle   4  Pass 1  IDiag  1:
 E= -994.517909425824     Delta-E=       -0.011715576148 Rises=F Damp=F
 DIIS: error= 1.52D-03 at cycle   4 NSaved=   4.
 NSaved= 4 IEnMin= 4 EnMin= -994.517909425824     IErMin= 4 ErrMin= 1.52D-03
 ErrMax= 1.52D-03  0.00D+00 EMaxC= 1.00D-01 BMatC= 1.83D-04 BMatP= 1.71D-02
 IDIUse=3 WtCom= 9.85D-01 WtEn= 1.52D-02
 Coeff-Com: -0.377D-02 0.120D-01 0.897D-01 0.902D+00
 Coeff-En:   0.000D+00 0.000D+00 0.000D+00 0.100D+01
 Coeff:     -0.371D-02 0.118D-01 0.883D-01 0.904D+00
 Gap=     0.366 Goal=   None    Shift=    0.000
 RMSDP=5.75D-05 MaxDP=1.57D-03 DE=-1.17D-02 OVMax= 3.16D-03

 Cycle   5  Pass 1  IDiag  1:
 E= -994.518109151145     Delta-E=       -0.000199725321 Rises=F Damp=F
 DIIS: error= 2.76D-04 at cycle   5 NSaved=   5.
 NSaved= 5 IEnMin= 5 EnMin= -994.518109151145     IErMin= 5 ErrMin= 2.76D-04
 ErrMax= 2.76D-04  0.00D+00 EMaxC= 1.00D-01 BMatC= 1.68D-05 BMatP= 1.83D-04
 IDIUse=3 WtCom= 9.97D-01 WtEn= 2.76D-03
 Coeff-Com:  0.109D-02-0.411D-01-0.674D-01 0.356D-01 0.107D+01
 Coeff-En:   0.000D+00 0.000D+00 0.000D+00 0.000D+00 0.100D+01
 Coeff:      0.109D-02-0.410D-01-0.672D-01 0.355D-01 0.107D+01
 Gap=     0.368 Goal=   None    Shift=    0.000
 RMSDP=3.23D-05 MaxDP=1.20D-03 DE=-2.00D-04 OVMax= 3.13D-03

 Cycle   6  Pass 1  IDiag  1:
 E= -994.518150649787     Delta-E=       -0.000041498642 Rises=F Damp=F
 DIIS: error= 1.52D-04 at cycle   6 NSaved=   6.
 NSaved= 6 IEnMin= 6 EnMin= -994.518150649787     IErMin= 6 ErrMin= 1.52D-04
 ErrMax= 1.52D-04  0.00D+00 EMaxC= 1.00D-01 BMatC= 2.20D-06 BMatP= 1.68D-05
 IDIUse=3 WtCom= 9.98D-01 WtEn= 1.52D-03
 Coeff-Com:  0.189D-03 0.100D-01 0.164D-01-0.875D-01-0.417D+00 0.148D+01
 Coeff-En:   0.000D+00 0.000D+00 0.000D+00 0.000D+00 0.000D+00 0.100D+01
 Coeff:      0.189D-03 0.998D-02 0.164D-01-0.874D-01-0.417D+00 0.148D+01
 Gap=     0.368 Goal=   None    Shift=    0.000
 RMSDP=1.73D-05 MaxDP=6.47D-04 DE=-4.15D-05 OVMax= 1.75D-03

 Cycle   7  Pass 1  IDiag  1:
 E= -994.518158707992     Delta-E=       -0.000008058205 Rises=F Damp=F
 DIIS: error= 4.26D-05 at cycle   7 NSaved=   7.
 NSaved= 7 IEnMin= 7 EnMin= -994.518158707992     IErMin= 7 ErrMin= 4.26D-05
 ErrMax= 4.26D-05  0.00D+00 EMaxC= 1.00D-01 BMatC= 1.36D-07 BMatP= 2.20D-06
 IDIUse=1 WtCom= 1.00D+00 WtEn= 0.00D+00
 Coeff-Com: -0.128D-03-0.140D-02-0.168D-02 0.325D-01 0.914D-01-0.608D+00
 Coeff-Com:  0.149D+01
 Coeff:     -0.128D-03-0.140D-02-0.168D-02 0.325D-01 0.914D-01-0.608D+00
 Coeff:      0.149D+01
 Gap=     0.368 Goal=   None    Shift=    0.000
 RMSDP=5.23D-06 MaxDP=1.78D-04 DE=-8.06D-06 OVMax= 5.38D-04

 Cycle   8  Pass 1  IDiag  1:
 E= -994.518159324812     Delta-E=       -0.000000616821 Rises=F Damp=F
 DIIS: error= 7.80D-06 at cycle   8 NSaved=   8.
 NSaved= 8 IEnMin= 8 EnMin= -994.518159324812     IErMin= 8 ErrMin= 7.80D-06
 ErrMax= 7.80D-06  0.00D+00 EMaxC= 1.00D-01 BMatC= 9.48D-09 BMatP= 1.36D-07
 IDIUse=1 WtCom= 1.00D+00 WtEn= 0.00D+00
 Coeff-Com: -0.123D-04-0.420D-03-0.412D-03 0.171D-02 0.110D-01-0.176D-01
 Coeff-Com: -0.161D+00 0.117D+01
 Coeff:     -0.123D-04-0.420D-03-0.412D-03 0.171D-02 0.110D-01-0.176D-01
 Coeff:     -0.161D+00 0.117D+01
 Gap=     0.368 Goal=   None    Shift=    0.000
 RMSDP=1.14D-06 MaxDP=2.21D-05 DE=-6.17D-07 OVMax= 1.17D-04

 Cycle   9  Pass 1  IDiag  1:
 E= -994.518159359934     Delta-E=       -0.000000035121 Rises=F Damp=F
 DIIS: error= 4.04D-06 at cycle   9 NSaved=   9.
 NSaved= 9 IEnMin= 9 EnMin= -994.518159359934     IErMin= 9 ErrMin= 4.04D-06
 ErrMax= 4.04D-06  0.00D+00 EMaxC= 1.00D-01 BMatC= 1.52D-09 BMatP= 9.48D-09
 IDIUse=1 WtCom= 1.00D+00 WtEn= 0.00D+00
 Coeff-Com:  0.259D-04 0.139D-03 0.102D-03-0.426D-02-0.110D-01 0.753D-01
 Coeff-Com: -0.157D+00-0.245D+00 0.134D+01
 Coeff:      0.259D-04 0.139D-03 0.102D-03-0.426D-02-0.110D-01 0.753D-01
 Coeff:     -0.157D+00-0.245D+00 0.134D+01
 Gap=     0.368 Goal=   None    Shift=    0.000
 RMSDP=6.28D-07 MaxDP=1.41D-05 DE=-3.51D-08 OVMax= 6.54D-05

 Cycle  10  Pass 1  IDiag  1:
 E= -994.518159367544     Delta-E=       -0.000000007610 Rises=F Damp=F
 DIIS: error= 1.91D-06 at cycle  10 NSaved=  10.
 NSaved=10 IEnMin=10 EnMin= -994.518159367544     IErMin=10 ErrMin= 1.91D-06
 ErrMax= 1.91D-06  0.00D+00 EMaxC= 1.00D-01 BMatC= 2.53D-10 BMatP= 1.52D-09
 IDIUse=1 WtCom= 1.00D+00 WtEn= 0.00D+00
 Coeff-Com: -0.474D-05 0.653D-04 0.615D-04 0.685D-03 0.212D-03-0.133D-01
 Coeff-Com:  0.673D-01-0.171D+00-0.216D+00 0.133D+01
 Coeff:     -0.474D-05 0.653D-04 0.615D-04 0.685D-03 0.212D-03-0.133D-01
 Coeff:      0.673D-01-0.171D+00-0.216D+00 0.133D+01
 Gap=     0.368 Goal=   None    Shift=    0.000
 RMSDP=2.75D-07 MaxDP=6.46D-06 DE=-7.61D-09 OVMax= 2.69D-05

 Cycle  11  Pass 1  IDiag  1:
 E= -994.518159368791     Delta-E=       -0.000000001246 Rises=F Damp=F
 DIIS: error= 6.93D-07 at cycle  11 NSaved=  11.
 NSaved=11 IEnMin=11 EnMin= -994.518159368791     IErMin=11 ErrMin= 6.93D-07
 ErrMax= 6.93D-07  0.00D+00 EMaxC= 1.00D-01 BMatC= 2.24D-11 BMatP= 2.53D-10
 IDIUse=1 WtCom= 1.00D+00 WtEn= 0.00D+00
 Coeff-Com: -0.304D-05-0.333D-04-0.335D-04 0.586D-03 0.174D-02-0.960D-02
 Coeff-Com:  0.128D-01 0.572D-01-0.150D+00-0.230D+00 0.132D+01
 Coeff:     -0.304D-05-0.333D-04-0.335D-04 0.586D-03 0.174D-02-0.960D-02
 Coeff:      0.128D-01 0.572D-01-0.150D+00-0.230D+00 0.132D+01
 Gap=     0.368 Goal=   None    Shift=    0.000
 RMSDP=9.56D-08 MaxDP=2.38D-06 DE=-1.25D-09 OVMax= 9.20D-06

 Cycle  12  Pass 1  IDiag  1:
 E= -994.518159368912     Delta-E=       -0.000000000122 Rises=F Damp=F
 DIIS: error= 1.32D-07 at cycle  12 NSaved=  12.
 NSaved=12 IEnMin=12 EnMin= -994.518159368912     IErMin=12 ErrMin= 1.32D-07
 ErrMax= 1.32D-07  0.00D+00 EMaxC= 1.00D-01 BMatC= 1.08D-12 BMatP= 2.24D-11
 IDIUse=1 WtCom= 1.00D+00 WtEn= 0.00D+00
 Coeff-Com:  0.895D-06 0.269D-05 0.352D-05-0.162D-03-0.385D-03 0.264D-02
 Coeff-Com: -0.584D-02-0.371D-02 0.449D-01-0.326D-01-0.249D+00 0.124D+01
 Coeff:      0.895D-06 0.269D-05 0.352D-05-0.162D-03-0.385D-03 0.264D-02
 Coeff:     -0.584D-02-0.371D-02 0.449D-01-0.326D-01-0.249D+00 0.124D+01
 Gap=     0.368 Goal=   None    Shift=    0.000
 RMSDP=1.70D-08 MaxDP=3.85D-07 DE=-1.22D-10 OVMax= 1.48D-06

 Cycle  13  Pass 1  IDiag  1:
 E= -994.518159368919     Delta-E=       -0.000000000007 Rises=F Damp=F
 DIIS: error= 3.24D-08 at cycle  13 NSaved=  13.
 NSaved=13 IEnMin=13 EnMin= -994.518159368919     IErMin=13 ErrMin= 3.24D-08
 ErrMax= 3.24D-08  0.00D+00 EMaxC= 1.00D-01 BMatC= 1.07D-13 BMatP= 1.08D-12
 IDIUse=1 WtCom= 1.00D+00 WtEn= 0.00D+00
 Coeff-Com:  0.168D-06 0.176D-05 0.770D-06-0.249D-04-0.739D-04 0.433D-03
 Coeff-Com: -0.412D-03-0.459D-02 0.930D-02 0.198D-01-0.900D-01-0.126D+00
 Coeff-Com:  0.119D+01
 Coeff:      0.168D-06 0.176D-05 0.770D-06-0.249D-04-0.739D-04 0.433D-03
 Coeff:     -0.412D-03-0.459D-02 0.930D-02 0.198D-01-0.900D-01-0.126D+00
 Coeff:      0.119D+01
 Gap=     0.368 Goal=   None    Shift=    0.000
 RMSDP=5.15D-09 MaxDP=1.05D-07 DE=-6.82D-12 OVMax= 4.48D-07

 SCF Done:  E(RHF) =  -994.518159369     A.U. after   13 cycles
            NFock= 13  Conv=0.51D-08     -V/T= 2.0002
 KE= 9.942963964355D+02 PE=-2.621755689967D+03 EE= 5.109651713885D+02
 Leave Link  502 at Fri Oct  8 12:24:27 2021, MaxMem= 16106127360 cpu:              25.1 elap:               3.2
 (Enter /sw/contrib/gaussian/g16/B01/g16/l801.exe)
 ExpMin= 2.53D-02 ExpMax= 4.56D+05 ExpMxC= 1.44D+03 IAcc=3 IRadAn=         5 AccDes= 0.00D+00
 HarFok:  IExCor=  205 AccDes= 0.00D+00 IRadAn=         5 IDoV=-2 UseB2=F ITyADJ=14
 ICtDFT= 12500011 ScaDFX=  1.000000  1.000000  1.000000  1.000000
 Largest valence mixing into a core orbital is  4.47D-04
 Largest core mixing into a valence orbital is  1.72D-04
 Range of M.O.s used for correlation:    12   169
 NBasis=   169 NAE=    22 NBE=    22 NFC=    11 NFV=     0
 NROrb=    158 NOA=    11 NOB=    11 NVA=   147 NVB=   147

 **** Warning!!: The largest alpha MO coefficient is  0.19519724D+02

 Leave Link  801 at Fri Oct  8 12:24:27 2021, MaxMem= 16106127360 cpu:               2.0 elap:               0.1
 (Enter /sw/contrib/gaussian/g16/B01/g16/l906.exe)
 Frozen-core derivative calculation, NFC=  11 NFV=   0.
 FulOut=F Deriv=T AODrv=F NAtomX=     4
   MMem=         144  MDisk=          11 MDiskD=          11
  W3Min=      736164 MinDsk=     1250177 NBas6D=         198
 NBas2D=       20187    NTT=       19701    LW2=     3500000
    MDV= 16105751214 MDiskM=      406660 NBas2p=       19980
 Fully in-core method, ICMem=   420417501.
 IMap=   1   2   3   4   5   6   7   8   9  10  11  12  13  14  15  16  17  18  19  20
 IMap=  21  22
 JobTyp=1 Pass  1 fully in-core, NPsUse= 28.
 Compute canonical integrals.
 FoFCou: FMM=F IPFlag=           0 FMFlag=           0 FMFlg1=           0
         NFxFlg=           0 DoJE=F BraDBF=F KetDBF=F FulRan=T
         wScrn=  0.000000 ICntrl=       600 IOpCl=  1 I1Cent=           0 NGrid=           0
         NMat0=    1 NMatS0=  20187 NMatT0=    0 NMatD0=    1 NMtDS0=    0 NMtDT0=    0
 Symmetry not used in FoFCou.
 Spin components of T(2) and E(2):
     alpha-alpha T2 =       0.2986715676D-01 E2=     -0.8518070375D-01
     alpha-beta  T2 =       0.1615692241D+00 E2=     -0.5017124970D+00
     beta-beta   T2 =       0.2986715676D-01 E2=     -0.8518070375D-01
 The integrals were generated   1 times.
 ANorm=    0.1105126028D+01
 E2 =    -0.6720739045D+00 EUMP2 =    -0.99519023327346D+03
 Leave Link  906 at Fri Oct  8 12:24:31 2021, MaxMem= 16106127360 cpu:             115.8 elap:               4.2
 (Enter /sw/contrib/gaussian/g16/B01/g16/l1002.exe)
 Minotr:  Closed shell wavefunction.
          Computing MP2/KS-MP2 derivatives.
          Using Z-Vector for PSCF gradient.
          Skipping F1 and S1 gradient terms here.
          Frozen-core window.
          Direct CPHF calculation.
          Differentiating once with respect to electric field.
                with respect to dipole field.
          Electric field/nuclear overlap derivatives assumed to be zero.
          Requested convergence is 1.0D-10 RMS, and 1.0D-09 maximum.
          NewPWx=F KeepS1=T KeepF1=T KeepIn=T MapXYZ=F SortEE=F KeepMc=T.
 Keep R1 ints in memory in canonical form, NReq=117123329.
 FoFCou: FMM=F IPFlag=           0 FMFlag=           0 FMFlg1=           0
         NFxFlg=           0 DoJE=F BraDBF=F KetDBF=F FulRan=T
         wScrn=  0.000000 ICntrl=       600 IOpCl=  0 I1Cent=           0 NGrid=           0
         NMat0=    1 NMatS0=  14365 NMatT0=    0 NMatD0=    1 NMtDS0=    0 NMtDT0=    0
 Symmetry not used in FoFCou.
 Two-electron integral symmetry not used.
          MDV=   16106127360 using IRadAn=       5.
          Solving linear equations separately, MaxMat=       0.
          There are     1 degrees of freedom in the 1st order CPHF.  IDoFFX=0 NUNeed=     1.
 LinEq1:  Iter=  0 NonCon=     1 RMS=3.21D-03 Max=4.67D-02 NDo=     1
 AX will form     1 AO Fock derivatives at one time.
 LinEq1:  Iter=  1 NonCon=     1 RMS=4.10D-04 Max=5.19D-03 NDo=     1
 LinEq1:  Iter=  2 NonCon=     1 RMS=1.68D-04 Max=3.29D-03 NDo=     1
 LinEq1:  Iter=  3 NonCon=     1 RMS=6.55D-05 Max=1.04D-03 NDo=     1
 LinEq1:  Iter=  4 NonCon=     1 RMS=2.86D-05 Max=6.61D-04 NDo=     1
 LinEq1:  Iter=  5 NonCon=     1 RMS=6.41D-06 Max=7.51D-05 NDo=     1
 LinEq1:  Iter=  6 NonCon=     1 RMS=1.66D-06 Max=1.87D-05 NDo=     1
 LinEq1:  Iter=  7 NonCon=     1 RMS=3.68D-07 Max=5.34D-06 NDo=     1
 LinEq1:  Iter=  8 NonCon=     1 RMS=6.90D-08 Max=9.24D-07 NDo=     1
 LinEq1:  Iter=  9 NonCon=     1 RMS=1.93D-08 Max=3.42D-07 NDo=     1
 LinEq1:  Iter= 10 NonCon=     1 RMS=5.92D-09 Max=1.13D-07 NDo=     1
 LinEq1:  Iter= 11 NonCon=     1 RMS=1.69D-09 Max=2.09D-08 NDo=     1
 LinEq1:  Iter= 12 NonCon=     1 RMS=3.43D-10 Max=4.67D-09 NDo=     1
 LinEq1:  Iter= 13 NonCon=     0 RMS=6.34D-11 Max=9.06D-10 NDo=     1
 Linear equations converged to 1.000D-10 1.000D-09 after    13 iterations.
 End of Minotr F.D. properties file   721 does not exist.
 End of Minotr F.D. properties file   722 does not exist.
 End of Minotr F.D. properties file   788 does not exist.
 Leave Link 1002 at Fri Oct  8 12:24:34 2021, MaxMem= 16106127360 cpu:              26.3 elap:               3.4
 (Enter /sw/contrib/gaussian/g16/B01/g16/l601.exe)
 Copying SCF densities to generalized density rwf, IOpCl= 0 IROHF=0.

 **********************************************************************

            Population analysis using the MP2 Density.

 **********************************************************************

 Alpha  occ. eigenvalues -- -104.71419-104.55893 -20.43969 -10.43378 -10.28384
 Alpha  occ. eigenvalues --   -7.90094  -7.89843  -7.89835  -7.75006  -7.74981
 Alpha  occ. eigenvalues --   -7.74980  -1.19536  -0.87331  -0.79996  -0.50551
 Alpha  occ. eigenvalues --   -0.42080  -0.41265  -0.29315  -0.26178  -0.21246
 Alpha  occ. eigenvalues --   -0.20591  -0.20576
 Alpha virt. eigenvalues --    0.16228   0.18903   0.22613   0.23725   0.25751
 Alpha virt. eigenvalues --    0.27076   0.27302   0.30198   0.31297   0.33135
 Alpha virt. eigenvalues --    0.33966   0.35082   0.38295   0.45861   0.46472
 Alpha virt. eigenvalues --    0.51567   0.52289   0.53811   0.55670   0.57205
 Alpha virt. eigenvalues --    0.57952   0.60027   0.61075   0.64859   0.66311
 Alpha virt. eigenvalues --    0.68307   0.68482   0.75788   0.78149   0.78913
 Alpha virt. eigenvalues --    0.83312   0.86487   0.88040   0.90145   0.91887
 Alpha virt. eigenvalues --    0.92573   0.97292   1.00973   1.03100   1.06147
 Alpha virt. eigenvalues --    1.07076   1.09245   1.09451   1.10788   1.13957
 Alpha virt. eigenvalues --    1.15447   1.17350   1.18031   1.19050   1.21800
 Alpha virt. eigenvalues --    1.23198   1.24440   1.30182   1.33068   1.33680
 Alpha virt. eigenvalues --    1.37985   1.40940   1.41998   1.42474   1.47609
 Alpha virt. eigenvalues --    1.48841   1.50327   1.53675   1.62384   1.66309
 Alpha virt. eigenvalues --    1.67780   1.68180   1.72912   1.75114   1.78149
 Alpha virt. eigenvalues --    1.80234   1.85252   1.88366   1.91930   1.93954
 Alpha virt. eigenvalues --    2.01763   2.30873   2.40496   2.46613   2.52573
 Alpha virt. eigenvalues --    2.53839   2.59613   2.60950   2.62771   2.65598
 Alpha virt. eigenvalues --    2.69395   2.71353   2.73107   2.74260   2.77640
 Alpha virt. eigenvalues --    2.77874   2.79848   2.81730   2.86618   2.88286
 Alpha virt. eigenvalues --    2.91205   2.98754   2.98983   3.05037   3.10228
 Alpha virt. eigenvalues --    3.18035   3.20014   3.22131   3.23165   3.25041
 Alpha virt. eigenvalues --    3.29820   3.30473   3.32120   3.33448   3.36000
 Alpha virt. eigenvalues --    3.38268   3.39401   3.41735   3.45841   3.49861
 Alpha virt. eigenvalues --    3.54822   3.56953   3.60017   3.70644   3.94313
 Alpha virt. eigenvalues --    4.22462   4.26937   4.44743   4.48461   4.58433
 Alpha virt. eigenvalues --    4.76460   4.94541   5.12317   5.20957   5.25123
 Alpha virt. eigenvalues --    5.55401   6.49220   6.61957   6.73139   6.86510
 Alpha virt. eigenvalues --    6.91072   6.93664   7.02170   7.16056   7.22860
 Alpha virt. eigenvalues --    7.36412   7.45069   7.59039   7.79734   7.85583
 Alpha virt. eigenvalues --    8.27211  13.54830
          Condensed to atoms (all electrons):
               1          2          3          4
     1  O    8.666888  -0.125594  -0.105477   0.089743
     2  Cl  -0.125594  17.101641   0.006141  -0.007479
     3  Cl  -0.105477   0.006141  17.811397   0.075434
     4  H    0.089743  -0.007479   0.075434   0.554538
 Mulliken charges:
               1
     1  O   -0.525559
     2  Cl   0.025291
     3  Cl  -0.787495
     4  H    0.287763
 Sum of Mulliken charges =  -1.00000
 Mulliken charges with hydrogens summed into heavy atoms:
               1
     1  O   -0.237796
     2  Cl   0.025291
     3  Cl  -0.787495
 Electronic spatial extent (au):  <R**2>=            792.7453
 Charge=             -1.0000 electrons
 Dipole moment (field-independent basis, Debye):
    X=              1.1882    Y=              8.8883    Z=             -0.0000  Tot=              8.9674
 Quadrupole moment (field-independent basis, Debye-Ang):
   XX=            -39.1776   YY=            -64.4959   ZZ=            -36.6372
   XY=             -7.0782   XZ=             -0.0000   YZ=              0.0000
 Traceless Quadrupole moment (field-independent basis, Debye-Ang):
   XX=              7.5927   YY=            -17.7257   ZZ=             10.1330
   XY=             -7.0782   XZ=             -0.0000   YZ=              0.0000
 Octapole moment (field-independent basis, Debye-Ang**2):
  XXX=            -32.5138  YYY=            218.6806  ZZZ=              0.0000  XYY=              7.6825
  XXY=             50.6759  XXZ=             -0.0000  XZZ=            -12.0714  YZZ=             46.2129
  YYZ=             -0.0000  XYZ=              0.0000
 Hexadecapole moment (field-independent basis, Debye-Ang**3):
 XXXX=           -308.0838 YYYY=          -1043.5407 ZZZZ=            -49.2184 XXXY=            -97.9274
 XXXZ=             -0.0000 YYYX=           -147.5310 YYYZ=              0.0000 ZZZX=              0.0000
 ZZZY=              0.0000 XXYY=           -206.0617 XXZZ=            -64.0069 YYZZ=           -146.2025
 XXYZ=              0.0000 YYXZ=              0.0000 ZZXY=            -31.5536
 N-N= 1.219759627744D+02 E-N=-2.621802080742D+03  KE= 9.949575912939D+02
 No NMR shielding tensors so no spin-rotation constants.
 Leave Link  601 at Fri Oct  8 12:24:35 2021, MaxMem= 16106127360 cpu:               4.7 elap:               0.2
 (Enter /sw/contrib/gaussian/g16/B01/g16/l607.exe)
 ******************************Gaussian NBO Version 3.1******************************
             N A T U R A L   A T O M I C   O R B I T A L   A N D
          N A T U R A L   B O N D   O R B I T A L   A N A L Y S I S
 ******************************Gaussian NBO Version 3.1******************************
       /RESON  / : Allow strongly delocalized NBO set

 Analyzing the MP2 density

 Job title: title                                                           

 Storage needed:     86521 in NPA,    114817 in NBO (********** available)
 GSVD:  LWork=        1191 too small for GESVD, short by       52514 words or       52514 for optimal perf.


 NATURAL POPULATIONS:  Natural atomic orbital occupancies 
                                                          
   NAO  Atom  No  lang   Type(AO)    Occupancy
 --------------------------------------------
     1    O    1  S      Cor( 1S)     1.99974
     2    O    1  S      Val( 2S)     1.80925
     3    O    1  S      Ryd( 3S)     0.01046
     4    O    1  S      Ryd( 4S)     0.00112
     5    O    1  S      Ryd( 5S)     0.00018
     6    O    1  px     Val( 2p)     1.19259
     7    O    1  px     Ryd( 3p)     0.00710
     8    O    1  px     Ryd( 4p)     0.00064
     9    O    1  px     Ryd( 5p)     0.00048
    10    O    1  py     Val( 2p)     1.72906
    11    O    1  py     Ryd( 3p)     0.01311
    12    O    1  py     Ryd( 4p)     0.00073
    13    O    1  py     Ryd( 5p)     0.00042
    14    O    1  pz     Val( 2p)     1.94684
    15    O    1  pz     Ryd( 3p)     0.02094
    16    O    1  pz     Ryd( 4p)     0.00065
    17    O    1  pz     Ryd( 5p)     0.00012
    18    O    1  dxy    Ryd( 3d)     0.00850
    19    O    1  dxy    Ryd( 4d)     0.00048
    20    O    1  dxy    Ryd( 5d)     0.00014
    21    O    1  dxz    Ryd( 3d)     0.00880
    22    O    1  dxz    Ryd( 4d)     0.00058
    23    O    1  dxz    Ryd( 5d)     0.00010
    24    O    1  dyz    Ryd( 3d)     0.00721
    25    O    1  dyz    Ryd( 4d)     0.00064
    26    O    1  dyz    Ryd( 5d)     0.00035
    27    O    1  dx2y2  Ryd( 3d)     0.01302
    28    O    1  dx2y2  Ryd( 4d)     0.00040
    29    O    1  dx2y2  Ryd( 5d)     0.00016
    30    O    1  dz2    Ryd( 3d)     0.00927
    31    O    1  dz2    Ryd( 4d)     0.00060
    32    O    1  dz2    Ryd( 5d)     0.00016
    33    O    1  f(0)   Ryd( 4f)     0.00068
    34    O    1  f(0)   Ryd( 5f)     0.00011
    35    O    1  f(C1)  Ryd( 4f)     0.00067
    36    O    1  f(C1)  Ryd( 5f)     0.00012
    37    O    1  f(S1)  Ryd( 4f)     0.00061
    38    O    1  f(S1)  Ryd( 5f)     0.00011
    39    O    1  f(C2)  Ryd( 4f)     0.00062
    40    O    1  f(C2)  Ryd( 5f)     0.00013
    41    O    1  f(S2)  Ryd( 4f)     0.00055
    42    O    1  f(S2)  Ryd( 5f)     0.00012
    43    O    1  f(C3)  Ryd( 4f)     0.00061
    44    O    1  f(C3)  Ryd( 5f)     0.00014
    45    O    1  f(S3)  Ryd( 4f)     0.00056
    46    O    1  f(S3)  Ryd( 5f)     0.00012

    47   Cl    2  S      Cor( 1S)     2.00000
    48   Cl    2  S      Cor( 2S)     1.99977
    49   Cl    2  S      Val( 3S)     1.87892
    50   Cl    2  S      Ryd( 4S)     0.00835
    51   Cl    2  S      Ryd( 5S)     0.00054
    52   Cl    2  S      Ryd( 6S)     0.00017
    53   Cl    2  px     Cor( 2p)     1.99996
    54   Cl    2  px     Val( 3p)     0.92453
    55   Cl    2  px     Ryd( 4p)     0.00683
    56   Cl    2  px     Ryd( 5p)     0.00053
    57   Cl    2  px     Ryd( 6p)     0.00022
    58   Cl    2  py     Cor( 2p)     2.00003
    59   Cl    2  py     Val( 3p)     1.95291
    60   Cl    2  py     Ryd( 4p)     0.01017
    61   Cl    2  py     Ryd( 5p)     0.00052
    62   Cl    2  py     Ryd( 6p)     0.00007
    63   Cl    2  pz     Cor( 2p)     2.00003
    64   Cl    2  pz     Val( 3p)     1.95401
    65   Cl    2  pz     Ryd( 4p)     0.01106
    66   Cl    2  pz     Ryd( 5p)     0.00070
    67   Cl    2  pz     Ryd( 6p)     0.00002
    68   Cl    2  dxy    Ryd( 3d)     0.01767
    69   Cl    2  dxy    Ryd( 4d)     0.00103
    70   Cl    2  dxy    Ryd( 5d)     0.00036
    71   Cl    2  dxz    Ryd( 3d)     0.02219
    72   Cl    2  dxz    Ryd( 4d)     0.00124
    73   Cl    2  dxz    Ryd( 5d)     0.00037
    74   Cl    2  dyz    Ryd( 3d)     0.01686
    75   Cl    2  dyz    Ryd( 4d)     0.00071
    76   Cl    2  dyz    Ryd( 5d)     0.00022
    77   Cl    2  dx2y2  Ryd( 3d)     0.01861
    78   Cl    2  dx2y2  Ryd( 4d)     0.00048
    79   Cl    2  dx2y2  Ryd( 5d)     0.00018
    80   Cl    2  dz2    Ryd( 3d)     0.01761
    81   Cl    2  dz2    Ryd( 4d)     0.00059
    82   Cl    2  dz2    Ryd( 5d)     0.00019
    83   Cl    2  f(0)   Ryd( 4f)     0.00131
    84   Cl    2  f(0)   Ryd( 5f)     0.00014
    85   Cl    2  f(C1)  Ryd( 4f)     0.00147
    86   Cl    2  f(C1)  Ryd( 5f)     0.00015
    87   Cl    2  f(S1)  Ryd( 4f)     0.00127
    88   Cl    2  f(S1)  Ryd( 5f)     0.00013
    89   Cl    2  f(C2)  Ryd( 4f)     0.00135
    90   Cl    2  f(C2)  Ryd( 5f)     0.00014
    91   Cl    2  f(S2)  Ryd( 4f)     0.00120
    92   Cl    2  f(S2)  Ryd( 5f)     0.00013
    93   Cl    2  f(C3)  Ryd( 4f)     0.00161
    94   Cl    2  f(C3)  Ryd( 5f)     0.00014
    95   Cl    2  f(S3)  Ryd( 4f)     0.00128
    96   Cl    2  f(S3)  Ryd( 5f)     0.00015

    97   Cl    3  S      Cor( 1S)     2.00000
    98   Cl    3  S      Cor( 2S)     1.99990
    99   Cl    3  S      Val( 3S)     1.95226
   100   Cl    3  S      Ryd( 4S)     0.00145
   101   Cl    3  S      Ryd( 5S)     0.00024
   102   Cl    3  S      Ryd( 6S)     0.00010
   103   Cl    3  px     Cor( 2p)     2.00003
   104   Cl    3  px     Val( 3p)     1.94395
   105   Cl    3  px     Ryd( 4p)     0.01192
   106   Cl    3  px     Ryd( 5p)     0.00056
   107   Cl    3  px     Ryd( 6p)     0.00008
   108   Cl    3  py     Cor( 2p)     2.00002
   109   Cl    3  py     Val( 3p)     1.81313
   110   Cl    3  py     Ryd( 4p)     0.00983
   111   Cl    3  py     Ryd( 5p)     0.00052
   112   Cl    3  py     Ryd( 6p)     0.00009
   113   Cl    3  pz     Cor( 2p)     2.00003
   114   Cl    3  pz     Val( 3p)     1.95234
   115   Cl    3  pz     Ryd( 4p)     0.01212
   116   Cl    3  pz     Ryd( 5p)     0.00056
   117   Cl    3  pz     Ryd( 6p)     0.00006
   118   Cl    3  dxy    Ryd( 3d)     0.01850
   119   Cl    3  dxy    Ryd( 4d)     0.00063
   120   Cl    3  dxy    Ryd( 5d)     0.00012
   121   Cl    3  dxz    Ryd( 3d)     0.01818
   122   Cl    3  dxz    Ryd( 4d)     0.00093
   123   Cl    3  dxz    Ryd( 5d)     0.00013
   124   Cl    3  dyz    Ryd( 3d)     0.01848
   125   Cl    3  dyz    Ryd( 4d)     0.00065
   126   Cl    3  dyz    Ryd( 5d)     0.00012
   127   Cl    3  dx2y2  Ryd( 3d)     0.01861
   128   Cl    3  dx2y2  Ryd( 4d)     0.00077
   129   Cl    3  dx2y2  Ryd( 5d)     0.00014
   130   Cl    3  dz2    Ryd( 3d)     0.01835
   131   Cl    3  dz2    Ryd( 4d)     0.00090
   132   Cl    3  dz2    Ryd( 5d)     0.00011
   133   Cl    3  f(0)   Ryd( 4f)     0.00127
   134   Cl    3  f(0)   Ryd( 5f)     0.00016
   135   Cl    3  f(C1)  Ryd( 4f)     0.00128
   136   Cl    3  f(C1)  Ryd( 5f)     0.00014
   137   Cl    3  f(S1)  Ryd( 4f)     0.00131
   138   Cl    3  f(S1)  Ryd( 5f)     0.00018
   139   Cl    3  f(C2)  Ryd( 4f)     0.00127
   140   Cl    3  f(C2)  Ryd( 5f)     0.00016
   141   Cl    3  f(S2)  Ryd( 4f)     0.00128
   142   Cl    3  f(S2)  Ryd( 5f)     0.00015
   143   Cl    3  f(C3)  Ryd( 4f)     0.00128
   144   Cl    3  f(C3)  Ryd( 5f)     0.00017
   145   Cl    3  f(S3)  Ryd( 4f)     0.00130
   146   Cl    3  f(S3)  Ryd( 5f)     0.00018

   147    H    4  S      Val( 1S)     0.52012
   148    H    4  S      Ryd( 2S)     0.00686
   149    H    4  S      Ryd( 3S)     0.00039
   150    H    4  S      Ryd( 4S)     0.00021
   151    H    4  px     Ryd( 2p)     0.00429
   152    H    4  px     Ryd( 3p)     0.00052
   153    H    4  px     Ryd( 4p)     0.00012
   154    H    4  py     Ryd( 2p)     0.00503
   155    H    4  py     Ryd( 3p)     0.00127
   156    H    4  py     Ryd( 4p)     0.00023
   157    H    4  pz     Ryd( 2p)     0.00545
   158    H    4  pz     Ryd( 3p)     0.00034
   159    H    4  pz     Ryd( 4p)     0.00030
   160    H    4  dxy    Ryd( 3d)     0.00026
   161    H    4  dxy    Ryd( 4d)     0.00011
   162    H    4  dxz    Ryd( 3d)     0.00023
   163    H    4  dxz    Ryd( 4d)     0.00007
   164    H    4  dyz    Ryd( 3d)     0.00040
   165    H    4  dyz    Ryd( 4d)     0.00011
   166    H    4  dx2y2  Ryd( 3d)     0.00021
   167    H    4  dx2y2  Ryd( 4d)     0.00012
   168    H    4  dz2    Ryd( 3d)     0.00024
   169    H    4  dz2    Ryd( 4d)     0.00009


 Summary of Natural Population Analysis:                  
                                                          
                                       Natural Population 
                Natural  -----------------------------------------------
    Atom  No    Charge         Core      Valence    Rydberg      Total
 -----------------------------------------------------------------------
      O    1   -0.78897      1.99974     6.67774    0.11150     8.78897
     Cl    2    0.14188      9.99979     6.71037    0.14796    16.85812
     Cl    3   -0.80593      9.99998     7.66168    0.14428    17.80593
      H    4    0.45302      0.00000     0.52012    0.02686     0.54698
 =======================================================================
   * Total *   -1.00000     21.99950    21.56991    0.43059    44.00000

                                 Natural Population      
 --------------------------------------------------------
   Core                      21.99950 ( 99.9977% of  22)
   Valence                   21.56991 ( 98.0450% of  22)
   Natural Minimal Basis     43.56941 ( 99.0214% of  44)
   Natural Rydberg Basis      0.43059 (  0.9786% of  44)
 --------------------------------------------------------

    Atom  No          Natural Electron Configuration
 ----------------------------------------------------------------------------
      O    1      [core]2S( 1.81)2p( 4.87)3S( 0.01)3p( 0.04)3d( 0.05)
     Cl    2      [core]3S( 1.88)3p( 4.83)4S( 0.01)3d( 0.09)4p( 0.03)4f( 0.01)
     Cl    3      [core]3S( 1.95)3p( 5.71)3d( 0.09)4p( 0.03)4f( 0.01)
      H    4            1S( 0.52)2S( 0.01)2p( 0.01)


 NATURAL BOND ORBITAL ANALYSIS:
 Warning:  a bond orbital has occupanc of -0.00006
 Warning:  a bond orbital has occupanc of -0.00000

                       Occupancies       Lewis Structure    Low   High
           Occ.    -------------------  -----------------   occ   occ
  Cycle   Thresh.   Lewis   Non-Lewis     CR  BD  3C  LP    (L)   (NL)   Dev
 =============================================================================
   1(1)    1.90    43.36450   0.63550     11   2   0   9     1      1    0.24
 Warning:  a bond orbital has occupanc of -0.00006
 Warning:  a bond orbital has occupanc of -0.00000
   2(2)    1.90    43.20080   0.79920     11   2   0   9     1      1    0.48
 Warning:  a bond orbital has occupanc of -0.00006
 Warning:  a bond orbital has occupanc of -0.00000
   3(3)    1.90    43.36450   0.63550     11   2   0   9     1      1    0.24
 Warning:  a bond orbital has occupanc of -0.00006
 Warning:  a bond orbital has occupanc of -0.00000
   4(1)    1.80    43.36450   0.63550     11   2   0   9     1      1    0.24
 Warning:  a bond orbital has occupanc of -0.00006
 Warning:  a bond orbital has occupanc of -0.00000
   5(2)    1.80    43.20080   0.79920     11   2   0   9     1      1    0.48
 Warning:  a bond orbital has occupanc of -0.00006
 Warning:  a bond orbital has occupanc of -0.00000
   6(3)    1.80    43.36450   0.63550     11   2   0   9     1      1    0.24
 Warning:  a bond orbital has occupanc of -0.00006
 Warning:  a bond orbital has occupanc of -0.00000
   7(1)    1.70    43.36450   0.63550     11   2   0   9     0      1    0.24
 Warning:  a bond orbital has occupanc of -0.00006
 Warning:  a bond orbital has occupanc of -0.00000
   8(2)    1.70    43.36450   0.63550     11   2   0   9     0      1    0.24
 Warning:  a bond orbital has occupanc of -0.00006
 Warning:  a bond orbital has occupanc of -0.00000
   9(1)    1.60    43.03941   0.96059     11   1   0  10     0      1    0.48
 Warning:  a bond orbital has occupanc of -0.00006
 Warning:  a bond orbital has occupanc of -0.00000
  10(2)    1.60    43.03941   0.96059     11   1   0  10     0      1    0.48
 Warning:  a bond orbital has occupanc of -0.00006
 Warning:  a bond orbital has occupanc of -0.00000
  11(1)    1.50    43.03941   0.96059     11   1   0  10     0      1    0.48
 Warning:  a bond orbital has occupanc of -0.00006
 Warning:  a bond orbital has occupanc of -0.00000
  12(2)    1.50    43.03941   0.96059     11   1   0  10     0      1    0.48
 Warning:  a bond orbital has occupanc of -0.00006
 Warning:  a bond orbital has occupanc of -0.00000
  13(1)    1.90    43.36450   0.63550     11   2   0   9     1      1    0.24
 -----------------------------------------------------------------------------

 Structure accepted: RESONANCE keyword permits strongly delocalized structure

 --------------------------------------------------------
   Core                     21.99950 ( 99.998% of  22)
   Valence Lewis            21.36500 ( 97.114% of  22)
  ==================       ============================
   Total Lewis              43.36450 ( 98.556% of  44)
  -----------------------------------------------------
   Valence non-Lewis         0.25111 (  0.571% of  44)
   Rydberg non-Lewis         0.38439 (  0.874% of  44)
  ==================       ============================
   Total non-Lewis           0.63550 (  1.444% of  44)
 --------------------------------------------------------


       (Occupancy)   Bond orbital/ Coefficients/ Hybrids
 ---------------------------------------------------------------------------------
     1. (1.93871) BD ( 1) O   1 -Cl   2  
                ( 58.14%)   0.7625* O   1 s( 10.55%)p 8.43( 88.92%)d 0.05(  0.51%)
                                                  f 0.00(  0.02%)
                                            0.0003  0.3207 -0.0489  0.0163 -0.0007
                                            0.9409 -0.0368 -0.0106 -0.0138 -0.0380
                                           -0.0265 -0.0048  0.0007  0.0000  0.0000
                                            0.0000  0.0000 -0.0187 -0.0013  0.0023
                                            0.0000  0.0000  0.0000  0.0000  0.0000
                                            0.0000  0.0543  0.0044  0.0026 -0.0424
                                           -0.0036  0.0002  0.0000  0.0000 -0.0111
                                            0.0012 -0.0002  0.0002  0.0000  0.0000
                                            0.0000  0.0000  0.0069  0.0009 -0.0008
                                            0.0018
                ( 41.86%)   0.6470*Cl   2 s(  8.96%)p10.03( 89.81%)d 0.13(  1.12%)
                                                  f 0.01(  0.12%)
                                           -0.0000  0.0005  0.2933 -0.0587 -0.0105
                                           -0.0022 -0.0004 -0.9452  0.0660  0.0139
                                           -0.0045 -0.0000 -0.0112 -0.0014  0.0029
                                           -0.0011  0.0000  0.0000  0.0000  0.0000
                                            0.0000  0.0127 -0.0000  0.0005  0.0000
                                            0.0000  0.0000  0.0000  0.0000  0.0000
                                            0.0881 -0.0116 -0.0008 -0.0559  0.0069
                                            0.0013  0.0000  0.0000  0.0213 -0.0031
                                            0.0006 -0.0001  0.0000  0.0000  0.0000
                                            0.0000 -0.0261  0.0030 -0.0018  0.0003
     2. (1.96047) BD ( 1) O   1 - H   4  
                ( 81.53%)   0.9030* O   1 s( 26.32%)p 2.78( 73.26%)d 0.02(  0.41%)
                                                  f 0.00(  0.01%)
                                           -0.0002 -0.5130 -0.0007 -0.0078 -0.0029
                                            0.2062 -0.0135 -0.0026 -0.0048  0.8305
                                            0.0027 -0.0051 -0.0035  0.0000  0.0000
                                            0.0000  0.0000  0.0041  0.0023  0.0004
                                            0.0000  0.0000  0.0000  0.0000  0.0000
                                            0.0000  0.0547  0.0067  0.0004  0.0316
                                            0.0016 -0.0041  0.0000  0.0000 -0.0019
                                           -0.0005 -0.0091  0.0004  0.0000  0.0000
                                            0.0000  0.0000 -0.0022 -0.0019  0.0003
                                           -0.0009
                ( 18.47%)   0.4297* H   4 s( 99.78%)p 0.00(  0.22%)d 0.00(  0.01%)
                                           -0.9980 -0.0411 -0.0098  0.0005 -0.0082
                                           -0.0131  0.0030  0.0195 -0.0374 -0.0114
                                            0.0000  0.0000  0.0000  0.0002 -0.0003
                                            0.0000  0.0000  0.0000  0.0000  0.0037
                                            0.0036 -0.0000  0.0062
     3. (1.99974) CR ( 1) O   1           s(100.00%)p 0.00(  0.00%)
                                            1.0000 -0.0003  0.0000 -0.0000 -0.0000
                                           -0.0002  0.0000  0.0000  0.0000  0.0001
                                            0.0000 -0.0000 -0.0000  0.0000  0.0000
                                            0.0000  0.0000  0.0000  0.0000  0.0000
                                            0.0000  0.0000  0.0000  0.0000  0.0000
                                            0.0000 -0.0000  0.0000  0.0000  0.0000
                                            0.0000 -0.0000  0.0000  0.0000  0.0000
                                           -0.0000 -0.0000  0.0000  0.0000  0.0000
                                            0.0000  0.0000 -0.0000 -0.0000 -0.0000
                                           -0.0000
     4. (2.00000) CR ( 1)Cl   2           s(100.00%)
                                            1.0000  0.0000 -0.0000 -0.0000 -0.0000
                                           -0.0000 -0.0000 -0.0000  0.0000  0.0000
                                           -0.0000 -0.0000 -0.0000 -0.0000  0.0000
                                           -0.0000  0.0000  0.0000  0.0000  0.0000
                                            0.0000  0.0000 -0.0000  0.0000  0.0000
                                            0.0000  0.0000  0.0000  0.0000  0.0000
                                            0.0000 -0.0000 -0.0000 -0.0000  0.0000
                                            0.0000  0.0000  0.0000  0.0000 -0.0000
                                            0.0000 -0.0000  0.0000  0.0000  0.0000
                                            0.0000 -0.0000  0.0000 -0.0000  0.0000
     5. (1.99978) CR ( 2)Cl   2           s(100.00%)p 0.00(  0.00%)
                                            0.0000  1.0000 -0.0004  0.0000  0.0000
                                            0.0000  0.0000  0.0004 -0.0000 -0.0000
                                            0.0000  0.0000  0.0000  0.0000 -0.0000
                                            0.0000  0.0000  0.0000  0.0000  0.0000
                                            0.0000 -0.0000  0.0000 -0.0000  0.0000
                                            0.0000  0.0000  0.0000  0.0000  0.0000
                                           -0.0000  0.0000  0.0000  0.0000 -0.0000
                                           -0.0000  0.0000  0.0000 -0.0000  0.0000
                                           -0.0000  0.0000  0.0000  0.0000  0.0000
                                            0.0000  0.0000 -0.0000  0.0000 -0.0000
     6. (1.99996) CR ( 3)Cl   2           s(  0.00%)p 1.00(100.00%)
                                           -0.0000  0.0000  0.0001 -0.0000 -0.0000
                                           -0.0000  1.0000 -0.0004  0.0000  0.0000
                                           -0.0000  0.0000 -0.0000 -0.0000  0.0000
                                           -0.0000  0.0000  0.0000  0.0000  0.0000
                                            0.0000  0.0000 -0.0000  0.0000  0.0000
                                            0.0000  0.0000  0.0000  0.0000  0.0000
                                            0.0000 -0.0000 -0.0000 -0.0000  0.0000
                                            0.0000  0.0000  0.0000  0.0000 -0.0000
                                            0.0000 -0.0000  0.0000  0.0000  0.0000
                                            0.0000 -0.0000  0.0000 -0.0000  0.0000
     7. (2.00003) CR ( 4)Cl   2           s(  0.00%)p 1.00(100.00%)
                                           -0.0000  0.0000  0.0000  0.0000  0.0000
                                           -0.0000  0.0000 -0.0000  0.0000  0.0000
                                           -0.0000  1.0000  0.0002  0.0000  0.0000
                                            0.0000  0.0000  0.0000  0.0000  0.0000
                                            0.0000  0.0000  0.0000  0.0000  0.0000
                                            0.0000  0.0000  0.0000  0.0000  0.0000
                                           -0.0000 -0.0000 -0.0000 -0.0000 -0.0000
                                           -0.0000  0.0000  0.0000  0.0000  0.0000
                                           -0.0000  0.0000  0.0000  0.0000  0.0000
                                            0.0000 -0.0000  0.0000  0.0000 -0.0000
     8. (2.00003) CR ( 5)Cl   2           s(  0.00%)p 1.00(100.00%)
                                            0.0000  0.0000  0.0000  0.0000  0.0000
                                            0.0000  0.0000  0.0000  0.0000  0.0000
                                            0.0000  0.0000  0.0000  0.0000  0.0000
                                            0.0000  1.0000  0.0002  0.0000  0.0000
                                           -0.0000  0.0000  0.0000  0.0000  0.0000
                                            0.0000  0.0000  0.0000  0.0000  0.0000
                                            0.0000  0.0000  0.0000  0.0000  0.0000
                                            0.0000 -0.0000  0.0000  0.0000  0.0000
                                            0.0000  0.0000  0.0000 -0.0000  0.0000
                                           -0.0000  0.0000  0.0000  0.0000  0.0000
     9. (2.00000) CR ( 1)Cl   3           s(100.00%)
                                            1.0000  0.0000  0.0000 -0.0000  0.0000
                                           -0.0000 -0.0000 -0.0000  0.0000 -0.0000
                                            0.0000 -0.0000 -0.0000  0.0000 -0.0000
                                           -0.0000  0.0000  0.0000  0.0000  0.0000
                                            0.0000 -0.0000 -0.0000 -0.0000  0.0000
                                            0.0000  0.0000  0.0000  0.0000  0.0000
                                            0.0000 -0.0000  0.0000  0.0000  0.0000
                                            0.0000  0.0000  0.0000  0.0000  0.0000
                                           -0.0000 -0.0000  0.0000  0.0000  0.0000
                                            0.0000  0.0000  0.0000 -0.0000 -0.0000
    10. (1.99990) CR ( 2)Cl   3           s(100.00%)
                                            0.0000  1.0000 -0.0002  0.0000 -0.0000
                                            0.0000  0.0000  0.0000 -0.0000  0.0000
                                           -0.0000  0.0000  0.0001 -0.0000  0.0000
                                            0.0000  0.0000  0.0000  0.0000  0.0000
                                            0.0000  0.0000  0.0000  0.0000  0.0000
                                            0.0000  0.0000  0.0000  0.0000  0.0000
                                           -0.0000  0.0000 -0.0000 -0.0000 -0.0000
                                           -0.0000  0.0000  0.0000 -0.0000 -0.0000
                                            0.0000  0.0000  0.0000  0.0000  0.0000
                                            0.0000 -0.0000  0.0000  0.0000  0.0000
    11. (2.00003) CR ( 3)Cl   3           s(  0.00%)p 1.00(100.00%)
                                           -0.0000  0.0000  0.0000  0.0000 -0.0000
                                            0.0000  1.0000  0.0000  0.0000  0.0000
                                           -0.0000 -0.0000 -0.0000 -0.0000 -0.0000
                                            0.0000  0.0000  0.0000  0.0000  0.0000
                                            0.0000  0.0000  0.0000 -0.0000  0.0000
                                            0.0000  0.0000  0.0000  0.0000  0.0000
                                            0.0000 -0.0000 -0.0000  0.0000  0.0000
                                            0.0000  0.0000  0.0000 -0.0000 -0.0000
                                            0.0000  0.0000  0.0000  0.0000  0.0000
                                            0.0000 -0.0000 -0.0000  0.0000  0.0000
    12. (2.00002) CR ( 4)Cl   3           s(  0.00%)p 1.00(100.00%)
                                           -0.0000  0.0000  0.0000 -0.0000  0.0000
                                           -0.0000 -0.0000 -0.0000  0.0000 -0.0000
                                           -0.0000  1.0000 -0.0000  0.0000 -0.0000
                                            0.0000  0.0000  0.0000  0.0000  0.0000
                                            0.0000 -0.0000 -0.0000 -0.0000  0.0000
                                            0.0000  0.0000  0.0000  0.0000  0.0000
                                            0.0000 -0.0000  0.0000  0.0000  0.0000
                                            0.0000  0.0000  0.0000 -0.0000 -0.0000
                                           -0.0000 -0.0000  0.0000  0.0000  0.0000
                                            0.0000 -0.0000 -0.0000  0.0000 -0.0000
    13. (2.00003) CR ( 5)Cl   3           s(  0.00%)p 1.00(100.00%)
                                            0.0000  0.0000  0.0000  0.0000  0.0000
                                            0.0000  0.0000  0.0000  0.0000  0.0000
                                            0.0000  0.0000  0.0000  0.0000  0.0000
                                            0.0000  1.0000  0.0000  0.0000  0.0000
                                           -0.0000  0.0000  0.0000  0.0000  0.0000
                                            0.0000 -0.0000  0.0000  0.0000 -0.0000
                                            0.0000  0.0000  0.0000  0.0000  0.0000
                                            0.0000 -0.0000 -0.0000  0.0000  0.0000
                                            0.0000  0.0000 -0.0000 -0.0000  0.0000
                                            0.0000  0.0000  0.0000  0.0000  0.0000
    14. (1.96596) LP ( 1) O   1           s( 63.33%)p 0.58( 36.59%)d 0.00(  0.08%)
                                                  f 0.00(  0.00%)
                                            0.0002  0.7957  0.0091 -0.0083 -0.0018
                                           -0.2481 -0.0006 -0.0041 -0.0019  0.5516
                                            0.0080  0.0057  0.0020  0.0000  0.0000
                                            0.0000  0.0000  0.0218  0.0021 -0.0032
                                            0.0000  0.0000  0.0000  0.0000  0.0000
                                            0.0000  0.0130  0.0002 -0.0040  0.0098
                                            0.0006  0.0007  0.0000  0.0000 -0.0001
                                            0.0005 -0.0024 -0.0000  0.0000  0.0000
                                            0.0000  0.0000  0.0033 -0.0023  0.0040
                                           -0.0014
    15. (1.95103) LP ( 2) O   1           s(  0.00%)p 1.00( 99.82%)d 0.00(  0.16%)
                                                  f 0.00(  0.01%)
                                            0.0000  0.0000  0.0000  0.0000  0.0000
                                            0.0000  0.0000  0.0000  0.0000  0.0000
                                            0.0000  0.0000  0.0000  0.9989  0.0169
                                            0.0056  0.0081  0.0000  0.0000  0.0000
                                            0.0315  0.0049 -0.0011 -0.0218  0.0043
                                            0.0116  0.0000  0.0000  0.0000  0.0000
                                            0.0000  0.0000 -0.0094  0.0004  0.0000
                                            0.0000  0.0000  0.0000  0.0060 -0.0023
                                            0.0005  0.0012  0.0000  0.0000  0.0000
                                            0.0000
    16. (1.97391) LP ( 1)Cl   2           s( 91.25%)p 0.10(  8.73%)d 0.00(  0.02%)
                                                  f 0.00(  0.00%)
                                            0.0000  0.0003  0.9552  0.0072  0.0013
                                            0.0003  0.0001  0.2939 -0.0064 -0.0032
                                            0.0014  0.0000 -0.0282  0.0013  0.0000
                                           -0.0005  0.0000  0.0000  0.0000  0.0000
                                            0.0000 -0.0002 -0.0004 -0.0004  0.0000
                                            0.0000  0.0000  0.0000  0.0000  0.0000
                                           -0.0126  0.0005  0.0002  0.0079  0.0005
                                            0.0003  0.0000  0.0000 -0.0022 -0.0003
                                            0.0001 -0.0000  0.0000  0.0000  0.0000
                                            0.0000  0.0035 -0.0001 -0.0004  0.0002
    17. (1.95576) LP ( 2)Cl   2           s(  0.00%)p 1.00( 99.94%)d 0.00(  0.05%)
                                                  f 0.00(  0.01%)
                                            0.0000  0.0000  0.0000  0.0000  0.0000
                                            0.0000  0.0000  0.0000  0.0000  0.0000
                                            0.0000  0.0000  0.0000  0.0000  0.0000
                                            0.0000 -0.0002  0.9996  0.0157  0.0052
                                           -0.0024  0.0000  0.0000  0.0000  0.0099
                                            0.0191  0.0079  0.0032  0.0026  0.0004
                                            0.0000  0.0000  0.0000  0.0000  0.0000
                                            0.0000 -0.0054  0.0012  0.0000  0.0000
                                            0.0000  0.0000  0.0065 -0.0011  0.0008
                                           -0.0006  0.0000  0.0000  0.0000  0.0000
    18. (1.95452) LP ( 3)Cl   2           s(  0.10%)p99.99( 99.85%)d 0.45(  0.04%)
                                                  f 0.08(  0.01%)
                                            0.0000 -0.0000  0.0304  0.0058  0.0036
                                           -0.0019  0.0000 -0.0033 -0.0003 -0.0001
                                           -0.0007 -0.0002  0.9992  0.0134  0.0015
                                            0.0001  0.0000  0.0000  0.0000  0.0000
                                            0.0000  0.0017  0.0171  0.0077  0.0000
                                            0.0000  0.0000  0.0000  0.0000  0.0000
                                           -0.0070 -0.0044 -0.0026 -0.0007 -0.0026
                                           -0.0001  0.0000  0.0000  0.0001  0.0003
                                           -0.0024  0.0003  0.0000  0.0000  0.0000
                                            0.0000 -0.0012  0.0002  0.0085 -0.0016
    19. (1.97604) LP ( 1)Cl   3           s( 87.72%)p 0.14( 12.28%)d 0.00(  0.00%)
                                                  f 0.00(  0.00%)
                                           -0.0000  0.0002  0.9366 -0.0005  0.0013
                                           -0.0003 -0.0000 -0.0898  0.0003 -0.0003
                                            0.0000 -0.0000 -0.3387  0.0027 -0.0006
                                           -0.0000  0.0000  0.0000  0.0000  0.0000
                                            0.0000 -0.0011 -0.0001 -0.0004  0.0000
                                            0.0000  0.0000  0.0000  0.0000  0.0000
                                            0.0021 -0.0000  0.0005  0.0016  0.0001
                                            0.0005  0.0000  0.0000  0.0000  0.0000
                                           -0.0000 -0.0001  0.0000  0.0000  0.0000
                                            0.0000 -0.0000 -0.0000 -0.0001 -0.0001
    20. (1.95269) LP ( 2)Cl   3           s(  0.00%)p 1.00( 99.98%)d 0.00(  0.01%)
                                                  f 0.00(  0.00%)
                                            0.0000  0.0000  0.0000  0.0000  0.0000
                                            0.0000  0.0000  0.0000  0.0000  0.0000
                                            0.0000  0.0000  0.0000  0.0000  0.0000
                                            0.0000 -0.0000  0.9999  0.0037  0.0020
                                           -0.0007  0.0000  0.0000  0.0000  0.0025
                                            0.0001 -0.0005  0.0114  0.0013 -0.0018
                                            0.0000  0.0000  0.0000  0.0000  0.0000
                                            0.0000 -0.0027 -0.0014  0.0000  0.0000
                                            0.0000  0.0000 -0.0030 -0.0014  0.0015
                                            0.0008  0.0000  0.0000  0.0000  0.0000
    21. (1.95231) LP ( 3)Cl   3           s(  0.01%)p 1.00( 99.98%)d 0.00(  0.02%)
                                                  f 0.00(  0.00%)
                                            0.0000 -0.0000  0.0078  0.0005 -0.0004
                                            0.0004 -0.0000  0.9716  0.0036  0.0017
                                           -0.0007 -0.0000 -0.2361 -0.0007 -0.0006
                                            0.0003  0.0000  0.0000  0.0000  0.0000
                                            0.0000  0.0114  0.0010 -0.0016  0.0000
                                            0.0000  0.0000  0.0000  0.0000  0.0000
                                            0.0047 -0.0003 -0.0013  0.0002  0.0001
                                            0.0001  0.0000  0.0000 -0.0011 -0.0005
                                            0.0002  0.0001  0.0000  0.0000  0.0000
                                            0.0000 -0.0031 -0.0013  0.0025  0.0011
    22. (1.78360) LP ( 4)Cl   3           s( 12.26%)p 7.14( 87.62%)d 0.01(  0.11%)
                                                  f 0.00(  0.01%)
                                           -0.0000 -0.0000  0.3502  0.0015 -0.0038
                                            0.0008  0.0000  0.2183 -0.0012 -0.0006
                                           -0.0000 -0.0000  0.9102 -0.0075 -0.0047
                                            0.0017  0.0000  0.0000  0.0000  0.0000
                                            0.0000  0.0124  0.0022 -0.0000  0.0000
                                            0.0000  0.0000  0.0000  0.0000  0.0000
                                           -0.0243 -0.0037  0.0010 -0.0167 -0.0031
                                           -0.0003  0.0000  0.0000 -0.0013 -0.0006
                                           -0.0054 -0.0021  0.0000  0.0000  0.0000
                                            0.0000 -0.0044 -0.0015 -0.0051 -0.0015
    23. (0.02058) RY*( 1) O   1           s(  0.00%)p 1.00( 98.93%)d 0.01(  1.02%)
                                                  f 0.00(  0.05%)
                                            0.0000  0.0000  0.0000  0.0000  0.0000
                                            0.0000  0.0000  0.0000  0.0000  0.0000
                                            0.0000  0.0000  0.0000 -0.0207  0.9938
                                           -0.0325 -0.0157  0.0000  0.0000  0.0000
                                            0.0772  0.0272  0.0086 -0.0567  0.0019
                                            0.0154  0.0000  0.0000  0.0000  0.0000
                                            0.0000  0.0000 -0.0121  0.0102  0.0000
                                            0.0000  0.0000  0.0000  0.0112 -0.0102
                                           -0.0022  0.0014  0.0000  0.0000  0.0000
                                            0.0000
    24. (0.01680) RY*( 2) O   1           s( 27.75%)p 2.54( 70.36%)d 0.06(  1.73%)
                                                  f 0.01(  0.17%)
                                           -0.0000  0.0050  0.5260  0.0256 -0.0124
                                            0.0364 -0.3300 -0.0093  0.0244 -0.0168
                                            0.7679 -0.0040 -0.0532  0.0000  0.0000
                                            0.0000  0.0000  0.1197  0.0273  0.0102
                                            0.0000  0.0000  0.0000  0.0000  0.0000
                                            0.0000  0.0181  0.0063  0.0043  0.0407
                                            0.0028 -0.0062  0.0000  0.0000 -0.0043
                                            0.0007  0.0027  0.0022  0.0000  0.0000
                                            0.0000  0.0000  0.0297 -0.0135  0.0212
                                           -0.0111
    25. (0.00826) RY*( 3) O   1           s( 22.92%)p 0.74( 16.91%)d 2.58( 59.24%)
                                                  f 0.04(  0.94%)
                                           -0.0000  0.0135  0.4714  0.0815  0.0135
                                           -0.0141 -0.2224  0.0098  0.0568 -0.0075
                                           -0.3301  0.0317 -0.0777 -0.0000 -0.0000
                                           -0.0000 -0.0000 -0.7061 -0.0103 -0.0220
                                           -0.0000 -0.0000 -0.0000 -0.0000 -0.0000
                                           -0.0000  0.1990 -0.0033  0.0246  0.2295
                                           -0.0156  0.0028 -0.0000 -0.0000 -0.0215
                                            0.0142  0.0045  0.0008 -0.0000 -0.0000
                                           -0.0000 -0.0000 -0.0193  0.0081 -0.0832
                                            0.0365
    26. (0.00703) RY*( 4) O   1           s(  0.00%)p 1.00(  0.35%)d99.99( 97.88%)
                                                  f 5.11(  1.78%)
                                            0.0000  0.0000  0.0000  0.0000  0.0000
                                            0.0000  0.0000  0.0000  0.0000  0.0000
                                            0.0000  0.0000  0.0000 -0.0209 -0.0529
                                           -0.0116 -0.0106  0.0000  0.0000  0.0000
                                            0.9170 -0.0420  0.0163  0.3678 -0.0197
                                            0.0100  0.0000  0.0000  0.0000  0.0000
                                            0.0000  0.0000 -0.0390  0.0160  0.0000
                                            0.0000  0.0000  0.0000  0.1130 -0.0526
                                           -0.0180  0.0102  0.0000  0.0000  0.0000
                                            0.0000
    27. (0.00655) RY*( 5) O   1           s(  1.20%)p17.11( 20.47%)d63.95( 76.48%)
                                                  f 1.55(  1.86%)
                                           -0.0000 -0.0002  0.0988  0.0464 -0.0070
                                           -0.0229 -0.3007 -0.0012  0.0503 -0.0495
                                           -0.3283  0.0291 -0.0094  0.0000  0.0000
                                            0.0000  0.0000  0.5885 -0.0004  0.0343
                                            0.0000  0.0000  0.0000  0.0000  0.0000
                                            0.0000  0.5456 -0.0180  0.0286  0.3429
                                           -0.0260  0.0135  0.0000  0.0000  0.0125
                                           -0.0099 -0.0579  0.0339  0.0000  0.0000
                                            0.0000  0.0000  0.1081 -0.0455  0.0004
                                            0.0076
    28. (0.00625) RY*( 6) O   1           s(  0.00%)p 1.00(  0.81%)d99.99( 97.93%)
                                                  f 1.55(  1.26%)
                                            0.0000  0.0000  0.0000  0.0000  0.0000
                                            0.0000  0.0000  0.0000  0.0000  0.0000
                                            0.0000  0.0000  0.0000  0.0307  0.0802
                                           -0.0111 -0.0251  0.0000  0.0000  0.0000
                                           -0.3620  0.0350  0.0057  0.9174 -0.0665
                                            0.0308  0.0000  0.0000  0.0000  0.0000
                                            0.0000  0.0000  0.0832 -0.0432  0.0000
                                            0.0000  0.0000  0.0000  0.0259 -0.0165
                                            0.0496 -0.0194  0.0000  0.0000  0.0000
                                            0.0000
    29. (0.00573) RY*( 7) O   1           s(  1.02%)p13.91( 14.21%)d80.87( 82.62%)
                                                  f 2.10(  2.15%)
                                           -0.0000  0.0205  0.0954  0.0204  0.0167
                                            0.0736  0.3620 -0.0004 -0.0600 -0.0066
                                            0.0445  0.0040 -0.0067  0.0000  0.0000
                                            0.0000  0.0000  0.0824 -0.0209 -0.0161
                                            0.0000  0.0000  0.0000  0.0000  0.0000
                                            0.0000 -0.3777  0.0181  0.0087  0.8163
                                           -0.0962 -0.0044  0.0000  0.0000  0.1024
                                           -0.0394 -0.0246  0.0114  0.0000  0.0000
                                            0.0000  0.0000 -0.0797  0.0323  0.0323
                                           -0.0163
    30. (0.00407) RY*( 8) O   1           s( 27.71%)p 0.78( 21.58%)d 1.78( 49.29%)
                                                  f 0.05(  1.42%)
                                            0.0000 -0.0073  0.5027  0.1544  0.0237
                                            0.0396 -0.0517  0.0232  0.0462  0.0335
                                           -0.4119  0.0609 -0.1856 -0.0000 -0.0000
                                           -0.0000 -0.0000  0.3243 -0.0225  0.0280
                                           -0.0000 -0.0000 -0.0000 -0.0000 -0.0000
                                           -0.0000 -0.5400  0.0400 -0.0081 -0.2981
                                            0.0643 -0.0132 -0.0000 -0.0000  0.0193
                                           -0.0091  0.0615 -0.0334 -0.0000 -0.0000
                                           -0.0000 -0.0000  0.0106 -0.0137  0.0855
                                           -0.0349
    31. (0.00240) RY*( 9) O   1           s( 14.88%)p 4.09( 60.84%)d 1.60( 23.74%)
                                                  f 0.04(  0.54%)
                                           -0.0000  0.0026  0.3770  0.0808 -0.0112
                                            0.0160  0.7737 -0.0109 -0.0264 -0.0102
                                            0.0546  0.0207 -0.0723  0.0000  0.0000
                                            0.0000  0.0000  0.0598 -0.0165 -0.0068
                                            0.0000  0.0000  0.0000  0.0000  0.0000
                                            0.0000  0.4240 -0.0521  0.1072 -0.1893
                                            0.0538 -0.0273  0.0000  0.0000 -0.0289
                                            0.0358  0.0002  0.0067  0.0000  0.0000
                                            0.0000  0.0000  0.0414 -0.0387 -0.0033
                                            0.0044
    32. (0.00074) RY*(10) O   1           s( 30.69%)p 1.96( 60.07%)d 0.26(  8.02%)
                                                  f 0.04(  1.22%)
                                            0.0000  0.0025 -0.0290  0.5477 -0.0781
                                           -0.0096  0.0208  0.0569  0.2465  0.0085
                                            0.0034 -0.7069  0.1906 -0.0000 -0.0000
                                           -0.0000 -0.0000 -0.0125  0.1847  0.0968
                                           -0.0000 -0.0000 -0.0000 -0.0000 -0.0000
                                           -0.0000 -0.0293 -0.0757 -0.0404  0.0011
                                           -0.1166 -0.1216 -0.0000 -0.0000 -0.0335
                                            0.0018 -0.0408 -0.0108 -0.0000 -0.0000
                                           -0.0000 -0.0000  0.0906 -0.0249  0.0104
                                            0.0196
    33. (0.00065) RY*(11) O   1           s(  0.00%)p 1.00(  8.26%)d 7.64( 63.10%)
                                                  f 3.47( 28.65%)
                                            0.0000  0.0000  0.0000  0.0000  0.0000
                                            0.0000  0.0000  0.0000  0.0000  0.0000
                                            0.0000  0.0000  0.0000 -0.0036  0.0164
                                            0.2862  0.0190  0.0000  0.0000  0.0000
                                            0.0172 -0.2023 -0.0117  0.0321  0.7662
                                            0.0383  0.0000  0.0000  0.0000  0.0000
                                            0.0000  0.0000  0.1171  0.0011  0.0000
                                            0.0000  0.0000  0.0000 -0.0296 -0.0191
                                            0.5172 -0.0632  0.0000  0.0000  0.0000
                                            0.0000
    34. (0.00063) RY*(12) O   1           s(  1.86%)p 1.64(  3.05%)d32.88( 61.09%)
                                                  f18.30( 34.00%)
                                            0.0000 -0.0035  0.0141  0.1133 -0.0743
                                           -0.0075 -0.0174  0.0029 -0.0637  0.0047
                                           -0.0000  0.1601  0.0212 -0.0000 -0.0000
                                           -0.0000 -0.0000  0.0573 -0.1869  0.0419
                                           -0.0000 -0.0000 -0.0000 -0.0000 -0.0000
                                           -0.0000  0.0017 -0.2032  0.0246 -0.0634
                                           -0.7182 -0.0960 -0.0000 -0.0000 -0.4480
                                            0.0536  0.0499 -0.0065 -0.0000 -0.0000
                                           -0.0000 -0.0000 -0.3588  0.0364 -0.0616
                                           -0.0051
    35. (0.00060) RY*(13) O   1           s(  0.00%)p 1.00( 87.09%)d 0.08(  6.67%)
                                                  f 0.07(  6.24%)
                                            0.0000  0.0000  0.0000  0.0000  0.0000
                                            0.0000  0.0000  0.0000  0.0000  0.0000
                                            0.0000  0.0000  0.0000 -0.0026  0.0211
                                            0.9042 -0.2299  0.0000  0.0000  0.0000
                                            0.0293  0.1527  0.0322 -0.0041 -0.2030
                                            0.0163  0.0000  0.0000  0.0000  0.0000
                                            0.0000  0.0000  0.1208  0.0230  0.0000
                                            0.0000  0.0000  0.0000 -0.1336 -0.0317
                                           -0.1678  0.0148  0.0000  0.0000  0.0000
                                            0.0000
    36. (0.00052) RY*(14) O   1           s(  0.00%)p 1.00(  0.43%)d99.99( 64.88%)
                                                  f80.89( 34.69%)
                                            0.0000  0.0000  0.0000  0.0000  0.0000
                                            0.0000  0.0000  0.0000  0.0000  0.0000
                                            0.0000  0.0000  0.0000 -0.0090 -0.0288
                                            0.0292 -0.0503  0.0000  0.0000  0.0000
                                           -0.0063  0.7983 -0.0732 -0.0172  0.0696
                                           -0.0312  0.0000  0.0000  0.0000  0.0000
                                            0.0000  0.0000 -0.3730 -0.0125  0.0000
                                            0.0000  0.0000  0.0000  0.3418  0.0158
                                            0.3008 -0.0110  0.0000  0.0000  0.0000
                                            0.0000
    37. (0.00052) RY*(15) O   1           s(  5.07%)p 3.48( 17.61%)d10.50( 53.19%)
                                                  f 4.76( 24.13%)
                                            0.0000 -0.0015 -0.0939  0.1956 -0.0599
                                           -0.0030  0.0129  0.0973  0.0854 -0.0024
                                            0.0218  0.3536 -0.1836  0.0000  0.0000
                                            0.0000  0.0000 -0.0435  0.7226 -0.0588
                                            0.0000  0.0000  0.0000  0.0000  0.0000
                                            0.0000  0.0045 -0.0369  0.0370  0.0309
                                            0.0112  0.0229  0.0000  0.0000 -0.2125
                                           -0.0104 -0.2342  0.0039  0.0000  0.0000
                                            0.0000  0.0000 -0.0297  0.0183  0.3724
                                            0.0366
    38. (0.00048) RY*(16) O   1           s(  0.01%)p 1.00( 83.58%)d 0.03(  2.40%)
                                                  f 0.17( 14.01%)
[...]
                                           -0.8383 -0.1494 -0.0452  0.1577  0.1517
                                           -0.0000 -0.0000 -0.0000 -0.2320 -0.1024
                                           -0.0000 -0.0000 -0.0000 -0.0000  0.0248
                                           -0.1101  0.1429 -0.0608
   153. (0.00032) RY*( 8) H   4           s( 27.63%)p 1.56( 43.13%)d 1.06( 29.24%)
                                           -0.0034  0.0019  0.2148  0.4797 -0.0753
                                            0.4450 -0.1689  0.0582 -0.2163  0.3858
                                            0.0000  0.0000  0.0000 -0.4273  0.1095
                                            0.0000  0.0000  0.0000  0.0000  0.1876
                                           -0.1345  0.1863 -0.0995
   154. (0.00029) RY*( 9) H   4           s(  0.00%)p 1.00( 89.07%)d 0.12( 10.93%)
                                            0.0000  0.0000  0.0000  0.0000  0.0000
                                            0.0000  0.0000  0.0000  0.0000  0.0000
                                           -0.1086  0.9244  0.1561  0.0000  0.0000
                                           -0.0881  0.1209  0.2003  0.2163  0.0000
                                            0.0000  0.0000  0.0000
   155. (0.00025) RY*(10) H   4           s(  0.29%)p35.16( 10.33%)d99.99( 89.38%)
                                            0.0071  0.0277  0.0328  0.0324 -0.0710
                                           -0.0512 -0.1002  0.0063 -0.0092 -0.2923
                                            0.0000  0.0000  0.0000 -0.3167  0.0396
                                            0.0000  0.0000  0.0000  0.0000  0.5432
                                            0.0400 -0.6513  0.2666
   156. (0.00024) RY*(11) H   4           s(  0.00%)p 1.00(  1.39%)d70.82( 98.61%)
                                            0.0000  0.0000  0.0000  0.0000  0.0000
                                            0.0000  0.0000  0.0000  0.0000  0.0000
                                           -0.0163  0.1019  0.0572  0.0000  0.0000
                                            0.9538 -0.2526 -0.0566  0.0969  0.0000
                                            0.0000  0.0000  0.0000
   157. (0.00021) RY*(12) H   4           s(  4.98%)p 5.97( 29.70%)d13.12( 65.32%)
                                            0.0146  0.0232  0.0289  0.2195  0.0654
                                           -0.0225  0.0830 -0.0182 -0.1940 -0.4974
                                            0.0000  0.0000  0.0000  0.1716 -0.0807
                                            0.0000  0.0000  0.0000  0.0000  0.4689
                                            0.2722  0.5654  0.0605
   158. (0.00018) RY*(13) H   4           s( 12.31%)p 1.41( 17.39%)d 5.71( 70.30%)
                                           -0.0064 -0.0455  0.0337  0.3462  0.0824
                                           -0.0442  0.2633 -0.0013  0.1421  0.2750
                                            0.0000  0.0000  0.0000  0.6282  0.2776
                                            0.0000  0.0000  0.0000  0.0000  0.3459
                                           -0.1595 -0.2359 -0.1748
   159. (0.00013) RY*(14) H   4           s( 62.56%)p 0.36( 22.35%)d 0.24( 15.09%)
                                           -0.0031 -0.0591 -0.4868  0.6206 -0.0049
                                            0.1626 -0.1327  0.0160  0.2889 -0.3094
                                            0.0000  0.0000  0.0000  0.0214 -0.2012
                                            0.0000  0.0000  0.0000  0.0000 -0.3038
                                           -0.0432 -0.1241  0.0188
   160. (0.00011) RY*(15) H   4           s(  0.00%)p 1.00( 26.76%)d 2.74( 73.24%)
                                            0.0000  0.0000  0.0000  0.0000  0.0000
                                            0.0000  0.0000  0.0000  0.0000  0.0000
                                           -0.0253 -0.1590  0.4916  0.0000  0.0000
                                           -0.0662  0.1676 -0.5096  0.6635  0.0000
                                            0.0000  0.0000  0.0000
   161. (0.00008) RY*(16) H   4           s( 22.26%)p 1.17( 25.97%)d 2.33( 51.77%)
   162. (0.00009) RY*(17) H   4           s( 10.23%)p 2.94( 30.03%)d 5.84( 59.74%)
   163. (0.00006) RY*(18) H   4           s(  0.00%)p 1.00( 38.73%)d 1.58( 61.27%)
   164. (0.00004) RY*(19) H   4           s( 13.37%)p 4.07( 54.38%)d 2.41( 32.25%)
   165. (0.00004) RY*(20) H   4           s(  7.18%)p 2.22( 15.96%)d10.70( 76.86%)
   166. (0.00004) RY*(21) H   4           s(  0.00%)p 1.00(  0.06%)d99.99( 99.94%)
   167. (0.00004) RY*(22) H   4           s(  4.94%)p 0.49(  2.41%)d18.77( 92.65%)
   168. (0.05809) BD*( 1) O   1 -Cl   2  
                ( 41.86%)   0.6470* O   1 s( 10.55%)p 8.43( 88.92%)d 0.05(  0.51%)
                                                  f 0.00(  0.02%)
                                           -0.0003 -0.3207  0.0489 -0.0163  0.0007
                                           -0.9409  0.0368  0.0106  0.0138  0.0380
                                            0.0265  0.0048 -0.0007 -0.0000 -0.0000
                                           -0.0000 -0.0000  0.0187  0.0013 -0.0023
                                           -0.0000 -0.0000 -0.0000 -0.0000 -0.0000
                                           -0.0000 -0.0543 -0.0044 -0.0026  0.0424
                                            0.0036 -0.0002 -0.0000 -0.0000  0.0111
                                           -0.0012  0.0002 -0.0002 -0.0000 -0.0000
                                           -0.0000 -0.0000 -0.0069 -0.0009  0.0008
                                           -0.0018
                ( 58.14%)  -0.7625*Cl   2 s(  8.96%)p10.03( 89.81%)d 0.13(  1.12%)
                                                  f 0.01(  0.12%)
                                            0.0000 -0.0005 -0.2933  0.0587  0.0105
                                            0.0022  0.0004  0.9452 -0.0660 -0.0139
                                            0.0045  0.0000  0.0112  0.0014 -0.0029
                                            0.0011 -0.0000 -0.0000 -0.0000 -0.0000
                                           -0.0000 -0.0127  0.0000 -0.0005 -0.0000
                                           -0.0000 -0.0000 -0.0000 -0.0000 -0.0000
                                           -0.0881  0.0116  0.0008  0.0559 -0.0069
                                           -0.0013 -0.0000 -0.0000 -0.0213  0.0031
                                           -0.0006  0.0001 -0.0000 -0.0000 -0.0000
                                           -0.0000  0.0261 -0.0030  0.0018 -0.0003
   169. (0.19303) BD*( 1) O   1 - H   4  
                ( 18.47%)   0.4297* O   1 s( 26.32%)p 2.78( 73.26%)d 0.02(  0.41%)
                                                  f 0.00(  0.01%)
                                            0.0002  0.5130  0.0007  0.0078  0.0029
                                           -0.2062  0.0135  0.0026  0.0048 -0.8305
                                           -0.0027  0.0051  0.0035 -0.0000 -0.0000
                                           -0.0000 -0.0000 -0.0041 -0.0023 -0.0004
                                           -0.0000 -0.0000 -0.0000 -0.0000 -0.0000
                                           -0.0000 -0.0547 -0.0067 -0.0004 -0.0316
                                           -0.0016  0.0041 -0.0000 -0.0000  0.0019
                                            0.0005  0.0091 -0.0004 -0.0000 -0.0000
                                           -0.0000 -0.0000  0.0022  0.0019 -0.0003
                                            0.0009
                ( 81.53%)  -0.9030* H   4 s( 99.78%)p 0.00(  0.22%)d 0.00(  0.01%)
                                            0.9980  0.0411  0.0098 -0.0005  0.0082
                                            0.0131 -0.0030 -0.0195  0.0374  0.0114
                                           -0.0000 -0.0000 -0.0000 -0.0002  0.0003
                                           -0.0000 -0.0000 -0.0000 -0.0000 -0.0037
                                           -0.0036  0.0000 -0.0062


 NHO Directionality and "Bond Bending" (deviations from line of nuclear centers)

         [Thresholds for printing:  angular deviation  >  1.0 degree]
                                    hybrid p-character > 25.0%
                                    orbital occupancy  >  0.10e

                                Line of Centers        Hybrid 1              Hybrid 2
                                ---------------  -------------------   ------------------
                NBO               Theta   Phi    Theta   Phi    Dev    Theta   Phi    Dev
 ========================================================================================
     1. BD (   1) O   1 -Cl   2    90.0    0.0    90.0  355.5   4.5      --     --    --
    14. LP (   1) O   1             --     --     90.0  114.2   --       --     --    --
    15. LP (   2) O   1             --     --      0.0    0.0   --       --     --    --
    17. LP (   2)Cl   2             --     --      0.0    0.0   --       --     --    --
    18. LP (   3)Cl   2             --     --     90.0   90.2   --       --     --    --
    20. LP (   2)Cl   3             --     --      0.0    0.0   --       --     --    --
    21. LP (   3)Cl   3             --     --     90.0  346.3   --       --     --    --
    22. LP (   4)Cl   3             --     --     90.0   76.5   --       --     --    --


 Natural Bond Orbitals (Summary):

           NBO                  Occupancy  
 -----------------------------------------------
 Molecular unit  1  (HOCl)
     1. BD (   1) O   1 -Cl   2          1.93871
     2. BD (   1) O   1 - H   4          1.96047
     3. CR (   1) O   1                  1.99974
     4. CR (   1)Cl   2                  2.00000
     5. CR (   2)Cl   2                  1.99978
     6. CR (   3)Cl   2                  1.99996
     7. CR (   4)Cl   2                  2.00003
     8. CR (   5)Cl   2                  2.00003
    14. LP (   1) O   1                  1.96596
    15. LP (   2) O   1                  1.95103
    16. LP (   1)Cl   2                  1.97391
    17. LP (   2)Cl   2                  1.95576
    18. LP (   3)Cl   2                  1.95452
    23. RY*(   1) O   1                  0.02058
    24. RY*(   2) O   1                  0.01680
    25. RY*(   3) O   1                  0.00826
    26. RY*(   4) O   1                  0.00703
    27. RY*(   5) O   1                  0.00655
    28. RY*(   6) O   1                  0.00625
    29. RY*(   7) O   1                  0.00573
    30. RY*(   8) O   1                  0.00407
    31. RY*(   9) O   1                  0.00240
    32. RY*(  10) O   1                  0.00074
    33. RY*(  11) O   1                  0.00065
    34. RY*(  12) O   1                  0.00063
    35. RY*(  13) O   1                  0.00060
    36. RY*(  14) O   1                  0.00052
    37. RY*(  15) O   1                  0.00052
    38. RY*(  16) O   1                  0.00048
    39. RY*(  17) O   1                  0.00048
    40. RY*(  18) O   1                  0.00048
    41. RY*(  19) O   1                  0.00046
    42. RY*(  20) O   1                  0.00045
    43. RY*(  21) O   1                  0.00046
    44. RY*(  22) O   1                  0.00043
    45. RY*(  23) O   1                  0.00038
    46. RY*(  24) O   1                  0.00033
    47. RY*(  25) O   1                  0.00026
    48. RY*(  26) O   1                  0.00015
    49. RY*(  27) O   1                  0.00013
    50. RY*(  28) O   1                  0.00013
    51. RY*(  29) O   1                  0.00012
    52. RY*(  30) O   1                  0.00009
    53. RY*(  31) O   1                  0.00008
    54. RY*(  32) O   1                  0.00008
    55. RY*(  33) O   1                  0.00008
    56. RY*(  34) O   1                  0.00008
    57. RY*(  35) O   1                  0.00008
    58. RY*(  36) O   1                  0.00006
    59. RY*(  37) O   1                  0.00005
    60. RY*(  38) O   1                  0.00006
    61. RY*(  39) O   1                  0.00005
    62. RY*(  40) O   1                  0.00002
    63. RY*(  41) O   1                 -0.00006
    64. RY*(   1)Cl   2                  0.02353
    65. RY*(   2)Cl   2                  0.01853
    66. RY*(   3)Cl   2                  0.01684
    67. RY*(   4)Cl   2                  0.01684
    68. RY*(   5)Cl   2                  0.01194
    69. RY*(   6)Cl   2                  0.00951
    70. RY*(   7)Cl   2                  0.00924
    71. RY*(   8)Cl   2                  0.00649
    72. RY*(   9)Cl   2                  0.00175
    73. RY*(  10)Cl   2                  0.00127
    74. RY*(  11)Cl   2                  0.00127
    75. RY*(  12)Cl   2                  0.00120
    76. RY*(  13)Cl   2                  0.00121
    77. RY*(  14)Cl   2                  0.00117
    78. RY*(  15)Cl   2                  0.00112
    79. RY*(  16)Cl   2                  0.00096
    80. RY*(  17)Cl   2                  0.00078
    81. RY*(  18)Cl   2                  0.00076
    82. RY*(  19)Cl   2                  0.00066
    83. RY*(  20)Cl   2                  0.00059
    84. RY*(  21)Cl   2                  0.00044
    85. RY*(  22)Cl   2                  0.00037
    86. RY*(  23)Cl   2                  0.00036
    87. RY*(  24)Cl   2                  0.00031
    88. RY*(  25)Cl   2                  0.00019
    89. RY*(  26)Cl   2                  0.00016
    90. RY*(  27)Cl   2                  0.00017
    91. RY*(  28)Cl   2                  0.00012
    92. RY*(  29)Cl   2                  0.00013
    93. RY*(  30)Cl   2                  0.00013
    94. RY*(  31)Cl   2                  0.00011
    95. RY*(  32)Cl   2                  0.00012
    96. RY*(  33)Cl   2                  0.00010
    97. RY*(  34)Cl   2                  0.00009
    98. RY*(  35)Cl   2                  0.00009
    99. RY*(  36)Cl   2                  0.00009
   100. RY*(  37)Cl   2                  0.00007
   101. RY*(  38)Cl   2                  0.00003
   102. RY*(  39)Cl   2                  0.00003
   103. RY*(  40)Cl   2                  0.00003
   104. RY*(  41)Cl   2                 -0.00000
   146. RY*(   1) H   4                  0.00885
   147. RY*(   2) H   4                  0.00554
   148. RY*(   3) H   4                  0.00494
   149. RY*(   4) H   4                  0.00390
   150. RY*(   5) H   4                  0.00118
   151. RY*(   6) H   4                  0.00060
   152. RY*(   7) H   4                  0.00042
   153. RY*(   8) H   4                  0.00032
   154. RY*(   9) H   4                  0.00029
   155. RY*(  10) H   4                  0.00025
   156. RY*(  11) H   4                  0.00024
   157. RY*(  12) H   4                  0.00021
   158. RY*(  13) H   4                  0.00018
   159. RY*(  14) H   4                  0.00013
   160. RY*(  15) H   4                  0.00011
   161. RY*(  16) H   4                  0.00008
   162. RY*(  17) H   4                  0.00009
   163. RY*(  18) H   4                  0.00006
   164. RY*(  19) H   4                  0.00004
   165. RY*(  20) H   4                  0.00004
   166. RY*(  21) H   4                  0.00004
   167. RY*(  22) H   4                  0.00004
   168. BD*(   1) O   1 -Cl   2          0.05809
   169. BD*(   1) O   1 - H   4          0.19303
       -------------------------------
              Total Lewis   25.69988  ( 98.1134%)
        Valence non-Lewis    0.25111  (  0.9587%)
        Rydberg non-Lewis    0.24307  (  0.9280%)
       -------------------------------
            Total unit  1   26.19407  (100.0000%)
           Charge unit  1   -0.19407

 Molecular unit  2  (Cl)
     9. CR (   1)Cl   3                  2.00000
    10. CR (   2)Cl   3                  1.99990
    11. CR (   3)Cl   3                  2.00003
    12. CR (   4)Cl   3                  2.00002
    13. CR (   5)Cl   3                  2.00003
    19. LP (   1)Cl   3                  1.97604
    20. LP (   2)Cl   3                  1.95269
    21. LP (   3)Cl   3                  1.95231
    22. LP (   4)Cl   3                  1.78360
   105. RY*(   1)Cl   3                  0.01825
   106. RY*(   2)Cl   3                  0.01819
   107. RY*(   3)Cl   3                  0.01817
   108. RY*(   4)Cl   3                  0.01816
   109. RY*(   5)Cl   3                  0.01758
   110. RY*(   6)Cl   3                  0.01209
   111. RY*(   7)Cl   3                  0.01201
   112. RY*(   8)Cl   3                  0.00926
   113. RY*(   9)Cl   3                  0.00152
   114. RY*(  10)Cl   3                  0.00128
   115. RY*(  11)Cl   3                  0.00128
   116. RY*(  12)Cl   3                  0.00128
   117. RY*(  13)Cl   3                  0.00128
   118. RY*(  14)Cl   3                  0.00126
   119. RY*(  15)Cl   3                  0.00125
   120. RY*(  16)Cl   3                  0.00121
   121. RY*(  17)Cl   3                  0.00094
   122. RY*(  18)Cl   3                  0.00095
   123. RY*(  19)Cl   3                  0.00066
   124. RY*(  20)Cl   3                  0.00064
   125. RY*(  21)Cl   3                  0.00063
   126. RY*(  22)Cl   3                  0.00051
   127. RY*(  23)Cl   3                  0.00049
   128. RY*(  24)Cl   3                  0.00046
   129. RY*(  25)Cl   3                  0.00024
   130. RY*(  26)Cl   3                  0.00018
   131. RY*(  27)Cl   3                  0.00018
   132. RY*(  28)Cl   3                  0.00014
   133. RY*(  29)Cl   3                  0.00014
   134. RY*(  30)Cl   3                  0.00014
   135. RY*(  31)Cl   3                  0.00014
   136. RY*(  32)Cl   3                  0.00014
   137. RY*(  33)Cl   3                  0.00012
   138. RY*(  34)Cl   3                  0.00009
   139. RY*(  35)Cl   3                  0.00010
   140. RY*(  36)Cl   3                  0.00009
   141. RY*(  37)Cl   3                  0.00009
   142. RY*(  38)Cl   3                  0.00007
   143. RY*(  39)Cl   3                  0.00005
   144. RY*(  40)Cl   3                  0.00003
   145. RY*(  41)Cl   3                  0.00001
       -------------------------------
              Total Lewis   17.66462  ( 99.2064%)
        Valence non-Lewis    0.00000  (  0.0000%)
        Rydberg non-Lewis    0.14132  (  0.7936%)
       -------------------------------
            Total unit  2   17.80593  (100.0000%)
           Charge unit  2   -0.80593
 Leave Link  607 at Fri Oct  8 12:24:37 2021, MaxMem= 16106127360 cpu:              78.3 elap:               2.8
 (Enter /sw/contrib/gaussian/g16/B01/g16/l9999.exe)
 1\1\GINC-N2218\SP\RMP2-FC\Aug-CC-pVTZ\Cl2H1O1(1-)\CGAVINH\08-Oct-2021\
 0\\#p pop=NBO SP NoSymm mp2/aug-cc-pvtz density=current\\title\\-1,1\O
 \X,1,10.\Cl,1,1.68274941,2,90.\Cl,1,2.90467605,2,90.,3,103.53015695,0\
 H,1,1.1,2,90.,3,103.53015695,0\\Version=ES64L-G16RevB.01\HF=-994.51815
 94\MP2=-995.1902333\RMSD=5.146e-09\Dipole=1.2056582,1.3400654,0.\Quadr
 upole=5.6449495,-13.1786149,7.5336653,-5.2624367,0.,0.\PG=CS [SG(Cl2H1
 O1)]\\@


 THE SCIENTIFIC THEORIST IS NOT TO BE ENVIED. FOR NATURE, OR MORE
 PRECISELY EXPERIMENT, IS AN INEXORABLE AND NOT VERY FRIENDLY JUDGE OF HIS
 WORK.  IT NEVER SAYS "YES" TO A THEORY. IN THE MOST FAVORABLE CASES
 IT SAYS "MAYBE", AND IN THE GREAT MAJORITY OF CASES SIMPLY "NO"...
 PROBABLY EVERY THEORY WILL SOME DAY EXPERIENCE ITS "NO" - MOST
 THEORIES, SOON AFTER CONCEPTION.  -- A.EINSTEIN, NOV 11, 1922.
 Job cpu time:       0 days  0 hours  4 minutes 33.4 seconds.
 Elapsed time:       0 days  0 hours  0 minutes 14.9 seconds.
 File lengths (MBytes):  RWF=     14 Int=      0 D2E=      0 Chk=      8 Scr=      1
 Normal termination of Gaussian 16 at Fri Oct  8 12:24:38 2021.
