 Entering Gaussian System, Link 0=g16
 Input=clhocl_rOH_s_05-20.gjf
 Output=clhocl_rOH_s_05-20.log
 Initial command:
 /sw/contrib/gaussian/g16/B01/g16/l1.exe "/scr/Gau-273183.inp" -scrdir="/scr/"
 Entering Link 1 = /sw/contrib/gaussian/g16/B01/g16/l1.exe PID=    273184.
  
 Copyright (c) 1988-2017, Gaussian, Inc.  All Rights Reserved.
  
 This is part of the Gaussian(R) 16 program.  It is based on
 the Gaussian(R) 09 system (copyright 2009, Gaussian, Inc.),
 the Gaussian(R) 03 system (copyright 2003, Gaussian, Inc.),
 the Gaussian(R) 98 system (copyright 1998, Gaussian, Inc.),
 the Gaussian(R) 94 system (copyright 1995, Gaussian, Inc.),
 the Gaussian 92(TM) system (copyright 1992, Gaussian, Inc.),
 the Gaussian 90(TM) system (copyright 1990, Gaussian, Inc.),
 the Gaussian 88(TM) system (copyright 1988, Gaussian, Inc.),
 the Gaussian 86(TM) system (copyright 1986, Carnegie Mellon
 University), and the Gaussian 82(TM) system (copyright 1983,
 Carnegie Mellon University). Gaussian is a federally registered
 trademark of Gaussian, Inc.
  
 This software contains proprietary and confidential information,
 including trade secrets, belonging to Gaussian, Inc.
  
 This software is provided under written license and may be
 used, copied, transmitted, or stored only in accord with that
 written license.
  
 The following legend is applicable only to US Government
 contracts under FAR:
  
                    RESTRICTED RIGHTS LEGEND
  
 Use, reproduction and disclosure by the US Government is
 subject to restrictions as set forth in subparagraphs (a)
 and (c) of the Commercial Computer Software - Restricted
 Rights clause in FAR 52.227-19.
  
 Gaussian, Inc.
 340 Quinnipiac St., Bldg. 40, Wallingford CT 06492
  
  
 ---------------------------------------------------------------
 Warning -- This program may not be used in any manner that
 competes with the business of Gaussian, Inc. or will provide
 assistance to any competitor of Gaussian, Inc.  The licensee
 of this program is prohibited from giving any competitor of
 Gaussian, Inc. access to this program.  By using this program,
 the user acknowledges that Gaussian, Inc. is engaged in the
 business of creating and licensing software in the field of
 computational chemistry and represents and warrants to the
 licensee that it is not a competitor of Gaussian, Inc. and that
 it will not use this program in any manner prohibited above.
 ---------------------------------------------------------------
  

 Cite this work as:
 Gaussian 16, Revision B.01,
 M. J. Frisch, G. W. Trucks, H. B. Schlegel, G. E. Scuseria, 
 M. A. Robb, J. R. Cheeseman, G. Scalmani, V. Barone, 
 G. A. Petersson, H. Nakatsuji, X. Li, M. Caricato, A. V. Marenich, 
 J. Bloino, B. G. Janesko, R. Gomperts, B. Mennucci, H. P. Hratchian, 
 J. V. Ortiz, A. F. Izmaylov, J. L. Sonnenberg, D. Williams-Young, 
 F. Ding, F. Lipparini, F. Egidi, J. Goings, B. Peng, A. Petrone, 
 T. Henderson, D. Ranasinghe, V. G. Zakrzewski, J. Gao, N. Rega, 
 G. Zheng, W. Liang, M. Hada, M. Ehara, K. Toyota, R. Fukuda, 
 J. Hasegawa, M. Ishida, T. Nakajima, Y. Honda, O. Kitao, H. Nakai, 
 T. Vreven, K. Throssell, J. A. Montgomery, Jr., J. E. Peralta, 
 F. Ogliaro, M. J. Bearpark, J. J. Heyd, E. N. Brothers, K. N. Kudin, 
 V. N. Staroverov, T. A. Keith, R. Kobayashi, J. Normand, 
 K. Raghavachari, A. P. Rendell, J. C. Burant, S. S. Iyengar, 
 J. Tomasi, M. Cossi, J. M. Millam, M. Klene, C. Adamo, R. Cammi, 
 J. W. Ochterski, R. L. Martin, K. Morokuma, O. Farkas, 
 J. B. Foresman, and D. J. Fox, Gaussian, Inc., Wallingford CT, 2016.
 
 ******************************************
 Gaussian 16:  ES64L-G16RevB.01 20-Dec-2017
                15-Nov-2021 
 ******************************************
 %nproc=28
 Will use up to   28 processors via shared memory.
 %mem=120GB
 %chk=/gscratch/ilahie/mccoygrp/coire_hocl/rOH_s_oop_0/clhocl/clhocl_rOH_s_05-20.
 chk
 ----------------------------------------------------
 #p pop=NBO SP NoSymm mp2/aug-cc-pvtz density=current
 ----------------------------------------------------
 1/30=1,38=1,172=1/1;
 2/12=2,15=1,17=6,18=5,40=1/2;
 3/5=16,6=1,7=10,11=9,25=1,30=1,71=1/1,2,3;
 4//1;
 5/5=2,38=5/2;
 8/6=4,10=1/1;
 9/15=1,16=-3/6;
 10/5=1,13=10,31=1/2;
 6/7=2,8=2,9=2,10=2,22=-1,40=1/1,7;
 99/5=1,9=1/99;
 Leave Link    1 at Mon Nov 15 07:35:46 2021, MaxMem= 16106127360 cpu:               2.4 elap:               0.1
 (Enter /sw/contrib/gaussian/g16/B01/g16/l101.exe)
 -----
 title
 -----
 Symbolic Z-matrix:
 Charge = -1 Multiplicity = 1
 O
 X                    1     10. 
 Cl                   1    r1       2     90. 
 Cl                   1    r2       2     90.      3    a1       0
 H                    1    r3       2    oop      3    a1       0
       Variables:
  r1                    1.68275                  
  r2                    2.90468                  
  r3                    0.5    Scan 30    0.05   
  a1                  103.53016                  
  OOP                  90.                       
 
 ITRead=  0  0  0  0
 MicOpt= -1 -1 -1 -1
 NAtoms=      4 NQM=        4 NQMF=       0 NMMI=      0 NMMIF=      0
                NMic=       0 NMicF=      0.
                    Isotopes and Nuclear Properties:
 (Nuclear quadrupole moments (NQMom) in fm**2, nuclear magnetic moments (NMagM)
  in nuclear magnetons)

  Atom         1           2           3           4
 IAtWgt=          16          35          35           1
 AtmWgt=  15.9949146  34.9688527  34.9688527   1.0078250
 NucSpn=           0           3           3           1
 AtZEff=  -0.0000000  -0.0000000  -0.0000000  -0.0000000
 NQMom=    0.0000000  -8.1650000  -8.1650000   0.0000000
 NMagM=    0.0000000   0.8218740   0.8218740   2.7928460
 AtZNuc=   8.0000000  17.0000000  17.0000000   1.0000000
 Leave Link  101 at Mon Nov 15 07:35:46 2021, MaxMem= 16106127360 cpu:               3.4 elap:               0.2
 (Enter /sw/contrib/gaussian/g16/B01/g16/l202.exe)
                          Input orientation:                          
 ---------------------------------------------------------------------
 Center     Atomic      Atomic             Coordinates (Angstroms)
 Number     Number       Type             X           Y           Z
 ---------------------------------------------------------------------
      1          8           0        0.000000    0.000000    0.000000
      2         17           0        1.682749    0.000000    0.000000
      3         17           0       -0.679570   -2.824062    0.000000
      4          1           0       -0.116979   -0.486123    0.000000
 ---------------------------------------------------------------------
                    Distance matrix (angstroms):
                    1          2          3          4
     1  O    0.000000
     2  Cl   1.682749   0.000000
     3  Cl   2.904676   3.681831   0.000000
     4  H    0.500000   1.864226   2.404676   0.000000
 Symmetry turned off by external request.
 Stoichiometry    Cl2HO(1-)
 Framework group  CS[SG(Cl2HO)]
 Deg. of freedom     5
 Full point group                 CS      NOp   2
 Rotational constants (GHZ):          23.3753732           2.0599152           1.8930899
 Leave Link  202 at Mon Nov 15 07:35:46 2021, MaxMem= 16106127360 cpu:               1.8 elap:               0.1
 (Enter /sw/contrib/gaussian/g16/B01/g16/l301.exe)
 Standard basis: Aug-CC-pVTZ (5D, 7F)
 Ernie: Thresh=  0.10000D-02 Tol=  0.10000D-05 Strict=F.
 Ernie:  29 primitive shells out of 169 were deleted.
   169 basis functions,   327 primitive gaussians,   198 cartesian basis functions
    22 alpha electrons       22 beta electrons
       nuclear repulsion energy       126.1152868853 Hartrees.
 IExCor=    0 DFT=F Ex=HF Corr=None ExCW=0 ScaHFX=  1.000000
 ScaDFX=  1.000000  1.000000  1.000000  1.000000 ScalE2=  1.000000  1.000000
 IRadAn=      5 IRanWt=     -1 IRanGd=            0 ICorTp=0 IEmpDi=  4
 NAtoms=    4 NActive=    4 NUniq=    4 SFac= 1.00D+00 NAtFMM=   60 NAOKFM=F Big=F
 Integral buffers will be    131072 words long.
 Raffenetti 1 integral format.
 Two-electron integral symmetry is turned off.
 Leave Link  301 at Mon Nov 15 07:35:47 2021, MaxMem= 16106127360 cpu:               1.9 elap:               0.1
 (Enter /sw/contrib/gaussian/g16/B01/g16/l302.exe)
 NPDir=0 NMtPBC=     1 NCelOv=     1 NCel=       1 NClECP=     1 NCelD=      1
         NCelK=      1 NCelE2=     1 NClLst=     1 CellRange=     0.0.
 One-electron integrals computed using PRISM.
 NBasis=   169 RedAO= T EigKep=  1.11D-04  NBF=   169
 NBsUse=   169 1.00D-06 EigRej= -1.00D+00 NBFU=   169
 Leave Link  302 at Mon Nov 15 07:35:47 2021, MaxMem= 16106127360 cpu:               4.7 elap:               0.2
 (Enter /sw/contrib/gaussian/g16/B01/g16/l303.exe)
 DipDrv:  MaxL=1.
 Leave Link  303 at Mon Nov 15 07:35:47 2021, MaxMem= 16106127360 cpu:               2.8 elap:               0.2
 (Enter /sw/contrib/gaussian/g16/B01/g16/l401.exe)
 ExpMin= 2.53D-02 ExpMax= 4.56D+05 ExpMxC= 1.44D+03 IAcc=3 IRadAn=         5 AccDes= 0.00D+00
 Harris functional with IExCor=  205 and IRadAn=       5 diagonalized for initial guess.
 HarFok:  IExCor=  205 AccDes= 0.00D+00 IRadAn=         5 IDoV= 1 UseB2=F ITyADJ=14
 ICtDFT=  3500011 ScaDFX=  1.000000  1.000000  1.000000  1.000000
 FoFCou: FMM=F IPFlag=           0 FMFlag=      100000 FMFlg1=           0
         NFxFlg=           0 DoJE=T BraDBF=F KetDBF=T FulRan=T
         wScrn=  0.000000 ICntrl=       500 IOpCl=  0 I1Cent=   200000004 NGrid=           0
         NMat0=    1 NMatS0=      1 NMatT0=    0 NMatD0=    1 NMtDS0=    0 NMtDT0=    0
 Symmetry not used in FoFCou.
 Harris En= -993.178551022461    
 JPrj=0 DoOrth=F DoCkMO=F.
 Leave Link  401 at Mon Nov 15 07:35:48 2021, MaxMem= 16106127360 cpu:              10.2 elap:               0.5
 (Enter /sw/contrib/gaussian/g16/B01/g16/l502.exe)
 Keep R1 ints in memory in canonical form, NReq=117119657.
 FoFCou: FMM=F IPFlag=           0 FMFlag=           0 FMFlg1=           0
         NFxFlg=           0 DoJE=F BraDBF=F KetDBF=F FulRan=T
         wScrn=  0.000000 ICntrl=       600 IOpCl=  0 I1Cent=           0 NGrid=           0
         NMat0=    1 NMatS0=  14365 NMatT0=    0 NMatD0=    1 NMtDS0=    0 NMtDT0=    0
 Symmetry not used in FoFCou.
 Two-electron integral symmetry not used.
 Closed shell SCF:
 Using DIIS extrapolation, IDIIS=  1040.
 NGot= 16106127360 LenX= 16002858349 LenY= 16002818704
 Requested convergence on RMS density matrix=1.00D-08 within 128 cycles.
 Requested convergence on MAX density matrix=1.00D-06.
 Requested convergence on             energy=1.00D-06.
 No special actions if energy rises.

 Cycle   1  Pass 1  IDiag  1:
 E= -993.385194022133    
 DIIS: error= 5.39D-02 at cycle   1 NSaved=   1.
 NSaved= 1 IEnMin= 1 EnMin= -993.385194022133     IErMin= 1 ErrMin= 5.39D-02
 ErrMax= 5.39D-02  0.00D+00 EMaxC= 1.00D-01 BMatC= 8.08D-01 BMatP= 8.08D-01
 IDIUse=3 WtCom= 4.61D-01 WtEn= 5.39D-01
 Coeff-Com:  0.100D+01
 Coeff-En:   0.100D+01
 Coeff:      0.100D+01
 Gap=     0.639 Goal=   None    Shift=    0.000
 GapD=    0.639 DampG=2.000 DampE=0.500 DampFc=1.0000 IDamp=-1.
 RMSDP=3.47D-03 MaxDP=1.18D-01              OVMax= 2.58D-01

 Cycle   2  Pass 1  IDiag  1:
 E= -993.583927848565     Delta-E=       -0.198733826432 Rises=F Damp=F
 DIIS: error= 3.45D-02 at cycle   2 NSaved=   2.
 NSaved= 2 IEnMin= 2 EnMin= -993.583927848565     IErMin= 2 ErrMin= 3.45D-02
 ErrMax= 3.45D-02  0.00D+00 EMaxC= 1.00D-01 BMatC= 2.48D-01 BMatP= 8.08D-01
 IDIUse=3 WtCom= 6.55D-01 WtEn= 3.45D-01
 Coeff-Com:  0.328D+00 0.672D+00
 Coeff-En:   0.223D+00 0.777D+00
 Coeff:      0.292D+00 0.708D+00
 Gap=     0.335 Goal=   None    Shift=    0.000
 RMSDP=1.63D-03 MaxDP=5.59D-02 DE=-1.99D-01 OVMax= 1.54D-01

 Cycle   3  Pass 1  IDiag  1:
 E= -993.740063748148     Delta-E=       -0.156135899583 Rises=F Damp=F
 DIIS: error= 8.22D-03 at cycle   3 NSaved=   3.
 NSaved= 3 IEnMin= 3 EnMin= -993.740063748148     IErMin= 3 ErrMin= 8.22D-03
 ErrMax= 8.22D-03  0.00D+00 EMaxC= 1.00D-01 BMatC= 1.50D-02 BMatP= 2.48D-01
 IDIUse=3 WtCom= 9.18D-01 WtEn= 8.22D-02
 Coeff-Com: -0.253D-01 0.167D+00 0.858D+00
 Coeff-En:   0.000D+00 0.000D+00 0.100D+01
 Coeff:     -0.233D-01 0.154D+00 0.870D+00
 Gap=     0.326 Goal=   None    Shift=    0.000
 RMSDP=3.89D-04 MaxDP=1.77D-02 DE=-1.56D-01 OVMax= 4.30D-02

 Cycle   4  Pass 1  IDiag  1:
 E= -993.750877845930     Delta-E=       -0.010814097783 Rises=F Damp=F
 DIIS: error= 1.24D-03 at cycle   4 NSaved=   4.
 NSaved= 4 IEnMin= 4 EnMin= -993.750877845930     IErMin= 4 ErrMin= 1.24D-03
 ErrMax= 1.24D-03  0.00D+00 EMaxC= 1.00D-01 BMatC= 2.89D-04 BMatP= 1.50D-02
 IDIUse=3 WtCom= 9.88D-01 WtEn= 1.24D-02
 Coeff-Com: -0.352D-02-0.207D-01 0.227D-01 0.100D+01
 Coeff-En:   0.000D+00 0.000D+00 0.000D+00 0.100D+01
 Coeff:     -0.347D-02-0.205D-01 0.224D-01 0.100D+01
 Gap=     0.319 Goal=   None    Shift=    0.000
 RMSDP=7.90D-05 MaxDP=2.07D-03 DE=-1.08D-02 OVMax= 5.46D-03

 Cycle   5  Pass 1  IDiag  1:
 E= -993.751253498848     Delta-E=       -0.000375652917 Rises=F Damp=F
 DIIS: error= 5.11D-04 at cycle   5 NSaved=   5.
 NSaved= 5 IEnMin= 5 EnMin= -993.751253498848     IErMin= 5 ErrMin= 5.11D-04
 ErrMax= 5.11D-04  0.00D+00 EMaxC= 1.00D-01 BMatC= 3.47D-05 BMatP= 2.89D-04
 IDIUse=3 WtCom= 9.95D-01 WtEn= 5.11D-03
 Coeff-Com:  0.156D-02-0.207D-01-0.739D-01 0.577D-01 0.104D+01
 Coeff-En:   0.000D+00 0.000D+00 0.000D+00 0.000D+00 0.100D+01
 Coeff:      0.155D-02-0.206D-01-0.735D-01 0.574D-01 0.104D+01
 Gap=     0.322 Goal=   None    Shift=    0.000
 RMSDP=4.08D-05 MaxDP=1.45D-03 DE=-3.76D-04 OVMax= 3.94D-03

 Cycle   6  Pass 1  IDiag  1:
 E= -993.751334742695     Delta-E=       -0.000081243847 Rises=F Damp=F
 DIIS: error= 2.31D-04 at cycle   6 NSaved=   6.
 NSaved= 6 IEnMin= 6 EnMin= -993.751334742695     IErMin= 6 ErrMin= 2.31D-04
 ErrMax= 2.31D-04  0.00D+00 EMaxC= 1.00D-01 BMatC= 5.48D-06 BMatP= 3.47D-05
 IDIUse=3 WtCom= 9.98D-01 WtEn= 2.31D-03
 Coeff-Com:  0.424D-03 0.412D-02 0.123D-01-0.117D+00-0.274D+00 0.137D+01
 Coeff-En:   0.000D+00 0.000D+00 0.000D+00 0.000D+00 0.000D+00 0.100D+01
 Coeff:      0.423D-03 0.411D-02 0.123D-01-0.117D+00-0.273D+00 0.137D+01
 Gap=     0.322 Goal=   None    Shift=    0.000
 RMSDP=2.36D-05 MaxDP=8.09D-04 DE=-8.12D-05 OVMax= 2.38D-03

 Cycle   7  Pass 1  IDiag  1:
 E= -993.751353214795     Delta-E=       -0.000018472100 Rises=F Damp=F
 DIIS: error= 7.08D-05 at cycle   7 NSaved=   7.
 NSaved= 7 IEnMin= 7 EnMin= -993.751353214795     IErMin= 7 ErrMin= 7.08D-05
 ErrMax= 7.08D-05  0.00D+00 EMaxC= 1.00D-01 BMatC= 4.01D-07 BMatP= 5.48D-06
 IDIUse=1 WtCom= 1.00D+00 WtEn= 0.00D+00
 Coeff-Com: -0.222D-03 0.723D-03 0.432D-02 0.247D-01-0.518D-01-0.306D+00
 Coeff-Com:  0.133D+01
 Coeff:     -0.222D-03 0.723D-03 0.432D-02 0.247D-01-0.518D-01-0.306D+00
 Coeff:      0.133D+01
 Gap=     0.322 Goal=   None    Shift=    0.000
 RMSDP=8.41D-06 MaxDP=2.32D-04 DE=-1.85D-05 OVMax= 1.01D-03

 Cycle   8  Pass 1  IDiag  1:
 E= -993.751355020143     Delta-E=       -0.000001805348 Rises=F Damp=F
 DIIS: error= 1.46D-05 at cycle   8 NSaved=   8.
 NSaved= 8 IEnMin= 8 EnMin= -993.751355020143     IErMin= 8 ErrMin= 1.46D-05
 ErrMax= 1.46D-05  0.00D+00 EMaxC= 1.00D-01 BMatC= 3.57D-08 BMatP= 4.01D-07
 IDIUse=1 WtCom= 1.00D+00 WtEn= 0.00D+00
 Coeff-Com:  0.311D-05-0.572D-03-0.188D-02 0.981D-02 0.327D-01-0.105D+00
 Coeff-Com: -0.126D+00 0.119D+01
 Coeff:      0.311D-05-0.572D-03-0.188D-02 0.981D-02 0.327D-01-0.105D+00
 Coeff:     -0.126D+00 0.119D+01
 Gap=     0.322 Goal=   None    Shift=    0.000
 RMSDP=2.36D-06 MaxDP=7.49D-05 DE=-1.81D-06 OVMax= 3.18D-04

 Cycle   9  Pass 1  IDiag  1:
 E= -993.751355164816     Delta-E=       -0.000000144673 Rises=F Damp=F
 DIIS: error= 6.58D-06 at cycle   9 NSaved=   9.
 NSaved= 9 IEnMin= 9 EnMin= -993.751355164816     IErMin= 9 ErrMin= 6.58D-06
 ErrMax= 6.58D-06  0.00D+00 EMaxC= 1.00D-01 BMatC= 4.62D-09 BMatP= 3.57D-08
 IDIUse=1 WtCom= 1.00D+00 WtEn= 0.00D+00
 Coeff-Com:  0.179D-04 0.888D-04 0.233D-03-0.548D-02-0.772D-02 0.661D-01
 Coeff-Com: -0.802D-01-0.416D+00 0.144D+01
 Coeff:      0.179D-04 0.888D-04 0.233D-03-0.548D-02-0.772D-02 0.661D-01
 Coeff:     -0.802D-01-0.416D+00 0.144D+01
 Gap=     0.322 Goal=   None    Shift=    0.000
 RMSDP=1.00D-06 MaxDP=3.59D-05 DE=-1.45D-07 OVMax= 1.38D-04

 Cycle  10  Pass 1  IDiag  1:
 E= -993.751355187481     Delta-E=       -0.000000022665 Rises=F Damp=F
 DIIS: error= 2.21D-06 at cycle  10 NSaved=  10.
 NSaved=10 IEnMin=10 EnMin= -993.751355187481     IErMin=10 ErrMin= 2.21D-06
 ErrMax= 2.21D-06  0.00D+00 EMaxC= 1.00D-01 BMatC= 5.38D-10 BMatP= 4.62D-09
 IDIUse=1 WtCom= 1.00D+00 WtEn= 0.00D+00
 Coeff-Com:  0.288D-05 0.543D-04 0.101D-03-0.538D-03-0.274D-02 0.746D-02
 Coeff-Com:  0.213D-01-0.137D+00-0.758D-01 0.119D+01
 Coeff:      0.288D-05 0.543D-04 0.101D-03-0.538D-03-0.274D-02 0.746D-02
 Coeff:      0.213D-01-0.137D+00-0.758D-01 0.119D+01
 Gap=     0.322 Goal=   None    Shift=    0.000
 RMSDP=3.21D-07 MaxDP=1.23D-05 DE=-2.27D-08 OVMax= 4.50D-05

 Cycle  11  Pass 1  IDiag  1:
 E= -993.751355189733     Delta-E=       -0.000000002252 Rises=F Damp=F
 DIIS: error= 5.60D-07 at cycle  11 NSaved=  11.
 NSaved=11 IEnMin=11 EnMin= -993.751355189733     IErMin=11 ErrMin= 5.60D-07
 ErrMax= 5.60D-07  0.00D+00 EMaxC= 1.00D-01 BMatC= 3.83D-11 BMatP= 5.38D-10
 IDIUse=1 WtCom= 1.00D+00 WtEn= 0.00D+00
 Coeff-Com: -0.330D-05-0.354D-05-0.636D-05 0.583D-03 0.593D-03-0.685D-02
 Coeff-Com:  0.869D-02 0.436D-01-0.120D+00-0.135D+00 0.121D+01
 Coeff:     -0.330D-05-0.354D-05-0.636D-05 0.583D-03 0.593D-03-0.685D-02
 Coeff:      0.869D-02 0.436D-01-0.120D+00-0.135D+00 0.121D+01
 Gap=     0.322 Goal=   None    Shift=    0.000
 RMSDP=8.22D-08 MaxDP=3.12D-06 DE=-2.25D-09 OVMax= 1.04D-05

 Cycle  12  Pass 1  IDiag  1:
 E= -993.751355189872     Delta-E=       -0.000000000139 Rises=F Damp=F
 DIIS: error= 1.55D-07 at cycle  12 NSaved=  12.
 NSaved=12 IEnMin=12 EnMin= -993.751355189872     IErMin=12 ErrMin= 1.55D-07
 ErrMax= 1.55D-07  0.00D+00 EMaxC= 1.00D-01 BMatC= 1.49D-12 BMatP= 3.83D-11
 IDIUse=1 WtCom= 1.00D+00 WtEn= 0.00D+00
 Coeff-Com:  0.264D-06-0.273D-05-0.497D-05-0.440D-04 0.939D-04 0.329D-03
 Coeff-Com: -0.216D-02 0.297D-02 0.176D-01-0.511D-01-0.130D+00 0.116D+01
 Coeff:      0.264D-06-0.273D-05-0.497D-05-0.440D-04 0.939D-04 0.329D-03
 Coeff:     -0.216D-02 0.297D-02 0.176D-01-0.511D-01-0.130D+00 0.116D+01
 Gap=     0.322 Goal=   None    Shift=    0.000
 RMSDP=1.62D-08 MaxDP=5.19D-07 DE=-1.39D-10 OVMax= 1.63D-06

 Cycle  13  Pass 1  IDiag  1:
 E= -993.751355189875     Delta-E=       -0.000000000003 Rises=F Damp=F
 DIIS: error= 4.37D-08 at cycle  13 NSaved=  13.
 NSaved=13 IEnMin=13 EnMin= -993.751355189875     IErMin=13 ErrMin= 4.37D-08
 ErrMax= 4.37D-08  0.00D+00 EMaxC= 1.00D-01 BMatC= 1.29D-13 BMatP= 1.49D-12
 IDIUse=1 WtCom= 1.00D+00 WtEn= 0.00D+00
 Coeff-Com:  0.161D-06 0.473D-06 0.525D-06-0.308D-04-0.453D-04 0.378D-03
 Coeff-Com: -0.311D-03-0.290D-02 0.496D-02 0.159D-01-0.725D-01-0.129D+00
 Coeff-Com:  0.118D+01
 Coeff:      0.161D-06 0.473D-06 0.525D-06-0.308D-04-0.453D-04 0.378D-03
 Coeff:     -0.311D-03-0.290D-02 0.496D-02 0.159D-01-0.725D-01-0.129D+00
 Coeff:      0.118D+01
 Gap=     0.322 Goal=   None    Shift=    0.000
 RMSDP=4.70D-09 MaxDP=1.33D-07 DE=-3.41D-12 OVMax= 4.24D-07

 SCF Done:  E(RHF) =  -993.751355190     A.U. after   13 cycles
            NFock= 13  Conv=0.47D-08     -V/T= 1.9971
 KE= 9.966709261943D+02 PE=-2.629633302471D+03 EE= 5.130957342015D+02
 Leave Link  502 at Mon Nov 15 07:35:51 2021, MaxMem= 16106127360 cpu:              26.2 elap:               3.0
 (Enter /sw/contrib/gaussian/g16/B01/g16/l801.exe)
 ExpMin= 2.53D-02 ExpMax= 4.56D+05 ExpMxC= 1.44D+03 IAcc=3 IRadAn=         5 AccDes= 0.00D+00
 HarFok:  IExCor=  205 AccDes= 0.00D+00 IRadAn=         5 IDoV=-2 UseB2=F ITyADJ=14
 ICtDFT= 12500011 ScaDFX=  1.000000  1.000000  1.000000  1.000000
 Largest valence mixing into a core orbital is  4.50D-04
 Largest core mixing into a valence orbital is  1.75D-04
 Range of M.O.s used for correlation:    12   169
 NBasis=   169 NAE=    22 NBE=    22 NFC=    11 NFV=     0
 NROrb=    158 NOA=    11 NOB=    11 NVA=   147 NVB=   147

 **** Warning!!: The largest alpha MO coefficient is  0.26837232D+02

 Leave Link  801 at Mon Nov 15 07:35:52 2021, MaxMem= 16106127360 cpu:               4.8 elap:               0.3
 (Enter /sw/contrib/gaussian/g16/B01/g16/l906.exe)
 Frozen-core derivative calculation, NFC=  11 NFV=   0.
 FulOut=F Deriv=T AODrv=F NAtomX=     4
   MMem=         144  MDisk=          11 MDiskD=          11
  W3Min=      736164 MinDsk=     1250177 NBas6D=         198
 NBas2D=       20187    NTT=       19701    LW2=     3500000
    MDV= 16105751354 MDiskM=      406660 NBas2p=       19980
 Fully in-core method, ICMem=   420417501.
 IMap=   1   2   3   4   5   6   7   8   9  10  11  12  13  14  15  16  17  18  19  20
 IMap=  21  22
 JobTyp=1 Pass  1 fully in-core, NPsUse= 28.
 Compute canonical integrals.
 FoFCou: FMM=F IPFlag=           0 FMFlag=           0 FMFlg1=           0
         NFxFlg=           0 DoJE=F BraDBF=F KetDBF=F FulRan=T
         wScrn=  0.000000 ICntrl=       600 IOpCl=  1 I1Cent=           0 NGrid=           0
         NMat0=    1 NMatS0=  20187 NMatT0=    0 NMatD0=    1 NMtDS0=    0 NMtDT0=    0
 Symmetry not used in FoFCou.
 Spin components of T(2) and E(2):
     alpha-alpha T2 =       0.2665912348D-01 E2=     -0.8021879539D-01
     alpha-beta  T2 =       0.1485546986D+00 E2=     -0.4839403541D+00
     beta-beta   T2 =       0.2665912348D-01 E2=     -0.8021879539D-01
 The integrals were generated   1 times.
 ANorm=    0.1096299660D+01
 E2 =    -0.6443779449D+00 EUMP2 =    -0.99439573313475D+03
 Leave Link  906 at Mon Nov 15 07:35:56 2021, MaxMem= 16106127360 cpu:             120.6 elap:               4.4
 (Enter /sw/contrib/gaussian/g16/B01/g16/l1002.exe)
 Minotr:  Closed shell wavefunction.
          Computing MP2/KS-MP2 derivatives.
          Using Z-Vector for PSCF gradient.
          Skipping F1 and S1 gradient terms here.
          Frozen-core window.
          Direct CPHF calculation.
          Differentiating once with respect to electric field.
                with respect to dipole field.
          Electric field/nuclear overlap derivatives assumed to be zero.
          Requested convergence is 1.0D-10 RMS, and 1.0D-09 maximum.
          NewPWx=F KeepS1=T KeepF1=T KeepIn=T MapXYZ=F SortEE=F KeepMc=T.
 Keep R1 ints in memory in canonical form, NReq=117123769.
 FoFCou: FMM=F IPFlag=           0 FMFlag=           0 FMFlg1=           0
         NFxFlg=           0 DoJE=F BraDBF=F KetDBF=F FulRan=T
         wScrn=  0.000000 ICntrl=       600 IOpCl=  0 I1Cent=           0 NGrid=           0
         NMat0=    1 NMatS0=  14365 NMatT0=    0 NMatD0=    1 NMtDS0=    0 NMtDT0=    0
 Symmetry not used in FoFCou.
 Two-electron integral symmetry not used.
          MDV=   16106127360 using IRadAn=       5.
          Solving linear equations separately, MaxMat=       0.
          There are     1 degrees of freedom in the 1st order CPHF.  IDoFFX=0 NUNeed=     1.
 LinEq1:  Iter=  0 NonCon=     1 RMS=2.65D-03 Max=3.93D-02 NDo=     1
 AX will form     1 AO Fock derivatives at one time.
 LinEq1:  Iter=  1 NonCon=     1 RMS=3.40D-04 Max=5.88D-03 NDo=     1
 LinEq1:  Iter=  2 NonCon=     1 RMS=1.12D-04 Max=1.97D-03 NDo=     1
 LinEq1:  Iter=  3 NonCon=     1 RMS=2.69D-05 Max=5.56D-04 NDo=     1
 LinEq1:  Iter=  4 NonCon=     1 RMS=1.29D-05 Max=1.98D-04 NDo=     1
 LinEq1:  Iter=  5 NonCon=     1 RMS=4.12D-06 Max=9.59D-05 NDo=     1
 LinEq1:  Iter=  6 NonCon=     1 RMS=1.03D-06 Max=1.20D-05 NDo=     1
 LinEq1:  Iter=  7 NonCon=     1 RMS=2.41D-07 Max=5.35D-06 NDo=     1
 LinEq1:  Iter=  8 NonCon=     1 RMS=6.79D-08 Max=1.12D-06 NDo=     1
 LinEq1:  Iter=  9 NonCon=     1 RMS=2.16D-08 Max=3.80D-07 NDo=     1
 LinEq1:  Iter= 10 NonCon=     1 RMS=4.77D-09 Max=6.92D-08 NDo=     1
 LinEq1:  Iter= 11 NonCon=     1 RMS=1.15D-09 Max=9.75D-09 NDo=     1
 LinEq1:  Iter= 12 NonCon=     1 RMS=2.48D-10 Max=3.26D-09 NDo=     1
 LinEq1:  Iter= 13 NonCon=     0 RMS=5.42D-11 Max=7.73D-10 NDo=     1
 Linear equations converged to 1.000D-10 1.000D-09 after    13 iterations.
 End of Minotr F.D. properties file   721 does not exist.
 End of Minotr F.D. properties file   722 does not exist.
 End of Minotr F.D. properties file   788 does not exist.
 Leave Link 1002 at Mon Nov 15 07:36:00 2021, MaxMem= 16106127360 cpu:              26.9 elap:               3.4
 (Enter /sw/contrib/gaussian/g16/B01/g16/l601.exe)
 Copying SCF densities to generalized density rwf, IOpCl= 0 IROHF=0.

 **********************************************************************

            Population analysis using the MP2 Density.

 **********************************************************************

 Alpha  occ. eigenvalues -- -104.75821-104.52173 -20.44709 -10.47695 -10.24608
 Alpha  occ. eigenvalues --   -7.94415  -7.94126  -7.94113  -7.71216  -7.71216
 Alpha  occ. eigenvalues --   -7.71216  -1.46089  -0.97447  -0.75482  -0.66598
 Alpha  occ. eigenvalues --   -0.48069  -0.47151  -0.33993  -0.31064  -0.17505
 Alpha  occ. eigenvalues --   -0.16923  -0.16916
 Alpha virt. eigenvalues --    0.15293   0.17617   0.22696   0.22820   0.26368
 Alpha virt. eigenvalues --    0.26769   0.28065   0.28151   0.29715   0.30367
 Alpha virt. eigenvalues --    0.32325   0.34133   0.40579   0.42637   0.46411
 Alpha virt. eigenvalues --    0.52220   0.52920   0.53879   0.55759   0.57351
 Alpha virt. eigenvalues --    0.58709   0.60487   0.61472   0.64271   0.66684
 Alpha virt. eigenvalues --    0.67041   0.67262   0.72254   0.77130   0.79632
 Alpha virt. eigenvalues --    0.84878   0.86951   0.87183   0.92123   0.92858
 Alpha virt. eigenvalues --    0.93869   0.96192   1.00227   1.01421   1.04112
 Alpha virt. eigenvalues --    1.06806   1.09371   1.11461   1.12759   1.16346
 Alpha virt. eigenvalues --    1.17083   1.19315   1.19450   1.21504   1.21552
 Alpha virt. eigenvalues --    1.22481   1.27351   1.27785   1.29682   1.30733
 Alpha virt. eigenvalues --    1.37582   1.40426   1.43829   1.45024   1.45109
 Alpha virt. eigenvalues --    1.47313   1.50142   1.55501   1.59054   1.61602
 Alpha virt. eigenvalues --    1.64932   1.67790   1.68956   1.74493   1.75638
 Alpha virt. eigenvalues --    1.76001   1.82443   1.90484   1.93551   2.09685
 Alpha virt. eigenvalues --    2.14177   2.29009   2.37964   2.47463   2.50718
 Alpha virt. eigenvalues --    2.50944   2.55290   2.62073   2.65173   2.67781
 Alpha virt. eigenvalues --    2.68420   2.70782   2.71151   2.75149   2.80470
 Alpha virt. eigenvalues --    2.81951   2.82528   2.83926   2.84098   2.92165
 Alpha virt. eigenvalues --    2.95598   2.97977   2.99771   3.00752   3.04442
 Alpha virt. eigenvalues --    3.08682   3.17292   3.20533   3.21070   3.21718
 Alpha virt. eigenvalues --    3.29873   3.31973   3.35540   3.36112   3.40708
 Alpha virt. eigenvalues --    3.41313   3.48729   3.50508   3.51511   3.51636
 Alpha virt. eigenvalues --    3.54385   3.62843   3.64747   3.94400   4.25793
 Alpha virt. eigenvalues --    4.64732   4.64822   4.83973   4.98819   5.10317
 Alpha virt. eigenvalues --    5.26589   5.34519   5.72396   6.02819   6.11516
 Alpha virt. eigenvalues --    6.29860   6.60914   6.81356   6.88093   6.90949
 Alpha virt. eigenvalues --    7.13867   7.15727   7.18291   7.29066   7.32197
 Alpha virt. eigenvalues --    7.40353   7.98375  10.20154  10.23458  10.55132
 Alpha virt. eigenvalues --   12.99656  24.88978
          Condensed to atoms (all electrons):
               1          2          3          4
     1  O    8.269527  -0.061446  -0.045509   0.092542
     2  Cl  -0.061446  16.988746  -0.000918  -0.040022
     3  Cl  -0.045509  -0.000918  17.978225   0.034824
     4  H    0.092542  -0.040022   0.034824   0.804556
 Mulliken charges:
               1
     1  O   -0.255115
     2  Cl   0.113640
     3  Cl  -0.966623
     4  H    0.108099
 Sum of Mulliken charges =  -1.00000
 Mulliken charges with hydrogens summed into heavy atoms:
               1
     1  O   -0.147016
     2  Cl   0.113640
     3  Cl  -0.966623
 Electronic spatial extent (au):  <R**2>=            793.0618
 Charge=             -1.0000 electrons
 Dipole moment (field-independent basis, Debye):
    X=              2.7343    Y=             11.4664    Z=              0.0000  Tot=             11.7879
 Quadrupole moment (field-independent basis, Debye-Ang):
   XX=            -37.4436   YY=            -71.5873   ZZ=            -36.3165
   XY=             -8.8737   XZ=             -0.0000   YZ=             -0.0000
 Traceless Quadrupole moment (field-independent basis, Debye-Ang):
   XX=             11.0055   YY=            -23.1382   ZZ=             12.1326
   XY=             -8.8737   XZ=             -0.0000   YZ=             -0.0000
 Octapole moment (field-independent basis, Debye-Ang**2):
  XXX=            -24.2152  YYY=            245.9079  ZZZ=              0.0000  XYY=             13.7330
  XXY=             53.6063  XXZ=              0.0000  XZZ=            -10.7986  YZZ=             48.3622
  YYZ=              0.0000  XYZ=              0.0000
 Hexadecapole moment (field-independent basis, Debye-Ang**3):
 XXXX=           -294.8300 YYYY=          -1151.5998 ZZZZ=            -50.6743 XXXY=           -104.2862
 XXXZ=             -0.0000 YYYX=           -167.2277 YYYZ=              0.0000 ZZZX=             -0.0000
 ZZZY=             -0.0000 XXYY=           -215.5646 XXZZ=            -63.2080 YYZZ=           -153.7876
 XXYZ=             -0.0000 YYXZ=             -0.0000 ZZXY=            -33.2711
 N-N= 1.261152868853D+02 E-N=-2.629636781593D+03  KE= 9.972605121521D+02
 No NMR shielding tensors so no spin-rotation constants.
 Leave Link  601 at Mon Nov 15 07:36:01 2021, MaxMem= 16106127360 cpu:               4.4 elap:               0.3
 (Enter /sw/contrib/gaussian/g16/B01/g16/l607.exe)
 ******************************Gaussian NBO Version 3.1******************************
             N A T U R A L   A T O M I C   O R B I T A L   A N D
          N A T U R A L   B O N D   O R B I T A L   A N A L Y S I S
 ******************************Gaussian NBO Version 3.1******************************
       /RESON  / : Allow strongly delocalized NBO set

 Analyzing the MP2 density

 Job title: title                                                           

 Storage needed:     86521 in NPA,    114817 in NBO (********** available)
 GSVD:  LWork=        2119 too small for GESVD, short by       49748 words or       49748 for optimal perf.


 NATURAL POPULATIONS:  Natural atomic orbital occupancies 
                                                          
   NAO  Atom  No  lang   Type(AO)    Occupancy
 --------------------------------------------
     1    O    1  S      Cor( 1S)     1.99764
     2    O    1  S      Val( 2S)     1.48930
     3    O    1  S      Ryd( 3S)     0.01282
     4    O    1  S      Ryd( 4S)     0.00026
     5    O    1  S      Ryd( 5S)     0.00006
     6    O    1  px     Val( 2p)     1.22212
     7    O    1  px     Ryd( 3p)     0.00556
     8    O    1  px     Ryd( 4p)     0.00078
     9    O    1  px     Ryd( 5p)     0.00015
    10    O    1  py     Val( 2p)     1.55885
    11    O    1  py     Ryd( 3p)     0.01738
    12    O    1  py     Ryd( 4p)     0.00059
    13    O    1  py     Ryd( 5p)     0.00019
    14    O    1  pz     Val( 2p)     1.94983
    15    O    1  pz     Ryd( 3p)     0.01839
    16    O    1  pz     Ryd( 4p)     0.00060
    17    O    1  pz     Ryd( 5p)     0.00009
    18    O    1  dxy    Ryd( 3d)     0.00593
    19    O    1  dxy    Ryd( 4d)     0.00054
    20    O    1  dxy    Ryd( 5d)     0.00017
    21    O    1  dxz    Ryd( 3d)     0.00762
    22    O    1  dxz    Ryd( 4d)     0.00059
    23    O    1  dxz    Ryd( 5d)     0.00009
    24    O    1  dyz    Ryd( 3d)     0.00479
    25    O    1  dyz    Ryd( 4d)     0.00065
    26    O    1  dyz    Ryd( 5d)     0.00020
    27    O    1  dx2y2  Ryd( 3d)     0.00743
    28    O    1  dx2y2  Ryd( 4d)     0.00070
    29    O    1  dx2y2  Ryd( 5d)     0.00021
    30    O    1  dz2    Ryd( 3d)     0.00694
    31    O    1  dz2    Ryd( 4d)     0.00053
    32    O    1  dz2    Ryd( 5d)     0.00012
    33    O    1  f(0)   Ryd( 4f)     0.00041
    34    O    1  f(0)   Ryd( 5f)     0.00011
    35    O    1  f(C1)  Ryd( 4f)     0.00059
    36    O    1  f(C1)  Ryd( 5f)     0.00011
    37    O    1  f(S1)  Ryd( 4f)     0.00038
    38    O    1  f(S1)  Ryd( 5f)     0.00015
    39    O    1  f(C2)  Ryd( 4f)     0.00068
    40    O    1  f(C2)  Ryd( 5f)     0.00015
    41    O    1  f(S2)  Ryd( 4f)     0.00046
    42    O    1  f(S2)  Ryd( 5f)     0.00013
    43    O    1  f(C3)  Ryd( 4f)     0.00047
    44    O    1  f(C3)  Ryd( 5f)     0.00019
    45    O    1  f(S3)  Ryd( 4f)     0.00045
    46    O    1  f(S3)  Ryd( 5f)     0.00022

    47   Cl    2  S      Cor( 1S)     2.00000
    48   Cl    2  S      Cor( 2S)     1.99989
    49   Cl    2  S      Val( 3S)     1.89318
    50   Cl    2  S      Ryd( 4S)     0.00695
    51   Cl    2  S      Ryd( 5S)     0.00048
    52   Cl    2  S      Ryd( 6S)     0.00009
    53   Cl    2  px     Cor( 2p)     1.99998
    54   Cl    2  px     Val( 3p)     0.88643
    55   Cl    2  px     Ryd( 4p)     0.00622
    56   Cl    2  px     Ryd( 5p)     0.00058
    57   Cl    2  px     Ryd( 6p)     0.00007
    58   Cl    2  py     Cor( 2p)     2.00002
    59   Cl    2  py     Val( 3p)     1.95319
    60   Cl    2  py     Ryd( 4p)     0.00884
    61   Cl    2  py     Ryd( 5p)     0.00049
    62   Cl    2  py     Ryd( 6p)     0.00009
    63   Cl    2  pz     Cor( 2p)     2.00003
    64   Cl    2  pz     Val( 3p)     1.95515
    65   Cl    2  pz     Ryd( 4p)     0.00951
    66   Cl    2  pz     Ryd( 5p)     0.00065
    67   Cl    2  pz     Ryd( 6p)     0.00003
    68   Cl    2  dxy    Ryd( 3d)     0.01564
    69   Cl    2  dxy    Ryd( 4d)     0.00067
    70   Cl    2  dxy    Ryd( 5d)     0.00026
    71   Cl    2  dxz    Ryd( 3d)     0.02232
    72   Cl    2  dxz    Ryd( 4d)     0.00101
    73   Cl    2  dxz    Ryd( 5d)     0.00034
    74   Cl    2  dyz    Ryd( 3d)     0.01654
    75   Cl    2  dyz    Ryd( 4d)     0.00073
    76   Cl    2  dyz    Ryd( 5d)     0.00016
    77   Cl    2  dx2y2  Ryd( 3d)     0.02030
    78   Cl    2  dx2y2  Ryd( 4d)     0.00050
    79   Cl    2  dx2y2  Ryd( 5d)     0.00016
    80   Cl    2  dz2    Ryd( 3d)     0.01773
    81   Cl    2  dz2    Ryd( 4d)     0.00062
    82   Cl    2  dz2    Ryd( 5d)     0.00014
    83   Cl    2  f(0)   Ryd( 4f)     0.00132
    84   Cl    2  f(0)   Ryd( 5f)     0.00012
    85   Cl    2  f(C1)  Ryd( 4f)     0.00141
    86   Cl    2  f(C1)  Ryd( 5f)     0.00012
    87   Cl    2  f(S1)  Ryd( 4f)     0.00125
    88   Cl    2  f(S1)  Ryd( 5f)     0.00012
    89   Cl    2  f(C2)  Ryd( 4f)     0.00137
    90   Cl    2  f(C2)  Ryd( 5f)     0.00013
    91   Cl    2  f(S2)  Ryd( 4f)     0.00117
    92   Cl    2  f(S2)  Ryd( 5f)     0.00012
    93   Cl    2  f(C3)  Ryd( 4f)     0.00153
    94   Cl    2  f(C3)  Ryd( 5f)     0.00013
    95   Cl    2  f(S3)  Ryd( 4f)     0.00123
    96   Cl    2  f(S3)  Ryd( 5f)     0.00013

    97   Cl    3  S      Cor( 1S)     2.00001
    98   Cl    3  S      Cor( 2S)     2.00000
    99   Cl    3  S      Val( 3S)     1.98075
   100   Cl    3  S      Ryd( 4S)     0.00718
   101   Cl    3  S      Ryd( 5S)     0.00041
   102   Cl    3  S      Ryd( 6S)     0.00008
   103   Cl    3  px     Cor( 2p)     2.00003
   104   Cl    3  px     Val( 3p)     1.95193
   105   Cl    3  px     Ryd( 4p)     0.01352
   106   Cl    3  px     Ryd( 5p)     0.00057
   107   Cl    3  px     Ryd( 6p)     0.00005
   108   Cl    3  py     Cor( 2p)     2.00002
   109   Cl    3  py     Val( 3p)     1.94540
   110   Cl    3  py     Ryd( 4p)     0.01184
   111   Cl    3  py     Ryd( 5p)     0.00053
   112   Cl    3  py     Ryd( 6p)     0.00001
   113   Cl    3  pz     Cor( 2p)     2.00003
   114   Cl    3  pz     Val( 3p)     1.95247
   115   Cl    3  pz     Ryd( 4p)     0.01379
   116   Cl    3  pz     Ryd( 5p)     0.00059
   117   Cl    3  pz     Ryd( 6p)     0.00004
   118   Cl    3  dxy    Ryd( 3d)     0.01863
   119   Cl    3  dxy    Ryd( 4d)     0.00088
   120   Cl    3  dxy    Ryd( 5d)     0.00012
   121   Cl    3  dxz    Ryd( 3d)     0.01838
   122   Cl    3  dxz    Ryd( 4d)     0.00102
   123   Cl    3  dxz    Ryd( 5d)     0.00012
   124   Cl    3  dyz    Ryd( 3d)     0.01861
   125   Cl    3  dyz    Ryd( 4d)     0.00092
   126   Cl    3  dyz    Ryd( 5d)     0.00011
   127   Cl    3  dx2y2  Ryd( 3d)     0.01849
   128   Cl    3  dx2y2  Ryd( 4d)     0.00079
   129   Cl    3  dx2y2  Ryd( 5d)     0.00013
   130   Cl    3  dz2    Ryd( 3d)     0.01839
   131   Cl    3  dz2    Ryd( 4d)     0.00093
   132   Cl    3  dz2    Ryd( 5d)     0.00012
   133   Cl    3  f(0)   Ryd( 4f)     0.00130
   134   Cl    3  f(0)   Ryd( 5f)     0.00015
   135   Cl    3  f(C1)  Ryd( 4f)     0.00130
   136   Cl    3  f(C1)  Ryd( 5f)     0.00015
   137   Cl    3  f(S1)  Ryd( 4f)     0.00129
   138   Cl    3  f(S1)  Ryd( 5f)     0.00016
   139   Cl    3  f(C2)  Ryd( 4f)     0.00130
   140   Cl    3  f(C2)  Ryd( 5f)     0.00016
   141   Cl    3  f(S2)  Ryd( 4f)     0.00131
   142   Cl    3  f(S2)  Ryd( 5f)     0.00015
   143   Cl    3  f(C3)  Ryd( 4f)     0.00129
   144   Cl    3  f(C3)  Ryd( 5f)     0.00017
   145   Cl    3  f(S3)  Ryd( 4f)     0.00129
   146   Cl    3  f(S3)  Ryd( 5f)     0.00016

   147    H    4  S      Val( 1S)     0.83061
   148    H    4  S      Ryd( 2S)     0.01372
   149    H    4  S      Ryd( 3S)     0.00282
   150    H    4  S      Ryd( 4S)     0.00013
   151    H    4  px     Ryd( 2p)     0.00502
   152    H    4  px     Ryd( 3p)     0.00022
   153    H    4  px     Ryd( 4p)     0.00013
   154    H    4  py     Ryd( 2p)     0.00512
   155    H    4  py     Ryd( 3p)     0.00050
   156    H    4  py     Ryd( 4p)     0.00018
   157    H    4  pz     Ryd( 2p)     0.00690
   158    H    4  pz     Ryd( 3p)     0.00039
   159    H    4  pz     Ryd( 4p)     0.00021
   160    H    4  dxy    Ryd( 3d)     0.00028
   161    H    4  dxy    Ryd( 4d)     0.00013
   162    H    4  dxz    Ryd( 3d)     0.00017
   163    H    4  dxz    Ryd( 4d)     0.00014
   164    H    4  dyz    Ryd( 3d)     0.00052
   165    H    4  dyz    Ryd( 4d)     0.00014
   166    H    4  dx2y2  Ryd( 3d)     0.00026
   167    H    4  dx2y2  Ryd( 4d)     0.00016
   168    H    4  dz2    Ryd( 4d)     0.00018
   169    H    4  dz2    Ryd( 3d)     0.00020

 WARNING:  1 low occupancy (<1.9990e) core orbital  found on  O    1


 Summary of Natural Population Analysis:                  
                                                          
                                       Natural Population 
                Natural  -----------------------------------------------
    Atom  No    Charge         Core      Valence    Rydberg      Total
 -----------------------------------------------------------------------
      O    1   -0.31563      1.99764     6.22010    0.09789     8.31563
     Cl    2    0.17083      9.99993     6.68795    0.14129    16.82917
     Cl    3   -0.98704     10.00009     7.83055    0.15640    17.98704
      H    4    0.13184      0.00000     0.83061    0.03754     0.86816
 =======================================================================
   * Total *   -1.00000     21.99766    21.56921    0.43313    44.00000

                                 Natural Population      
 --------------------------------------------------------
   Core                      21.99766 ( 99.9894% of  22)
   Valence                   21.56921 ( 98.0419% of  22)
   Natural Minimal Basis     43.56687 ( 99.0156% of  44)
   Natural Rydberg Basis      0.43313 (  0.9844% of  44)
 --------------------------------------------------------

    Atom  No          Natural Electron Configuration
 ----------------------------------------------------------------------------
      O    1      [core]2S( 1.49)2p( 4.73)3S( 0.01)3p( 0.04)3d( 0.03)
     Cl    2      [core]3S( 1.89)3p( 4.79)4S( 0.01)3d( 0.09)4p( 0.02)4f( 0.01)
     Cl    3      [core]3S( 1.98)3p( 5.85)4S( 0.01)3d( 0.09)4p( 0.04)4f( 0.01)
      H    4            1S( 0.83)2S( 0.01)2p( 0.02)


 NATURAL BOND ORBITAL ANALYSIS:
 Warning:  a bond orbital has occupanc of -0.00001

                       Occupancies       Lewis Structure    Low   High
           Occ.    -------------------  -----------------   occ   occ
  Cycle   Thresh.   Lewis   Non-Lewis     CR  BD  3C  LP    (L)   (NL)   Dev
 =============================================================================
   1(1)    1.90    43.56043   0.43957     11   2   0   9     0      0    0.01
 -----------------------------------------------------------------------------

 Structure accepted: No low occupancy Lewis orbitals

 WARNING:  1 low occupancy (<1.9990e) core orbital  found on  O    1

 --------------------------------------------------------
   Core                     21.99765 ( 99.989% of  22)
   Valence Lewis            21.56278 ( 98.013% of  22)
  ==================       ============================
   Total Lewis              43.56043 ( 99.001% of  44)
  -----------------------------------------------------
   Valence non-Lewis         0.06272 (  0.143% of  44)
   Rydberg non-Lewis         0.37685 (  0.856% of  44)
  ==================       ============================
   Total non-Lewis           0.43957 (  0.999% of  44)
 --------------------------------------------------------


       (Occupancy)   Bond orbital/ Coefficients/ Hybrids
 ---------------------------------------------------------------------------------
     1. (1.94326) BD ( 1) O   1 -Cl   2  
                ( 59.39%)   0.7707* O   1 s( 11.23%)p 7.87( 88.35%)d 0.03(  0.39%)
                                                  f 0.00(  0.03%)
                                            0.0003  0.3330 -0.0370 -0.0049 -0.0012
                                            0.9377 -0.0133 -0.0187 -0.0068  0.0552
                                           -0.0244 -0.0015 -0.0028  0.0000  0.0000
                                            0.0000  0.0000 -0.0238  0.0036  0.0018
                                            0.0000  0.0000  0.0000  0.0000  0.0000
                                            0.0000  0.0446  0.0111  0.0021 -0.0339
                                           -0.0062 -0.0000  0.0000  0.0000 -0.0104
                                            0.0004 -0.0007 -0.0000  0.0000  0.0000
                                            0.0000  0.0000  0.0114 -0.0037 -0.0045
                                            0.0037
                ( 40.61%)   0.6372*Cl   2 s(  7.51%)p12.11( 90.87%)d 0.20(  1.51%)
                                                  f 0.02(  0.12%)
                                           -0.0000  0.0004  0.2695 -0.0484 -0.0103
                                           -0.0011 -0.0003 -0.9508  0.0656  0.0166
                                           -0.0050 -0.0000  0.0011 -0.0019  0.0019
                                           -0.0002  0.0000  0.0000  0.0000  0.0000
                                            0.0000  0.0118 -0.0001  0.0006  0.0000
                                            0.0000  0.0000  0.0000  0.0000  0.0000
                                            0.1044 -0.0106 -0.0001 -0.0625  0.0063
                                            0.0009  0.0000  0.0000  0.0214 -0.0028
                                            0.0000  0.0005  0.0000  0.0000  0.0000
                                            0.0000 -0.0266  0.0035 -0.0004 -0.0011
     2. (1.98366) BD ( 1) O   1 - H   4  
                ( 58.18%)   0.7627* O   1 s( 47.40%)p 1.10( 52.33%)d 0.01(  0.25%)
                                                  f 0.00(  0.01%)
                                            0.0005  0.6873 -0.0405 -0.0003 -0.0023
                                           -0.2018  0.0285 -0.0042  0.0032 -0.6893
                                            0.0801 -0.0144  0.0025  0.0000  0.0000
                                            0.0000  0.0000  0.0040 -0.0096  0.0057
                                            0.0000  0.0000  0.0000  0.0000  0.0000
                                            0.0000 -0.0369  0.0142 -0.0070 -0.0250
                                            0.0096 -0.0038  0.0000  0.0000  0.0007
                                            0.0015  0.0052  0.0061  0.0000  0.0000
                                            0.0000  0.0000  0.0015  0.0061 -0.0008
                                            0.0061
                ( 41.82%)   0.6467* H   4 s( 99.57%)p 0.00(  0.42%)d 0.00(  0.01%)
                                            0.9979 -0.0013 -0.0008  0.0000  0.0269
                                           -0.0036  0.0005  0.0552 -0.0190  0.0017
                                            0.0000  0.0000  0.0000 -0.0001  0.0045
                                            0.0000  0.0000  0.0000  0.0000  0.0013
                                           -0.0073  0.0011 -0.0079
     3. (1.99764) CR ( 1) O   1           s(100.00%)p 0.00(  0.00%)
                                            1.0000 -0.0007  0.0000  0.0000  0.0000
                                           -0.0001 -0.0000  0.0000  0.0000  0.0001
                                           -0.0000  0.0000 -0.0000  0.0000  0.0000
                                            0.0000  0.0000  0.0000  0.0000 -0.0000
                                            0.0000  0.0000  0.0000  0.0000  0.0000
                                            0.0000  0.0000 -0.0000  0.0000  0.0000
                                           -0.0000  0.0000  0.0000  0.0000  0.0000
                                           -0.0000 -0.0000 -0.0000  0.0000  0.0000
                                            0.0000  0.0000 -0.0000 -0.0000  0.0000
                                           -0.0000
     4. (2.00000) CR ( 1)Cl   2           s(100.00%)
                                            1.0000  0.0000  0.0000 -0.0000 -0.0000
                                           -0.0000 -0.0000 -0.0000  0.0000  0.0000
                                           -0.0000 -0.0000  0.0000 -0.0000  0.0000
                                           -0.0000  0.0000  0.0000  0.0000  0.0000
                                            0.0000  0.0000  0.0000  0.0000  0.0000
                                            0.0000  0.0000  0.0000  0.0000  0.0000
                                            0.0000 -0.0000 -0.0000 -0.0000  0.0000
                                            0.0000  0.0000  0.0000  0.0000 -0.0000
                                            0.0000  0.0000  0.0000  0.0000  0.0000
                                            0.0000 -0.0000  0.0000 -0.0000 -0.0000
     5. (1.99989) CR ( 2)Cl   2           s(100.00%)p 0.00(  0.00%)
                                            0.0000  1.0000 -0.0003  0.0000  0.0000
                                            0.0000  0.0000  0.0003 -0.0000 -0.0000
                                            0.0000  0.0000 -0.0000  0.0000 -0.0000
                                            0.0000  0.0000  0.0000  0.0000  0.0000
                                            0.0000 -0.0000  0.0000 -0.0000  0.0000
                                            0.0000  0.0000  0.0000  0.0000  0.0000
                                           -0.0000  0.0000  0.0000  0.0000 -0.0000
                                           -0.0000  0.0000  0.0000 -0.0000  0.0000
                                           -0.0000 -0.0000  0.0000  0.0000  0.0000
                                            0.0000  0.0000 -0.0000  0.0000  0.0000
     6. (1.99998) CR ( 3)Cl   2           s(  0.00%)p 1.00(100.00%)
                                           -0.0000  0.0000  0.0001 -0.0000 -0.0000
                                           -0.0000  1.0000 -0.0003  0.0000  0.0000
                                           -0.0000 -0.0000 -0.0000 -0.0000  0.0000
                                           -0.0000  0.0000  0.0000  0.0000  0.0000
                                            0.0000  0.0000 -0.0000  0.0000  0.0000
                                            0.0000  0.0000  0.0000  0.0000  0.0000
                                            0.0000 -0.0000 -0.0000 -0.0000  0.0000
                                            0.0000  0.0000  0.0000  0.0000 -0.0000
                                            0.0000  0.0000  0.0000  0.0000  0.0000
                                            0.0000 -0.0000  0.0000 -0.0000 -0.0000
     7. (2.00002) CR ( 4)Cl   2           s(  0.00%)p 1.00(100.00%)
                                           -0.0000  0.0000 -0.0000  0.0000  0.0000
                                           -0.0000 -0.0000 -0.0000  0.0000 -0.0000
                                            0.0000  1.0000  0.0002  0.0000  0.0000
                                            0.0000  0.0000  0.0000  0.0000  0.0000
                                            0.0000 -0.0000  0.0000  0.0000  0.0000
                                            0.0000  0.0000  0.0000  0.0000  0.0000
                                           -0.0000 -0.0000 -0.0000 -0.0000 -0.0000
                                           -0.0000  0.0000  0.0000  0.0000 -0.0000
                                           -0.0000 -0.0000  0.0000  0.0000  0.0000
                                            0.0000 -0.0000  0.0000  0.0000 -0.0000
     8. (2.00003) CR ( 5)Cl   2           s(  0.00%)p 1.00(100.00%)
                                            0.0000  0.0000  0.0000  0.0000  0.0000
                                            0.0000  0.0000  0.0000  0.0000  0.0000
                                            0.0000  0.0000  0.0000  0.0000  0.0000
                                            0.0000  1.0000  0.0002  0.0000  0.0000
                                           -0.0000  0.0000  0.0000  0.0000  0.0000
                                            0.0000  0.0000  0.0000  0.0000  0.0000
                                            0.0000  0.0000  0.0000  0.0000  0.0000
                                            0.0000 -0.0000  0.0000  0.0000  0.0000
                                            0.0000  0.0000  0.0000 -0.0000  0.0000
                                           -0.0000  0.0000  0.0000  0.0000  0.0000
     9. (2.00001) CR ( 1)Cl   3           s(100.00%)
                                            1.0000 -0.0000  0.0000 -0.0000 -0.0000
                                           -0.0000 -0.0000 -0.0000  0.0000  0.0000
                                           -0.0000 -0.0000 -0.0000 -0.0000  0.0000
                                           -0.0000  0.0000  0.0000  0.0000  0.0000
                                            0.0000 -0.0000 -0.0000 -0.0000  0.0000
                                            0.0000  0.0000  0.0000  0.0000  0.0000
                                            0.0000  0.0000 -0.0000  0.0000  0.0000
                                            0.0000  0.0000  0.0000  0.0000  0.0000
                                            0.0000  0.0000  0.0000  0.0000  0.0000
                                            0.0000  0.0000  0.0000  0.0000  0.0000
    10. (2.00000) CR ( 2)Cl   3           s(100.00%)
                                           -0.0000  1.0000  0.0000 -0.0000 -0.0000
                                           -0.0000 -0.0000 -0.0000  0.0000  0.0000
                                           -0.0000 -0.0000 -0.0000 -0.0000  0.0000
                                           -0.0000  0.0000  0.0000  0.0000  0.0000
                                            0.0000 -0.0000 -0.0000 -0.0000  0.0000
                                            0.0000  0.0000  0.0000  0.0000  0.0000
                                            0.0000  0.0000  0.0000  0.0000  0.0000
                                            0.0000  0.0000  0.0000  0.0000  0.0000
                                            0.0000  0.0000  0.0000  0.0000  0.0000
                                            0.0000  0.0000  0.0000  0.0000  0.0000
    11. (2.00003) CR ( 3)Cl   3           s(  0.00%)p 1.00(100.00%)
                                           -0.0000 -0.0000 -0.0000 -0.0000 -0.0000
                                            0.0000  1.0000  0.0000  0.0000  0.0000
                                           -0.0000 -0.0000 -0.0000  0.0000  0.0000
                                            0.0000  0.0000  0.0000  0.0000  0.0000
                                            0.0000  0.0000  0.0000  0.0000  0.0000
                                            0.0000  0.0000  0.0000  0.0000  0.0000
                                            0.0000  0.0000  0.0000  0.0000  0.0000
                                            0.0000  0.0000  0.0000 -0.0000 -0.0000
                                            0.0000  0.0000  0.0000  0.0000  0.0000
                                            0.0000 -0.0000 -0.0000  0.0000  0.0000
    12. (2.00002) CR ( 4)Cl   3           s(  0.00%)p 1.00(100.00%)
                                           -0.0000 -0.0000 -0.0000 -0.0000 -0.0000
                                           -0.0000 -0.0000 -0.0000  0.0000  0.0000
                                           -0.0000  1.0000 -0.0000 -0.0000  0.0000
                                           -0.0000  0.0000  0.0000  0.0000  0.0000
                                            0.0000 -0.0000 -0.0000 -0.0000  0.0000
                                            0.0000  0.0000  0.0000  0.0000  0.0000
                                            0.0000  0.0000 -0.0000  0.0000  0.0000
                                            0.0000  0.0000  0.0000  0.0000  0.0000
                                            0.0000  0.0000  0.0000  0.0000  0.0000
                                            0.0000  0.0000  0.0000  0.0000  0.0000
    13. (2.00003) CR ( 5)Cl   3           s(  0.00%)p 1.00(100.00%)
                                            0.0000  0.0000  0.0000  0.0000  0.0000
                                            0.0000  0.0000  0.0000  0.0000  0.0000
                                            0.0000  0.0000  0.0000  0.0000  0.0000
                                            0.0000  1.0000  0.0000 -0.0000  0.0000
                                           -0.0000  0.0000  0.0000  0.0000  0.0000
                                            0.0000  0.0000  0.0000  0.0000  0.0000
                                            0.0000  0.0000  0.0000  0.0000  0.0000
                                            0.0000 -0.0000 -0.0000  0.0000  0.0000
                                            0.0000  0.0000 -0.0000 -0.0000  0.0000
                                            0.0000  0.0000  0.0000  0.0000  0.0000
    14. (1.96234) LP ( 1) O   1           s( 41.41%)p 1.41( 58.50%)d 0.00(  0.09%)
                                                  f 0.00(  0.01%)
                                            0.0003  0.6425  0.0359  0.0017  0.0018
                                           -0.2684 -0.0126  0.0013 -0.0002  0.7160
                                            0.0093  0.0030  0.0003  0.0000  0.0000
                                            0.0000  0.0000  0.0194  0.0033 -0.0038
                                            0.0000  0.0000  0.0000  0.0000  0.0000
                                            0.0000  0.0148 -0.0048 -0.0015  0.0154
                                           -0.0024  0.0001  0.0000  0.0000 -0.0000
                                            0.0006 -0.0022 -0.0015  0.0000  0.0000
                                            0.0000  0.0000  0.0012 -0.0019  0.0067
                                           -0.0043
    15. (1.95540) LP ( 2) O   1           s(  0.00%)p 1.00( 99.85%)d 0.00(  0.13%)
                                                  f 0.00(  0.02%)
                                            0.0000  0.0000  0.0000  0.0000  0.0000
                                            0.0000  0.0000  0.0000  0.0000  0.0000
                                            0.0000  0.0000  0.0000  0.9986  0.0361
                                            0.0027  0.0051  0.0000  0.0000  0.0000
                                            0.0270  0.0090 -0.0015 -0.0200  0.0089
                                            0.0064  0.0000  0.0000  0.0000  0.0000
                                            0.0000  0.0000 -0.0030 -0.0016  0.0000
                                            0.0000  0.0000  0.0000  0.0122 -0.0043
                                           -0.0032  0.0021  0.0000  0.0000  0.0000
                                            0.0000
    16. (1.97539) LP ( 1)Cl   2           s( 92.59%)p 0.08(  7.39%)d 0.00(  0.02%)
                                                  f 0.00(  0.00%)
                                            0.0000  0.0002  0.9622  0.0056  0.0013
                                            0.0000 -0.0000  0.2702 -0.0048 -0.0022
                                            0.0006 -0.0000  0.0297  0.0028  0.0006
                                           -0.0005  0.0000  0.0000  0.0000  0.0000
                                            0.0000  0.0003  0.0002 -0.0002  0.0000
                                            0.0000  0.0000  0.0000  0.0000  0.0000
                                           -0.0119  0.0006 -0.0007  0.0073  0.0003
                                            0.0006  0.0000  0.0000 -0.0015 -0.0008
                                           -0.0001  0.0000  0.0000  0.0000  0.0000
                                            0.0000  0.0025  0.0006 -0.0003  0.0003
    17. (1.95677) LP ( 2)Cl   2           s(  0.00%)p 1.00( 99.95%)d 0.00(  0.05%)
                                                  f 0.00(  0.01%)
                                            0.0000  0.0000  0.0000  0.0000  0.0000
                                            0.0000  0.0000  0.0000  0.0000  0.0000
                                            0.0000  0.0000  0.0000  0.0000  0.0000
                                            0.0000 -0.0002  0.9996  0.0156  0.0055
                                           -0.0025  0.0000  0.0000  0.0000  0.0071
                                            0.0164  0.0091  0.0053  0.0048  0.0019
                                            0.0000  0.0000  0.0000  0.0000  0.0000
                                            0.0000 -0.0057  0.0006  0.0000  0.0000
                                            0.0000  0.0000  0.0075 -0.0014  0.0008
                                           -0.0005  0.0000  0.0000  0.0000  0.0000
    18. (1.95473) LP ( 3)Cl   2           s(  0.09%)p99.99( 99.85%)d 0.44(  0.04%)
                                                  f 0.11(  0.01%)
                                            0.0000  0.0000  0.0287 -0.0092 -0.0051
                                            0.0034 -0.0000  0.0086  0.0014  0.0013
                                           -0.0002  0.0002 -0.9992 -0.0120 -0.0018
                                           -0.0003 -0.0000 -0.0000 -0.0000 -0.0000
                                           -0.0000  0.0034 -0.0127 -0.0078 -0.0000
                                           -0.0000 -0.0000 -0.0000 -0.0000 -0.0000
                                            0.0101  0.0063  0.0038  0.0024  0.0040
                                            0.0011 -0.0000 -0.0000 -0.0007  0.0002
                                            0.0021  0.0004 -0.0000 -0.0000 -0.0000
                                           -0.0000  0.0015  0.0001 -0.0096  0.0016
    19. (1.98083) LP ( 1)Cl   3           s( 99.88%)p 0.00(  0.12%)d 0.00(  0.00%)
                                                  f 0.00(  0.00%)
                                           -0.0000 -0.0000  0.9994 -0.0002 -0.0000
                                           -0.0000  0.0000 -0.0079  0.0004 -0.0002
                                            0.0002  0.0000 -0.0339  0.0011 -0.0007
                                            0.0004  0.0000  0.0000  0.0000  0.0000
                                            0.0000  0.0014  0.0004 -0.0000  0.0000
                                            0.0000  0.0000  0.0000  0.0000  0.0000
                                           -0.0022 -0.0005  0.0002 -0.0016 -0.0004
                                            0.0001  0.0000  0.0000 -0.0001 -0.0001
                                           -0.0005 -0.0003  0.0000  0.0000  0.0000
                                            0.0000 -0.0004 -0.0002 -0.0003 -0.0001
    20. (1.95258) LP ( 2)Cl   3           s(  0.00%)p 1.00( 99.99%)d 0.00(  0.01%)
                                                  f 0.00(  0.00%)
                                            0.0000  0.0000  0.0000  0.0000  0.0000
                                            0.0000  0.0000  0.0000  0.0000  0.0000
                                            0.0000  0.0000  0.0000  0.0000  0.0000
                                            0.0000 -0.0000  1.0000 -0.0002  0.0008
                                           -0.0006  0.0000  0.0000  0.0000  0.0020
                                            0.0011  0.0005  0.0061  0.0029  0.0009
                                            0.0000  0.0000  0.0000  0.0000  0.0000
                                            0.0000 -0.0013 -0.0010  0.0000  0.0000
                                            0.0000  0.0000 -0.0012 -0.0009  0.0008
                                            0.0007  0.0000  0.0000  0.0000  0.0000
    21. (1.95235) LP ( 3)Cl   3           s(  0.00%)p 1.00( 99.99%)d 0.00(  0.01%)
                                                  f 0.00(  0.00%)
                                            0.0000 -0.0000  0.0011  0.0003  0.0001
                                            0.0002 -0.0000  0.9808  0.0002  0.0006
                                           -0.0003  0.0000 -0.1950  0.0002 -0.0003
                                            0.0002  0.0000  0.0000  0.0000  0.0000
                                            0.0000  0.0066  0.0028  0.0009  0.0000
                                            0.0000  0.0000  0.0000  0.0000  0.0000
                                            0.0027  0.0013  0.0004 -0.0006 -0.0002
                                           -0.0000  0.0000  0.0000 -0.0006 -0.0005
                                            0.0000  0.0000  0.0000  0.0000  0.0000
                                            0.0000 -0.0014 -0.0011  0.0013  0.0010
    22. (1.94548) LP ( 4)Cl   3           s(  0.12%)p99.99( 99.86%)d 0.14(  0.02%)
                                                  f 0.01(  0.00%)
                                            0.0000  0.0000  0.0347  0.0053  0.0007
                                            0.0007  0.0000  0.1948 -0.0004 -0.0006
                                            0.0010  0.0000  0.9801  0.0001 -0.0014
                                            0.0007  0.0000  0.0000  0.0000  0.0000
                                            0.0000  0.0053  0.0016  0.0002  0.0000
                                            0.0000  0.0000  0.0000  0.0000  0.0000
                                           -0.0094 -0.0024  0.0000 -0.0066 -0.0020
                                           -0.0003  0.0000  0.0000 -0.0004 -0.0003
                                           -0.0017 -0.0011  0.0000  0.0000  0.0000
                                            0.0000 -0.0013 -0.0008 -0.0013 -0.0005
    23. (0.01621) RY*( 1) O   1           s(  0.00%)p 1.00( 97.60%)d 0.02(  2.14%)
                                                  f 0.00(  0.25%)
                                            0.0000  0.0000  0.0000  0.0000  0.0000
                                            0.0000  0.0000  0.0000  0.0000  0.0000
                                            0.0000  0.0000  0.0000 -0.0377  0.9857
                                            0.0541 -0.0115  0.0000  0.0000  0.0000
                                            0.1094  0.0297  0.0061  0.0915 -0.0012
                                            0.0138  0.0000  0.0000  0.0000  0.0000
                                            0.0000  0.0000  0.0145  0.0094  0.0000
                                            0.0000  0.0000  0.0000  0.0432 -0.0128
                                           -0.0138 -0.0016  0.0000  0.0000  0.0000
                                            0.0000
    24. (0.01393) RY*( 2) O   1           s( 37.52%)p 1.66( 62.15%)d 0.01(  0.20%)
                                                  f 0.00(  0.13%)
                                            0.0000 -0.0267  0.6114 -0.0116 -0.0232
                                            0.0504 -0.2860 -0.0153 -0.0005 -0.0027
                                            0.7312  0.0080 -0.0474  0.0000  0.0000
                                            0.0000  0.0000  0.0216  0.0185  0.0006
                                            0.0000  0.0000  0.0000  0.0000  0.0000
                                            0.0000 -0.0303  0.0113 -0.0039  0.0095
                                            0.0054 -0.0064  0.0000  0.0000 -0.0061
                                            0.0027  0.0099  0.0059  0.0000  0.0000
                                            0.0000  0.0000  0.0095 -0.0017  0.0322
                                           -0.0060
    25. (0.00626) RY*( 3) O   1           s(  0.00%)p 1.00(  1.13%)d85.82( 97.25%)
                                                  f 1.42(  1.61%)
                                            0.0000  0.0000  0.0000  0.0000  0.0000
                                            0.0000  0.0000  0.0000  0.0000  0.0000
                                            0.0000  0.0000  0.0000 -0.0281 -0.0954
                                           -0.0358  0.0127  0.0000  0.0000  0.0000
                                            0.9695  0.0517  0.0006 -0.1728 -0.0057
                                            0.0001  0.0000  0.0000  0.0000  0.0000
                                            0.0000  0.0000 -0.0834  0.0292  0.0000
                                            0.0000  0.0000  0.0000  0.0760 -0.0366
                                           -0.0336  0.0085  0.0000  0.0000  0.0000
                                            0.0000
    26. (0.00594) RY*( 4) O   1           s(  4.78%)p 5.61( 26.79%)d13.97( 66.75%)
                                                  f 0.35(  1.68%)
                                            0.0000  0.0230  0.2105 -0.0536  0.0083
                                           -0.0551 -0.4147 -0.0027  0.0250 -0.0349
                                           -0.2933  0.0710 -0.0020 -0.0000 -0.0000
                                           -0.0000 -0.0000 -0.7008 -0.0289 -0.0072
                                           -0.0000 -0.0000 -0.0000 -0.0000 -0.0000
                                           -0.0000  0.2914  0.0070  0.0273 -0.2980
                                           -0.0156  0.0287 -0.0000 -0.0000 -0.0668
                                            0.0157  0.0129 -0.0208 -0.0000 -0.0000
                                           -0.0000 -0.0000 -0.0227 -0.0248 -0.0974
                                            0.0299
    27. (0.00516) RY*( 5) O   1           s( 12.61%)p 0.86( 10.78%)d 5.97( 75.26%)
                                                  f 0.11(  1.35%)
                                           -0.0000  0.0415  0.3491 -0.0487 -0.0113
                                            0.0286 -0.0244  0.0088 -0.0226 -0.0512
                                           -0.3113  0.0794  0.0039  0.0000  0.0000
                                            0.0000  0.0000 -0.1548 -0.0154 -0.0190
                                            0.0000  0.0000  0.0000  0.0000  0.0000
                                            0.0000 -0.1466 -0.0250  0.0334  0.8395
                                           -0.0064  0.0079  0.0000  0.0000  0.0727
                                           -0.0333 -0.0368 -0.0036  0.0000  0.0000
                                            0.0000  0.0000 -0.0668  0.0054 -0.0342
                                            0.0077
    28. (0.00389) RY*( 6) O   1           s(  0.00%)p 1.00(  1.37%)d71.54( 98.02%)
                                                  f 0.45(  0.61%)
                                            0.0000  0.0000  0.0000  0.0000  0.0000
                                            0.0000  0.0000  0.0000  0.0000  0.0000
                                            0.0000  0.0000  0.0000  0.0199 -0.1054
                                           -0.0468 -0.0033  0.0000  0.0000  0.0000
                                            0.1618 -0.0020  0.0010  0.9719 -0.0885
                                           -0.0403  0.0000  0.0000  0.0000  0.0000
                                            0.0000  0.0000  0.0131 -0.0065  0.0000
                                            0.0000  0.0000  0.0000  0.0370 -0.0103
                                            0.0614 -0.0261  0.0000  0.0000  0.0000
                                            0.0000
    29. (0.00366) RY*( 7) O   1           s(  4.63%)p 2.20( 10.16%)d17.98( 83.18%)
                                                  f 0.44(  2.04%)
                                            0.0000  0.0151  0.2050 -0.0600  0.0202
                                           -0.0217 -0.1889 -0.0152  0.0263 -0.0648
                                           -0.2314  0.0706  0.0417  0.0000  0.0000
                                            0.0000  0.0000  0.5634 -0.0184 -0.0214
                                            0.0000  0.0000  0.0000  0.0000  0.0000
                                            0.0000  0.7144 -0.0175 -0.0062  0.0486
                                           -0.0193  0.0109  0.0000  0.0000 -0.0515
                                            0.0158 -0.0679  0.0090  0.0000  0.0000
                                            0.0000  0.0000  0.0891 -0.0513  0.0286
                                           -0.0372
    30. (0.00255) RY*( 8) O   1           s(  8.56%)p 8.15( 69.76%)d 2.44( 20.89%)
                                                  f 0.09(  0.79%)
                                            0.0000 -0.0044  0.2880 -0.0279 -0.0423
                                           -0.0000  0.8225  0.0167 -0.0339  0.0040
                                            0.0998  0.0477 -0.0865  0.0000  0.0000
                                            0.0000  0.0000 -0.2488 -0.0369  0.0017
                                            0.0000  0.0000  0.0000  0.0000  0.0000
                                            0.0000  0.3655  0.0202  0.0948 -0.0507
                                            0.0055 -0.0050  0.0000  0.0000  0.0031
                                            0.0187  0.0024  0.0132  0.0000  0.0000
                                            0.0000  0.0000  0.0403 -0.0165 -0.0741
                                            0.0026
    31. (0.00197) RY*( 9) O   1           s( 32.14%)p 0.71( 22.88%)d 1.39( 44.59%)
                                                  f 0.01(  0.39%)
                                           -0.0000  0.0209  0.5641 -0.0158 -0.0495
                                            0.0190  0.1209 -0.0105  0.0035 -0.0204
                                           -0.4460 -0.1118  0.0429  0.0000  0.0000
                                            0.0000  0.0000  0.2605  0.0044  0.0126
                                            0.0000  0.0000  0.0000  0.0000  0.0000
                                            0.0000 -0.4420  0.0230 -0.0326 -0.4170
                                            0.0693 -0.0463  0.0000  0.0000  0.0039
                                            0.0080 -0.0014 -0.0370  0.0000  0.0000
                                            0.0000  0.0000 -0.0251 -0.0240  0.0278
                                           -0.0223
    32. (0.00062) RY*(10) O   1           s(  0.00%)p 1.00( 44.75%)d 0.69( 30.99%)
                                                  f 0.54( 24.27%)
                                            0.0000  0.0000  0.0000  0.0000  0.0000
                                            0.0000  0.0000  0.0000  0.0000  0.0000
                                            0.0000  0.0000  0.0000 -0.0002 -0.0309
                                            0.6666 -0.0457  0.0000  0.0000  0.0000
                                            0.0902 -0.2272 -0.0083  0.0455  0.4855
                                            0.1109  0.0000  0.0000  0.0000  0.0000
                                            0.0000  0.0000  0.1400 -0.0130  0.0000
                                            0.0000  0.0000  0.0000 -0.2780 -0.0667
                                            0.3748 -0.0257  0.0000  0.0000  0.0000
                                            0.0000
    33. (0.00054) RY*(11) O   1           s(  3.03%)p 5.57( 16.88%)d14.25( 43.18%)
                                                  f12.18( 36.91%)
                                            0.0000 -0.0040  0.0022  0.1642 -0.0578
                                            0.0000 -0.0364  0.1318  0.0536  0.0037
                                           -0.0249 -0.3829  0.0080  0.0000  0.0000
                                            0.0000  0.0000 -0.0885  0.1465  0.0095
                                            0.0000  0.0000  0.0000  0.0000  0.0000
                                            0.0000  0.1317  0.3122 -0.0488  0.0425
                                            0.5320  0.0189  0.0000  0.0000  0.4740
                                           -0.0069 -0.0022  0.0550  0.0000  0.0000
                                            0.0000  0.0000  0.1550 -0.0417  0.3229
                                            0.1062
    34. (0.00053) RY*(12) O   1           s(  0.00%)p 1.00( 21.73%)d 2.34( 50.93%)
                                                  f 1.26( 27.33%)
                                            0.0000  0.0000  0.0000  0.0000  0.0000
                                            0.0000  0.0000  0.0000  0.0000  0.0000
                                            0.0000  0.0000  0.0000 -0.0092  0.0173
                                           -0.4652  0.0237  0.0000  0.0000  0.0000
                                           -0.0445  0.3174  0.0132  0.0157  0.6260
                                            0.1195  0.0000  0.0000  0.0000  0.0000
                                            0.0000  0.0000 -0.1880 -0.0535  0.0000
                                            0.0000  0.0000  0.0000  0.2320 -0.0036
                                            0.4252 -0.0219  0.0000  0.0000  0.0000
                                            0.0000
    35. (0.00049) RY*(13) O   1           s(  0.24%)p99.99( 34.02%)d99.99( 32.85%)
                                                  f99.99( 32.88%)
                                            0.0000 -0.0127  0.0076  0.0401  0.0249
                                           -0.0090 -0.0027 -0.5059  0.0683  0.0149
                                           -0.0016 -0.2607  0.1064 -0.0000 -0.0000
                                           -0.0000 -0.0000 -0.0098 -0.5005  0.0665
                                           -0.0000 -0.0000 -0.0000 -0.0000 -0.0000
                                           -0.0000 -0.0063  0.1936 -0.1417  0.0833
                                            0.0937 -0.0120 -0.0000 -0.0000 -0.1797
                                           -0.0125  0.3380  0.0815 -0.0000 -0.0000
                                           -0.0000 -0.0000  0.3569  0.0821 -0.2009
                                            0.0313
    36. (0.00045) RY*(14) O   1           s(  0.00%)p 1.00( 21.46%)d 0.31(  6.72%)
                                                  f 3.35( 71.82%)
                                            0.0000  0.0000  0.0000  0.0000  0.0000
                                            0.0000  0.0000  0.0000  0.0000  0.0000
                                            0.0000  0.0000  0.0000  0.0058  0.0320
                                           -0.4524  0.0939  0.0000  0.0000  0.0000
                                            0.0800 -0.2111  0.1072 -0.0489 -0.0484
                                            0.0077  0.0000  0.0000  0.0000  0.0000
                                            0.0000  0.0000  0.7426  0.1243  0.0000
                                            0.0000  0.0000  0.0000 -0.3042  0.0022
                                            0.2423  0.0036  0.0000  0.0000  0.0000
                                            0.0000
    37. (0.00043) RY*(15) O   1           s(  1.48%)p 0.93(  1.39%)d29.73( 44.10%)
                                                  f35.75( 53.03%)
                                           -0.0000  0.0032  0.0003  0.1216 -0.0066
                                            0.0101 -0.0429  0.0875  0.0068  0.0013
                                            0.0167  0.0599 -0.0186  0.0000  0.0000
                                            0.0000  0.0000  0.0385 -0.5916 -0.0282
                                            0.0000  0.0000  0.0000  0.0000  0.0000
                                            0.0000  0.0105 -0.1654  0.0740 -0.0789
                                           -0.2199 -0.0348  0.0000  0.0000  0.6892
                                            0.1105 -0.0483 -0.0379  0.0000  0.0000
                                            0.0000  0.0000 -0.1272 -0.0210 -0.1308
                                           -0.0744
    38. (0.00041) RY*(16) O   1           s(  0.11%)p99.99( 18.65%)d94.69( 10.37%)
                                                  f99.99( 70.87%)
                                            0.0000 -0.0037 -0.0009 -0.0161  0.0287
                                           -0.0116  0.0279 -0.4148  0.0395 -0.0022
                                           -0.0017  0.1075  0.0221 -0.0000 -0.0000
                                           -0.0000 -0.0000 -0.0810  0.0675 -0.0656
                                           -0.0000 -0.0000 -0.0000 -0.0000 -0.0000
                                           -0.0000 -0.0668  0.0885 -0.0681 -0.0245
                                           -0.2651  0.0207 -0.0000 -0.0000  0.1262
                                            0.0182 -0.6520 -0.1516 -0.0000 -0.0000
                                           -0.0000 -0.0000  0.4226  0.0428  0.2485
                                            0.0473
    39. (0.00041) RY*(17) O   1           s(  0.00%)p 1.00(  5.77%)d 5.33( 30.76%)
                                                  f11.00( 63.47%)
                                            0.0000  0.0000  0.0000  0.0000  0.0000
                                            0.0000  0.0000  0.0000  0.0000  0.0000
                                            0.0000  0.0000  0.0000 -0.0007 -0.0198
                                            0.2343 -0.0493  0.0000  0.0000  0.0000
                                           -0.0211  0.2467 -0.0697 -0.0874 -0.4811
                                           -0.0481  0.0000  0.0000  0.0000  0.0000
                                            0.0000  0.0000  0.1341  0.0803  0.0000
                                            0.0000  0.0000  0.0000  0.4055  0.1016
                                            0.6542  0.0866  0.0000  0.0000  0.0000
                                            0.0000
    40. (0.00037) RY*(18) O   1           s(  0.00%)p 1.00(  2.14%)d33.77( 72.43%)
                                                  f11.86( 25.43%)
                                            0.0000  0.0000  0.0000  0.0000  0.0000
                                            0.0000  0.0000  0.0000  0.0000  0.0000
[...]
                                           -0.0302 -0.0629 -0.6596  0.0837  0.0000
                                            0.0000  0.0000  0.0000
   153. (0.00033) RY*( 8) H   4           s(  0.00%)p 1.00( 68.76%)d 0.45( 31.24%)
                                            0.0000  0.0000  0.0000  0.0000  0.0000
                                            0.0000  0.0000  0.0000  0.0000  0.0000
                                           -0.1914  0.6072  0.5312  0.0000  0.0000
                                           -0.0609 -0.0221  0.5437  0.1123  0.0000
                                            0.0000  0.0000  0.0000
   154. (0.00025) RY*( 9) H   4           s(  1.97%)p17.91( 35.27%)d31.87( 62.76%)
                                           -0.0179  0.0134  0.1250  0.0596  0.1150
                                           -0.2096  0.0893  0.1489 -0.3922  0.3341
                                           -0.0000 -0.0000 -0.0000  0.2664  0.0995
                                           -0.0000 -0.0000 -0.0000 -0.0000 -0.5994
                                            0.0464 -0.4084  0.1360
   155. (0.00017) RY*(10) H   4           s(  0.15%)p99.99( 18.05%)d99.99( 81.80%)
                                            0.0048 -0.0258 -0.0059  0.0282 -0.0560
                                           -0.1682 -0.3778 -0.0104  0.0513 -0.0605
                                            0.0000  0.0000  0.0000 -0.2467  0.2412
                                            0.0000  0.0000  0.0000  0.0000  0.3479
                                           -0.1030 -0.5765  0.4847
   156. (0.00017) RY*(11) H   4           s(  0.00%)p 1.00(  4.68%)d20.39( 95.32%)
                                            0.0000  0.0000  0.0000  0.0000  0.0000
                                            0.0000  0.0000  0.0000  0.0000  0.0000
                                           -0.0349 -0.0969  0.1901  0.0000  0.0000
                                            0.7395 -0.5407 -0.0960  0.3237  0.0000
                                            0.0000  0.0000  0.0000
   157. (0.00016) RY*(12) H   4           s(  0.00%)p 1.00( 45.41%)d 1.20( 54.59%)
                                            0.0000  0.0000  0.0000  0.0000  0.0000
                                            0.0000  0.0000  0.0000  0.0000  0.0000
                                            0.0426 -0.2305  0.6318  0.0000  0.0000
                                           -0.0302  0.5052 -0.4017  0.3583  0.0000
                                            0.0000  0.0000  0.0000
   158. (0.00015) RY*(13) H   4           s( 25.28%)p 0.59( 14.99%)d 2.36( 59.72%)
                                            0.0073 -0.0301  0.0011  0.5019  0.0571
                                           -0.1114 -0.0616 -0.1033  0.3215  0.1282
                                            0.0000  0.0000  0.0000 -0.0502  0.4032
                                            0.0000  0.0000  0.0000  0.0000 -0.2782
                                           -0.3471  0.4104  0.2566
   159. (0.00013) RY*(14) H   4           s(  0.00%)p 1.00(  3.68%)d26.17( 96.32%)
                                            0.0000  0.0000  0.0000  0.0000  0.0000
                                            0.0000  0.0000  0.0000  0.0000  0.0000
                                           -0.0334  0.1706 -0.0811  0.0000  0.0000
                                            0.6619  0.5785  0.0637 -0.4317  0.0000
                                            0.0000  0.0000  0.0000
   160. (0.00013) RY*(15) H   4           s(  2.58%)p18.75( 48.36%)d19.02( 49.06%)
                                           -0.0020 -0.0166  0.0784  0.1392  0.0082
                                            0.1029 -0.3644 -0.0020  0.1826  0.5540
                                           -0.0000 -0.0000 -0.0000 -0.0009 -0.2898
                                           -0.0000 -0.0000 -0.0000 -0.0000  0.0905
                                           -0.3829 -0.2086 -0.4563
   161. (0.00013) RY*(16) H   4           s( 16.27%)p 1.76( 28.62%)d 3.39( 55.11%)
                                            0.0047 -0.0233  0.0738  0.3958 -0.0105
                                           -0.2538  0.4125 -0.0698  0.2123 -0.0400
                                           -0.0000 -0.0000 -0.0000 -0.2334  0.2605
                                           -0.0000 -0.0000 -0.0000 -0.0000  0.1037
                                            0.3052 -0.3269 -0.4669
   162. (0.00008) RY*(17) H   4           s(  0.00%)p 1.00( 26.11%)d 2.83( 73.89%)
   163. (0.00009) RY*(18) H   4           s( 36.92%)p 0.36( 13.24%)d 1.35( 49.83%)
   164. (0.00006) RY*(19) H   4           s(  1.31%)p30.62( 40.07%)d44.78( 58.62%)
   165. (0.00005) RY*(20) H   4           s(  4.95%)p13.07( 64.66%)d 6.14( 30.39%)
   166. (0.00005) RY*(21) H   4           s(  6.68%)p 6.28( 41.95%)d 7.69( 51.37%)
   167. (0.00002) RY*(22) H   4           s(  9.06%)p 5.31( 48.15%)d 4.72( 42.78%)
   168. (0.05509) BD*( 1) O   1 -Cl   2  
                ( 40.61%)   0.6372* O   1 s( 11.23%)p 7.87( 88.35%)d 0.03(  0.39%)
                                                  f 0.00(  0.03%)
                                           -0.0003 -0.3330  0.0370  0.0049  0.0012
                                           -0.9377  0.0133  0.0187  0.0068 -0.0552
                                            0.0244  0.0015  0.0028 -0.0000 -0.0000
                                           -0.0000 -0.0000  0.0238 -0.0036 -0.0018
                                           -0.0000 -0.0000 -0.0000 -0.0000 -0.0000
                                           -0.0000 -0.0446 -0.0111 -0.0021  0.0339
                                            0.0062  0.0000 -0.0000 -0.0000  0.0104
                                           -0.0004  0.0007  0.0000 -0.0000 -0.0000
                                           -0.0000 -0.0000 -0.0114  0.0037  0.0045
                                           -0.0037
                ( 59.39%)  -0.7707*Cl   2 s(  7.51%)p12.11( 90.87%)d 0.20(  1.51%)
                                                  f 0.02(  0.12%)
                                            0.0000 -0.0004 -0.2695  0.0484  0.0103
                                            0.0011  0.0003  0.9508 -0.0656 -0.0166
                                            0.0050  0.0000 -0.0011  0.0019 -0.0019
                                            0.0002 -0.0000 -0.0000 -0.0000 -0.0000
                                           -0.0000 -0.0118  0.0001 -0.0006 -0.0000
                                           -0.0000 -0.0000 -0.0000 -0.0000 -0.0000
                                           -0.1044  0.0106  0.0001  0.0625 -0.0063
                                           -0.0009 -0.0000 -0.0000 -0.0214  0.0028
                                           -0.0000 -0.0005 -0.0000 -0.0000 -0.0000
                                           -0.0000  0.0266 -0.0035  0.0004  0.0011
   169. (0.00763) BD*( 1) O   1 - H   4  
                ( 41.82%)   0.6467* O   1 s( 47.40%)p 1.10( 52.33%)d 0.01(  0.25%)
                                                  f 0.00(  0.01%)
                                           -0.0005 -0.6873  0.0405  0.0003  0.0023
                                            0.2018 -0.0285  0.0042 -0.0032  0.6893
                                           -0.0801  0.0144 -0.0025 -0.0000 -0.0000
                                           -0.0000 -0.0000 -0.0040  0.0096 -0.0057
                                           -0.0000 -0.0000 -0.0000 -0.0000 -0.0000
                                           -0.0000  0.0369 -0.0142  0.0070  0.0250
                                           -0.0096  0.0038 -0.0000 -0.0000 -0.0007
                                           -0.0015 -0.0052 -0.0061 -0.0000 -0.0000
                                           -0.0000 -0.0000 -0.0015 -0.0061  0.0008
                                           -0.0061
                ( 58.18%)  -0.7627* H   4 s( 99.57%)p 0.00(  0.42%)d 0.00(  0.01%)
                                           -0.9979  0.0013  0.0008 -0.0000 -0.0269
                                            0.0036 -0.0005 -0.0552  0.0190 -0.0017
                                           -0.0000 -0.0000 -0.0000  0.0001 -0.0045
                                           -0.0000 -0.0000 -0.0000 -0.0000 -0.0013
                                            0.0073 -0.0011  0.0079


 NHO Directionality and "Bond Bending" (deviations from line of nuclear centers)

         [Thresholds for printing:  angular deviation  >  1.0 degree]
                                    hybrid p-character > 25.0%
                                    orbital occupancy  >  0.10e

                                Line of Centers        Hybrid 1              Hybrid 2
                                ---------------  -------------------   ------------------
                NBO               Theta   Phi    Theta   Phi    Dev    Theta   Phi    Dev
 ========================================================================================
     1. BD (   1) O   1 -Cl   2    90.0    0.0    90.0    1.7   1.7      --     --    --
     2. BD (   1) O   1 - H   4    90.0  256.5    90.0  254.3   2.1      --     --    --
    14. LP (   1) O   1             --     --     90.0  111.0   --       --     --    --
    15. LP (   2) O   1             --     --      0.0    0.0   --       --     --    --
    17. LP (   2)Cl   2             --     --      0.0    0.0   --       --     --    --
    18. LP (   3)Cl   2             --     --     90.0  270.6   --       --     --    --
    20. LP (   2)Cl   3             --     --      0.0    0.0   --       --     --    --
    21. LP (   3)Cl   3             --     --     90.0  348.8   --       --     --    --
    22. LP (   4)Cl   3             --     --     90.0   78.7   --       --     --    --


 Natural Bond Orbitals (Summary):

           NBO                  Occupancy  
 -----------------------------------------------
 Molecular unit  1  (HOCl)
     1. BD (   1) O   1 -Cl   2          1.94326
     2. BD (   1) O   1 - H   4          1.98366
     3. CR (   1) O   1                  1.99764
     4. CR (   1)Cl   2                  2.00000
     5. CR (   2)Cl   2                  1.99989
     6. CR (   3)Cl   2                  1.99998
     7. CR (   4)Cl   2                  2.00002
     8. CR (   5)Cl   2                  2.00003
    14. LP (   1) O   1                  1.96234
    15. LP (   2) O   1                  1.95540
    16. LP (   1)Cl   2                  1.97539
    17. LP (   2)Cl   2                  1.95677
    18. LP (   3)Cl   2                  1.95473
    23. RY*(   1) O   1                  0.01621
    24. RY*(   2) O   1                  0.01393
    25. RY*(   3) O   1                  0.00626
    26. RY*(   4) O   1                  0.00594
    27. RY*(   5) O   1                  0.00516
    28. RY*(   6) O   1                  0.00389
    29. RY*(   7) O   1                  0.00366
    30. RY*(   8) O   1                  0.00255
    31. RY*(   9) O   1                  0.00197
    32. RY*(  10) O   1                  0.00062
    33. RY*(  11) O   1                  0.00054
    34. RY*(  12) O   1                  0.00053
    35. RY*(  13) O   1                  0.00049
    36. RY*(  14) O   1                  0.00045
    37. RY*(  15) O   1                  0.00043
    38. RY*(  16) O   1                  0.00041
    39. RY*(  17) O   1                  0.00041
    40. RY*(  18) O   1                  0.00037
    41. RY*(  19) O   1                  0.00036
    42. RY*(  20) O   1                  0.00032
    43. RY*(  21) O   1                  0.00028
    44. RY*(  22) O   1                  0.00020
    45. RY*(  23) O   1                  0.00019
    46. RY*(  24) O   1                  0.00014
    47. RY*(  25) O   1                  0.00013
    48. RY*(  26) O   1                  0.00013
    49. RY*(  27) O   1                  0.00011
    50. RY*(  28) O   1                  0.00011
    51. RY*(  29) O   1                  0.00008
    52. RY*(  30) O   1                  0.00009
    53. RY*(  31) O   1                  0.00008
    54. RY*(  32) O   1                  0.00008
    55. RY*(  33) O   1                  0.00007
    56. RY*(  34) O   1                  0.00007
    57. RY*(  35) O   1                  0.00007
    58. RY*(  36) O   1                  0.00006
    59. RY*(  37) O   1                  0.00005
    60. RY*(  38) O   1                  0.00003
    61. RY*(  39) O   1                  0.00002
    62. RY*(  40) O   1                  0.00001
    63. RY*(  41) O   1                  0.00002
    64. RY*(   1)Cl   2                  0.02291
    65. RY*(   2)Cl   2                  0.01681
    66. RY*(   3)Cl   2                  0.01647
    67. RY*(   4)Cl   2                  0.01572
    68. RY*(   5)Cl   2                  0.01093
    69. RY*(   6)Cl   2                  0.00875
    70. RY*(   7)Cl   2                  0.00841
    71. RY*(   8)Cl   2                  0.00579
    72. RY*(   9)Cl   2                  0.00172
    73. RY*(  10)Cl   2                  0.00125
    74. RY*(  11)Cl   2                  0.00125
    75. RY*(  12)Cl   2                  0.00117
    76. RY*(  13)Cl   2                  0.00116
    77. RY*(  14)Cl   2                  0.00113
    78. RY*(  15)Cl   2                  0.00103
    79. RY*(  16)Cl   2                  0.00088
    80. RY*(  17)Cl   2                  0.00074
    81. RY*(  18)Cl   2                  0.00073
    82. RY*(  19)Cl   2                  0.00061
    83. RY*(  20)Cl   2                  0.00049
    84. RY*(  21)Cl   2                  0.00036
    85. RY*(  22)Cl   2                  0.00036
    86. RY*(  23)Cl   2                  0.00034
    87. RY*(  24)Cl   2                  0.00020
    88. RY*(  25)Cl   2                  0.00014
    89. RY*(  26)Cl   2                  0.00012
    90. RY*(  27)Cl   2                  0.00012
    91. RY*(  28)Cl   2                  0.00012
    92. RY*(  29)Cl   2                  0.00011
    93. RY*(  30)Cl   2                  0.00010
    94. RY*(  31)Cl   2                  0.00010
    95. RY*(  32)Cl   2                  0.00010
    96. RY*(  33)Cl   2                  0.00010
    97. RY*(  34)Cl   2                  0.00008
    98. RY*(  35)Cl   2                  0.00008
    99. RY*(  36)Cl   2                  0.00006
   100. RY*(  37)Cl   2                  0.00006
   101. RY*(  38)Cl   2                  0.00004
   102. RY*(  39)Cl   2                  0.00003
   103. RY*(  40)Cl   2                  0.00002
   104. RY*(  41)Cl   2                  0.00001
   146. RY*(   1) H   4                  0.01511
   147. RY*(   2) H   4                  0.00726
   148. RY*(   3) H   4                  0.00398
   149. RY*(   4) H   4                  0.00319
   150. RY*(   5) H   4                  0.00186
   151. RY*(   6) H   4                  0.00037
   152. RY*(   7) H   4                  0.00035
   153. RY*(   8) H   4                  0.00033
   154. RY*(   9) H   4                  0.00025
   155. RY*(  10) H   4                  0.00017
   156. RY*(  11) H   4                  0.00017
   157. RY*(  12) H   4                  0.00016
   158. RY*(  13) H   4                  0.00015
   159. RY*(  14) H   4                  0.00013
   160. RY*(  15) H   4                  0.00013
   161. RY*(  16) H   4                  0.00013
   162. RY*(  17) H   4                  0.00008
   163. RY*(  18) H   4                  0.00009
   164. RY*(  19) H   4                  0.00006
   165. RY*(  20) H   4                  0.00005
   166. RY*(  21) H   4                  0.00005
   167. RY*(  22) H   4                  0.00002
   168. BD*(   1) O   1 -Cl   2          0.05509
   169. BD*(   1) O   1 - H   4          0.00763
       -------------------------------
              Total Lewis   25.72911  ( 98.9088%)
        Valence non-Lewis    0.06272  (  0.2411%)
        Rydberg non-Lewis    0.22114  (  0.8501%)
       -------------------------------
            Total unit  1   26.01296  (100.0000%)
           Charge unit  1   -0.01296

 Molecular unit  2  (Cl)
     9. CR (   1)Cl   3                  2.00001
    10. CR (   2)Cl   3                  2.00000
    11. CR (   3)Cl   3                  2.00003
    12. CR (   4)Cl   3                  2.00002
    13. CR (   5)Cl   3                  2.00003
    19. LP (   1)Cl   3                  1.98083
    20. LP (   2)Cl   3                  1.95258
    21. LP (   3)Cl   3                  1.95235
    22. LP (   4)Cl   3                  1.94548
   105. RY*(   1)Cl   3                  0.01855
   106. RY*(   2)Cl   3                  0.01856
   107. RY*(   3)Cl   3                  0.01836
   108. RY*(   4)Cl   3                  0.01836
   109. RY*(   5)Cl   3                  0.01828
   110. RY*(   6)Cl   3                  0.01379
   111. RY*(   7)Cl   3                  0.01365
   112. RY*(   8)Cl   3                  0.01194
   113. RY*(   9)Cl   3                  0.00683
   114. RY*(  10)Cl   3                  0.00131
   115. RY*(  11)Cl   3                  0.00131
   116. RY*(  12)Cl   3                  0.00129
   117. RY*(  13)Cl   3                  0.00129
   118. RY*(  14)Cl   3                  0.00129
   119. RY*(  15)Cl   3                  0.00129
   120. RY*(  16)Cl   3                  0.00128
   121. RY*(  17)Cl   3                  0.00101
   122. RY*(  18)Cl   3                  0.00102
   123. RY*(  19)Cl   3                  0.00090
   124. RY*(  20)Cl   3                  0.00091
   125. RY*(  21)Cl   3                  0.00077
   126. RY*(  22)Cl   3                  0.00058
   127. RY*(  23)Cl   3                  0.00057
   128. RY*(  24)Cl   3                  0.00055
   129. RY*(  25)Cl   3                  0.00028
   130. RY*(  26)Cl   3                  0.00015
   131. RY*(  27)Cl   3                  0.00015
   132. RY*(  28)Cl   3                  0.00015
   133. RY*(  29)Cl   3                  0.00015
   134. RY*(  30)Cl   3                  0.00015
   135. RY*(  31)Cl   3                  0.00015
   136. RY*(  32)Cl   3                  0.00015
   137. RY*(  33)Cl   3                  0.00011
   138. RY*(  34)Cl   3                  0.00011
   139. RY*(  35)Cl   3                  0.00011
   140. RY*(  36)Cl   3                  0.00011
   141. RY*(  37)Cl   3                  0.00009
   142. RY*(  38)Cl   3                  0.00007
   143. RY*(  39)Cl   3                  0.00003
   144. RY*(  40)Cl   3                  0.00004
   145. RY*(  41)Cl   3                 -0.00001
       -------------------------------
              Total Lewis   17.83133  ( 99.1343%)
        Valence non-Lewis    0.00000  (  0.0000%)
        Rydberg non-Lewis    0.15572  (  0.8657%)
       -------------------------------
            Total unit  2   17.98704  (100.0000%)
           Charge unit  2   -0.98704
 Leave Link  607 at Mon Nov 15 07:36:03 2021, MaxMem= 16106127360 cpu:              62.1 elap:               2.3
 (Enter /sw/contrib/gaussian/g16/B01/g16/l9999.exe)
 1\1\GINC-N2398\SP\RMP2-FC\Aug-CC-pVTZ\Cl2H1O1(1-)\CGAVINH\15-Nov-2021\
 0\\#p pop=NBO SP NoSymm mp2/aug-cc-pvtz density=current\\title\\-1,1\O
 \X,1,10.\Cl,1,1.68274941,2,90.\Cl,1,2.90467605,2,90.,3,103.53015695,0\
 H,1,0.5,2,90.,3,103.53015695,0\\Version=ES64L-G16RevB.01\HF=-993.75135
 52\MP2=-994.3957331\RMSD=4.702e-09\Dipole=1.8200805,2.3800008,0.\Quadr
 upole=8.182353,-17.2026638,9.0203108,-6.5974008,0.,0.\PG=CS [SG(Cl2H1O
 1)]\\@


 We're simply so accustomed to the marvels of everyday thought
 that we never wonder about it.
 -- Marvin Minsky in "Why people think computers are smart"
 Job cpu time:       0 days  0 hours  4 minutes 35.0 seconds.
 Elapsed time:       0 days  0 hours  0 minutes 15.3 seconds.
 File lengths (MBytes):  RWF=     14 Int=      0 D2E=      0 Chk=      8 Scr=      1
 Normal termination of Gaussian 16 at Mon Nov 15 07:36:04 2021.
