 Entering Gaussian System, Link 0=g16
 Input=clhocl_rOH_100_sp.gjf
 Output=clhocl_rOH_100_sp.log
 Initial command:
 /sw/contrib/gaussian/g16/B01/g16/l1.exe "/scr/Gau-27280.inp" -scrdir="/scr/"
 Entering Link 1 = /sw/contrib/gaussian/g16/B01/g16/l1.exe PID=     27281.
  
 Copyright (c) 1988-2017, Gaussian, Inc.  All Rights Reserved.
  
 This is part of the Gaussian(R) 16 program.  It is based on
 the Gaussian(R) 09 system (copyright 2009, Gaussian, Inc.),
 the Gaussian(R) 03 system (copyright 2003, Gaussian, Inc.),
 the Gaussian(R) 98 system (copyright 1998, Gaussian, Inc.),
 the Gaussian(R) 94 system (copyright 1995, Gaussian, Inc.),
 the Gaussian 92(TM) system (copyright 1992, Gaussian, Inc.),
 the Gaussian 90(TM) system (copyright 1990, Gaussian, Inc.),
 the Gaussian 88(TM) system (copyright 1988, Gaussian, Inc.),
 the Gaussian 86(TM) system (copyright 1986, Carnegie Mellon
 University), and the Gaussian 82(TM) system (copyright 1983,
 Carnegie Mellon University). Gaussian is a federally registered
 trademark of Gaussian, Inc.
  
 This software contains proprietary and confidential information,
 including trade secrets, belonging to Gaussian, Inc.
  
 This software is provided under written license and may be
 used, copied, transmitted, or stored only in accord with that
 written license.
  
 The following legend is applicable only to US Government
 contracts under FAR:
  
                    RESTRICTED RIGHTS LEGEND
  
 Use, reproduction and disclosure by the US Government is
 subject to restrictions as set forth in subparagraphs (a)
 and (c) of the Commercial Computer Software - Restricted
 Rights clause in FAR 52.227-19.
  
 Gaussian, Inc.
 340 Quinnipiac St., Bldg. 40, Wallingford CT 06492
  
  
 ---------------------------------------------------------------
 Warning -- This program may not be used in any manner that
 competes with the business of Gaussian, Inc. or will provide
 assistance to any competitor of Gaussian, Inc.  The licensee
 of this program is prohibited from giving any competitor of
 Gaussian, Inc. access to this program.  By using this program,
 the user acknowledges that Gaussian, Inc. is engaged in the
 business of creating and licensing software in the field of
 computational chemistry and represents and warrants to the
 licensee that it is not a competitor of Gaussian, Inc. and that
 it will not use this program in any manner prohibited above.
 ---------------------------------------------------------------
  

 Cite this work as:
 Gaussian 16, Revision B.01,
 M. J. Frisch, G. W. Trucks, H. B. Schlegel, G. E. Scuseria, 
 M. A. Robb, J. R. Cheeseman, G. Scalmani, V. Barone, 
 G. A. Petersson, H. Nakatsuji, X. Li, M. Caricato, A. V. Marenich, 
 J. Bloino, B. G. Janesko, R. Gomperts, B. Mennucci, H. P. Hratchian, 
 J. V. Ortiz, A. F. Izmaylov, J. L. Sonnenberg, D. Williams-Young, 
 F. Ding, F. Lipparini, F. Egidi, J. Goings, B. Peng, A. Petrone, 
 T. Henderson, D. Ranasinghe, V. G. Zakrzewski, J. Gao, N. Rega, 
 G. Zheng, W. Liang, M. Hada, M. Ehara, K. Toyota, R. Fukuda, 
 J. Hasegawa, M. Ishida, T. Nakajima, Y. Honda, O. Kitao, H. Nakai, 
 T. Vreven, K. Throssell, J. A. Montgomery, Jr., J. E. Peralta, 
 F. Ogliaro, M. J. Bearpark, J. J. Heyd, E. N. Brothers, K. N. Kudin, 
 V. N. Staroverov, T. A. Keith, R. Kobayashi, J. Normand, 
 K. Raghavachari, A. P. Rendell, J. C. Burant, S. S. Iyengar, 
 J. Tomasi, M. Cossi, J. M. Millam, M. Klene, C. Adamo, R. Cammi, 
 J. W. Ochterski, R. L. Martin, K. Morokuma, O. Farkas, 
 J. B. Foresman, and D. J. Fox, Gaussian, Inc., Wallingford CT, 2016.
 
 ******************************************
 Gaussian 16:  ES64L-G16RevB.01 20-Dec-2017
                 8-Oct-2021 
 ******************************************
 %nproc=28
 Will use up to   28 processors via shared memory.
 %mem=120GB
 %chk=/gscratch/ilahie/mccoygrp/coire_hocl/rOH_s_oop_0/clhocl/clhocl_100_sp.chk
 ----------------------------------------------------
 #p pop=NBO SP NoSymm mp2/aug-cc-pvtz density=current
 ----------------------------------------------------
 1/30=1,38=1,172=1/1;
 2/12=2,15=1,17=6,18=5,40=1/2;
 3/5=16,6=1,7=10,11=9,25=1,30=1,71=1/1,2,3;
 4//1;
 5/5=2,38=5/2;
 8/6=4,10=1/1;
 9/15=1,16=-3/6;
 10/5=1,13=10,31=1/2;
 6/7=2,8=2,9=2,10=2,22=-1,40=1/1,7;
 99/5=1,9=1/99;
 Leave Link    1 at Fri Oct  8 12:23:52 2021, MaxMem= 16106127360 cpu:               0.8 elap:               0.0
 (Enter /sw/contrib/gaussian/g16/B01/g16/l101.exe)
 -----
 title
 -----
 Symbolic Z-matrix:
 Charge = -1 Multiplicity = 1
 O
 X                    1     10. 
 Cl                   1    r1       2     90. 
 Cl                   1    r2       2     90.      3    a1       0
 H                    1    r3       2    oop      3    a1       0
       Variables:
  r1                    1.68275                  
  r2                    2.90468                  
  r3                    1.                       
  a1                  103.53016                  
  OOP                  90.                       
 
 ITRead=  0  0  0  0
 MicOpt= -1 -1 -1 -1
 NAtoms=      4 NQM=        4 NQMF=       0 NMMI=      0 NMMIF=      0
                NMic=       0 NMicF=      0.
                    Isotopes and Nuclear Properties:
 (Nuclear quadrupole moments (NQMom) in fm**2, nuclear magnetic moments (NMagM)
  in nuclear magnetons)

  Atom         1           2           3           4
 IAtWgt=          16          35          35           1
 AtmWgt=  15.9949146  34.9688527  34.9688527   1.0078250
 NucSpn=           0           3           3           1
 AtZEff=  -0.0000000  -0.0000000  -0.0000000  -0.0000000
 NQMom=    0.0000000  -8.1650000  -8.1650000   0.0000000
 NMagM=    0.0000000   0.8218740   0.8218740   2.7928460
 AtZNuc=   8.0000000  17.0000000  17.0000000   1.0000000
 Leave Link  101 at Fri Oct  8 12:23:52 2021, MaxMem= 16106127360 cpu:               2.4 elap:               0.1
 (Enter /sw/contrib/gaussian/g16/B01/g16/l202.exe)
                          Input orientation:                          
 ---------------------------------------------------------------------
 Center     Atomic      Atomic             Coordinates (Angstroms)
 Number     Number       Type             X           Y           Z
 ---------------------------------------------------------------------
      1          8           0        0.000000    0.000000    0.000000
      2         17           0        1.682749    0.000000    0.000000
      3         17           0       -0.679570   -2.824062    0.000000
      4          1           0       -0.233957   -0.972247    0.000000
 ---------------------------------------------------------------------
                    Distance matrix (angstroms):
                    1          2          3          4
     1  O    0.000000
     2  Cl   1.682749   0.000000
     3  Cl   2.904676   3.681831   0.000000
     4  H    1.000000   2.149192   1.904676   0.000000
 Symmetry turned off by external request.
 Stoichiometry    Cl2HO(1-)
 Framework group  CS[SG(Cl2HO)]
 Deg. of freedom     5
 Full point group                 CS      NOp   2
 Rotational constants (GHZ):          23.6832581           2.0598286           1.8950118
 Leave Link  202 at Fri Oct  8 12:23:52 2021, MaxMem= 16106127360 cpu:               1.1 elap:               0.1
 (Enter /sw/contrib/gaussian/g16/B01/g16/l301.exe)
 Standard basis: Aug-CC-pVTZ (5D, 7F)
 Ernie: Thresh=  0.10000D-02 Tol=  0.10000D-05 Strict=F.
 Ernie:  29 primitive shells out of 169 were deleted.
   169 basis functions,   327 primitive gaussians,   198 cartesian basis functions
    22 alpha electrons       22 beta electrons
       nuclear repulsion energy       122.2241000086 Hartrees.
 IExCor=    0 DFT=F Ex=HF Corr=None ExCW=0 ScaHFX=  1.000000
 ScaDFX=  1.000000  1.000000  1.000000  1.000000 ScalE2=  1.000000  1.000000
 IRadAn=      5 IRanWt=     -1 IRanGd=            0 ICorTp=0 IEmpDi=  4
 NAtoms=    4 NActive=    4 NUniq=    4 SFac= 1.00D+00 NAtFMM=   60 NAOKFM=F Big=F
 Integral buffers will be    131072 words long.
 Raffenetti 1 integral format.
 Two-electron integral symmetry is turned off.
 Leave Link  301 at Fri Oct  8 12:23:52 2021, MaxMem= 16106127360 cpu:               1.9 elap:               0.1
 (Enter /sw/contrib/gaussian/g16/B01/g16/l302.exe)
 NPDir=0 NMtPBC=     1 NCelOv=     1 NCel=       1 NClECP=     1 NCelD=      1
         NCelK=      1 NCelE2=     1 NClLst=     1 CellRange=     0.0.
 One-electron integrals computed using PRISM.
 NBasis=   169 RedAO= T EigKep=  2.28D-04  NBF=   169
 NBsUse=   169 1.00D-06 EigRej= -1.00D+00 NBFU=   169
 Leave Link  302 at Fri Oct  8 12:23:53 2021, MaxMem= 16106127360 cpu:               4.3 elap:               0.2
 (Enter /sw/contrib/gaussian/g16/B01/g16/l303.exe)
 DipDrv:  MaxL=1.
 Leave Link  303 at Fri Oct  8 12:23:53 2021, MaxMem= 16106127360 cpu:               1.0 elap:               0.1
 (Enter /sw/contrib/gaussian/g16/B01/g16/l401.exe)
 ExpMin= 2.53D-02 ExpMax= 4.56D+05 ExpMxC= 1.44D+03 IAcc=3 IRadAn=         5 AccDes= 0.00D+00
 Harris functional with IExCor=  205 and IRadAn=       5 diagonalized for initial guess.
 HarFok:  IExCor=  205 AccDes= 0.00D+00 IRadAn=         5 IDoV= 1 UseB2=F ITyADJ=14
 ICtDFT=  3500011 ScaDFX=  1.000000  1.000000  1.000000  1.000000
 FoFCou: FMM=F IPFlag=           0 FMFlag=      100000 FMFlg1=           0
         NFxFlg=           0 DoJE=T BraDBF=F KetDBF=T FulRan=T
         wScrn=  0.000000 ICntrl=       500 IOpCl=  0 I1Cent=   200000004 NGrid=           0
         NMat0=    1 NMatS0=      1 NMatT0=    0 NMatD0=    1 NMtDS0=    0 NMtDT0=    0
 Symmetry not used in FoFCou.
 Harris En= -993.822976851772    
 JPrj=0 DoOrth=F DoCkMO=F.
 Leave Link  401 at Fri Oct  8 12:23:53 2021, MaxMem= 16106127360 cpu:               6.7 elap:               0.3
 (Enter /sw/contrib/gaussian/g16/B01/g16/l502.exe)
 Keep R1 ints in memory in canonical form, NReq=117119261.
 FoFCou: FMM=F IPFlag=           0 FMFlag=           0 FMFlg1=           0
         NFxFlg=           0 DoJE=F BraDBF=F KetDBF=F FulRan=T
         wScrn=  0.000000 ICntrl=       600 IOpCl=  0 I1Cent=           0 NGrid=           0
         NMat0=    1 NMatS0=  14365 NMatT0=    0 NMatD0=    1 NMtDS0=    0 NMtDT0=    0
 Symmetry not used in FoFCou.
 Two-electron integral symmetry not used.
 Closed shell SCF:
 Using DIIS extrapolation, IDIIS=  1040.
 NGot= 16106127360 LenX= 16002858349 LenY= 16002818704
 Requested convergence on RMS density matrix=1.00D-08 within 128 cycles.
 Requested convergence on MAX density matrix=1.00D-06.
 Requested convergence on             energy=1.00D-06.
 No special actions if energy rises.

 Cycle   1  Pass 1  IDiag  1:
 E= -994.395756917464    
 DIIS: error= 3.49D-02 at cycle   1 NSaved=   1.
 NSaved= 1 IEnMin= 1 EnMin= -994.395756917464     IErMin= 1 ErrMin= 3.49D-02
 ErrMax= 3.49D-02  0.00D+00 EMaxC= 1.00D-01 BMatC= 4.27D-01 BMatP= 4.27D-01
 IDIUse=3 WtCom= 6.51D-01 WtEn= 3.49D-01
 Coeff-Com:  0.100D+01
 Coeff-En:   0.100D+01
 Coeff:      0.100D+01
 Gap=     0.559 Goal=   None    Shift=    0.000
 GapD=    0.559 DampG=2.000 DampE=0.500 DampFc=1.0000 IDamp=-1.
 RMSDP=2.18D-03 MaxDP=7.10D-02              OVMax= 1.23D-01

 Cycle   2  Pass 1  IDiag  1:
 E= -994.489340423461     Delta-E=       -0.093583505997 Rises=F Damp=F
 DIIS: error= 1.97D-02 at cycle   2 NSaved=   2.
 NSaved= 2 IEnMin= 2 EnMin= -994.489340423461     IErMin= 2 ErrMin= 1.97D-02
 ErrMax= 1.97D-02  0.00D+00 EMaxC= 1.00D-01 BMatC= 5.11D-02 BMatP= 4.27D-01
 IDIUse=3 WtCom= 8.03D-01 WtEn= 1.97D-01
 Coeff-Com:  0.171D+00 0.829D+00
 Coeff-En:   0.000D+00 0.100D+01
 Coeff:      0.137D+00 0.863D+00
 Gap=     0.382 Goal=   None    Shift=    0.000
 RMSDP=9.92D-04 MaxDP=3.96D-02 DE=-9.36D-02 OVMax= 8.09D-02

 Cycle   3  Pass 1  IDiag  1:
 E= -994.514738377499     Delta-E=       -0.025397954039 Rises=F Damp=F
 DIIS: error= 9.03D-03 at cycle   3 NSaved=   3.
 NSaved= 3 IEnMin= 3 EnMin= -994.514738377499     IErMin= 3 ErrMin= 9.03D-03
 ErrMax= 9.03D-03  0.00D+00 EMaxC= 1.00D-01 BMatC= 1.48D-02 BMatP= 5.11D-02
 IDIUse=3 WtCom= 9.10D-01 WtEn= 9.03D-02
 Coeff-Com: -0.157D-01 0.340D+00 0.676D+00
 Coeff-En:   0.000D+00 0.130D+00 0.870D+00
 Coeff:     -0.143D-01 0.321D+00 0.693D+00
 Gap=     0.361 Goal=   None    Shift=    0.000
 RMSDP=3.70D-04 MaxDP=1.47D-02 DE=-2.54D-02 OVMax= 3.67D-02

 Cycle   4  Pass 1  IDiag  1:
 E= -994.524824487933     Delta-E=       -0.010086110433 Rises=F Damp=F
 DIIS: error= 1.28D-03 at cycle   4 NSaved=   4.
 NSaved= 4 IEnMin= 4 EnMin= -994.524824487933     IErMin= 4 ErrMin= 1.28D-03
 ErrMax= 1.28D-03  0.00D+00 EMaxC= 1.00D-01 BMatC= 1.75D-04 BMatP= 1.48D-02
 IDIUse=3 WtCom= 9.87D-01 WtEn= 1.28D-02
 Coeff-Com: -0.394D-02 0.166D-01 0.101D+00 0.886D+00
 Coeff-En:   0.000D+00 0.000D+00 0.000D+00 0.100D+01
 Coeff:     -0.389D-02 0.164D-01 0.998D-01 0.888D+00
 Gap=     0.354 Goal=   None    Shift=    0.000
 RMSDP=5.64D-05 MaxDP=1.47D-03 DE=-1.01D-02 OVMax= 3.06D-03

 Cycle   5  Pass 1  IDiag  1:
 E= -994.525011101419     Delta-E=       -0.000186613486 Rises=F Damp=F
 DIIS: error= 2.72D-04 at cycle   5 NSaved=   5.
 NSaved= 5 IEnMin= 5 EnMin= -994.525011101419     IErMin= 5 ErrMin= 2.72D-04
 ErrMax= 2.72D-04  0.00D+00 EMaxC= 1.00D-01 BMatC= 1.61D-05 BMatP= 1.75D-04
 IDIUse=3 WtCom= 9.97D-01 WtEn= 2.72D-03
 Coeff-Com:  0.105D-02-0.394D-01-0.695D-01 0.220D-01 0.109D+01
 Coeff-En:   0.000D+00 0.000D+00 0.000D+00 0.000D+00 0.100D+01
 Coeff:      0.104D-02-0.392D-01-0.694D-01 0.219D-01 0.109D+01
 Gap=     0.356 Goal=   None    Shift=    0.000
 RMSDP=3.22D-05 MaxDP=1.17D-03 DE=-1.87D-04 OVMax= 3.09D-03

 Cycle   6  Pass 1  IDiag  1:
 E= -994.525051282000     Delta-E=       -0.000040180580 Rises=F Damp=F
 DIIS: error= 1.28D-04 at cycle   6 NSaved=   6.
 NSaved= 6 IEnMin= 6 EnMin= -994.525051282000     IErMin= 6 ErrMin= 1.28D-04
 ErrMax= 1.28D-04  0.00D+00 EMaxC= 1.00D-01 BMatC= 2.11D-06 BMatP= 1.61D-05
 IDIUse=3 WtCom= 9.99D-01 WtEn= 1.28D-03
 Coeff-Com:  0.218D-03 0.912D-02 0.164D-01-0.809D-01-0.416D+00 0.147D+01
 Coeff-En:   0.000D+00 0.000D+00 0.000D+00 0.000D+00 0.000D+00 0.100D+01
 Coeff:      0.217D-03 0.910D-02 0.164D-01-0.808D-01-0.416D+00 0.147D+01
 Gap=     0.356 Goal=   None    Shift=    0.000
 RMSDP=1.70D-05 MaxDP=6.10D-04 DE=-4.02D-05 OVMax= 1.66D-03

 Cycle   7  Pass 1  IDiag  1:
 E= -994.525058924155     Delta-E=       -0.000007642156 Rises=F Damp=F
 DIIS: error= 4.34D-05 at cycle   7 NSaved=   7.
 NSaved= 7 IEnMin= 7 EnMin= -994.525058924155     IErMin= 7 ErrMin= 4.34D-05
 ErrMax= 4.34D-05  0.00D+00 EMaxC= 1.00D-01 BMatC= 1.32D-07 BMatP= 2.11D-06
 IDIUse=1 WtCom= 1.00D+00 WtEn= 0.00D+00
 Coeff-Com: -0.156D-03-0.114D-02-0.137D-02 0.310D-01 0.936D-01-0.622D+00
 Coeff-Com:  0.150D+01
 Coeff:     -0.156D-03-0.114D-02-0.137D-02 0.310D-01 0.936D-01-0.622D+00
 Coeff:      0.150D+01
 Gap=     0.356 Goal=   None    Shift=    0.000
 RMSDP=5.31D-06 MaxDP=1.70D-04 DE=-7.64D-06 OVMax= 5.08D-04

 Cycle   8  Pass 1  IDiag  1:
 E= -994.525059537603     Delta-E=       -0.000000613448 Rises=F Damp=F
 DIIS: error= 8.03D-06 at cycle   8 NSaved=   8.
 NSaved= 8 IEnMin= 8 EnMin= -994.525059537603     IErMin= 8 ErrMin= 8.03D-06
 ErrMax= 8.03D-06  0.00D+00 EMaxC= 1.00D-01 BMatC= 9.17D-09 BMatP= 1.32D-07
 IDIUse=1 WtCom= 1.00D+00 WtEn= 0.00D+00
 Coeff-Com:  0.133D-04-0.482D-03-0.688D-03-0.542D-03 0.808D-02 0.234D-01
 Coeff-Com: -0.283D+00 0.125D+01
 Coeff:      0.133D-04-0.482D-03-0.688D-03-0.542D-03 0.808D-02 0.234D-01
 Coeff:     -0.283D+00 0.125D+01
 Gap=     0.356 Goal=   None    Shift=    0.000
 RMSDP=1.24D-06 MaxDP=2.79D-05 DE=-6.13D-07 OVMax= 1.42D-04

 Cycle   9  Pass 1  IDiag  1:
 E= -994.525059574583     Delta-E=       -0.000000036980 Rises=F Damp=F
 DIIS: error= 3.79D-06 at cycle   9 NSaved=   9.
 NSaved= 9 IEnMin= 9 EnMin= -994.525059574583     IErMin= 9 ErrMin= 3.79D-06
 ErrMax= 3.79D-06  0.00D+00 EMaxC= 1.00D-01 BMatC= 1.25D-09 BMatP= 9.17D-09
 IDIUse=1 WtCom= 1.00D+00 WtEn= 0.00D+00
 Coeff-Com:  0.165D-04 0.230D-03 0.298D-03-0.342D-02-0.126D-01 0.661D-01
 Coeff-Com: -0.925D-01-0.377D+00 0.142D+01
 Coeff:      0.165D-04 0.230D-03 0.298D-03-0.342D-02-0.126D-01 0.661D-01
 Coeff:     -0.925D-01-0.377D+00 0.142D+01
 Gap=     0.356 Goal=   None    Shift=    0.000
 RMSDP=6.00D-07 MaxDP=1.52D-05 DE=-3.70D-08 OVMax= 7.01D-05

 Cycle  10  Pass 1  IDiag  1:
 E= -994.525059581281     Delta-E=       -0.000000006698 Rises=F Damp=F
 DIIS: error= 1.60D-06 at cycle  10 NSaved=  10.
 NSaved=10 IEnMin=10 EnMin= -994.525059581281     IErMin=10 ErrMin= 1.60D-06
 ErrMax= 1.60D-06  0.00D+00 EMaxC= 1.00D-01 BMatC= 1.78D-10 BMatP= 1.25D-09
 IDIUse=1 WtCom= 1.00D+00 WtEn= 0.00D+00
 Coeff-Com: -0.486D-05 0.202D-04-0.320D-05 0.922D-03 0.194D-02-0.188D-01
 Coeff-Com:  0.643D-01-0.133D+00-0.216D+00 0.130D+01
 Coeff:     -0.486D-05 0.202D-04-0.320D-05 0.922D-03 0.194D-02-0.188D-01
 Coeff:      0.643D-01-0.133D+00-0.216D+00 0.130D+01
 Gap=     0.356 Goal=   None    Shift=    0.000
 RMSDP=2.27D-07 MaxDP=6.17D-06 DE=-6.70D-09 OVMax= 2.56D-05

 Cycle  11  Pass 1  IDiag  1:
 E= -994.525059582118     Delta-E=       -0.000000000836 Rises=F Damp=F
 DIIS: error= 4.68D-07 at cycle  11 NSaved=  11.
 NSaved=11 IEnMin=11 EnMin= -994.525059582118     IErMin=11 ErrMin= 4.68D-07
 ErrMax= 4.68D-07  0.00D+00 EMaxC= 1.00D-01 BMatC= 1.18D-11 BMatP= 1.78D-10
 IDIUse=1 WtCom= 1.00D+00 WtEn= 0.00D+00
 Coeff-Com: -0.222D-05-0.225D-04-0.229D-04 0.380D-03 0.122D-02-0.663D-02
 Coeff-Com:  0.813D-02 0.465D-01-0.130D+00-0.143D+00 0.122D+01
 Coeff:     -0.222D-05-0.225D-04-0.229D-04 0.380D-03 0.122D-02-0.663D-02
 Coeff:      0.813D-02 0.465D-01-0.130D+00-0.143D+00 0.122D+01
 Gap=     0.356 Goal=   None    Shift=    0.000
 RMSDP=6.19D-08 MaxDP=1.75D-06 DE=-8.36D-10 OVMax= 6.56D-06

 Cycle  12  Pass 1  IDiag  1:
 E= -994.525059582179     Delta-E=       -0.000000000062 Rises=F Damp=F
 DIIS: error= 9.28D-08 at cycle  12 NSaved=  12.
 NSaved=12 IEnMin=12 EnMin= -994.525059582179     IErMin=12 ErrMin= 9.28D-08
 ErrMax= 9.28D-08  0.00D+00 EMaxC= 1.00D-01 BMatC= 6.41D-13 BMatP= 1.18D-11
 IDIUse=1 WtCom= 1.00D+00 WtEn= 0.00D+00
 Coeff-Com:  0.682D-06 0.200D-05 0.246D-05-0.114D-03-0.310D-03 0.207D-02
 Coeff-Com: -0.449D-02-0.217D-02 0.363D-01-0.534D-01-0.189D+00 0.121D+01
 Coeff:      0.682D-06 0.200D-05 0.246D-05-0.114D-03-0.310D-03 0.207D-02
 Coeff:     -0.449D-02-0.217D-02 0.363D-01-0.534D-01-0.189D+00 0.121D+01
 Gap=     0.356 Goal=   None    Shift=    0.000
 RMSDP=1.25D-08 MaxDP=2.82D-07 DE=-6.16D-11 OVMax= 1.02D-06

 Cycle  13  Pass 1  IDiag  1:
 E= -994.525059582183     Delta-E=       -0.000000000004 Rises=F Damp=F
 DIIS: error= 2.17D-08 at cycle  13 NSaved=  13.
 NSaved=13 IEnMin=13 EnMin= -994.525059582183     IErMin=13 ErrMin= 2.17D-08
 ErrMax= 2.17D-08  0.00D+00 EMaxC= 1.00D-01 BMatC= 5.98D-14 BMatP= 6.41D-13
 IDIUse=1 WtCom= 1.00D+00 WtEn= 0.00D+00
 Coeff-Com:  0.150D-06 0.146D-05 0.937D-06-0.225D-04-0.719D-04 0.416D-03
 Coeff-Com: -0.487D-03-0.367D-02 0.104D-01 0.106D-01-0.941D-01-0.372D-01
 Coeff-Com:  0.111D+01
 Coeff:      0.150D-06 0.146D-05 0.937D-06-0.225D-04-0.719D-04 0.416D-03
 Coeff:     -0.487D-03-0.367D-02 0.104D-01 0.106D-01-0.941D-01-0.372D-01
 Coeff:      0.111D+01
 Gap=     0.356 Goal=   None    Shift=    0.000
 RMSDP=3.20D-09 MaxDP=7.75D-08 DE=-4.09D-12 OVMax= 2.99D-07

 SCF Done:  E(RHF) =  -994.525059582     A.U. after   13 cycles
            NFock= 13  Conv=0.32D-08     -V/T= 2.0001
 KE= 9.944002484303D+02 PE=-2.622203050722D+03 EE= 5.110536427004D+02
 Leave Link  502 at Fri Oct  8 12:23:56 2021, MaxMem= 16106127360 cpu:              24.6 elap:               3.1
 (Enter /sw/contrib/gaussian/g16/B01/g16/l801.exe)
 ExpMin= 2.53D-02 ExpMax= 4.56D+05 ExpMxC= 1.44D+03 IAcc=3 IRadAn=         5 AccDes= 0.00D+00
 HarFok:  IExCor=  205 AccDes= 0.00D+00 IRadAn=         5 IDoV=-2 UseB2=F ITyADJ=14
 ICtDFT= 12500011 ScaDFX=  1.000000  1.000000  1.000000  1.000000
 Largest valence mixing into a core orbital is  4.47D-04
 Largest core mixing into a valence orbital is  1.73D-04
 Range of M.O.s used for correlation:    12   169
 NBasis=   169 NAE=    22 NBE=    22 NFC=    11 NFV=     0
 NROrb=    158 NOA=    11 NOB=    11 NVA=   147 NVB=   147

 **** Warning!!: The largest alpha MO coefficient is  0.21016285D+02

 Leave Link  801 at Fri Oct  8 12:23:56 2021, MaxMem= 16106127360 cpu:               2.0 elap:               0.1
 (Enter /sw/contrib/gaussian/g16/B01/g16/l906.exe)
 Frozen-core derivative calculation, NFC=  11 NFV=   0.
 FulOut=F Deriv=T AODrv=F NAtomX=     4
   MMem=         144  MDisk=          11 MDiskD=          11
  W3Min=      736164 MinDsk=     1250177 NBas6D=         198
 NBas2D=       20187    NTT=       19701    LW2=     3500000
    MDV= 16105751214 MDiskM=      406660 NBas2p=       19980
 Fully in-core method, ICMem=   420417501.
 IMap=   1   2   3   4   5   6   7   8   9  10  11  12  13  14  15  16  17  18  19  20
 IMap=  21  22
 JobTyp=1 Pass  1 fully in-core, NPsUse= 28.
 Compute canonical integrals.
 FoFCou: FMM=F IPFlag=           0 FMFlag=           0 FMFlg1=           0
         NFxFlg=           0 DoJE=F BraDBF=F KetDBF=F FulRan=T
         wScrn=  0.000000 ICntrl=       600 IOpCl=  1 I1Cent=           0 NGrid=           0
         NMat0=    1 NMatS0=  20187 NMatT0=    0 NMatD0=    1 NMtDS0=    0 NMtDT0=    0
 Symmetry not used in FoFCou.
 Spin components of T(2) and E(2):
     alpha-alpha T2 =       0.2922038740D-01 E2=     -0.8416602060D-01
     alpha-beta  T2 =       0.1589683770D+00 E2=     -0.4983223152D+00
     beta-beta   T2 =       0.2922038740D-01 E2=     -0.8416602060D-01
 The integrals were generated   1 times.
 ANorm=    0.1103362657D+01
 E2 =    -0.6666543564D+00 EUMP2 =    -0.99519171393860D+03
 Leave Link  906 at Fri Oct  8 12:24:00 2021, MaxMem= 16106127360 cpu:             113.9 elap:               4.1
 (Enter /sw/contrib/gaussian/g16/B01/g16/l1002.exe)
 Minotr:  Closed shell wavefunction.
          Computing MP2/KS-MP2 derivatives.
          Using Z-Vector for PSCF gradient.
          Skipping F1 and S1 gradient terms here.
          Frozen-core window.
          Direct CPHF calculation.
          Differentiating once with respect to electric field.
                with respect to dipole field.
          Electric field/nuclear overlap derivatives assumed to be zero.
          Requested convergence is 1.0D-10 RMS, and 1.0D-09 maximum.
          NewPWx=F KeepS1=T KeepF1=T KeepIn=T MapXYZ=F SortEE=F KeepMc=T.
 Keep R1 ints in memory in canonical form, NReq=117123505.
 FoFCou: FMM=F IPFlag=           0 FMFlag=           0 FMFlg1=           0
         NFxFlg=           0 DoJE=F BraDBF=F KetDBF=F FulRan=T
         wScrn=  0.000000 ICntrl=       600 IOpCl=  0 I1Cent=           0 NGrid=           0
         NMat0=    1 NMatS0=  14365 NMatT0=    0 NMatD0=    1 NMtDS0=    0 NMtDT0=    0
 Symmetry not used in FoFCou.
 Two-electron integral symmetry not used.
          MDV=   16106127360 using IRadAn=       5.
          Solving linear equations separately, MaxMat=       0.
          There are     1 degrees of freedom in the 1st order CPHF.  IDoFFX=0 NUNeed=     1.
 LinEq1:  Iter=  0 NonCon=     1 RMS=3.06D-03 Max=4.67D-02 NDo=     1
 AX will form     1 AO Fock derivatives at one time.
 LinEq1:  Iter=  1 NonCon=     1 RMS=3.81D-04 Max=5.03D-03 NDo=     1
 LinEq1:  Iter=  2 NonCon=     1 RMS=1.59D-04 Max=3.26D-03 NDo=     1
 LinEq1:  Iter=  3 NonCon=     1 RMS=6.04D-05 Max=1.03D-03 NDo=     1
 LinEq1:  Iter=  4 NonCon=     1 RMS=2.54D-05 Max=6.63D-04 NDo=     1
 LinEq1:  Iter=  5 NonCon=     1 RMS=5.64D-06 Max=7.16D-05 NDo=     1
 LinEq1:  Iter=  6 NonCon=     1 RMS=1.48D-06 Max=1.66D-05 NDo=     1
 LinEq1:  Iter=  7 NonCon=     1 RMS=3.06D-07 Max=3.53D-06 NDo=     1
 LinEq1:  Iter=  8 NonCon=     1 RMS=5.10D-08 Max=7.38D-07 NDo=     1
 LinEq1:  Iter=  9 NonCon=     1 RMS=1.12D-08 Max=1.28D-07 NDo=     1
 LinEq1:  Iter= 10 NonCon=     1 RMS=2.96D-09 Max=4.08D-08 NDo=     1
 LinEq1:  Iter= 11 NonCon=     1 RMS=7.99D-10 Max=1.22D-08 NDo=     1
 LinEq1:  Iter= 12 NonCon=     1 RMS=1.93D-10 Max=3.95D-09 NDo=     1
 LinEq1:  Iter= 13 NonCon=     0 RMS=4.83D-11 Max=8.83D-10 NDo=     1
 Linear equations converged to 1.000D-10 1.000D-09 after    13 iterations.
 End of Minotr F.D. properties file   721 does not exist.
 End of Minotr F.D. properties file   722 does not exist.
 End of Minotr F.D. properties file   788 does not exist.
 Leave Link 1002 at Fri Oct  8 12:24:04 2021, MaxMem= 16106127360 cpu:              26.8 elap:               3.6
 (Enter /sw/contrib/gaussian/g16/B01/g16/l601.exe)
 Copying SCF densities to generalized density rwf, IOpCl= 0 IROHF=0.

 **********************************************************************

            Population analysis using the MP2 Density.

 **********************************************************************

 Alpha  occ. eigenvalues -- -104.72489-104.54684 -20.45070 -10.44440 -10.27173
 Alpha  occ. eigenvalues --   -7.91157  -7.90896  -7.90886  -7.73790  -7.73774
 Alpha  occ. eigenvalues --   -7.73773  -1.22311  -0.89004  -0.78657  -0.53535
 Alpha  occ. eigenvalues --   -0.43486  -0.42689  -0.30257  -0.27374  -0.20338
 Alpha  occ. eigenvalues --   -0.19497  -0.19496
 Alpha virt. eigenvalues --    0.16085   0.18583   0.22574   0.23495   0.25849
 Alpha virt. eigenvalues --    0.27332   0.27553   0.29428   0.31005   0.32594
 Alpha virt. eigenvalues --    0.33666   0.34997   0.38709   0.45088   0.46232
 Alpha virt. eigenvalues --    0.51623   0.52551   0.53879   0.56777   0.56828
 Alpha virt. eigenvalues --    0.58930   0.60042   0.60421   0.65296   0.66064
 Alpha virt. eigenvalues --    0.68418   0.68544   0.75125   0.78384   0.79230
 Alpha virt. eigenvalues --    0.83109   0.87915   0.88524   0.89978   0.90803
 Alpha virt. eigenvalues --    0.92234   0.96519   1.00481   1.05602   1.06079
 Alpha virt. eigenvalues --    1.06121   1.08807   1.09459   1.10162   1.14335
 Alpha virt. eigenvalues --    1.14772   1.16978   1.18794   1.18848   1.21401
 Alpha virt. eigenvalues --    1.22758   1.24701   1.29348   1.32335   1.32831
 Alpha virt. eigenvalues --    1.37617   1.40839   1.42739   1.43143   1.47647
 Alpha virt. eigenvalues --    1.48371   1.50113   1.54569   1.61665   1.65517
 Alpha virt. eigenvalues --    1.67399   1.68969   1.72500   1.74265   1.80373
 Alpha virt. eigenvalues --    1.81260   1.83674   1.86072   1.91427   1.94795
 Alpha virt. eigenvalues --    2.00744   2.29023   2.39354   2.51555   2.52403
 Alpha virt. eigenvalues --    2.53991   2.59382   2.59830   2.62852   2.67907
 Alpha virt. eigenvalues --    2.68936   2.70855   2.72477   2.74142   2.77287
 Alpha virt. eigenvalues --    2.77535   2.78648   2.80316   2.82380   2.89674
 Alpha virt. eigenvalues --    2.92365   2.99276   2.99817   3.05001   3.09365
 Alpha virt. eigenvalues --    3.13516   3.16029   3.19996   3.22443   3.24032
 Alpha virt. eigenvalues --    3.27994   3.30624   3.32257   3.33809   3.34025
 Alpha virt. eigenvalues --    3.40154   3.41280   3.42200   3.47968   3.51802
 Alpha virt. eigenvalues --    3.54490   3.56202   3.59682   3.70692   3.96433
 Alpha virt. eigenvalues --    4.27620   4.33332   4.48215   4.57507   4.60786
 Alpha virt. eigenvalues --    4.80454   5.01067   5.19511   5.43960   5.45232
 Alpha virt. eigenvalues --    5.71116   6.33786   6.57802   6.68737   6.86792
 Alpha virt. eigenvalues --    6.91267   6.92504   7.02091   7.31669   7.35412
 Alpha virt. eigenvalues --    7.36750   7.46306   7.56776   7.78722   7.86112
 Alpha virt. eigenvalues --    8.41731  14.93526
          Condensed to atoms (all electrons):
               1          2          3          4
     1  O    8.646310  -0.119528  -0.093912   0.052196
     2  Cl  -0.119528  17.075688   0.002796  -0.001348
     3  Cl  -0.093912   0.002796  17.870023   0.065355
     4  H    0.052196  -0.001348   0.065355   0.596859
 Mulliken charges:
               1
     1  O   -0.485066
     2  Cl   0.042391
     3  Cl  -0.844262
     4  H    0.286937
 Sum of Mulliken charges =  -1.00000
 Mulliken charges with hydrogens summed into heavy atoms:
               1
     1  O   -0.198129
     2  Cl   0.042391
     3  Cl  -0.844262
 Electronic spatial extent (au):  <R**2>=            793.4994
 Charge=             -1.0000 electrons
 Dipole moment (field-independent basis, Debye):
    X=              1.5621    Y=              9.6309    Z=             -0.0000  Tot=              9.7568
 Quadrupole moment (field-independent basis, Debye-Ang):
   XX=            -38.9191   YY=            -66.7490   ZZ=            -36.6656
   XY=             -7.6281   XZ=             -0.0000   YZ=              0.0000
 Traceless Quadrupole moment (field-independent basis, Debye-Ang):
   XX=              8.5254   YY=            -19.3044   ZZ=             10.7790
   XY=             -7.6281   XZ=             -0.0000   YZ=              0.0000
 Octapole moment (field-independent basis, Debye-Ang**2):
  XXX=            -30.4134  YYY=            227.2291  ZZZ=              0.0000  XYY=              9.5682
  XXY=             51.6724  XXZ=             -0.0000  XZZ=            -11.7176  YZZ=             46.9104
  YYZ=             -0.0000  XYZ=             -0.0000
 Hexadecapole moment (field-independent basis, Debye-Ang**3):
 XXXX=           -305.3232 YYYY=          -1076.5409 ZZZZ=            -49.7208 XXXY=            -99.7968
 XXXZ=             -0.0000 YYYX=           -153.7831 YYYZ=              0.0000 ZZZX=             -0.0000
 ZZZY=             -0.0000 XXYY=           -209.0963 XXZZ=            -63.8797 YYZZ=           -148.4579
 XXYZ=              0.0000 YYXZ=              0.0000 ZZXY=            -32.0718
 N-N= 1.222241000086D+02 E-N=-2.622257314229D+03  KE= 9.950546542714D+02
 No NMR shielding tensors so no spin-rotation constants.
 Leave Link  601 at Fri Oct  8 12:24:04 2021, MaxMem= 16106127360 cpu:               4.1 elap:               0.2
 (Enter /sw/contrib/gaussian/g16/B01/g16/l607.exe)
 ******************************Gaussian NBO Version 3.1******************************
             N A T U R A L   A T O M I C   O R B I T A L   A N D
          N A T U R A L   B O N D   O R B I T A L   A N A L Y S I S
 ******************************Gaussian NBO Version 3.1******************************
       /RESON  / : Allow strongly delocalized NBO set

 Analyzing the MP2 density

 Job title: title                                                           

 Storage needed:     86521 in NPA,    114817 in NBO (********** available)
 GSVD:  LWork=        1191 too small for GESVD, short by       52514 words or       52514 for optimal perf.


 NATURAL POPULATIONS:  Natural atomic orbital occupancies 
                                                          
   NAO  Atom  No  lang   Type(AO)    Occupancy
 --------------------------------------------
     1    O    1  S      Cor( 1S)     1.99967
     2    O    1  S      Val( 2S)     1.78484
     3    O    1  S      Ryd( 3S)     0.00973
     4    O    1  S      Ryd( 4S)     0.00111
     5    O    1  S      Ryd( 5S)     0.00018
     6    O    1  px     Val( 2p)     1.20199
     7    O    1  px     Ryd( 3p)     0.00664
     8    O    1  px     Ryd( 4p)     0.00063
     9    O    1  px     Ryd( 5p)     0.00038
    10    O    1  py     Val( 2p)     1.71704
    11    O    1  py     Ryd( 3p)     0.01226
    12    O    1  py     Ryd( 4p)     0.00077
    13    O    1  py     Ryd( 5p)     0.00042
    14    O    1  pz     Val( 2p)     1.94765
    15    O    1  pz     Ryd( 3p)     0.02011
    16    O    1  pz     Ryd( 4p)     0.00068
    17    O    1  pz     Ryd( 5p)     0.00013
    18    O    1  dxy    Ryd( 3d)     0.00860
    19    O    1  dxy    Ryd( 4d)     0.00046
    20    O    1  dxy    Ryd( 5d)     0.00015
    21    O    1  dxz    Ryd( 3d)     0.00870
    22    O    1  dxz    Ryd( 4d)     0.00056
    23    O    1  dxz    Ryd( 5d)     0.00010
    24    O    1  dyz    Ryd( 3d)     0.00750
    25    O    1  dyz    Ryd( 4d)     0.00061
    26    O    1  dyz    Ryd( 5d)     0.00039
    27    O    1  dx2y2  Ryd( 3d)     0.01361
    28    O    1  dx2y2  Ryd( 4d)     0.00036
    29    O    1  dx2y2  Ryd( 5d)     0.00017
    30    O    1  dz2    Ryd( 3d)     0.00973
    31    O    1  dz2    Ryd( 4d)     0.00056
    32    O    1  dz2    Ryd( 5d)     0.00015
    33    O    1  f(0)   Ryd( 4f)     0.00070
    34    O    1  f(0)   Ryd( 5f)     0.00010
    35    O    1  f(C1)  Ryd( 4f)     0.00067
    36    O    1  f(C1)  Ryd( 5f)     0.00011
    37    O    1  f(S1)  Ryd( 4f)     0.00058
    38    O    1  f(S1)  Ryd( 5f)     0.00011
    39    O    1  f(C2)  Ryd( 4f)     0.00059
    40    O    1  f(C2)  Ryd( 5f)     0.00013
    41    O    1  f(S2)  Ryd( 4f)     0.00054
    42    O    1  f(S2)  Ryd( 5f)     0.00012
    43    O    1  f(C3)  Ryd( 4f)     0.00058
    44    O    1  f(C3)  Ryd( 5f)     0.00014
    45    O    1  f(S3)  Ryd( 4f)     0.00054
    46    O    1  f(S3)  Ryd( 5f)     0.00013

    47   Cl    2  S      Cor( 1S)     2.00000
    48   Cl    2  S      Cor( 2S)     1.99979
    49   Cl    2  S      Val( 3S)     1.88123
    50   Cl    2  S      Ryd( 4S)     0.00809
    51   Cl    2  S      Ryd( 5S)     0.00053
    52   Cl    2  S      Ryd( 6S)     0.00016
    53   Cl    2  px     Cor( 2p)     1.99996
    54   Cl    2  px     Val( 3p)     0.91314
    55   Cl    2  px     Ryd( 4p)     0.00664
    56   Cl    2  px     Ryd( 5p)     0.00052
    57   Cl    2  px     Ryd( 6p)     0.00020
    58   Cl    2  py     Cor( 2p)     2.00003
    59   Cl    2  py     Val( 3p)     1.95328
    60   Cl    2  py     Ryd( 4p)     0.00991
    61   Cl    2  py     Ryd( 5p)     0.00052
    62   Cl    2  py     Ryd( 6p)     0.00008
    63   Cl    2  pz     Cor( 2p)     2.00003
    64   Cl    2  pz     Val( 3p)     1.95437
    65   Cl    2  pz     Ryd( 4p)     0.01073
    66   Cl    2  pz     Ryd( 5p)     0.00069
    67   Cl    2  pz     Ryd( 6p)     0.00002
    68   Cl    2  dxy    Ryd( 3d)     0.01689
    69   Cl    2  dxy    Ryd( 4d)     0.00089
    70   Cl    2  dxy    Ryd( 5d)     0.00034
    71   Cl    2  dxz    Ryd( 3d)     0.02179
    72   Cl    2  dxz    Ryd( 4d)     0.00116
    73   Cl    2  dxz    Ryd( 5d)     0.00036
    74   Cl    2  dyz    Ryd( 3d)     0.01680
    75   Cl    2  dyz    Ryd( 4d)     0.00072
    76   Cl    2  dyz    Ryd( 5d)     0.00020
    77   Cl    2  dx2y2  Ryd( 3d)     0.01856
    78   Cl    2  dx2y2  Ryd( 4d)     0.00047
    79   Cl    2  dx2y2  Ryd( 5d)     0.00017
    80   Cl    2  dz2    Ryd( 3d)     0.01753
    81   Cl    2  dz2    Ryd( 4d)     0.00059
    82   Cl    2  dz2    Ryd( 5d)     0.00017
    83   Cl    2  f(0)   Ryd( 4f)     0.00131
    84   Cl    2  f(0)   Ryd( 5f)     0.00014
    85   Cl    2  f(C1)  Ryd( 4f)     0.00144
    86   Cl    2  f(C1)  Ryd( 5f)     0.00014
    87   Cl    2  f(S1)  Ryd( 4f)     0.00127
    88   Cl    2  f(S1)  Ryd( 5f)     0.00013
    89   Cl    2  f(C2)  Ryd( 4f)     0.00135
    90   Cl    2  f(C2)  Ryd( 5f)     0.00013
    91   Cl    2  f(S2)  Ryd( 4f)     0.00120
    92   Cl    2  f(S2)  Ryd( 5f)     0.00013
    93   Cl    2  f(C3)  Ryd( 4f)     0.00156
    94   Cl    2  f(C3)  Ryd( 5f)     0.00013
    95   Cl    2  f(S3)  Ryd( 4f)     0.00127
    96   Cl    2  f(S3)  Ryd( 5f)     0.00014

    97   Cl    3  S      Cor( 1S)     2.00000
    98   Cl    3  S      Cor( 2S)     1.99996
    99   Cl    3  S      Val( 3S)     1.96341
   100   Cl    3  S      Ryd( 4S)     0.00165
   101   Cl    3  S      Ryd( 5S)     0.00022
   102   Cl    3  S      Ryd( 6S)     0.00010
   103   Cl    3  px     Cor( 2p)     2.00003
   104   Cl    3  px     Val( 3p)     1.94654
   105   Cl    3  px     Ryd( 4p)     0.01230
   106   Cl    3  px     Ryd( 5p)     0.00056
   107   Cl    3  px     Ryd( 6p)     0.00007
   108   Cl    3  py     Cor( 2p)     2.00002
   109   Cl    3  py     Val( 3p)     1.85815
   110   Cl    3  py     Ryd( 4p)     0.01038
   111   Cl    3  py     Ryd( 5p)     0.00052
   112   Cl    3  py     Ryd( 6p)     0.00008
   113   Cl    3  pz     Cor( 2p)     2.00003
   114   Cl    3  pz     Val( 3p)     1.95228
   115   Cl    3  pz     Ryd( 4p)     0.01250
   116   Cl    3  pz     Ryd( 5p)     0.00057
   117   Cl    3  pz     Ryd( 6p)     0.00005
   118   Cl    3  dxy    Ryd( 3d)     0.01851
   119   Cl    3  dxy    Ryd( 4d)     0.00068
   120   Cl    3  dxy    Ryd( 5d)     0.00012
   121   Cl    3  dxz    Ryd( 3d)     0.01826
   122   Cl    3  dxz    Ryd( 4d)     0.00095
   123   Cl    3  dxz    Ryd( 5d)     0.00013
   124   Cl    3  dyz    Ryd( 3d)     0.01858
   125   Cl    3  dyz    Ryd( 4d)     0.00070
   126   Cl    3  dyz    Ryd( 5d)     0.00012
   127   Cl    3  dx2y2  Ryd( 3d)     0.01836
   128   Cl    3  dx2y2  Ryd( 4d)     0.00080
   129   Cl    3  dx2y2  Ryd( 5d)     0.00013
   130   Cl    3  dz2    Ryd( 3d)     0.01828
   131   Cl    3  dz2    Ryd( 4d)     0.00092
   132   Cl    3  dz2    Ryd( 5d)     0.00011
   133   Cl    3  f(0)   Ryd( 4f)     0.00128
   134   Cl    3  f(0)   Ryd( 5f)     0.00016
   135   Cl    3  f(C1)  Ryd( 4f)     0.00128
   136   Cl    3  f(C1)  Ryd( 5f)     0.00014
   137   Cl    3  f(S1)  Ryd( 4f)     0.00130
   138   Cl    3  f(S1)  Ryd( 5f)     0.00017
   139   Cl    3  f(C2)  Ryd( 4f)     0.00127
   140   Cl    3  f(C2)  Ryd( 5f)     0.00016
   141   Cl    3  f(S2)  Ryd( 4f)     0.00129
   142   Cl    3  f(S2)  Ryd( 5f)     0.00015
   143   Cl    3  f(C3)  Ryd( 4f)     0.00127
   144   Cl    3  f(C3)  Ryd( 5f)     0.00017
   145   Cl    3  f(S3)  Ryd( 4f)     0.00128
   146   Cl    3  f(S3)  Ryd( 5f)     0.00017

   147    H    4  S      Val( 1S)     0.49817
   148    H    4  S      Ryd( 2S)     0.00839
   149    H    4  S      Ryd( 3S)     0.00024
   150    H    4  S      Ryd( 4S)     0.00018
   151    H    4  px     Ryd( 2p)     0.00408
   152    H    4  px     Ryd( 3p)     0.00052
   153    H    4  px     Ryd( 4p)     0.00012
   154    H    4  py     Ryd( 2p)     0.00528
   155    H    4  py     Ryd( 3p)     0.00101
   156    H    4  py     Ryd( 4p)     0.00031
   157    H    4  pz     Ryd( 2p)     0.00527
   158    H    4  pz     Ryd( 3p)     0.00037
   159    H    4  pz     Ryd( 4p)     0.00028
   160    H    4  dxy    Ryd( 3d)     0.00025
   161    H    4  dxy    Ryd( 4d)     0.00012
   162    H    4  dxz    Ryd( 3d)     0.00022
   163    H    4  dxz    Ryd( 4d)     0.00007
   164    H    4  dyz    Ryd( 3d)     0.00041
   165    H    4  dyz    Ryd( 4d)     0.00011
   166    H    4  dx2y2  Ryd( 3d)     0.00020
   167    H    4  dx2y2  Ryd( 4d)     0.00012
   168    H    4  dz2    Ryd( 3d)     0.00024
   169    H    4  dz2    Ryd( 4d)     0.00009


 Summary of Natural Population Analysis:                  
                                                          
                                       Natural Population 
                Natural  -----------------------------------------------
    Atom  No    Charge         Core      Valence    Rydberg      Total
 -----------------------------------------------------------------------
      O    1   -0.76090      1.99967     6.65152    0.10970     8.76090
     Cl    2    0.15308      9.99981     6.70201    0.14509    16.84692
     Cl    3   -0.86614     10.00003     7.72038    0.14573    17.86614
      H    4    0.47395      0.00000     0.49817    0.02788     0.52605
 =======================================================================
   * Total *   -1.00000     21.99952    21.57208    0.42840    44.00000

                                 Natural Population      
 --------------------------------------------------------
   Core                      21.99952 ( 99.9978% of  22)
   Valence                   21.57208 ( 98.0549% of  22)
   Natural Minimal Basis     43.57160 ( 99.0264% of  44)
   Natural Rydberg Basis      0.42840 (  0.9736% of  44)
 --------------------------------------------------------

    Atom  No          Natural Electron Configuration
 ----------------------------------------------------------------------------
      O    1      [core]2S( 1.78)2p( 4.87)3S( 0.01)3p( 0.04)3d( 0.05)
     Cl    2      [core]3S( 1.88)3p( 4.82)4S( 0.01)3d( 0.09)4p( 0.03)4f( 0.01)
     Cl    3      [core]3S( 1.96)3p( 5.76)3d( 0.09)4p( 0.04)4f( 0.01)
      H    4            1S( 0.50)2S( 0.01)2p( 0.01)


 NATURAL BOND ORBITAL ANALYSIS:
 Warning:  a bond orbital has occupanc of -0.00001
 Warning:  a bond orbital has occupanc of -0.00000

                       Occupancies       Lewis Structure    Low   High
           Occ.    -------------------  -----------------   occ   occ
  Cycle   Thresh.   Lewis   Non-Lewis     CR  BD  3C  LP    (L)   (NL)   Dev
 =============================================================================
   1(1)    1.90    43.43040   0.56960     11   2   0   9     1      1    0.16
 Warning:  a bond orbital has occupanc of -0.00001
 Warning:  a bond orbital has occupanc of -0.00000
   2(2)    1.90    43.16857   0.83143     11   2   0   9     1      1    0.55
 Warning:  a bond orbital has occupanc of -0.00001
 Warning:  a bond orbital has occupanc of -0.00000
   3(3)    1.90    43.43040   0.56960     11   2   0   9     1      1    0.16
 Warning:  a bond orbital has occupanc of -0.00001
 Warning:  a bond orbital has occupanc of -0.00000
   4(1)    1.80    43.43040   0.56960     11   2   0   9     0      1    0.16
 Warning:  a bond orbital has occupanc of -0.00001
 Warning:  a bond orbital has occupanc of -0.00000
   5(2)    1.80    43.43040   0.56960     11   2   0   9     0      1    0.16
 Warning:  a bond orbital has occupanc of -0.00001
 Warning:  a bond orbital has occupanc of -0.00000
   6(1)    1.70    43.43040   0.56960     11   2   0   9     0      1    0.16
 Warning:  a bond orbital has occupanc of -0.00001
 Warning:  a bond orbital has occupanc of -0.00000
   7(2)    1.70    43.43040   0.56960     11   2   0   9     0      1    0.16
 Warning:  a bond orbital has occupanc of -0.00001
 Warning:  a bond orbital has occupanc of -0.00000
   8(1)    1.60    43.06375   0.93625     11   1   0  10     0      1    0.55
 Warning:  a bond orbital has occupanc of -0.00001
 Warning:  a bond orbital has occupanc of -0.00000
   9(2)    1.60    43.06375   0.93625     11   1   0  10     0      1    0.55
 Warning:  a bond orbital has occupanc of -0.00001
 Warning:  a bond orbital has occupanc of -0.00000
  10(1)    1.50    43.06375   0.93625     11   1   0  10     0      1    0.55
 Warning:  a bond orbital has occupanc of -0.00001
 Warning:  a bond orbital has occupanc of -0.00000
  11(2)    1.50    43.06375   0.93625     11   1   0  10     0      1    0.55
 Warning:  a bond orbital has occupanc of -0.00001
 Warning:  a bond orbital has occupanc of -0.00000
  12(1)    1.90    43.43040   0.56960     11   2   0   9     1      1    0.16
 -----------------------------------------------------------------------------

 Structure accepted: RESONANCE keyword permits strongly delocalized structure

 --------------------------------------------------------
   Core                     21.99952 ( 99.998% of  22)
   Valence Lewis            21.43089 ( 97.413% of  22)
  ==================       ============================
   Total Lewis              43.43040 ( 98.705% of  44)
  -----------------------------------------------------
   Valence non-Lewis         0.18774 (  0.427% of  44)
   Rydberg non-Lewis         0.38185 (  0.868% of  44)
  ==================       ============================
   Total non-Lewis           0.56960 (  1.295% of  44)
 --------------------------------------------------------


       (Occupancy)   Bond orbital/ Coefficients/ Hybrids
 ---------------------------------------------------------------------------------
     1. (1.93975) BD ( 1) O   1 -Cl   2  
                ( 58.64%)   0.7658* O   1 s( 10.62%)p 8.37( 88.85%)d 0.05(  0.52%)
                                                  f 0.00(  0.02%)
                                            0.0003  0.3224 -0.0446 -0.0151 -0.0006
                                            0.9411 -0.0319 -0.0106 -0.0117 -0.0267
                                           -0.0286 -0.0051  0.0002  0.0000  0.0000
                                            0.0000  0.0000 -0.0213 -0.0013  0.0028
                                            0.0000  0.0000  0.0000  0.0000  0.0000
                                            0.0000  0.0536  0.0047  0.0026 -0.0425
                                           -0.0035  0.0006  0.0000  0.0000 -0.0113
                                            0.0012 -0.0003  0.0002  0.0000  0.0000
                                            0.0000  0.0000  0.0060  0.0008 -0.0006
                                            0.0021
                ( 41.36%)   0.6431*Cl   2 s(  8.68%)p10.38( 90.06%)d 0.13(  1.15%)
                                                  f 0.01(  0.11%)
                                           -0.0000  0.0005  0.2888 -0.0573 -0.0103
                                            0.0022 -0.0004 -0.9465  0.0660  0.0140
                                           -0.0046 -0.0000 -0.0107 -0.0014  0.0027
                                           -0.0009  0.0000  0.0000  0.0000  0.0000
                                            0.0000  0.0125  0.0000  0.0008  0.0000
                                            0.0000  0.0000  0.0000  0.0000  0.0000
                                            0.0892 -0.0109 -0.0003 -0.0565  0.0063
                                            0.0009  0.0000  0.0000  0.0209 -0.0031
                                            0.0005 -0.0002  0.0000  0.0000  0.0000
                                            0.0000 -0.0255  0.0030 -0.0014  0.0002
     2. (1.96540) BD ( 1) O   1 - H   4  
                ( 79.98%)   0.8943* O   1 s( 30.17%)p 2.30( 69.35%)d 0.02(  0.47%)
                                                  f 0.00(  0.01%)
                                           -0.0003 -0.5492  0.0042  0.0080 -0.0025
                                            0.2087 -0.0160 -0.0027 -0.0036  0.8060
                                           -0.0053 -0.0068 -0.0038  0.0000  0.0000
                                            0.0000  0.0000 -0.0001  0.0025  0.0001
                                            0.0000  0.0000  0.0000  0.0000  0.0000
                                            0.0000  0.0583  0.0058  0.0018  0.0355
                                            0.0013 -0.0033  0.0000  0.0000 -0.0017
                                           -0.0006 -0.0086 -0.0003  0.0000  0.0000
                                            0.0000  0.0000 -0.0020 -0.0024  0.0005
                                           -0.0020
                ( 20.02%)   0.4474* H   4 s( 99.82%)p 0.00(  0.17%)d 0.00(  0.00%)
                                           -0.9982 -0.0434 -0.0031  0.0022 -0.0098
                                           -0.0097 -0.0022  0.0191 -0.0326  0.0107
                                            0.0000  0.0000  0.0000  0.0006  0.0018
                                            0.0000  0.0000  0.0000  0.0000  0.0018
                                            0.0011 -0.0006  0.0038
     3. (1.99967) CR ( 1) O   1           s(100.00%)p 0.00(  0.00%)
                                            1.0000 -0.0004  0.0000  0.0000 -0.0000
                                           -0.0002  0.0000  0.0000  0.0000  0.0001
                                            0.0000 -0.0000 -0.0000  0.0000  0.0000
                                            0.0000  0.0000  0.0000  0.0000 -0.0000
                                            0.0000  0.0000  0.0000  0.0000  0.0000
                                            0.0000 -0.0000  0.0000  0.0000  0.0000
                                            0.0000 -0.0000  0.0000  0.0000  0.0000
                                           -0.0000 -0.0000 -0.0000  0.0000  0.0000
                                            0.0000  0.0000 -0.0000 -0.0000 -0.0000
                                           -0.0000
     4. (2.00000) CR ( 1)Cl   2           s(100.00%)
                                            1.0000  0.0000  0.0000 -0.0000 -0.0000
                                            0.0000 -0.0000 -0.0000  0.0000  0.0000
                                           -0.0000 -0.0000 -0.0000 -0.0000  0.0000
                                           -0.0000  0.0000  0.0000  0.0000  0.0000
                                            0.0000  0.0000 -0.0000  0.0000  0.0000
                                            0.0000  0.0000  0.0000  0.0000  0.0000
                                            0.0000 -0.0000 -0.0000 -0.0000  0.0000
                                            0.0000  0.0000  0.0000  0.0000 -0.0000
                                            0.0000 -0.0000  0.0000  0.0000  0.0000
                                            0.0000 -0.0000  0.0000 -0.0000  0.0000
     5. (1.99980) CR ( 2)Cl   2           s(100.00%)p 0.00(  0.00%)
                                            0.0000  1.0000 -0.0004  0.0000  0.0000
                                           -0.0000  0.0000  0.0004 -0.0000 -0.0000
                                            0.0000  0.0000  0.0000  0.0000 -0.0000
                                            0.0000  0.0000  0.0000  0.0000  0.0000
                                            0.0000 -0.0000  0.0000 -0.0000  0.0000
                                            0.0000  0.0000  0.0000  0.0000  0.0000
                                           -0.0000  0.0000  0.0000  0.0000 -0.0000
                                           -0.0000  0.0000  0.0000 -0.0000  0.0000
                                           -0.0000  0.0000  0.0000  0.0000  0.0000
                                            0.0000  0.0000 -0.0000  0.0000 -0.0000
     6. (1.99996) CR ( 3)Cl   2           s(  0.00%)p 1.00(100.00%)
                                           -0.0000  0.0000  0.0001 -0.0000 -0.0000
                                            0.0000  1.0000 -0.0004  0.0000  0.0000
                                           -0.0000  0.0000 -0.0000 -0.0000  0.0000
                                           -0.0000  0.0000  0.0000  0.0000  0.0000
                                            0.0000  0.0000 -0.0000  0.0000  0.0000
                                            0.0000  0.0000  0.0000  0.0000  0.0000
                                            0.0000 -0.0000 -0.0000 -0.0000  0.0000
                                            0.0000  0.0000  0.0000  0.0000 -0.0000
                                            0.0000 -0.0000  0.0000  0.0000  0.0000
                                            0.0000 -0.0000  0.0000 -0.0000  0.0000
     7. (2.00003) CR ( 4)Cl   2           s(  0.00%)p 1.00(100.00%)
                                           -0.0000  0.0000  0.0000  0.0000  0.0000
                                            0.0000  0.0000 -0.0000  0.0000  0.0000
                                           -0.0000  1.0000  0.0002  0.0000  0.0000
                                            0.0000  0.0000  0.0000  0.0000  0.0000
                                            0.0000  0.0000  0.0000  0.0000  0.0000
                                            0.0000  0.0000  0.0000  0.0000  0.0000
                                           -0.0000 -0.0000 -0.0000 -0.0000 -0.0000
                                           -0.0000  0.0000  0.0000  0.0000  0.0000
                                           -0.0000  0.0000  0.0000  0.0000  0.0000
                                            0.0000 -0.0000  0.0000  0.0000 -0.0000
     8. (2.00003) CR ( 5)Cl   2           s(  0.00%)p 1.00(100.00%)
                                            0.0000  0.0000  0.0000  0.0000  0.0000
                                            0.0000  0.0000  0.0000  0.0000  0.0000
                                            0.0000  0.0000  0.0000  0.0000  0.0000
                                            0.0000  1.0000  0.0002  0.0000  0.0000
                                           -0.0000  0.0000  0.0000  0.0000  0.0000
                                            0.0000  0.0000  0.0000  0.0000  0.0000
                                            0.0000  0.0000  0.0000  0.0000  0.0000
                                            0.0000 -0.0000  0.0000  0.0000  0.0000
                                            0.0000  0.0000  0.0000 -0.0000  0.0000
                                           -0.0000  0.0000  0.0000  0.0000  0.0000
     9. (2.00000) CR ( 1)Cl   3           s(100.00%)
                                            1.0000  0.0000  0.0000 -0.0000  0.0000
                                           -0.0000  0.0000 -0.0000  0.0000 -0.0000
                                            0.0000  0.0000 -0.0000  0.0000 -0.0000
                                            0.0000  0.0000  0.0000  0.0000  0.0000
                                            0.0000 -0.0000 -0.0000 -0.0000  0.0000
                                            0.0000  0.0000  0.0000  0.0000  0.0000
                                            0.0000 -0.0000  0.0000  0.0000  0.0000
                                            0.0000  0.0000  0.0000  0.0000  0.0000
                                           -0.0000 -0.0000  0.0000  0.0000  0.0000
                                            0.0000  0.0000  0.0000 -0.0000 -0.0000
    10. (1.99996) CR ( 2)Cl   3           s(100.00%)
                                            0.0000  1.0000 -0.0001  0.0000 -0.0000
                                            0.0000 -0.0000  0.0000 -0.0000  0.0000
                                           -0.0000 -0.0000  0.0000 -0.0000  0.0000
                                           -0.0000  0.0000  0.0000  0.0000  0.0000
                                            0.0000  0.0000  0.0000  0.0000  0.0000
                                            0.0000  0.0000  0.0000  0.0000  0.0000
                                           -0.0000  0.0000 -0.0000 -0.0000 -0.0000
                                           -0.0000  0.0000  0.0000 -0.0000 -0.0000
                                            0.0000  0.0000  0.0000  0.0000  0.0000
                                            0.0000  0.0000  0.0000  0.0000  0.0000
    11. (2.00003) CR ( 3)Cl   3           s(  0.00%)p 1.00(100.00%)
                                            0.0000 -0.0000 -0.0000  0.0000 -0.0000
                                            0.0000  1.0000  0.0000  0.0000  0.0000
                                           -0.0000  0.0000 -0.0000 -0.0000 -0.0000
                                            0.0000  0.0000  0.0000  0.0000  0.0000
                                            0.0000  0.0000  0.0000 -0.0000  0.0000
                                            0.0000  0.0000  0.0000  0.0000  0.0000
                                            0.0000  0.0000 -0.0000  0.0000  0.0000
                                            0.0000  0.0000  0.0000 -0.0000 -0.0000
                                            0.0000  0.0000  0.0000  0.0000  0.0000
                                            0.0000 -0.0000 -0.0000  0.0000  0.0000
    12. (2.00002) CR ( 4)Cl   3           s(  0.00%)p 1.00(100.00%)
                                            0.0000 -0.0000 -0.0000 -0.0000 -0.0000
                                           -0.0000  0.0000 -0.0000 -0.0000 -0.0000
                                            0.0000  1.0000  0.0000 -0.0000  0.0000
                                           -0.0000  0.0000  0.0000  0.0000  0.0000
                                            0.0000 -0.0000 -0.0000  0.0000  0.0000
                                            0.0000  0.0000  0.0000  0.0000  0.0000
                                           -0.0000  0.0000  0.0000 -0.0000 -0.0000
                                           -0.0000  0.0000  0.0000  0.0000  0.0000
                                           -0.0000  0.0000  0.0000  0.0000  0.0000
                                            0.0000  0.0000  0.0000 -0.0000 -0.0000
    13. (2.00003) CR ( 5)Cl   3           s(  0.00%)p 1.00(100.00%)
                                            0.0000  0.0000  0.0000  0.0000  0.0000
                                            0.0000  0.0000  0.0000  0.0000  0.0000
                                            0.0000  0.0000  0.0000  0.0000  0.0000
                                            0.0000  1.0000  0.0000  0.0000  0.0000
                                           -0.0000  0.0000  0.0000  0.0000  0.0000
                                            0.0000 -0.0000  0.0000  0.0000 -0.0000
                                            0.0000  0.0000  0.0000  0.0000  0.0000
                                            0.0000 -0.0000 -0.0000  0.0000  0.0000
                                            0.0000  0.0000 -0.0000 -0.0000  0.0000
                                            0.0000  0.0000  0.0000  0.0000  0.0000
    14. (1.96602) LP ( 1) O   1           s( 59.37%)p 0.68( 40.53%)d 0.00(  0.09%)
                                                  f 0.00(  0.00%)
                                            0.0002  0.7704  0.0114  0.0086 -0.0017
                                           -0.2463 -0.0027 -0.0041 -0.0022  0.5869
                                            0.0086  0.0059  0.0019  0.0000  0.0000
                                            0.0000  0.0000  0.0226  0.0021 -0.0037
                                            0.0000  0.0000  0.0000  0.0000  0.0000
                                            0.0000  0.0160 -0.0001 -0.0044  0.0120
                                            0.0005  0.0005  0.0000  0.0000  0.0000
                                            0.0005 -0.0028  0.0001  0.0000  0.0000
                                            0.0000  0.0000  0.0034 -0.0023  0.0039
                                           -0.0018
    15. (1.95226) LP ( 2) O   1           s(  0.00%)p 1.00( 99.81%)d 0.00(  0.18%)
                                                  f 0.00(  0.01%)
                                            0.0000  0.0000  0.0000  0.0000  0.0000
                                            0.0000  0.0000  0.0000  0.0000  0.0000
                                            0.0000  0.0000  0.0000  0.9988  0.0192
                                            0.0061  0.0070  0.0000  0.0000  0.0000
                                            0.0306  0.0051 -0.0007 -0.0254  0.0046
                                            0.0123  0.0000  0.0000  0.0000  0.0000
                                            0.0000  0.0000 -0.0100  0.0004  0.0000
                                            0.0000  0.0000  0.0000  0.0051 -0.0024
                                            0.0008  0.0013  0.0000  0.0000  0.0000
                                            0.0000
    16. (1.97412) LP ( 1)Cl   2           s( 91.52%)p 0.09(  8.45%)d 0.00(  0.02%)
                                                  f 0.00(  0.00%)
                                            0.0000  0.0003  0.9567  0.0068  0.0012
                                           -0.0003  0.0000  0.2895 -0.0063 -0.0031
                                            0.0013  0.0000 -0.0263  0.0014  0.0001
                                           -0.0004  0.0000  0.0000  0.0000  0.0000
                                            0.0000 -0.0001 -0.0005 -0.0004  0.0000
                                            0.0000  0.0000  0.0000  0.0000  0.0000
                                           -0.0122  0.0005  0.0001  0.0078  0.0005
                                            0.0004  0.0000  0.0000 -0.0021 -0.0004
                                            0.0001 -0.0000  0.0000  0.0000  0.0000
                                            0.0000  0.0034 -0.0000 -0.0005  0.0003
    17. (1.95604) LP ( 2)Cl   2           s(  0.00%)p 1.00( 99.94%)d 0.00(  0.05%)
                                                  f 0.00(  0.01%)
                                            0.0000  0.0000  0.0000  0.0000  0.0000
                                            0.0000  0.0000  0.0000  0.0000  0.0000
                                            0.0000  0.0000  0.0000  0.0000  0.0000
                                            0.0000 -0.0002  0.9996  0.0157  0.0052
                                           -0.0023  0.0000  0.0000  0.0000  0.0088
                                            0.0183  0.0083  0.0037  0.0030  0.0007
                                            0.0000  0.0000  0.0000  0.0000  0.0000
                                            0.0000 -0.0054  0.0010  0.0000  0.0000
                                            0.0000  0.0000  0.0066 -0.0011  0.0008
                                           -0.0007  0.0000  0.0000  0.0000  0.0000
    18. (1.95484) LP ( 3)Cl   2           s(  0.09%)p99.99( 99.86%)d 0.48(  0.04%)
                                                  f 0.10(  0.01%)
                                            0.0000 -0.0000  0.0285  0.0062  0.0037
                                            0.0017  0.0000 -0.0037 -0.0005 -0.0002
                                           -0.0008 -0.0002  0.9992  0.0132  0.0015
                                            0.0001  0.0000  0.0000  0.0000  0.0000
                                            0.0000  0.0001  0.0158  0.0079  0.0000
                                            0.0000  0.0000  0.0000  0.0000  0.0000
                                           -0.0078 -0.0048 -0.0028 -0.0009 -0.0028
                                           -0.0004  0.0000  0.0000  0.0002  0.0002
                                           -0.0023  0.0001  0.0000  0.0000  0.0000
                                            0.0000 -0.0012  0.0002  0.0086 -0.0015
    19. (1.97699) LP ( 1)Cl   3           s( 90.11%)p 0.11(  9.89%)d 0.00(  0.00%)
                                                  f 0.00(  0.00%)
                                           -0.0000  0.0001  0.9493 -0.0004  0.0008
                                           -0.0003  0.0000 -0.0806  0.0003 -0.0003
                                           -0.0000  0.0000 -0.3040  0.0020 -0.0007
                                            0.0002  0.0000  0.0000  0.0000  0.0000
                                            0.0000 -0.0005 -0.0000 -0.0003  0.0000
                                            0.0000  0.0000  0.0000  0.0000  0.0000
                                            0.0008 -0.0001  0.0004  0.0007  0.0000
                                            0.0004  0.0000  0.0000 -0.0000  0.0000
                                           -0.0002 -0.0001  0.0000  0.0000  0.0000
                                            0.0000 -0.0001 -0.0001 -0.0002 -0.0001
    20. (1.95258) LP ( 2)Cl   3           s(  0.00%)p 1.00( 99.99%)d 0.00(  0.01%)
                                                  f 0.00(  0.00%)
                                            0.0000  0.0000  0.0000  0.0000  0.0000
                                            0.0000  0.0000  0.0000  0.0000  0.0000
                                            0.0000  0.0000  0.0000  0.0000  0.0000
                                            0.0000 -0.0000  0.9999  0.0030  0.0017
                                           -0.0006  0.0000  0.0000  0.0000  0.0024
                                            0.0003 -0.0003  0.0106  0.0018 -0.0010
                                            0.0000  0.0000  0.0000  0.0000  0.0000
                                            0.0000 -0.0023 -0.0013  0.0000  0.0000
                                            0.0000  0.0000 -0.0025 -0.0013  0.0013
                                            0.0008  0.0000  0.0000  0.0000  0.0000
    21. (1.95219) LP ( 3)Cl   3           s(  0.01%)p 1.00( 99.98%)d 0.00(  0.01%)
                                                  f 0.00(  0.00%)
                                            0.0000 -0.0000  0.0075  0.0005 -0.0002
                                            0.0004 -0.0000  0.9720  0.0030  0.0014
                                           -0.0005  0.0000 -0.2345 -0.0006 -0.0004
                                            0.0002  0.0000  0.0000  0.0000  0.0000
                                            0.0000  0.0106  0.0016 -0.0010  0.0000
                                            0.0000  0.0000  0.0000  0.0000  0.0000
                                            0.0045  0.0001 -0.0010  0.0001  0.0000
                                            0.0000  0.0000  0.0000 -0.0010 -0.0005
                                            0.0001  0.0001  0.0000  0.0000  0.0000
                                            0.0000 -0.0027 -0.0013  0.0021  0.0011
    22. (1.84070) LP ( 4)Cl   3           s(  9.88%)p 9.11( 90.05%)d 0.01(  0.07%)
                                                  f 0.00(  0.01%)
                                           -0.0000 -0.0000  0.3143  0.0012 -0.0026
                                            0.0010  0.0000  0.2203 -0.0011 -0.0005
                                            0.0002 -0.0000  0.9230 -0.0060 -0.0038
                                            0.0013  0.0000  0.0000  0.0000  0.0000
                                            0.0000  0.0099  0.0020  0.0000  0.0000
                                            0.0000  0.0000  0.0000  0.0000  0.0000
                                           -0.0194 -0.0032  0.0009 -0.0135 -0.0028
                                           -0.0002  0.0000  0.0000 -0.0010 -0.0006
                                           -0.0042 -0.0020  0.0000  0.0000  0.0000
                                            0.0000 -0.0034 -0.0014 -0.0039 -0.0014
    23. (0.01960) RY*( 1) O   1           s(  0.00%)p 1.00( 98.80%)d 0.01(  1.15%)
                                                  f 0.00(  0.05%)
                                            0.0000  0.0000  0.0000  0.0000  0.0000
                                            0.0000  0.0000  0.0000  0.0000  0.0000
                                            0.0000  0.0000  0.0000 -0.0234  0.9929
                                           -0.0371 -0.0153  0.0000  0.0000  0.0000
                                            0.0823  0.0279  0.0096 -0.0589  0.0038
                                            0.0184  0.0000  0.0000  0.0000  0.0000
                                            0.0000  0.0000 -0.0110  0.0100  0.0000
                                            0.0000  0.0000  0.0000  0.0126 -0.0111
                                           -0.0031  0.0016  0.0000  0.0000  0.0000
                                            0.0000
    24. (0.01608) RY*( 2) O   1           s( 29.26%)p 2.35( 68.74%)d 0.06(  1.82%)
                                                  f 0.01(  0.19%)
                                           -0.0000  0.0027  0.5395 -0.0380 -0.0072
                                            0.0386 -0.3377 -0.0040  0.0227 -0.0163
                                            0.7539 -0.0040 -0.0510  0.0000  0.0000
                                            0.0000  0.0000  0.1215  0.0252  0.0072
                                            0.0000  0.0000  0.0000  0.0000  0.0000
                                            0.0000  0.0224  0.0043  0.0019  0.0462
                                            0.0017 -0.0075  0.0000  0.0000 -0.0044
                                            0.0009  0.0042  0.0015  0.0000  0.0000
                                            0.0000  0.0000  0.0317 -0.0143  0.0226
                                           -0.0120
    25. (0.00795) RY*( 3) O   1           s( 18.05%)p 0.59( 10.65%)d 3.89( 70.14%)
                                                  f 0.06(  1.17%)
                                           -0.0000  0.0168  0.4190 -0.0665  0.0128
                                           -0.0182 -0.1669  0.0093  0.0374 -0.0102
                                           -0.2657  0.0308 -0.0716 -0.0000 -0.0000
                                           -0.0000 -0.0000 -0.7973 -0.0123 -0.0258
                                           -0.0000 -0.0000 -0.0000 -0.0000 -0.0000
                                           -0.0000  0.1530  0.0054  0.0270  0.2014
                                           -0.0108  0.0042 -0.0000 -0.0000 -0.0241
                                            0.0154  0.0043  0.0019 -0.0000 -0.0000
                                           -0.0000 -0.0000 -0.0411  0.0163 -0.0861
                                            0.0387
    26. (0.00703) RY*( 4) O   1           s(  0.00%)p 1.00(  0.39%)d99.99( 97.92%)
                                                  f 4.40(  1.70%)
                                            0.0000  0.0000  0.0000  0.0000  0.0000
                                            0.0000  0.0000  0.0000  0.0000  0.0000
                                            0.0000  0.0000  0.0000 -0.0187 -0.0577
                                           -0.0119 -0.0066  0.0000  0.0000  0.0000
                                            0.9205 -0.0381  0.0177  0.3601 -0.0202
                                            0.0080  0.0000  0.0000  0.0000  0.0000
                                            0.0000  0.0000 -0.0372  0.0163  0.0000
                                            0.0000  0.0000  0.0000  0.1109 -0.0498
                                           -0.0214  0.0103  0.0000  0.0000  0.0000
                                            0.0000
    27. (0.00632) RY*( 5) O   1           s(  1.78%)p12.23( 21.75%)d42.00( 74.72%)
                                                  f 0.98(  1.75%)
                                           -0.0000  0.0060  0.1249 -0.0455 -0.0093
                                           -0.0239 -0.2976  0.0037  0.0451 -0.0592
                                           -0.3489  0.0320 -0.0098  0.0000  0.0000
                                            0.0000  0.0000  0.4691 -0.0048  0.0277
                                            0.0000  0.0000  0.0000  0.0000  0.0000
                                            0.0000  0.5950 -0.0157  0.0333  0.4120
                                           -0.0301  0.0173  0.0000  0.0000  0.0111
                                           -0.0078 -0.0655  0.0375  0.0000  0.0000
                                            0.0000  0.0000  0.0972 -0.0382 -0.0219
                                            0.0154
    28. (0.00620) RY*( 6) O   1           s(  0.00%)p 1.00(  0.88%)d99.99( 97.88%)
                                                  f 1.42(  1.25%)
                                            0.0000  0.0000  0.0000  0.0000  0.0000
                                            0.0000  0.0000  0.0000  0.0000  0.0000
                                            0.0000  0.0000  0.0000  0.0333  0.0837
                                           -0.0071 -0.0243  0.0000  0.0000  0.0000
                                           -0.3538  0.0326  0.0042  0.9205 -0.0646
                                            0.0319  0.0000  0.0000  0.0000  0.0000
                                            0.0000  0.0000  0.0837 -0.0412  0.0000
                                            0.0000  0.0000  0.0000  0.0294 -0.0153
                                            0.0476 -0.0197  0.0000  0.0000  0.0000
                                            0.0000
    29. (0.00572) RY*( 7) O   1           s(  1.15%)p11.43( 13.18%)d72.39( 83.50%)
                                                  f 1.87(  2.16%)
                                           -0.0000  0.0197  0.1016 -0.0209  0.0196
                                            0.0738  0.3497 -0.0011 -0.0523 -0.0030
                                            0.0345  0.0063 -0.0117  0.0000  0.0000
                                            0.0000  0.0000  0.0848 -0.0196 -0.0150
                                            0.0000  0.0000  0.0000  0.0000  0.0000
                                            0.0000 -0.4316  0.0178  0.0061  0.7958
                                           -0.0858  0.0002  0.0000  0.0000  0.1009
                                           -0.0395 -0.0219  0.0101  0.0000  0.0000
                                            0.0000  0.0000 -0.0803  0.0330  0.0378
                                           -0.0173
    30. (0.00342) RY*( 8) O   1           s( 32.03%)p 0.83( 26.53%)d 1.27( 40.78%)
                                                  f 0.02(  0.67%)
                                            0.0000 -0.0074  0.5390 -0.1697  0.0296
                                            0.0311 -0.0582  0.0292  0.0525  0.0279
                                           -0.4567  0.0827 -0.2028  0.0000  0.0000
                                            0.0000  0.0000  0.3107 -0.0289  0.0373
                                            0.0000  0.0000  0.0000  0.0000  0.0000
                                            0.0000 -0.4539  0.0519 -0.0138 -0.3042
                                            0.0845 -0.0198  0.0000  0.0000  0.0101
                                           -0.0027  0.0421 -0.0229  0.0000  0.0000
                                            0.0000  0.0000  0.0110 -0.0151  0.0602
                                           -0.0182
    31. (0.00244) RY*( 9) O   1           s( 12.97%)p 4.93( 63.89%)d 1.75( 22.71%)
                                                  f 0.03(  0.43%)
                                           -0.0000  0.0020  0.3524 -0.0735 -0.0107
                                            0.0122  0.7910 -0.0328 -0.0319 -0.0109
                                            0.0822  0.0198 -0.0606  0.0000  0.0000
                                            0.0000  0.0000  0.0466 -0.0161 -0.0102
                                            0.0000  0.0000  0.0000  0.0000  0.0000
                                            0.0000  0.4266 -0.0440  0.1090 -0.1617
                                            0.0414 -0.0286  0.0000  0.0000 -0.0228
                                            0.0328 -0.0019  0.0090  0.0000  0.0000
                                            0.0000  0.0000  0.0378 -0.0332 -0.0088
                                            0.0045
    32. (0.00078) RY*(10) O   1           s( 34.45%)p 1.61( 55.53%)d 0.24(  8.27%)
                                                  f 0.05(  1.75%)
                                           -0.0000 -0.0032  0.0363  0.5833  0.0542
                                            0.0110 -0.0205 -0.0653 -0.2509 -0.0084
                                            0.0047  0.6774 -0.1689  0.0000  0.0000
                                            0.0000  0.0000  0.0223 -0.1997 -0.1185
                                            0.0000  0.0000  0.0000  0.0000  0.0000
                                            0.0000  0.0231  0.0349  0.0233 -0.0075
                                            0.0974  0.1284  0.0000  0.0000  0.0002
                                            0.0045  0.0041  0.0212  0.0000  0.0000
                                            0.0000  0.0000 -0.1201  0.0423 -0.0277
                                           -0.0078
    33. (0.00065) RY*(11) O   1           s(  0.00%)p 1.00( 39.71%)d 1.03( 40.86%)
                                                  f 0.49( 19.42%)
                                            0.0000  0.0000  0.0000  0.0000  0.0000
                                            0.0000  0.0000  0.0000  0.0000  0.0000
                                            0.0000  0.0000  0.0000 -0.0050  0.0272
                                            0.6275 -0.0508  0.0000  0.0000  0.0000
                                            0.0291 -0.1740 -0.0092  0.0247  0.6122
                                            0.0455  0.0000  0.0000  0.0000  0.0000
                                            0.0000  0.0000  0.1734  0.0064  0.0000
                                            0.0000  0.0000  0.0000 -0.0684 -0.0275
                                            0.3949 -0.0525  0.0000  0.0000  0.0000
                                            0.0000
    34. (0.00060) RY*(12) O   1           s(  4.33%)p 0.63(  2.72%)d12.53( 54.21%)
                                                  f 8.95( 38.74%)
                                           -0.0000  0.0038 -0.0008  0.1780  0.1076
                                            0.0085  0.0178  0.0032  0.0563 -0.0053
                                           -0.0006 -0.1528 -0.0168  0.0000  0.0000
                                            0.0000  0.0000 -0.0560  0.1762 -0.0508
                                            0.0000  0.0000  0.0000  0.0000  0.0000
                                            0.0000  0.0008  0.1665 -0.0329  0.0487
                                            0.6818  0.0965  0.0000  0.0000  0.4903
                                           -0.0523 -0.0628  0.0048  0.0000  0.0000
                                            0.0000  0.0000  0.3711 -0.0361  0.0358
                                            0.0033
    35. (0.00059) RY*(13) O   1           s(  0.00%)p 1.00( 55.79%)d 0.41( 23.12%)
                                                  f 0.38( 21.09%)
                                            0.0000  0.0000  0.0000  0.0000  0.0000
                                            0.0000  0.0000  0.0000  0.0000  0.0000
                                            0.0000  0.0000  0.0000 -0.0014  0.0186
                                            0.7142 -0.2180  0.0000  0.0000  0.0000
                                            0.0140  0.1564  0.0191 -0.0125 -0.4537
                                            0.0106  0.0000  0.0000  0.0000  0.0000
                                            0.0000  0.0000  0.0606  0.0130  0.0000
                                            0.0000  0.0000  0.0000 -0.1181 -0.0279
                                           -0.4366  0.0421  0.0000  0.0000  0.0000
                                            0.0000
    36. (0.00051) RY*(14) O   1           s(  0.00%)p 1.00(  2.42%)d22.11( 53.49%)
                                                  f18.22( 44.09%)
                                            0.0000  0.0000  0.0000  0.0000  0.0000
                                            0.0000  0.0000  0.0000  0.0000  0.0000
                                            0.0000  0.0000  0.0000 -0.0097 -0.0233
                                            0.1358 -0.0714  0.0000  0.0000  0.0000
                                           -0.0192  0.7230 -0.0966 -0.0201  0.0323
                                           -0.0324  0.0000  0.0000  0.0000  0.0000
                                            0.0000  0.0000 -0.4075 -0.0123  0.0000
                                            0.0000  0.0000  0.0000  0.4274  0.0220
                                            0.3023 -0.0106  0.0000  0.0000  0.0000
                                            0.0000
    37. (0.00050) RY*(15) O   1           s(  1.67%)p 8.33( 13.88%)d24.57( 40.95%)
                                                  f26.10( 43.50%)
                                            0.0000 -0.0002  0.0643  0.1091  0.0251
                                            0.0019 -0.0079 -0.2228 -0.0321  0.0048
                                           -0.0116 -0.2533  0.1540 -0.0000 -0.0000
                                           -0.0000 -0.0000  0.0413 -0.6265  0.0916
                                           -0.0000 -0.0000 -0.0000 -0.0000 -0.0000
                                           -0.0000 -0.0268  0.0104 -0.0535 -0.0162
                                           -0.0515 -0.0173 -0.0000 -0.0000  0.1874
                                            0.0055  0.3615  0.0119 -0.0000 -0.0000
                                           -0.0000 -0.0000  0.1204 -0.0133 -0.5027
                                           -0.0418
    38. (0.00047) RY*(16) O   1           s( 12.53%)p 2.09( 26.19%)d 0.86( 10.75%)
                                                  f 4.03( 50.52%)
                                           -0.0000  0.0050  0.0957  0.2835  0.1891
                                           -0.0018 -0.0394  0.1689 -0.1642 -0.0089
[...]
                                           -0.0000 -0.0000 -0.0000 -0.2237 -0.0936
                                           -0.0000 -0.0000 -0.0000 -0.0000 -0.0020
                                           -0.1021  0.1489 -0.0664
   153. (0.00033) RY*( 8) H   4           s( 27.74%)p 1.64( 45.51%)d 0.96( 26.75%)
                                           -0.0059 -0.0260  0.5111  0.1247 -0.0569
                                            0.5072  0.1849  0.0743 -0.0660 -0.3881
                                           -0.0000 -0.0000 -0.0000 -0.4108  0.1563
                                           -0.0000 -0.0000 -0.0000 -0.0000  0.1291
                                           -0.1285  0.1681 -0.1131
   154. (0.00031) RY*( 9) H   4           s(  0.00%)p 1.00( 93.51%)d 0.07(  6.49%)
                                            0.0000  0.0000  0.0000  0.0000  0.0000
                                            0.0000  0.0000  0.0000  0.0000  0.0000
                                           -0.1277  0.9565 -0.0622  0.0000  0.0000
                                           -0.0639  0.0933 -0.0264  0.2268  0.0000
                                            0.0000  0.0000  0.0000
   155. (0.00025) RY*(10) H   4           s(  1.67%)p14.35( 24.01%)d44.41( 74.31%)
                                            0.0118  0.0398  0.0610  0.1062 -0.0885
                                           -0.0857  0.1567 -0.0107 -0.1883  0.4060
                                            0.0000  0.0000  0.0000 -0.3960  0.0009
                                            0.0000  0.0000  0.0000  0.0000  0.5298
                                            0.0953 -0.5125  0.1841
   156. (0.00023) RY*(11) H   4           s(  0.00%)p 1.00(  0.55%)d99.99( 99.45%)
                                            0.0000  0.0000  0.0000  0.0000  0.0000
                                            0.0000  0.0000  0.0000  0.0000  0.0000
                                           -0.0192  0.0619 -0.0355  0.0000  0.0000
                                            0.9749 -0.1791 -0.0948  0.0555  0.0000
                                            0.0000  0.0000  0.0000
   157. (0.00021) RY*(12) H   4           s(  7.59%)p 4.13( 31.33%)d 8.05( 61.08%)
                                            0.0145  0.0186  0.1893  0.1988  0.0561
                                           -0.0294 -0.0406 -0.0364 -0.3589  0.4214
                                            0.0000  0.0000  0.0000  0.1753 -0.0918
                                            0.0000  0.0000  0.0000  0.0000  0.2757
                                            0.1434  0.6892 -0.0045
   158. (0.00017) RY*(13) H   4           s(  8.24%)p 1.94( 15.94%)d 9.21( 75.83%)
                                           -0.0044 -0.0337  0.2743  0.0773  0.0763
                                           -0.0411 -0.3105 -0.0018  0.1333 -0.1941
                                            0.0000  0.0000  0.0000  0.5685  0.2342
                                            0.0000  0.0000  0.0000  0.0000  0.5269
                                           -0.1043 -0.2386 -0.1865
   159. (0.00012) RY*(14) H   4           s(  0.00%)p 1.00( 35.57%)d 1.81( 64.43%)
                                            0.0000  0.0000  0.0000  0.0000  0.0000
                                            0.0000  0.0000  0.0000  0.0000  0.0000
                                            0.0076  0.2165  0.5557  0.0000  0.0000
                                            0.0597 -0.1581  0.4828 -0.6185  0.0000
                                            0.0000  0.0000  0.0000
   160. (0.00011) RY*(15) H   4           s( 69.16%)p 0.15( 10.15%)d 0.30( 20.70%)
                                           -0.0031 -0.0253  0.1376  0.8197  0.0042
                                            0.1267 -0.0021  0.0022  0.1984  0.2146
                                            0.0000  0.0000  0.0000  0.1246  0.0500
                                            0.0000  0.0000  0.0000  0.0000 -0.3725
                                            0.1086 -0.1948  0.0212
   161. (0.00010) RY*(16) H   4           s(  1.92%)p13.68( 26.29%)d37.35( 71.79%)
                                           -0.0033 -0.0121 -0.0676  0.1204  0.0252
                                            0.1258  0.4835  0.0080 -0.0122 -0.1116
                                           -0.0000 -0.0000 -0.0000  0.2934 -0.6943
                                           -0.0000 -0.0000 -0.0000 -0.0000  0.1556
                                           -0.3453 -0.0791 -0.0057
   162. (0.00006) RY*(17) H   4           s(  0.00%)p 1.00(  1.79%)d54.95( 98.21%)
   163. (0.00006) RY*(18) H   4           s( 13.33%)p 2.13( 28.35%)d 4.38( 58.32%)
   164. (0.00006) RY*(19) H   4           s(  0.00%)p 1.00( 31.86%)d 2.14( 68.14%)
   165. (0.00005) RY*(20) H   4           s(  7.17%)p 1.25(  8.94%)d11.69( 83.88%)
   166. (0.00003) RY*(21) H   4           s( 38.06%)p 0.35( 13.23%)d 1.28( 48.72%)
   167. (0.00004) RY*(22) H   4           s(  0.44%)p99.99( 45.87%)d99.99( 53.70%)
   168. (0.05746) BD*( 1) O   1 -Cl   2  
                ( 41.36%)   0.6431* O   1 s( 10.62%)p 8.37( 88.85%)d 0.05(  0.52%)
                                                  f 0.00(  0.02%)
                                           -0.0003 -0.3224  0.0446  0.0151  0.0006
                                           -0.9411  0.0319  0.0106  0.0117  0.0267
                                            0.0286  0.0051 -0.0002 -0.0000 -0.0000
                                           -0.0000 -0.0000  0.0213  0.0013 -0.0028
                                           -0.0000 -0.0000 -0.0000 -0.0000 -0.0000
                                           -0.0000 -0.0536 -0.0047 -0.0026  0.0425
                                            0.0035 -0.0006 -0.0000 -0.0000  0.0113
                                           -0.0012  0.0003 -0.0002 -0.0000 -0.0000
                                           -0.0000 -0.0000 -0.0060 -0.0008  0.0006
                                           -0.0021
                ( 58.64%)  -0.7658*Cl   2 s(  8.68%)p10.38( 90.06%)d 0.13(  1.15%)
                                                  f 0.01(  0.11%)
                                            0.0000 -0.0005 -0.2888  0.0573  0.0103
                                           -0.0022  0.0004  0.9465 -0.0660 -0.0140
                                            0.0046  0.0000  0.0107  0.0014 -0.0027
                                            0.0009 -0.0000 -0.0000 -0.0000 -0.0000
                                           -0.0000 -0.0125 -0.0000 -0.0008 -0.0000
                                           -0.0000 -0.0000 -0.0000 -0.0000 -0.0000
                                           -0.0892  0.0109  0.0003  0.0565 -0.0063
                                           -0.0009 -0.0000 -0.0000 -0.0209  0.0031
                                           -0.0005  0.0002 -0.0000 -0.0000 -0.0000
                                           -0.0000  0.0255 -0.0030  0.0014 -0.0002
   169. (0.13028) BD*( 1) O   1 - H   4  
                ( 20.02%)   0.4474* O   1 s( 30.17%)p 2.30( 69.35%)d 0.02(  0.47%)
                                                  f 0.00(  0.01%)
                                            0.0003  0.5492 -0.0042 -0.0080  0.0025
                                           -0.2087  0.0160  0.0027  0.0036 -0.8060
                                            0.0053  0.0068  0.0038 -0.0000 -0.0000
                                           -0.0000 -0.0000  0.0001 -0.0025 -0.0001
                                           -0.0000 -0.0000 -0.0000 -0.0000 -0.0000
                                           -0.0000 -0.0583 -0.0058 -0.0018 -0.0355
                                           -0.0013  0.0033 -0.0000 -0.0000  0.0017
                                            0.0006  0.0086  0.0003 -0.0000 -0.0000
                                           -0.0000 -0.0000  0.0020  0.0024 -0.0005
                                            0.0020
                ( 79.98%)  -0.8943* H   4 s( 99.82%)p 0.00(  0.17%)d 0.00(  0.00%)
                                            0.9982  0.0434  0.0031 -0.0022  0.0098
                                            0.0097  0.0022 -0.0191  0.0326 -0.0107
                                           -0.0000 -0.0000 -0.0000 -0.0006 -0.0018
                                           -0.0000 -0.0000 -0.0000 -0.0000 -0.0018
                                           -0.0011  0.0006 -0.0038


 NHO Directionality and "Bond Bending" (deviations from line of nuclear centers)

         [Thresholds for printing:  angular deviation  >  1.0 degree]
                                    hybrid p-character > 25.0%
                                    orbital occupancy  >  0.10e

                                Line of Centers        Hybrid 1              Hybrid 2
                                ---------------  -------------------   ------------------
                NBO               Theta   Phi    Theta   Phi    Dev    Theta   Phi    Dev
 ========================================================================================
     1. BD (   1) O   1 -Cl   2    90.0    0.0    90.0  356.1   3.9      --     --    --
    14. LP (   1) O   1             --     --     90.0  112.9   --       --     --    --
    15. LP (   2) O   1             --     --      0.0    0.0   --       --     --    --
    17. LP (   2)Cl   2             --     --      0.0    0.0   --       --     --    --
    18. LP (   3)Cl   2             --     --     90.0   90.3   --       --     --    --
    20. LP (   2)Cl   3             --     --      0.0    0.0   --       --     --    --
    21. LP (   3)Cl   3             --     --     90.0  346.4   --       --     --    --
    22. LP (   4)Cl   3             --     --     90.0   76.5   --       --     --    --


 Natural Bond Orbitals (Summary):

           NBO                  Occupancy  
 -----------------------------------------------
 Molecular unit  1  (HOCl)
     1. BD (   1) O   1 -Cl   2          1.93975
     2. BD (   1) O   1 - H   4          1.96540
     3. CR (   1) O   1                  1.99967
     4. CR (   1)Cl   2                  2.00000
     5. CR (   2)Cl   2                  1.99980
     6. CR (   3)Cl   2                  1.99996
     7. CR (   4)Cl   2                  2.00003
     8. CR (   5)Cl   2                  2.00003
    14. LP (   1) O   1                  1.96602
    15. LP (   2) O   1                  1.95226
    16. LP (   1)Cl   2                  1.97412
    17. LP (   2)Cl   2                  1.95604
    18. LP (   3)Cl   2                  1.95484
    23. RY*(   1) O   1                  0.01960
    24. RY*(   2) O   1                  0.01608
    25. RY*(   3) O   1                  0.00795
    26. RY*(   4) O   1                  0.00703
    27. RY*(   5) O   1                  0.00632
    28. RY*(   6) O   1                  0.00620
    29. RY*(   7) O   1                  0.00572
    30. RY*(   8) O   1                  0.00342
    31. RY*(   9) O   1                  0.00244
    32. RY*(  10) O   1                  0.00078
    33. RY*(  11) O   1                  0.00065
    34. RY*(  12) O   1                  0.00060
    35. RY*(  13) O   1                  0.00059
    36. RY*(  14) O   1                  0.00051
    37. RY*(  15) O   1                  0.00050
    38. RY*(  16) O   1                  0.00047
    39. RY*(  17) O   1                  0.00047
    40. RY*(  18) O   1                  0.00047
    41. RY*(  19) O   1                  0.00045
    42. RY*(  20) O   1                  0.00044
    43. RY*(  21) O   1                  0.00044
    44. RY*(  22) O   1                  0.00042
    45. RY*(  23) O   1                  0.00035
    46. RY*(  24) O   1                  0.00031
    47. RY*(  25) O   1                  0.00024
    48. RY*(  26) O   1                  0.00018
    49. RY*(  27) O   1                  0.00012
    50. RY*(  28) O   1                  0.00013
    51. RY*(  29) O   1                  0.00012
    52. RY*(  30) O   1                  0.00009
    53. RY*(  31) O   1                  0.00008
    54. RY*(  32) O   1                  0.00008
    55. RY*(  33) O   1                  0.00007
    56. RY*(  34) O   1                  0.00008
    57. RY*(  35) O   1                  0.00008
    58. RY*(  36) O   1                  0.00006
    59. RY*(  37) O   1                  0.00005
    60. RY*(  38) O   1                  0.00005
    61. RY*(  39) O   1                  0.00003
    62. RY*(  40) O   1                  0.00003
    63. RY*(  41) O   1                 -0.00001
    64. RY*(   1)Cl   2                  0.02299
    65. RY*(   2)Cl   2                  0.01768
    66. RY*(   3)Cl   2                  0.01677
    67. RY*(   4)Cl   2                  0.01669
    68. RY*(   5)Cl   2                  0.01164
    69. RY*(   6)Cl   2                  0.00934
    70. RY*(   7)Cl   2                  0.00910
    71. RY*(   8)Cl   2                  0.00635
    72. RY*(   9)Cl   2                  0.00168
    73. RY*(  10)Cl   2                  0.00126
    74. RY*(  11)Cl   2                  0.00126
    75. RY*(  12)Cl   2                  0.00119
    76. RY*(  13)Cl   2                  0.00120
    77. RY*(  14)Cl   2                  0.00117
    78. RY*(  15)Cl   2                  0.00111
    79. RY*(  16)Cl   2                  0.00095
    80. RY*(  17)Cl   2                  0.00077
    81. RY*(  18)Cl   2                  0.00076
    82. RY*(  19)Cl   2                  0.00065
    83. RY*(  20)Cl   2                  0.00056
    84. RY*(  21)Cl   2                  0.00043
    85. RY*(  22)Cl   2                  0.00035
    86. RY*(  23)Cl   2                  0.00036
    87. RY*(  24)Cl   2                  0.00031
    88. RY*(  25)Cl   2                  0.00018
    89. RY*(  26)Cl   2                  0.00016
    90. RY*(  27)Cl   2                  0.00014
    91. RY*(  28)Cl   2                  0.00012
    92. RY*(  29)Cl   2                  0.00013
    93. RY*(  30)Cl   2                  0.00012
    94. RY*(  31)Cl   2                  0.00011
    95. RY*(  32)Cl   2                  0.00010
    96. RY*(  33)Cl   2                  0.00010
    97. RY*(  34)Cl   2                  0.00009
    98. RY*(  35)Cl   2                  0.00010
    99. RY*(  36)Cl   2                  0.00007
   100. RY*(  37)Cl   2                  0.00008
   101. RY*(  38)Cl   2                  0.00003
   102. RY*(  39)Cl   2                  0.00003
   103. RY*(  40)Cl   2                  0.00003
   104. RY*(  41)Cl   2                 -0.00000
   146. RY*(   1) H   4                  0.01027
   147. RY*(   2) H   4                  0.00541
   148. RY*(   3) H   4                  0.00512
   149. RY*(   4) H   4                  0.00372
   150. RY*(   5) H   4                  0.00071
   151. RY*(   6) H   4                  0.00055
   152. RY*(   7) H   4                  0.00045
   153. RY*(   8) H   4                  0.00033
   154. RY*(   9) H   4                  0.00031
   155. RY*(  10) H   4                  0.00025
   156. RY*(  11) H   4                  0.00023
   157. RY*(  12) H   4                  0.00021
   158. RY*(  13) H   4                  0.00017
   159. RY*(  14) H   4                  0.00012
   160. RY*(  15) H   4                  0.00011
   161. RY*(  16) H   4                  0.00010
   162. RY*(  17) H   4                  0.00006
   163. RY*(  18) H   4                  0.00006
   164. RY*(  19) H   4                  0.00006
   165. RY*(  20) H   4                  0.00005
   166. RY*(  21) H   4                  0.00003
   167. RY*(  22) H   4                  0.00004
   168. BD*(   1) O   1 -Cl   2          0.05746
   169. BD*(   1) O   1 - H   4          0.13028
       -------------------------------
              Total Lewis   25.70790  ( 98.3701%)
        Valence non-Lewis    0.18774  (  0.7184%)
        Rydberg non-Lewis    0.23822  (  0.9115%)
       -------------------------------
            Total unit  1   26.13386  (100.0000%)
           Charge unit  1   -0.13386

 Molecular unit  2  (Cl)
     9. CR (   1)Cl   3                  2.00000
    10. CR (   2)Cl   3                  1.99996
    11. CR (   3)Cl   3                  2.00003
    12. CR (   4)Cl   3                  2.00002
    13. CR (   5)Cl   3                  2.00003
    19. LP (   1)Cl   3                  1.97699
    20. LP (   2)Cl   3                  1.95258
    21. LP (   3)Cl   3                  1.95219
    22. LP (   4)Cl   3                  1.84070
   105. RY*(   1)Cl   3                  0.01838
   106. RY*(   2)Cl   3                  0.01833
   107. RY*(   3)Cl   3                  0.01825
   108. RY*(   4)Cl   3                  0.01825
   109. RY*(   5)Cl   3                  0.01767
   110. RY*(   6)Cl   3                  0.01248
   111. RY*(   7)Cl   3                  0.01239
   112. RY*(   8)Cl   3                  0.00985
   113. RY*(   9)Cl   3                  0.00172
   114. RY*(  10)Cl   3                  0.00129
   115. RY*(  11)Cl   3                  0.00129
   116. RY*(  12)Cl   3                  0.00129
   117. RY*(  13)Cl   3                  0.00128
   118. RY*(  14)Cl   3                  0.00128
   119. RY*(  15)Cl   3                  0.00127
   120. RY*(  16)Cl   3                  0.00123
   121. RY*(  17)Cl   3                  0.00096
   122. RY*(  18)Cl   3                  0.00097
   123. RY*(  19)Cl   3                  0.00070
   124. RY*(  20)Cl   3                  0.00068
   125. RY*(  21)Cl   3                  0.00063
   126. RY*(  22)Cl   3                  0.00052
   127. RY*(  23)Cl   3                  0.00051
   128. RY*(  24)Cl   3                  0.00049
   129. RY*(  25)Cl   3                  0.00020
   130. RY*(  26)Cl   3                  0.00018
   131. RY*(  27)Cl   3                  0.00017
   132. RY*(  28)Cl   3                  0.00014
   133. RY*(  29)Cl   3                  0.00014
   134. RY*(  30)Cl   3                  0.00014
   135. RY*(  31)Cl   3                  0.00014
   136. RY*(  32)Cl   3                  0.00014
   137. RY*(  33)Cl   3                  0.00012
   138. RY*(  34)Cl   3                  0.00010
   139. RY*(  35)Cl   3                  0.00010
   140. RY*(  36)Cl   3                  0.00009
   141. RY*(  37)Cl   3                  0.00009
   142. RY*(  38)Cl   3                  0.00007
   143. RY*(  39)Cl   3                  0.00005
   144. RY*(  40)Cl   3                  0.00003
   145. RY*(  41)Cl   3                  0.00001
       -------------------------------
              Total Lewis   17.72250  ( 99.1960%)
        Valence non-Lewis    0.00000  (  0.0000%)
        Rydberg non-Lewis    0.14364  (  0.8040%)
       -------------------------------
            Total unit  2   17.86614  (100.0000%)
           Charge unit  2   -0.86614
 Leave Link  607 at Fri Oct  8 12:24:07 2021, MaxMem= 16106127360 cpu:              79.1 elap:               2.9
 (Enter /sw/contrib/gaussian/g16/B01/g16/l9999.exe)
 1\1\GINC-N2218\SP\RMP2-FC\Aug-CC-pVTZ\Cl2H1O1(1-)\CGAVINH\08-Oct-2021\
 0\\#p pop=NBO SP NoSymm mp2/aug-cc-pvtz density=current\\title\\-1,1\O
 \X,1,10.\Cl,1,1.68274941,2,90.\Cl,1,2.90467605,2,90.,3,103.53015695,0\
 H,1,1.,2,90.,3,103.53015695,0\\Version=ES64L-G16RevB.01\HF=-994.525059
 6\MP2=-995.1917139\RMSD=3.202e-09\Dipole=1.3537612,1.6365073,0.\Quadru
 pole=6.338444,-14.3523483,8.0139043,-5.6713135,0.,0.\PG=CS [SG(Cl2H1O1
 )]\\@


 WHEN ALL ELSE FAILS, LOOK AT THE SCHRODINGER EQUATION.
     -- RUSSELL T. PACK, APRIL 1978
 Job cpu time:       0 days  0 hours  4 minutes 31.9 seconds.
 Elapsed time:       0 days  0 hours  0 minutes 15.0 seconds.
 File lengths (MBytes):  RWF=     14 Int=      0 D2E=      0 Chk=      8 Scr=      1
 Normal termination of Gaussian 16 at Fri Oct  8 12:24:08 2021.
