 Entering Gaussian System, Link 0=g16
 Input=clhocl_rOH_s_05-20.gjf
 Output=clhocl_rOH_s_05-20.log
 Initial command:
 /sw/contrib/gaussian/g16/B01/g16/l1.exe "/scr/Gau-274362.inp" -scrdir="/scr/"
 Entering Link 1 = /sw/contrib/gaussian/g16/B01/g16/l1.exe PID=    274363.
  
 Copyright (c) 1988-2017, Gaussian, Inc.  All Rights Reserved.
  
 This is part of the Gaussian(R) 16 program.  It is based on
 the Gaussian(R) 09 system (copyright 2009, Gaussian, Inc.),
 the Gaussian(R) 03 system (copyright 2003, Gaussian, Inc.),
 the Gaussian(R) 98 system (copyright 1998, Gaussian, Inc.),
 the Gaussian(R) 94 system (copyright 1995, Gaussian, Inc.),
 the Gaussian 92(TM) system (copyright 1992, Gaussian, Inc.),
 the Gaussian 90(TM) system (copyright 1990, Gaussian, Inc.),
 the Gaussian 88(TM) system (copyright 1988, Gaussian, Inc.),
 the Gaussian 86(TM) system (copyright 1986, Carnegie Mellon
 University), and the Gaussian 82(TM) system (copyright 1983,
 Carnegie Mellon University). Gaussian is a federally registered
 trademark of Gaussian, Inc.
  
 This software contains proprietary and confidential information,
 including trade secrets, belonging to Gaussian, Inc.
  
 This software is provided under written license and may be
 used, copied, transmitted, or stored only in accord with that
 written license.
  
 The following legend is applicable only to US Government
 contracts under FAR:
  
                    RESTRICTED RIGHTS LEGEND
  
 Use, reproduction and disclosure by the US Government is
 subject to restrictions as set forth in subparagraphs (a)
 and (c) of the Commercial Computer Software - Restricted
 Rights clause in FAR 52.227-19.
  
 Gaussian, Inc.
 340 Quinnipiac St., Bldg. 40, Wallingford CT 06492
  
  
 ---------------------------------------------------------------
 Warning -- This program may not be used in any manner that
 competes with the business of Gaussian, Inc. or will provide
 assistance to any competitor of Gaussian, Inc.  The licensee
 of this program is prohibited from giving any competitor of
 Gaussian, Inc. access to this program.  By using this program,
 the user acknowledges that Gaussian, Inc. is engaged in the
 business of creating and licensing software in the field of
 computational chemistry and represents and warrants to the
 licensee that it is not a competitor of Gaussian, Inc. and that
 it will not use this program in any manner prohibited above.
 ---------------------------------------------------------------
  

 Cite this work as:
 Gaussian 16, Revision B.01,
 M. J. Frisch, G. W. Trucks, H. B. Schlegel, G. E. Scuseria, 
 M. A. Robb, J. R. Cheeseman, G. Scalmani, V. Barone, 
 G. A. Petersson, H. Nakatsuji, X. Li, M. Caricato, A. V. Marenich, 
 J. Bloino, B. G. Janesko, R. Gomperts, B. Mennucci, H. P. Hratchian, 
 J. V. Ortiz, A. F. Izmaylov, J. L. Sonnenberg, D. Williams-Young, 
 F. Ding, F. Lipparini, F. Egidi, J. Goings, B. Peng, A. Petrone, 
 T. Henderson, D. Ranasinghe, V. G. Zakrzewski, J. Gao, N. Rega, 
 G. Zheng, W. Liang, M. Hada, M. Ehara, K. Toyota, R. Fukuda, 
 J. Hasegawa, M. Ishida, T. Nakajima, Y. Honda, O. Kitao, H. Nakai, 
 T. Vreven, K. Throssell, J. A. Montgomery, Jr., J. E. Peralta, 
 F. Ogliaro, M. J. Bearpark, J. J. Heyd, E. N. Brothers, K. N. Kudin, 
 V. N. Staroverov, T. A. Keith, R. Kobayashi, J. Normand, 
 K. Raghavachari, A. P. Rendell, J. C. Burant, S. S. Iyengar, 
 J. Tomasi, M. Cossi, J. M. Millam, M. Klene, C. Adamo, R. Cammi, 
 J. W. Ochterski, R. L. Martin, K. Morokuma, O. Farkas, 
 J. B. Foresman, and D. J. Fox, Gaussian, Inc., Wallingford CT, 2016.
 
 ******************************************
 Gaussian 16:  ES64L-G16RevB.01 20-Dec-2017
                15-Nov-2021 
 ******************************************
 %nproc=28
 Will use up to   28 processors via shared memory.
 %mem=120GB
 %chk=/gscratch/ilahie/mccoygrp/coire_hocl/rOH_s_oop_0/clhocl/clhocl_rOH_s_05-20.
 chk
 -------------------------------------------------
 #p opt=(z-matrix) mp2/aug-cc-pvtz density=current
 -------------------------------------------------
 1/10=7,18=40,38=1/1,3;
 2/12=2,17=6,18=5,29=3,40=1/2;
 3/5=16,6=1,7=10,11=9,25=1,30=1,71=1/1,2,3;
 4//1;
 5/5=2,38=5/2;
 8/6=4,10=1/1;
 9/15=2,16=-3/6;
 10/5=1/2;
 6/7=2,8=2,9=2,10=2,22=-1/1;
 7/12=2,29=1/1,2,3,16;
 1/10=7,18=40/3(2);
 2/29=3/2;
 99//99;
 2/29=3/2;
 3/5=16,6=1,7=10,11=9,25=1,30=1,71=1/1,2,3;
 4/5=5,16=3,69=1/1;
 5/5=2,38=5/2;
 8/6=4,10=1/1;
 9/15=2,16=-3/6;
 10/5=1/2;
 7/12=2/1,2,3,16;
 1/18=40/3(-8);
 2/29=3/2;
 6/7=2,8=2,9=2,10=2,22=-1/1;
 99/9=10/99;
 Leave Link    1 at Mon Nov 15 07:43:39 2021, MaxMem= 16106127360 cpu:               0.8 elap:               0.0
 (Enter /sw/contrib/gaussian/g16/B01/g16/l101.exe)
 -----
 title
 -----
 Symbolic Z-matrix:
 Charge = -1 Multiplicity = 1
 O
 X                    1     10. 
 Cl                   1    r1       2     90. 
 Cl                   1    r2       2     90.      3    a1       0
 H                    1    r3       2    oop      3    a1       0
       Variables:
  r1                    1.68275 -1        0.     
  r2                    2.90468 -1        0.     
  r3                    0.5    Scan 30    0.05   
  a1                  103.53016 -1        0.     
  OOP                  90.      -1        0.     
 
 ITRead=  0  0  0  0
 MicOpt= -1 -1 -1 -1
 NAtoms=      4 NQM=        4 NQMF=       0 NMMI=      0 NMMIF=      0
                NMic=       0 NMicF=      0.
                    Isotopes and Nuclear Properties:
 (Nuclear quadrupole moments (NQMom) in fm**2, nuclear magnetic moments (NMagM)
  in nuclear magnetons)

  Atom         1           2           3           4
 IAtWgt=          16          35          35           1
 AtmWgt=  15.9949146  34.9688527  34.9688527   1.0078250
 NucSpn=           0           3           3           1
 AtZEff=  -0.0000000  -0.0000000  -0.0000000  -0.0000000
 NQMom=    0.0000000  -8.1650000  -8.1650000   0.0000000
 NMagM=    0.0000000   0.8218740   0.8218740   2.7928460
 AtZNuc=   8.0000000  17.0000000  17.0000000   1.0000000
 Leave Link  101 at Mon Nov 15 07:43:39 2021, MaxMem= 16106127360 cpu:               3.2 elap:               0.1
 (Enter /sw/contrib/gaussian/g16/B01/g16/l103.exe)

 GradGradGradGradGradGradGradGradGradGradGradGradGradGradGradGradGradGrad
 Berny optimization.
 Initialization pass.
                       ----------------------------
                       !    Initial Parameters    !
                       ! (Angstroms and Degrees)  !
 ----------------------                            ----------------------
 !      Name          Value   Derivative information (Atomic Units)     !
 ------------------------------------------------------------------------
 !       r1          1.6827   Frozen                                    !
 !       r2          2.9047   Frozen                                    !
 !       r3          0.5      Scan                                      !
 !       a1        103.5302   Frozen                                    !
 !       OOP        90.0      Frozen                                    !
 ------------------------------------------------------------------------
 Trust Radius=3.00D-01 FncErr=1.00D-07 GrdErr=1.00D-07 EigMax=2.50D+02 EigMin=1.00D-04
 Number of optimizations in scan=  31
 Number of steps in this run=     20 maximum allowed number of steps=    100.
 GradGradGradGradGradGradGradGradGradGradGradGradGradGradGradGradGradGrad

 Leave Link  103 at Mon Nov 15 07:43:39 2021, MaxMem= 16106127360 cpu:               0.7 elap:               0.1
 (Enter /sw/contrib/gaussian/g16/B01/g16/l202.exe)
 ---------------------------------------------------------------------------------------------------
                            Z-MATRIX (ANGSTROMS AND DEGREES)
   CD    Cent   Atom    N1       Length/X        N2       Alpha/Y        N3        Beta/Z          J
 ---------------------------------------------------------------------------------------------------
      1      1  O 
      2         X        1  10.000000(     1)
      3      2  Cl       1   1.682749(     2)      2   90.000(     5)
      4      3  Cl       1   2.904676(     3)      2   90.000(     6)      3  103.530(     8)      0
      5      4  H        1   0.500000(     4)      2   90.000(     7)      3  103.530(     9)      0
 ---------------------------------------------------------------------------------------------------
                         Z-Matrix orientation:                         
 ---------------------------------------------------------------------
 Center     Atomic      Atomic             Coordinates (Angstroms)
 Number     Number       Type             X           Y           Z
 ---------------------------------------------------------------------
      1          8           0        0.000000    0.000000    0.000000
      2         -1           0        0.000000    0.000000   10.000000
      3         17           0        1.682749    0.000000    0.000000
      4         17           0       -0.679570   -2.824062    0.000000
      5          1           0       -0.116979   -0.486123    0.000000
 ---------------------------------------------------------------------
                    Distance matrix (angstroms):
                    1          2          3          4          5
     1  O    0.000000
     2  X   10.000000   0.000000
     3  Cl   1.682749  10.140594   0.000000
     4  Cl   2.904676  10.413316   3.681831   0.000000
     5  H    0.500000  10.012492   1.864226   2.404676   0.000000
 Stoichiometry    Cl2HO(1-)
 Framework group  CS[SG(Cl2HO)]
 Deg. of freedom     5
 Full point group                 CS      NOp   2
 Largest Abelian subgroup         CS      NOp   2
 Largest concise Abelian subgroup C1      NOp   1
                         Standard orientation:                         
 ---------------------------------------------------------------------
 Center     Atomic      Atomic             Coordinates (Angstroms)
 Number     Number       Type             X           Y           Z
 ---------------------------------------------------------------------
      1          8           0       -0.394301    1.127650   -0.000000
      2         17           0       -1.710779    0.079541   -0.000000
      3         17           0        1.896332   -0.658447    0.000000
      4          1           0        0.000000    0.820198   -0.000000
 ---------------------------------------------------------------------
 Rotational constants (GHZ):          23.3753732           2.0599152           1.8930899
 Leave Link  202 at Mon Nov 15 07:43:39 2021, MaxMem= 16106127360 cpu:               0.9 elap:               0.1
 (Enter /sw/contrib/gaussian/g16/B01/g16/l301.exe)
 Standard basis: Aug-CC-pVTZ (5D, 7F)
 Ernie: Thresh=  0.10000D-02 Tol=  0.10000D-05 Strict=F.
 Ernie:  29 primitive shells out of 169 were deleted.
 There are   135 symmetry adapted cartesian basis functions of A'  symmetry.
 There are    63 symmetry adapted cartesian basis functions of A"  symmetry.
 There are   112 symmetry adapted basis functions of A'  symmetry.
 There are    57 symmetry adapted basis functions of A"  symmetry.
   169 basis functions,   327 primitive gaussians,   198 cartesian basis functions
    22 alpha electrons       22 beta electrons
       nuclear repulsion energy       126.1152868853 Hartrees.
 IExCor=    0 DFT=F Ex=HF Corr=None ExCW=0 ScaHFX=  1.000000
 ScaDFX=  1.000000  1.000000  1.000000  1.000000 ScalE2=  1.000000  1.000000
 IRadAn=      5 IRanWt=     -1 IRanGd=            0 ICorTp=0 IEmpDi=  4
 NAtoms=    4 NActive=    4 NUniq=    4 SFac= 1.00D+00 NAtFMM=   60 NAOKFM=F Big=F
 Integral buffers will be    131072 words long.
 Raffenetti 1 integral format.
 Two-electron integral symmetry is turned on.
 Leave Link  301 at Mon Nov 15 07:43:39 2021, MaxMem= 16106127360 cpu:               1.4 elap:               0.1
 (Enter /sw/contrib/gaussian/g16/B01/g16/l302.exe)
 NPDir=0 NMtPBC=     1 NCelOv=     1 NCel=       1 NClECP=     1 NCelD=      1
         NCelK=      1 NCelE2=     1 NClLst=     1 CellRange=     0.0.
 One-electron integrals computed using PRISM.
 One-electron integral symmetry used in STVInt
 NBasis=   169 RedAO= T EigKep=  1.11D-04  NBF=   112    57
 NBsUse=   169 1.00D-06 EigRej= -1.00D+00 NBFU=   112    57
 Leave Link  302 at Mon Nov 15 07:43:39 2021, MaxMem= 16106127360 cpu:               6.9 elap:               0.3
 (Enter /sw/contrib/gaussian/g16/B01/g16/l303.exe)
 DipDrv:  MaxL=1.
 Leave Link  303 at Mon Nov 15 07:43:40 2021, MaxMem= 16106127360 cpu:               1.4 elap:               0.1
 (Enter /sw/contrib/gaussian/g16/B01/g16/l401.exe)
 ExpMin= 2.53D-02 ExpMax= 4.56D+05 ExpMxC= 1.44D+03 IAcc=3 IRadAn=         5 AccDes= 0.00D+00
 Harris functional with IExCor=  205 and IRadAn=       5 diagonalized for initial guess.
 HarFok:  IExCor=  205 AccDes= 0.00D+00 IRadAn=         5 IDoV= 1 UseB2=F ITyADJ=14
 ICtDFT=  3500011 ScaDFX=  1.000000  1.000000  1.000000  1.000000
 FoFCou: FMM=F IPFlag=           0 FMFlag=      100000 FMFlg1=           0
         NFxFlg=           0 DoJE=T BraDBF=F KetDBF=T FulRan=T
         wScrn=  0.000000 ICntrl=       500 IOpCl=  0 I1Cent=   200000004 NGrid=           0
         NMat0=    1 NMatS0=      1 NMatT0=    0 NMatD0=    1 NMtDS0=    0 NMtDT0=    0
 Petite list used in FoFCou.
 Harris En= -993.178550782696    
 JPrj=0 DoOrth=F DoCkMO=F.
 Initial guess orbital symmetries:
       Occupied  (A') (A') (A') (A') (A') (A') (A') (A") (A') (A')
                 (A") (A') (A') (A') (A') (A') (A") (A') (A') (A")
                 (A') (A")
       Virtual   (A') (A') (A') (A') (A") (A') (A') (A") (A') (A")
                 (A') (A') (A') (A") (A') (A') (A") (A') (A') (A")
                 (A") (A') (A') (A') (A") (A') (A') (A') (A') (A")
                 (A") (A') (A') (A") (A') (A') (A") (A') (A") (A')
                 (A') (A") (A') (A") (A') (A') (A') (A") (A') (A")
                 (A') (A') (A") (A') (A") (A') (A") (A') (A') (A")
                 (A') (A") (A') (A') (A') (A') (A") (A") (A') (A")
                 (A') (A') (A') (A') (A") (A') (A') (A") (A') (A')
                 (A") (A') (A") (A') (A") (A') (A") (A') (A') (A")
                 (A") (A") (A') (A') (A') (A") (A') (A') (A") (A')
                 (A") (A') (A') (A") (A') (A") (A') (A") (A') (A')
                 (A') (A") (A") (A') (A') (A') (A") (A') (A') (A')
                 (A') (A") (A') (A') (A") (A") (A') (A') (A") (A')
                 (A') (A') (A') (A") (A') (A') (A") (A") (A") (A')
                 (A') (A') (A") (A') (A') (A') (A')
 The electronic state of the initial guess is 1-A'.
 Leave Link  401 at Mon Nov 15 07:43:40 2021, MaxMem= 16106127360 cpu:               5.6 elap:               0.2
 (Enter /sw/contrib/gaussian/g16/B01/g16/l502.exe)
 Keep R1 ints in memory in symmetry-blocked form, NReq=155449223.
 FoFCou: FMM=F IPFlag=           0 FMFlag=           0 FMFlg1=           0
         NFxFlg=           0 DoJE=F BraDBF=F KetDBF=F FulRan=T
         wScrn=  0.000000 ICntrl=       600 IOpCl=  0 I1Cent=           0 NGrid=           0
         NMat0=    1 NMatS0=  14365 NMatT0=    0 NMatD0=    1 NMtDS0=    0 NMtDT0=    0
 Petite list used in FoFCou.
 Closed shell SCF:
 Using DIIS extrapolation, IDIIS=  1040.
 NGot= 16106127360 LenX= 16053777278 LenY= 16053737633
 Requested convergence on RMS density matrix=1.00D-08 within 128 cycles.
 Requested convergence on MAX density matrix=1.00D-06.
 Requested convergence on             energy=1.00D-06.
 No special actions if energy rises.

 Cycle   1  Pass 1  IDiag  1:
 E= -993.385193870131    
 DIIS: error= 5.39D-02 at cycle   1 NSaved=   1.
 NSaved= 1 IEnMin= 1 EnMin= -993.385193870131     IErMin= 1 ErrMin= 5.39D-02
 ErrMax= 5.39D-02  0.00D+00 EMaxC= 1.00D-01 BMatC= 8.08D-01 BMatP= 8.08D-01
 IDIUse=3 WtCom= 4.61D-01 WtEn= 5.39D-01
 Coeff-Com:  0.100D+01
 Coeff-En:   0.100D+01
 Coeff:      0.100D+01
 Gap=     0.459 Goal=   None    Shift=    0.000
 GapD=    0.459 DampG=2.000 DampE=0.500 DampFc=1.0000 IDamp=-1.
 RMSDP=3.47D-03 MaxDP=9.01D-02              OVMax= 2.57D-01

 Cycle   2  Pass 1  IDiag  1:
 E= -993.583927814650     Delta-E=       -0.198733944519 Rises=F Damp=F
 DIIS: error= 3.45D-02 at cycle   2 NSaved=   2.
 NSaved= 2 IEnMin= 2 EnMin= -993.583927814650     IErMin= 2 ErrMin= 3.45D-02
 ErrMax= 3.45D-02  0.00D+00 EMaxC= 1.00D-01 BMatC= 2.48D-01 BMatP= 8.08D-01
 IDIUse=3 WtCom= 6.55D-01 WtEn= 3.45D-01
 Coeff-Com:  0.328D+00 0.672D+00
 Coeff-En:   0.223D+00 0.777D+00
 Coeff:      0.292D+00 0.708D+00
 Gap=     0.335 Goal=   None    Shift=    0.000
 RMSDP=1.63D-03 MaxDP=4.88D-02 DE=-1.99D-01 OVMax= 1.54D-01

 Cycle   3  Pass 1  IDiag  1:
 E= -993.740063749086     Delta-E=       -0.156135934436 Rises=F Damp=F
 DIIS: error= 8.22D-03 at cycle   3 NSaved=   3.
 NSaved= 3 IEnMin= 3 EnMin= -993.740063749086     IErMin= 3 ErrMin= 8.22D-03
 ErrMax= 8.22D-03  0.00D+00 EMaxC= 1.00D-01 BMatC= 1.50D-02 BMatP= 2.48D-01
 IDIUse=3 WtCom= 9.18D-01 WtEn= 8.22D-02
 Coeff-Com: -0.253D-01 0.167D+00 0.858D+00
 Coeff-En:   0.000D+00 0.000D+00 0.100D+01
 Coeff:     -0.233D-01 0.154D+00 0.870D+00
 Gap=     0.326 Goal=   None    Shift=    0.000
 RMSDP=3.89D-04 MaxDP=1.14D-02 DE=-1.56D-01 OVMax= 4.29D-02

 Cycle   4  Pass 1  IDiag  1:
 E= -993.750877845161     Delta-E=       -0.010814096075 Rises=F Damp=F
 DIIS: error= 1.24D-03 at cycle   4 NSaved=   4.
 NSaved= 4 IEnMin= 4 EnMin= -993.750877845161     IErMin= 4 ErrMin= 1.24D-03
 ErrMax= 1.24D-03  0.00D+00 EMaxC= 1.00D-01 BMatC= 2.89D-04 BMatP= 1.50D-02
 IDIUse=3 WtCom= 9.88D-01 WtEn= 1.24D-02
 Coeff-Com: -0.352D-02-0.207D-01 0.227D-01 0.100D+01
 Coeff-En:   0.000D+00 0.000D+00 0.000D+00 0.100D+01
 Coeff:     -0.347D-02-0.205D-01 0.224D-01 0.100D+01
 Gap=     0.319 Goal=   None    Shift=    0.000
 RMSDP=7.90D-05 MaxDP=2.07D-03 DE=-1.08D-02 OVMax= 5.46D-03

 Cycle   5  Pass 1  IDiag  1:
 E= -993.751253498334     Delta-E=       -0.000375653173 Rises=F Damp=F
 DIIS: error= 5.11D-04 at cycle   5 NSaved=   5.
 NSaved= 5 IEnMin= 5 EnMin= -993.751253498334     IErMin= 5 ErrMin= 5.11D-04
 ErrMax= 5.11D-04  0.00D+00 EMaxC= 1.00D-01 BMatC= 3.47D-05 BMatP= 2.89D-04
 IDIUse=3 WtCom= 9.95D-01 WtEn= 5.11D-03
 Coeff-Com:  0.156D-02-0.207D-01-0.739D-01 0.577D-01 0.104D+01
 Coeff-En:   0.000D+00 0.000D+00 0.000D+00 0.000D+00 0.100D+01
 Coeff:      0.155D-02-0.206D-01-0.735D-01 0.574D-01 0.104D+01
 Gap=     0.322 Goal=   None    Shift=    0.000
 RMSDP=4.08D-05 MaxDP=1.17D-03 DE=-3.76D-04 OVMax= 3.94D-03

 Cycle   6  Pass 1  IDiag  1:
 E= -993.751334742539     Delta-E=       -0.000081244205 Rises=F Damp=F
 DIIS: error= 2.31D-04 at cycle   6 NSaved=   6.
 NSaved= 6 IEnMin= 6 EnMin= -993.751334742539     IErMin= 6 ErrMin= 2.31D-04
 ErrMax= 2.31D-04  0.00D+00 EMaxC= 1.00D-01 BMatC= 5.48D-06 BMatP= 3.47D-05
 IDIUse=3 WtCom= 9.98D-01 WtEn= 2.31D-03
 Coeff-Com:  0.424D-03 0.412D-02 0.123D-01-0.117D+00-0.274D+00 0.137D+01
 Coeff-En:   0.000D+00 0.000D+00 0.000D+00 0.000D+00 0.000D+00 0.100D+01
 Coeff:      0.423D-03 0.411D-02 0.123D-01-0.117D+00-0.273D+00 0.137D+01
 Gap=     0.322 Goal=   None    Shift=    0.000
 RMSDP=2.36D-05 MaxDP=7.35D-04 DE=-8.12D-05 OVMax= 2.38D-03

 Cycle   7  Pass 1  IDiag  1:
 E= -993.751353214782     Delta-E=       -0.000018472243 Rises=F Damp=F
 DIIS: error= 7.08D-05 at cycle   7 NSaved=   7.
 NSaved= 7 IEnMin= 7 EnMin= -993.751353214782     IErMin= 7 ErrMin= 7.08D-05
 ErrMax= 7.08D-05  0.00D+00 EMaxC= 1.00D-01 BMatC= 4.01D-07 BMatP= 5.48D-06
 IDIUse=1 WtCom= 1.00D+00 WtEn= 0.00D+00
 Coeff-Com: -0.222D-03 0.723D-03 0.432D-02 0.247D-01-0.518D-01-0.306D+00
 Coeff-Com:  0.133D+01
 Coeff:     -0.222D-03 0.723D-03 0.432D-02 0.247D-01-0.518D-01-0.306D+00
 Coeff:      0.133D+01
 Gap=     0.322 Goal=   None    Shift=    0.000
 RMSDP=8.41D-06 MaxDP=2.28D-04 DE=-1.85D-05 OVMax= 1.01D-03

 Cycle   8  Pass 1  IDiag  1:
 E= -993.751355020134     Delta-E=       -0.000001805352 Rises=F Damp=F
 DIIS: error= 1.46D-05 at cycle   8 NSaved=   8.
 NSaved= 8 IEnMin= 8 EnMin= -993.751355020134     IErMin= 8 ErrMin= 1.46D-05
 ErrMax= 1.46D-05  0.00D+00 EMaxC= 1.00D-01 BMatC= 3.57D-08 BMatP= 4.01D-07
 IDIUse=1 WtCom= 1.00D+00 WtEn= 0.00D+00
 Coeff-Com:  0.311D-05-0.572D-03-0.188D-02 0.981D-02 0.327D-01-0.105D+00
 Coeff-Com: -0.126D+00 0.119D+01
 Coeff:      0.311D-05-0.572D-03-0.188D-02 0.981D-02 0.327D-01-0.105D+00
 Coeff:     -0.126D+00 0.119D+01
 Gap=     0.322 Goal=   None    Shift=    0.000
 RMSDP=2.36D-06 MaxDP=7.88D-05 DE=-1.81D-06 OVMax= 3.18D-04

 Cycle   9  Pass 1  IDiag  1:
 E= -993.751355164813     Delta-E=       -0.000000144679 Rises=F Damp=F
 DIIS: error= 6.58D-06 at cycle   9 NSaved=   9.
 NSaved= 9 IEnMin= 9 EnMin= -993.751355164813     IErMin= 9 ErrMin= 6.58D-06
 ErrMax= 6.58D-06  0.00D+00 EMaxC= 1.00D-01 BMatC= 4.62D-09 BMatP= 3.57D-08
 IDIUse=1 WtCom= 1.00D+00 WtEn= 0.00D+00
 Coeff-Com:  0.179D-04 0.888D-04 0.233D-03-0.548D-02-0.772D-02 0.661D-01
 Coeff-Com: -0.802D-01-0.416D+00 0.144D+01
 Coeff:      0.179D-04 0.888D-04 0.233D-03-0.548D-02-0.772D-02 0.661D-01
 Coeff:     -0.802D-01-0.416D+00 0.144D+01
 Gap=     0.322 Goal=   None    Shift=    0.000
 RMSDP=1.00D-06 MaxDP=3.77D-05 DE=-1.45D-07 OVMax= 1.38D-04

 Cycle  10  Pass 1  IDiag  1:
 E= -993.751355187480     Delta-E=       -0.000000022667 Rises=F Damp=F
 DIIS: error= 2.21D-06 at cycle  10 NSaved=  10.
 NSaved=10 IEnMin=10 EnMin= -993.751355187480     IErMin=10 ErrMin= 2.21D-06
 ErrMax= 2.21D-06  0.00D+00 EMaxC= 1.00D-01 BMatC= 5.38D-10 BMatP= 4.62D-09
 IDIUse=1 WtCom= 1.00D+00 WtEn= 0.00D+00
 Coeff-Com:  0.288D-05 0.543D-04 0.101D-03-0.538D-03-0.274D-02 0.746D-02
 Coeff-Com:  0.213D-01-0.137D+00-0.758D-01 0.119D+01
 Coeff:      0.288D-05 0.543D-04 0.101D-03-0.538D-03-0.274D-02 0.746D-02
 Coeff:      0.213D-01-0.137D+00-0.758D-01 0.119D+01
 Gap=     0.322 Goal=   None    Shift=    0.000
 RMSDP=3.21D-07 MaxDP=1.34D-05 DE=-2.27D-08 OVMax= 4.50D-05

 Cycle  11  Pass 1  IDiag  1:
 E= -993.751355189729     Delta-E=       -0.000000002248 Rises=F Damp=F
 DIIS: error= 5.60D-07 at cycle  11 NSaved=  11.
 NSaved=11 IEnMin=11 EnMin= -993.751355189729     IErMin=11 ErrMin= 5.60D-07
 ErrMax= 5.60D-07  0.00D+00 EMaxC= 1.00D-01 BMatC= 3.83D-11 BMatP= 5.38D-10
 IDIUse=1 WtCom= 1.00D+00 WtEn= 0.00D+00
 Coeff-Com: -0.330D-05-0.354D-05-0.637D-05 0.583D-03 0.593D-03-0.685D-02
 Coeff-Com:  0.869D-02 0.436D-01-0.120D+00-0.135D+00 0.121D+01
 Coeff:     -0.330D-05-0.354D-05-0.637D-05 0.583D-03 0.593D-03-0.685D-02
 Coeff:      0.869D-02 0.436D-01-0.120D+00-0.135D+00 0.121D+01
 Gap=     0.322 Goal=   None    Shift=    0.000
 RMSDP=8.22D-08 MaxDP=3.23D-06 DE=-2.25D-09 OVMax= 1.04D-05

 Cycle  12  Pass 1  IDiag  1:
 E= -993.751355189872     Delta-E=       -0.000000000143 Rises=F Damp=F
 DIIS: error= 1.55D-07 at cycle  12 NSaved=  12.
 NSaved=12 IEnMin=12 EnMin= -993.751355189872     IErMin=12 ErrMin= 1.55D-07
 ErrMax= 1.55D-07  0.00D+00 EMaxC= 1.00D-01 BMatC= 1.49D-12 BMatP= 3.83D-11
 IDIUse=1 WtCom= 1.00D+00 WtEn= 0.00D+00
 Coeff-Com:  0.264D-06-0.273D-05-0.497D-05-0.440D-04 0.939D-04 0.329D-03
 Coeff-Com: -0.216D-02 0.297D-02 0.176D-01-0.511D-01-0.130D+00 0.116D+01
 Coeff:      0.264D-06-0.273D-05-0.497D-05-0.440D-04 0.939D-04 0.329D-03
 Coeff:     -0.216D-02 0.297D-02 0.176D-01-0.511D-01-0.130D+00 0.116D+01
 Gap=     0.322 Goal=   None    Shift=    0.000
 RMSDP=1.62D-08 MaxDP=5.44D-07 DE=-1.43D-10 OVMax= 1.63D-06

 Cycle  13  Pass 1  IDiag  1:
 E= -993.751355189876     Delta-E=       -0.000000000004 Rises=F Damp=F
 DIIS: error= 4.37D-08 at cycle  13 NSaved=  13.
 NSaved=13 IEnMin=13 EnMin= -993.751355189876     IErMin=13 ErrMin= 4.37D-08
 ErrMax= 4.37D-08  0.00D+00 EMaxC= 1.00D-01 BMatC= 1.29D-13 BMatP= 1.49D-12
 IDIUse=1 WtCom= 1.00D+00 WtEn= 0.00D+00
 Coeff-Com:  0.161D-06 0.473D-06 0.525D-06-0.308D-04-0.453D-04 0.378D-03
 Coeff-Com: -0.311D-03-0.290D-02 0.496D-02 0.159D-01-0.725D-01-0.129D+00
 Coeff-Com:  0.118D+01
 Coeff:      0.161D-06 0.473D-06 0.525D-06-0.308D-04-0.453D-04 0.378D-03
 Coeff:     -0.311D-03-0.290D-02 0.496D-02 0.159D-01-0.725D-01-0.129D+00
 Coeff:      0.118D+01
 Gap=     0.322 Goal=   None    Shift=    0.000
 RMSDP=4.70D-09 MaxDP=1.38D-07 DE=-4.09D-12 OVMax= 4.24D-07

 SCF Done:  E(RHF) =  -993.751355190     A.U. after   13 cycles
            NFock= 13  Conv=0.47D-08     -V/T= 1.9971
 KE= 9.966709261943D+02 PE=-2.629633302471D+03 EE= 5.130957342015D+02
 Leave Link  502 at Mon Nov 15 07:43:42 2021, MaxMem= 16106127360 cpu:              32.3 elap:               1.8
 (Enter /sw/contrib/gaussian/g16/B01/g16/l801.exe)
 ExpMin= 2.53D-02 ExpMax= 4.56D+05 ExpMxC= 1.44D+03 IAcc=3 IRadAn=         5 AccDes= 0.00D+00
 HarFok:  IExCor=  205 AccDes= 0.00D+00 IRadAn=         5 IDoV=-2 UseB2=F ITyADJ=14
 ICtDFT= 12500011 ScaDFX=  1.000000  1.000000  1.000000  1.000000
 Largest valence mixing into a core orbital is  4.50D-04
 Largest core mixing into a valence orbital is  1.75D-04
 Range of M.O.s used for correlation:    12   169
 NBasis=   169 NAE=    22 NBE=    22 NFC=    11 NFV=     0
 NROrb=    158 NOA=    11 NOB=    11 NVA=   147 NVB=   147

 **** Warning!!: The largest alpha MO coefficient is  0.26837232D+02

 Leave Link  801 at Mon Nov 15 07:43:42 2021, MaxMem= 16106127360 cpu:               1.9 elap:               0.1
 (Enter /sw/contrib/gaussian/g16/B01/g16/l906.exe)
 Frozen-core derivative calculation, NFC=  11 NFV=   0.
 FulOut=F Deriv=T AODrv=T NAtomX=     4
   MMem=         143  MDisk=          11 MDiskD=          11
  W3Min=      736164 MinDsk=     1250177 NBas6D=         198
 NBas2D=       20187    NTT=       19701    LW2=     3500000
    MDV= 16105706171 MDiskM=      406659 NBas2p=       20117
 Fully direct method using O(ONN) memory.
 IMap=   1   2   3   4   5   6   7   8   9  10  11  12  13  14  15  16  17  18  19  20
 IMap=  21  22
 JobTyp=1 Pass  1:  I=  12 to  22 NPSUse= 28 ParTrn=T ParDer=T DoDerP=T.
 Spin components of T(2) and E(2):
     alpha-alpha T2 =       0.2665912348D-01 E2=     -0.8021879539D-01
     alpha-beta  T2 =       0.1485546986D+00 E2=     -0.4839403541D+00
     beta-beta   T2 =       0.2665912348D-01 E2=     -0.8021879539D-01
 The integrals were generated   1 times.
 ANorm=    0.1096299660D+01
 E2 =    -0.6443779449D+00 EUMP2 =    -0.99439573313475D+03
 Leave Link  906 at Mon Nov 15 07:43:52 2021, MaxMem= 16106127360 cpu:             277.2 elap:              10.0
 (Enter /sw/contrib/gaussian/g16/B01/g16/l1002.exe)
 Minotr:  Closed shell wavefunction.
          Computing MP2/KS-MP2 derivatives.
          Using Z-Vector for PSCF gradient.
          Skipping F1 and S1 gradient terms here.
          IDoAtm=1111
          Frozen-core window.
          Direct CPHF calculation.
          Differentiating once with respect to electric field.
                with respect to dipole field.
          Differentiating once with respect to nuclear coordinates.
          Using symmetry in CPHF.
          Requested convergence is 1.0D-10 RMS, and 1.0D-09 maximum.
          NewPWx=F KeepS1=T KeepF1=T KeepIn=T MapXYZ=F SortEE=F KeepMc=T.
 Keep R1 ints in memory in symmetry-blocked form, NReq=155450263.
 FoFCou: FMM=F IPFlag=           0 FMFlag=           0 FMFlg1=           0
         NFxFlg=           0 DoJE=F BraDBF=F KetDBF=F FulRan=T
         wScrn=  0.000000 ICntrl=       600 IOpCl=  0 I1Cent=           0 NGrid=           0
         NMat0=    1 NMatS0=  14365 NMatT0=    0 NMatD0=    1 NMtDS0=    0 NMtDT0=    0
 Petite list used in FoFCou.
          MDV=   16106127360 using IRadAn=       5.
          Solving linear equations separately, MaxMat=       0.
          There are     1 degrees of freedom in the 1st order CPHF.  IDoFFX=0 NUNeed=     1.
 LinEq1:  Iter=  0 NonCon=     1 RMS=2.65D-03 Max=3.93D-02 NDo=     1
 AX will form     1 AO Fock derivatives at one time.
 LinEq1:  Iter=  1 NonCon=     1 RMS=3.40D-04 Max=5.88D-03 NDo=     1
 LinEq1:  Iter=  2 NonCon=     1 RMS=1.12D-04 Max=1.97D-03 NDo=     1
 LinEq1:  Iter=  3 NonCon=     1 RMS=2.69D-05 Max=5.56D-04 NDo=     1
 LinEq1:  Iter=  4 NonCon=     1 RMS=1.29D-05 Max=1.98D-04 NDo=     1
 LinEq1:  Iter=  5 NonCon=     1 RMS=4.12D-06 Max=9.59D-05 NDo=     1
 LinEq1:  Iter=  6 NonCon=     1 RMS=1.03D-06 Max=1.20D-05 NDo=     1
 LinEq1:  Iter=  7 NonCon=     1 RMS=2.41D-07 Max=5.35D-06 NDo=     1
 LinEq1:  Iter=  8 NonCon=     1 RMS=6.79D-08 Max=1.12D-06 NDo=     1
 LinEq1:  Iter=  9 NonCon=     1 RMS=2.16D-08 Max=3.80D-07 NDo=     1
 LinEq1:  Iter= 10 NonCon=     1 RMS=4.77D-09 Max=6.92D-08 NDo=     1
 LinEq1:  Iter= 11 NonCon=     1 RMS=1.15D-09 Max=9.75D-09 NDo=     1
 LinEq1:  Iter= 12 NonCon=     1 RMS=2.48D-10 Max=3.26D-09 NDo=     1
 LinEq1:  Iter= 13 NonCon=     0 RMS=5.42D-11 Max=7.73D-10 NDo=     1
 Linear equations converged to 1.000D-10 1.000D-09 after    13 iterations.
 End of Minotr F.D. properties file   721 does not exist.
 End of Minotr F.D. properties file   722 does not exist.
 End of Minotr F.D. properties file   788 does not exist.
 Leave Link 1002 at Mon Nov 15 07:43:54 2021, MaxMem= 16106127360 cpu:              33.6 elap:               2.0
 (Enter /sw/contrib/gaussian/g16/B01/g16/l601.exe)
 Copying SCF densities to generalized density rwf, IOpCl= 0 IROHF=0.

 **********************************************************************

            Population analysis using the MP2 Density.

 **********************************************************************

 Orbital symmetries:
       Occupied  (A') (A') (A') (A') (A') (A') (A') (A") (A') (A")
                 (A') (A') (A') (A') (A') (A") (A') (A') (A") (A')
                 (A') (A")
       Virtual   (A') (A') (A') (A") (A') (A') (A") (A') (A') (A")
                 (A') (A') (A') (A') (A") (A') (A') (A") (A") (A')
                 (A') (A") (A') (A') (A") (A') (A') (A') (A") (A')
                 (A') (A') (A") (A") (A') (A') (A") (A') (A") (A')
                 (A') (A") (A') (A') (A") (A') (A") (A') (A") (A')
                 (A') (A") (A') (A") (A') (A') (A') (A") (A") (A')
                 (A') (A") (A') (A') (A') (A") (A') (A") (A') (A')
                 (A") (A') (A') (A') (A") (A') (A') (A") (A') (A")
                 (A') (A') (A") (A') (A") (A') (A') (A") (A") (A')
                 (A") (A') (A') (A") (A') (A') (A") (A") (A') (A')
                 (A") (A') (A') (A") (A') (A') (A") (A') (A") (A")
                 (A') (A') (A') (A") (A') (A") (A') (A') (A') (A')
                 (A") (A') (A') (A") (A') (A') (A") (A') (A") (A')
                 (A') (A') (A') (A") (A') (A') (A") (A") (A') (A')
                 (A") (A') (A") (A') (A') (A') (A')
 The electronic state is 1-A'.
 Alpha  occ. eigenvalues -- -104.75821-104.52173 -20.44709 -10.47695 -10.24608
 Alpha  occ. eigenvalues --   -7.94415  -7.94126  -7.94113  -7.71216  -7.71216
 Alpha  occ. eigenvalues --   -7.71216  -1.46089  -0.97447  -0.75482  -0.66598
 Alpha  occ. eigenvalues --   -0.48069  -0.47151  -0.33993  -0.31064  -0.17505
 Alpha  occ. eigenvalues --   -0.16923  -0.16916
 Alpha virt. eigenvalues --    0.15293   0.17617   0.22696   0.22820   0.26368
 Alpha virt. eigenvalues --    0.26769   0.28065   0.28151   0.29715   0.30367
 Alpha virt. eigenvalues --    0.32325   0.34133   0.40579   0.42637   0.46411
 Alpha virt. eigenvalues --    0.52220   0.52920   0.53879   0.55759   0.57351
 Alpha virt. eigenvalues --    0.58709   0.60487   0.61472   0.64271   0.66684
 Alpha virt. eigenvalues --    0.67041   0.67262   0.72254   0.77130   0.79632
 Alpha virt. eigenvalues --    0.84878   0.86951   0.87183   0.92123   0.92858
 Alpha virt. eigenvalues --    0.93869   0.96192   1.00227   1.01421   1.04112
 Alpha virt. eigenvalues --    1.06806   1.09371   1.11461   1.12759   1.16346
 Alpha virt. eigenvalues --    1.17083   1.19315   1.19450   1.21504   1.21552
 Alpha virt. eigenvalues --    1.22481   1.27351   1.27785   1.29682   1.30733
 Alpha virt. eigenvalues --    1.37582   1.40426   1.43829   1.45024   1.45109
 Alpha virt. eigenvalues --    1.47313   1.50142   1.55501   1.59054   1.61602
 Alpha virt. eigenvalues --    1.64932   1.67790   1.68956   1.74493   1.75638
 Alpha virt. eigenvalues --    1.76001   1.82443   1.90484   1.93551   2.09685
 Alpha virt. eigenvalues --    2.14177   2.29009   2.37964   2.47463   2.50718
 Alpha virt. eigenvalues --    2.50944   2.55290   2.62073   2.65173   2.67781
 Alpha virt. eigenvalues --    2.68420   2.70782   2.71151   2.75149   2.80470
 Alpha virt. eigenvalues --    2.81951   2.82528   2.83926   2.84098   2.92165
 Alpha virt. eigenvalues --    2.95598   2.97977   2.99771   3.00752   3.04442
 Alpha virt. eigenvalues --    3.08682   3.17292   3.20533   3.21070   3.21718
 Alpha virt. eigenvalues --    3.29873   3.31973   3.35540   3.36112   3.40708
 Alpha virt. eigenvalues --    3.41313   3.48729   3.50508   3.51511   3.51636
 Alpha virt. eigenvalues --    3.54385   3.62843   3.64747   3.94400   4.25793
 Alpha virt. eigenvalues --    4.64732   4.64822   4.83973   4.98819   5.10317
 Alpha virt. eigenvalues --    5.26589   5.34519   5.72396   6.02819   6.11516
 Alpha virt. eigenvalues --    6.29860   6.60914   6.81356   6.88093   6.90949
 Alpha virt. eigenvalues --    7.13867   7.15727   7.18291   7.29066   7.32197
 Alpha virt. eigenvalues --    7.40353   7.98375  10.20154  10.23458  10.55132
 Alpha virt. eigenvalues --   12.99656  24.88978
          Condensed to atoms (all electrons):
               1          2          3          4
     1  O    8.269527  -0.061446  -0.045509   0.092542
     2  Cl  -0.061446  16.988746  -0.000918  -0.040022
     3  Cl  -0.045509  -0.000918  17.978225   0.034824
     4  H    0.092542  -0.040022   0.034824   0.804556
 Mulliken charges:
               1
     1  O   -0.255115
     2  Cl   0.113640
     3  Cl  -0.966623
     4  H    0.108099
 Sum of Mulliken charges =  -1.00000
 Mulliken charges with hydrogens summed into heavy atoms:
               1
     1  O   -0.147016
     2  Cl   0.113640
     3  Cl  -0.966623
 Electronic spatial extent (au):  <R**2>=            561.3961
 Charge=             -1.0000 electrons
 Dipole moment (field-independent basis, Debye):
    X=             -7.3871    Y=              1.8512    Z=             -0.0000  Tot=              7.6155
 Quadrupole moment (field-independent basis, Debye-Ang):
   XX=            -52.7653   YY=            -39.4106   ZZ=            -36.3165
   XY=              7.4306   XZ=             -0.0000   YZ=              0.0000
 Traceless Quadrupole moment (field-independent basis, Debye-Ang):
   XX=             -9.9345   YY=              3.4202   ZZ=              6.5143
   XY=              7.4306   XZ=             -0.0000   YZ=              0.0000
 Octapole moment (field-independent basis, Debye-Ang**2):
  XXX=            -55.4802  YYY=              9.4301  ZZZ=             -0.0000  XYY=            -10.9710
  XXY=             11.0871  XXZ=             -0.0000  XZZ=             -7.3549  YZZ=              3.6092
  YYZ=             -0.0000  XYZ=              0.0000
 Hexadecapole moment (field-independent basis, Debye-Ang**3):
 XXXX=           -703.0817 YYYY=           -142.9189 ZZZZ=            -50.6743 XXXY=            105.2640
 XXXZ=             -0.0000 YYYX=             81.3737 YYYZ=              0.0000 ZZZX=             -0.0000
 ZZZY=              0.0000 XXYY=           -136.5485 XXZZ=           -119.3267 YYZZ=            -31.9029
 XXYZ=              0.0000 YYXZ=             -0.0000 ZZXY=             25.7297
 N-N= 1.261152868853D+02 E-N=-2.629636781593D+03  KE= 9.972605121521D+02
 Symmetry A'   KE= 9.010084667923D+02
 Symmetry A"   KE= 9.625204535980D+01
 No NMR shielding tensors so no spin-rotation constants.
 Leave Link  601 at Mon Nov 15 07:43:54 2021, MaxMem= 16106127360 cpu:               3.8 elap:               0.2
 (Enter /sw/contrib/gaussian/g16/B01/g16/l701.exe)
 ... and contract with generalized density number  2.
 Compute integral first derivatives.
 Leave Link  701 at Mon Nov 15 07:43:54 2021, MaxMem= 16106127360 cpu:               5.1 elap:               0.3
 (Enter /sw/contrib/gaussian/g16/B01/g16/l702.exe)
 L702 exits ... SP integral derivatives will be done elsewhere.
 Leave Link  702 at Mon Nov 15 07:43:55 2021, MaxMem= 16106127360 cpu:               2.2 elap:               0.1
 (Enter /sw/contrib/gaussian/g16/B01/g16/l703.exe)
 Integral derivatives from FoFJK, PRISM(SPDF).
 Compute integral first derivatives, UseDBF=F ICtDFT=           0.
 Calling FoFJK, ICntrl=  10002127 FMM=F ISym2X=1 I1Cent= 0 IOpClX= 0 NMat=1 NMatS=1 NMatT=0.
 FoFJK:  IHMeth= 1 ICntrl=10002127 DoSepK=F KAlg= 0 I1Cent=           0 FoldK=F
 IRaf=         0 NMat=       1 IRICut=       1 DoRegI=T DoRafI=F ISym2E= 1 IDoP0=0 IntGTp=1.
 FoFCou: FMM=F IPFlag=           0 FMFlag=      100000 FMFlg1=         800
         NFxFlg=           0 DoJE=F BraDBF=F KetDBF=F FulRan=T
         wScrn=  0.000000 ICntrl=  10002127 IOpCl=  0 I1Cent=           0 NGrid=           0
         NMat0=    1 NMatS0=      1 NMatT0=    0 NMatD0=    1 NMtDS0=    0 NMtDT0=    0
 Petite list used in FoFCou.
 Leave Link  703 at Mon Nov 15 07:43:56 2021, MaxMem= 16106127360 cpu:              36.6 elap:               1.4
 (Enter /sw/contrib/gaussian/g16/B01/g16/l716.exe)
 Dipole        =-2.90631202D+00 7.28318133D-01-5.13257530D-32
 ***** Axes restored to original set *****
 -------------------------------------------------------------------
 Center     Atomic                   Forces (Hartrees/Bohr)
 Number     Number              X              Y              Z
 -------------------------------------------------------------------
      1        8           0.780966977    3.195515715    0.000000000
      2       17          -0.014166429   -0.000360294   -0.000000000
      3       17          -0.000225197   -0.000227073   -0.000000000
      4        1          -0.766575352   -3.194928348   -0.000000000
 -------------------------------------------------------------------
 Cartesian Forces:  Max     3.195515715 RMS     1.342157341
 -----------------------------------------------------------------------------------------------
                       Internal Coordinate Forces (Hartree/Bohr or radian)
  Cent   Atom   N1       Length/X         N2         Alpha/Y        N3         Beta/Z          J
 -----------------------------------------------------------------------------------------------
      1  O 
         X        1   0.000000(     1)
      2  Cl       1  -0.014166(     2)      2   0.000000(     5)
      3  Cl       1   0.000273(     3)      2   0.000000(     6)      3   0.000910(     8)     0
      4  H        1   3.285605(     4)      2   0.000000(     7)      3  -0.002056(     9)     0
 -----------------------------------------------------------------------------------------------
 Internal  Forces:  Max     3.285604995 RMS     1.095212105
 Force constants in Cartesian coordinates: 
                1             2             3             4             5 
      1  0.113084D+01
      2  0.176280D+01  0.798114D+01
      3  0.000000D+00  0.000000D+00  0.197508D+00
      4 -0.380493D+00  0.000000D+00  0.000000D+00  0.380493D+00
      5  0.656989D-01 -0.563554D-01  0.000000D+00  0.000000D+00  0.405459D-01
      6  0.000000D+00  0.000000D+00  0.000000D+00  0.000000D+00  0.000000D+00
      7  0.147780D-01  0.368552D-02  0.000000D+00  0.000000D+00 -0.139252D-01
      8 -0.102397D-01 -0.286615D-01  0.000000D+00  0.000000D+00  0.335090D-02
      9  0.000000D+00  0.000000D+00  0.410674D-01  0.000000D+00  0.000000D+00
     10 -0.765124D+00 -0.176649D+01  0.000000D+00  0.000000D+00 -0.517737D-01
     11 -0.181826D+01 -0.789612D+01  0.000000D+00  0.000000D+00  0.124586D-01
     12  0.000000D+00  0.000000D+00 -0.238575D+00  0.000000D+00  0.000000D+00
                6             7             8             9            10 
      6  0.100000D+01
      7  0.000000D+00  0.143833D-01
      8  0.000000D+00  0.322243D-02  0.269992D-01
      9  0.000000D+00  0.000000D+00  0.000000D+00  0.853908D-02
     10  0.000000D+00 -0.291614D-01  0.701726D-02  0.000000D+00  0.794286D+00
     11  0.000000D+00  0.701726D-02 -0.168860D-02  0.000000D+00  0.181124D+01
     12  0.000000D+00  0.000000D+00  0.000000D+00 -0.496065D-01  0.000000D+00
               11            12 
     11  0.788535D+01
     12  0.000000D+00  0.288182D+00
 Force constants in internal coordinates: 
                1             2             3             4             5 
      1  0.000000D+00
      2  0.000000D+00  0.380493D+00
      3  0.000000D+00  0.000000D+00  0.277747D-01
      4  0.000000D+00  0.000000D+00  0.000000D+00  0.832120D+01
      5  0.000000D+00  0.000000D+00  0.000000D+00  0.000000D+00  0.101120D+02
      6  0.000000D+00  0.000000D+00  0.000000D+00  0.000000D+00  0.000000D+00
      7  0.000000D+00  0.000000D+00  0.000000D+00  0.000000D+00  0.000000D+00
      8  0.000000D+00  0.000000D+00  0.000000D+00  0.000000D+00  0.000000D+00
      9  0.000000D+00  0.000000D+00  0.000000D+00  0.000000D+00  0.000000D+00
                6             7             8             9 
      6  0.257279D+00
      7 -0.257279D+00  0.257279D+00
      8  0.000000D+00  0.000000D+00  0.410000D+00
      9  0.000000D+00  0.000000D+00 -0.160000D+00  0.320000D+00
 Leave Link  716 at Mon Nov 15 07:43:57 2021, MaxMem= 16106127360 cpu:               1.6 elap:               0.1
 (Enter /sw/contrib/gaussian/g16/B01/g16/l103.exe)

 GradGradGradGradGradGradGradGradGradGradGradGradGradGradGradGradGradGrad
 Berny optimization.
 Search for a local minimum.
 Step number   1 out of a maximum of   20 on scan point     1 out of    31
 All quantities printed in internal units (Hartrees-Bohrs-Radians)
 Second derivative matrix not updated -- first step.
 The second derivative matrix:
                          r1        r2        r3        a1        OOP
           r1           0.38049
           r2           0.00000   0.02777
           r3          -0.00000  -0.00000   8.32120
           a1          -0.00000   0.00000   0.00000   0.41000
           OOP         -0.00000   0.00000   0.00000   0.00000   0.25728
 ITU=  0
     Eigenvalues --- 1000.000001000.000001000.000001000.000001000.00000
 RFO step:  Lambda= 0.00000000D+00 EMin= 1.00000000D+03
 Linear search not attempted -- first point.
 Variable       Old X    -DE/DX   Delta X   Delta X   Delta X     New X
                                 (Linear)    (Quad)   (Total)
    r1        3.17994  -0.01417   0.00000   0.00000   0.00000   3.17994
    r2        5.48904   0.00027   0.00000   0.00000   0.00000   5.48904
    r3        0.94486   3.28560   0.00000   0.00000   0.00000   0.94486
    a1        1.80694  -0.00115   0.00000   0.00000   0.00000   1.80694
   OOP        1.57080   0.00000   0.00000   0.00000   0.00000   1.57080
         Item               Value     Threshold  Converged?
 Maximum Force            0.000000     0.000450     YES
 RMS     Force            0.000000     0.000300     YES
 Maximum Displacement     0.000000     0.001800     YES
 RMS     Displacement     0.000000     0.001200     YES
 Predicted change in Energy=-0.000000D+00
 Optimization completed.
    -- Stationary point found.
                       ----------------------------
                       !   Optimized Parameters   !
                       ! (Angstroms and Degrees)  !
 ----------------------                            ----------------------
 !      Name          Value   Derivative information (Atomic Units)     !
 ------------------------------------------------------------------------
 !       r1          1.6827   -DE/DX =   -0.0142                        !
 !       r2          2.9047   -DE/DX =    0.0003                        !
 !       r3          0.5      -DE/DX =    3.2856                        !
 !       a1        103.5302   -DE/DX =   -0.0011                        !
 !       OOP        90.0      -DE/DX =    0.0                           !
 ------------------------------------------------------------------------
 Lowest energy point so far.  Saving SCF results.
 GradGradGradGradGradGradGradGradGradGradGradGradGradGradGradGradGradGrad

 Leave Link  103 at Mon Nov 15 07:43:57 2021, MaxMem= 16106127360 cpu:               1.7 elap:               0.1
 (Enter /sw/contrib/gaussian/g16/B01/g16/l202.exe)
 ---------------------------------------------------------------------------------------------------
                            Z-MATRIX (ANGSTROMS AND DEGREES)
   CD    Cent   Atom    N1       Length/X        N2       Alpha/Y        N3        Beta/Z          J
 ---------------------------------------------------------------------------------------------------
      1      1  O 
      2         X        1  10.000000(     1)
      3      2  Cl       1   1.682749(     2)      2   90.000(     5)
      4      3  Cl       1   2.904676(     3)      2   90.000(     6)      3  103.530(     8)      0
      5      4  H        1   0.550000(     4)      2   90.000(     7)      3  103.530(     9)      0
 ---------------------------------------------------------------------------------------------------
                         Z-Matrix orientation:                         
 ---------------------------------------------------------------------
 Center     Atomic      Atomic             Coordinates (Angstroms)
 Number     Number       Type             X           Y           Z
 ---------------------------------------------------------------------
      1          8           0        0.000000    0.000000    0.000000
      2         -1           0        0.000000    0.000000   10.000000
      3         17           0        1.682749    0.000000    0.000000
      4         17           0       -0.679570   -2.824062    0.000000
      5          1           0       -0.128676   -0.534736    0.000000
 ---------------------------------------------------------------------
                    Distance matrix (angstroms):
                    1          2          3          4          5
     1  O    0.000000
     2  X   10.000000   0.000000
     3  Cl   1.682749  10.140594   0.000000
     4  Cl   2.904676  10.413316   3.681831   0.000000
     5  H    0.550000  10.015114   1.888705   2.354676   0.000000
 Stoichiometry    Cl2HO(1-)
 Framework group  CS[SG(Cl2HO)]
 Deg. of freedom     5
 Full point group                 CS      NOp   2
 RotChk:  IX=0 Diff= 6.89D-02
 Largest Abelian subgroup         CS      NOp   2
 Largest concise Abelian subgroup C1      NOp   1
                         Standard orientation:                         
 ---------------------------------------------------------------------
 Center     Atomic      Atomic             Coordinates (Angstroms)
 Number     Number       Type             X           Y           Z
 ---------------------------------------------------------------------
      1          8           0       -0.449681    1.107787    0.000000
      2         17           0       -1.713574   -0.003169   -0.000000
      3         17           0        1.925188   -0.564678   -0.000000
      4          1           0        0.000000    0.791106    0.000000
 ---------------------------------------------------------------------
 Rotational constants (GHZ):          23.4094862           2.0600662           1.8934409
 Leave Link  202 at Mon Nov 15 07:43:57 2021, MaxMem= 16106127360 cpu:               0.4 elap:               0.0
 (Enter /sw/contrib/gaussian/g16/B01/g16/l301.exe)
 Standard basis: Aug-CC-pVTZ (5D, 7F)
 Ernie: Thresh=  0.10000D-02 Tol=  0.10000D-05 Strict=F.
 Ernie:  29 primitive shells out of 169 were deleted.
 There are   135 symmetry adapted cartesian basis functions of A'  symmetry.
 There are    63 symmetry adapted cartesian basis functions of A"  symmetry.
 There are   112 symmetry adapted basis functions of A'  symmetry.
 There are    57 symmetry adapted basis functions of A"  symmetry.
   169 basis functions,   327 primitive gaussians,   198 cartesian basis functions
    22 alpha electrons       22 beta electrons
       nuclear repulsion energy       125.3624691797 Hartrees.
 IExCor=    0 DFT=F Ex=HF Corr=None ExCW=0 ScaHFX=  1.000000
 ScaDFX=  1.000000  1.000000  1.000000  1.000000 ScalE2=  1.000000  1.000000
 IRadAn=      5 IRanWt=     -1 IRanGd=            0 ICorTp=0 IEmpDi=  4
 NAtoms=    4 NActive=    4 NUniq=    4 SFac= 1.00D+00 NAtFMM=   60 NAOKFM=F Big=F
 Integral buffers will be    131072 words long.
 Raffenetti 1 integral format.
 Two-electron integral symmetry is turned on.
 Leave Link  301 at Mon Nov 15 07:43:57 2021, MaxMem= 16106127360 cpu:               2.2 elap:               0.1
 (Enter /sw/contrib/gaussian/g16/B01/g16/l302.exe)
 NPDir=0 NMtPBC=     1 NCelOv=     1 NCel=       1 NClECP=     1 NCelD=      1
         NCelK=      1 NCelE2=     1 NClLst=     1 CellRange=     0.0.
 One-electron integrals computed using PRISM.
 One-electron integral symmetry used in STVInt
 NBasis=   169 RedAO= T EigKep=  1.17D-04  NBF=   112    57
 NBsUse=   169 1.00D-06 EigRej= -1.00D+00 NBFU=   112    57
 Leave Link  302 at Mon Nov 15 07:43:57 2021, MaxMem= 16106127360 cpu:               4.1 elap:               0.2
 (Enter /sw/contrib/gaussian/g16/B01/g16/l303.exe)
 DipDrv:  MaxL=1.
 Leave Link  303 at Mon Nov 15 07:43:57 2021, MaxMem= 16106127360 cpu:               2.2 elap:               0.1
 (Enter /sw/contrib/gaussian/g16/B01/g16/l401.exe)
 Initial guess from the checkpoint file:  "/gscratch/ilahie/mccoygrp/coire_hocl/rOH_s_oop_0/clhocl/clhocl_rOH_s_05-20.chk"
 B after Tr=    -0.000000    0.000000   -0.000000
         Rot=    0.999707    0.000000   -0.000000   -0.024225 Ang=  -2.78 deg.
 Guess basis will be translated and rotated to current coordinates.
 JPrj=2 DoOrth=T DoCkMO=T.
 Initial guess orbital symmetries:
       Occupied  (A') (A') (A') (A') (A') (A') (A') (A") (A') (A")
                 (A') (A') (A') (A') (A') (A") (A') (A') (A") (A')
                 (A') (A")
       Virtual   (A') (A') (A') (A") (A') (A') (A") (A') (A') (A")
                 (A') (A') (A') (A') (A") (A') (A') (A") (A") (A')
                 (A') (A") (A') (A') (A") (A') (A') (A') (A") (A')
                 (A') (A') (A") (A") (A') (A') (A") (A') (A") (A')
                 (A') (A") (A') (A') (A") (A') (A") (A') (A") (A')
                 (A') (A") (A') (A") (A') (A') (A') (A") (A") (A')
                 (A') (A") (A') (A') (A') (A") (A') (A") (A') (A')
                 (A") (A') (A') (A') (A") (A') (A') (A") (A') (A")
                 (A') (A') (A") (A') (A") (A') (A') (A") (A") (A')
                 (A") (A') (A') (A") (A') (A') (A") (A") (A') (A')
                 (A") (A') (A') (A") (A') (A') (A") (A') (A") (A")
                 (A') (A') (A') (A") (A') (A") (A') (A') (A') (A')
                 (A") (A') (A') (A") (A') (A') (A") (A') (A") (A')
                 (A') (A') (A') (A") (A') (A') (A") (A") (A') (A')
                 (A") (A') (A") (A') (A') (A') (A')
 The electronic state of the initial guess is 1-A'.
 Generating alternative initial guess.
 ExpMin= 2.53D-02 ExpMax= 4.56D+05 ExpMxC= 1.44D+03 IAcc=3 IRadAn=         5 AccDes= 0.00D+00
 Harris functional with IExCor=  205 and IRadAn=       5 diagonalized for initial guess.
 HarFok:  IExCor=  205 AccDes= 0.00D+00 IRadAn=         5 IDoV= 1 UseB2=F ITyADJ=14
 ICtDFT=  3500011 ScaDFX=  1.000000  1.000000  1.000000  1.000000
 FoFCou: FMM=F IPFlag=           0 FMFlag=      100000 FMFlg1=           0
         NFxFlg=           0 DoJE=T BraDBF=F KetDBF=T FulRan=T
         wScrn=  0.000000 ICntrl=       500 IOpCl=  0 I1Cent=   200000004 NGrid=           0
         NMat0=    1 NMatS0=      1 NMatT0=    0 NMatD0=    1 NMtDS0=    0 NMtDT0=    0
 Petite list used in FoFCou.
 Harris En= -993.397436324767    
 Leave Link  401 at Mon Nov 15 07:43:58 2021, MaxMem= 16106127360 cpu:               8.4 elap:               0.3
 (Enter /sw/contrib/gaussian/g16/B01/g16/l502.exe)
 Keep R1 ints in memory in symmetry-blocked form, NReq=155449223.
 FoFCou: FMM=F IPFlag=           0 FMFlag=           0 FMFlg1=           0
         NFxFlg=           0 DoJE=F BraDBF=F KetDBF=F FulRan=T
         wScrn=  0.000000 ICntrl=       600 IOpCl=  0 I1Cent=           0 NGrid=           0
         NMat0=    1 NMatS0=  14365 NMatT0=    0 NMatD0=    1 NMtDS0=    0 NMtDT0=    0
 Petite list used in FoFCou.
 Closed shell SCF:
 Using DIIS extrapolation, IDIIS=  1040.
 NGot= 16106127360 LenX= 16053777278 LenY= 16053737633
 Requested convergence on RMS density matrix=1.00D-08 within 128 cycles.
 Requested convergence on MAX density matrix=1.00D-06.
 Requested convergence on             energy=1.00D-06.
 No special actions if energy rises.

 Cycle   1  Pass 1  IDiag  1:
 E= -994.003748492653    
 DIIS: error= 9.39D-03 at cycle   1 NSaved=   1.
 NSaved= 1 IEnMin= 1 EnMin= -994.003748492653     IErMin= 1 ErrMin= 9.39D-03
 ErrMax= 9.39D-03  0.00D+00 EMaxC= 1.00D-01 BMatC= 1.46D-02 BMatP= 1.46D-02
 IDIUse=3 WtCom= 9.06D-01 WtEn= 9.39D-02
 Coeff-Com:  0.100D+01
 Coeff-En:   0.100D+01
 Coeff:      0.100D+01
 Gap=     0.325 Goal=   None    Shift=    0.000
 GapD=    0.325 DampG=1.000 DampE=1.000 DampFc=1.0000 IDamp=-1.
 RMSDP=1.01D-03 MaxDP=2.84D-02              OVMax= 1.85D-02

 Cycle   2  Pass 1  IDiag  1:
 E= -994.009388746310     Delta-E=       -0.005640253657 Rises=F Damp=F
 DIIS: error= 1.73D-03 at cycle   2 NSaved=   2.
 NSaved= 2 IEnMin= 2 EnMin= -994.009388746310     IErMin= 2 ErrMin= 1.73D-03
 ErrMax= 1.73D-03  0.00D+00 EMaxC= 1.00D-01 BMatC= 6.84D-04 BMatP= 1.46D-02
 IDIUse=3 WtCom= 9.83D-01 WtEn= 1.73D-02
 Coeff-Com:  0.487D-01 0.951D+00
 Coeff-En:   0.000D+00 0.100D+01
 Coeff:      0.479D-01 0.952D+00
 Gap=     0.325 Goal=   None    Shift=    0.000
 RMSDP=8.97D-05 MaxDP=3.56D-03 DE=-5.64D-03 OVMax= 9.42D-03

 Cycle   3  Pass 1  IDiag  1:
 E= -994.009705100902     Delta-E=       -0.000316354592 Rises=F Damp=F
 DIIS: error= 8.74D-04 at cycle   3 NSaved=   3.
 NSaved= 3 IEnMin= 3 EnMin= -994.009705100902     IErMin= 3 ErrMin= 8.74D-04
 ErrMax= 8.74D-04  0.00D+00 EMaxC= 1.00D-01 BMatC= 1.85D-04 BMatP= 6.84D-04
 IDIUse=3 WtCom= 9.91D-01 WtEn= 8.74D-03
 Coeff-Com: -0.321D-01 0.307D+00 0.725D+00
 Coeff-En:   0.000D+00 0.000D+00 0.100D+01
 Coeff:     -0.318D-01 0.305D+00 0.727D+00
 Gap=     0.324 Goal=   None    Shift=    0.000
 RMSDP=4.19D-05 MaxDP=1.38D-03 DE=-3.16D-04 OVMax= 3.29D-03

 Cycle   4  Pass 1  IDiag  1:
 E= -994.009818578325     Delta-E=       -0.000113477423 Rises=F Damp=F
 DIIS: error= 1.22D-04 at cycle   4 NSaved=   4.
 NSaved= 4 IEnMin= 4 EnMin= -994.009818578325     IErMin= 4 ErrMin= 1.22D-04
 ErrMax= 1.22D-04  0.00D+00 EMaxC= 1.00D-01 BMatC= 2.72D-06 BMatP= 1.85D-04
 IDIUse=3 WtCom= 9.99D-01 WtEn= 1.22D-03
 Coeff-Com: -0.337D-02-0.272D-01 0.491D-01 0.982D+00
 Coeff-En:   0.000D+00 0.000D+00 0.000D+00 0.100D+01
 Coeff:     -0.337D-02-0.272D-01 0.490D-01 0.982D+00
 Gap=     0.324 Goal=   None    Shift=    0.000
 RMSDP=6.64D-06 MaxDP=2.80D-04 DE=-1.13D-04 OVMax= 6.25D-04

 Cycle   5  Pass 1  IDiag  1:
 E= -994.009821308417     Delta-E=       -0.000002730092 Rises=F Damp=F
 DIIS: error= 2.66D-05 at cycle   5 NSaved=   5.
 NSaved= 5 IEnMin= 5 EnMin= -994.009821308417     IErMin= 5 ErrMin= 2.66D-05
 ErrMax= 2.66D-05  0.00D+00 EMaxC= 1.00D-01 BMatC= 1.31D-07 BMatP= 2.72D-06
 IDIUse=1 WtCom= 1.00D+00 WtEn= 0.00D+00
 Coeff-Com:  0.132D-02-0.104D-01-0.381D-01-0.318D-01 0.108D+01
 Coeff:      0.132D-02-0.104D-01-0.381D-01-0.318D-01 0.108D+01
 Gap=     0.324 Goal=   None    Shift=    0.000
 RMSDP=1.84D-06 MaxDP=3.49D-05 DE=-2.73D-06 OVMax= 1.46D-04

 Cycle   6  Pass 1  IDiag  1:
 E= -994.009821483922     Delta-E=       -0.000000175505 Rises=F Damp=F
 DIIS: error= 7.36D-06 at cycle   6 NSaved=   6.
 NSaved= 6 IEnMin= 6 EnMin= -994.009821483922     IErMin= 6 ErrMin= 7.36D-06
 ErrMax= 7.36D-06  0.00D+00 EMaxC= 1.00D-01 BMatC= 7.48D-09 BMatP= 1.31D-07
 IDIUse=1 WtCom= 1.00D+00 WtEn= 0.00D+00
 Coeff-Com: -0.872D-05 0.259D-02-0.117D-02-0.416D-01-0.810D-01 0.112D+01
 Coeff:     -0.872D-05 0.259D-02-0.117D-02-0.416D-01-0.810D-01 0.112D+01
 Gap=     0.324 Goal=   None    Shift=    0.000
 RMSDP=6.11D-07 MaxDP=1.42D-05 DE=-1.76D-07 OVMax= 5.90D-05

 Cycle   7  Pass 1  IDiag  1:
 E= -994.009821500078     Delta-E=       -0.000000016156 Rises=F Damp=F
 DIIS: error= 3.09D-06 at cycle   7 NSaved=   7.
 NSaved= 7 IEnMin= 7 EnMin= -994.009821500078     IErMin= 7 ErrMin= 3.09D-06
 ErrMax= 3.09D-06  0.00D+00 EMaxC= 1.00D-01 BMatC= 8.36D-10 BMatP= 7.48D-09
 IDIUse=1 WtCom= 1.00D+00 WtEn= 0.00D+00
 Coeff-Com: -0.112D-03 0.839D-03 0.262D-02 0.611D-02-0.753D-01-0.155D+00
 Coeff-Com:  0.122D+01
 Coeff:     -0.112D-03 0.839D-03 0.262D-02 0.611D-02-0.753D-01-0.155D+00
 Coeff:      0.122D+01
 Gap=     0.324 Goal=   None    Shift=    0.000
 RMSDP=2.68D-07 MaxDP=6.95D-06 DE=-1.62D-08 OVMax= 2.91D-05

 Cycle   8  Pass 1  IDiag  1:
 E= -994.009821502553     Delta-E=       -0.000000002475 Rises=F Damp=F
 DIIS: error= 1.07D-06 at cycle   8 NSaved=   8.
 NSaved= 8 IEnMin= 8 EnMin= -994.009821502553     IErMin= 8 ErrMin= 1.07D-06
 ErrMax= 1.07D-06  0.00D+00 EMaxC= 1.00D-01 BMatC= 9.47D-11 BMatP= 8.36D-10
 IDIUse=1 WtCom= 1.00D+00 WtEn= 0.00D+00
 Coeff-Com:  0.175D-04-0.309D-03-0.527D-03 0.242D-02 0.252D-01-0.863D-01
 Coeff-Com: -0.246D+00 0.131D+01
 Coeff:      0.175D-04-0.309D-03-0.527D-03 0.242D-02 0.252D-01-0.863D-01
 Coeff:     -0.246D+00 0.131D+01
 Gap=     0.324 Goal=   None    Shift=    0.000
 RMSDP=1.02D-07 MaxDP=2.65D-06 DE=-2.47D-09 OVMax= 1.10D-05

 Cycle   9  Pass 1  IDiag  1:
 E= -994.009821502879     Delta-E=       -0.000000000325 Rises=F Damp=F
 DIIS: error= 3.04D-07 at cycle   9 NSaved=   9.
 NSaved= 9 IEnMin= 9 EnMin= -994.009821502879     IErMin= 9 ErrMin= 3.04D-07
 ErrMax= 3.04D-07  0.00D+00 EMaxC= 1.00D-01 BMatC= 7.33D-12 BMatP= 9.47D-11
 IDIUse=1 WtCom= 1.00D+00 WtEn= 0.00D+00
 Coeff-Com:  0.133D-04-0.805D-04-0.319D-03-0.921D-03 0.863D-02 0.161D-01
 Coeff-Com: -0.116D+00-0.533D-01 0.115D+01
 Coeff:      0.133D-04-0.805D-04-0.319D-03-0.921D-03 0.863D-02 0.161D-01
 Coeff:     -0.116D+00-0.533D-01 0.115D+01
 Gap=     0.324 Goal=   None    Shift=    0.000
 RMSDP=3.07D-08 MaxDP=8.42D-07 DE=-3.25D-10 OVMax= 3.33D-06

 Cycle  10  Pass 1  IDiag  1:
 E= -994.009821502907     Delta-E=       -0.000000000029 Rises=F Damp=F
 DIIS: error= 7.75D-08 at cycle  10 NSaved=  10.
 NSaved=10 IEnMin=10 EnMin= -994.009821502907     IErMin=10 ErrMin= 7.75D-08
 ErrMax= 7.75D-08  0.00D+00 EMaxC= 1.00D-01 BMatC= 7.94D-13 BMatP= 7.33D-12
 IDIUse=1 WtCom= 1.00D+00 WtEn= 0.00D+00
 Coeff-Com: -0.428D-05 0.402D-04 0.106D-03 0.904D-04-0.371D-02-0.487D-03
 Coeff-Com:  0.538D-01-0.862D-01-0.325D+00 0.136D+01
 Coeff:     -0.428D-05 0.402D-04 0.106D-03 0.904D-04-0.371D-02-0.487D-03
 Coeff:      0.538D-01-0.862D-01-0.325D+00 0.136D+01
 Gap=     0.324 Goal=   None    Shift=    0.000
 RMSDP=1.24D-08 MaxDP=4.13D-07 DE=-2.86D-11 OVMax= 1.55D-06

 Cycle  11  Pass 1  IDiag  1:
 E= -994.009821502910     Delta-E=       -0.000000000003 Rises=F Damp=F
 DIIS: error= 2.80D-08 at cycle  11 NSaved=  11.
 NSaved=11 IEnMin=11 EnMin= -994.009821502910     IErMin=11 ErrMin= 2.80D-08
 ErrMax= 2.80D-08  0.00D+00 EMaxC= 1.00D-01 BMatC= 1.03D-13 BMatP= 7.94D-13
 IDIUse=1 WtCom= 1.00D+00 WtEn= 0.00D+00
 Coeff-Com: -0.121D-05 0.736D-05 0.290D-04 0.814D-04-0.639D-03-0.263D-02
 Coeff-Com:  0.124D-01 0.856D-02-0.123D+00-0.232D-01 0.113D+01
 Coeff:     -0.121D-05 0.736D-05 0.290D-04 0.814D-04-0.639D-03-0.263D-02
 Coeff:      0.124D-01 0.856D-02-0.123D+00-0.232D-01 0.113D+01
 Gap=     0.324 Goal=   None    Shift=    0.000
 RMSDP=4.04D-09 MaxDP=1.54D-07 DE=-2.96D-12 OVMax= 5.80D-07

 SCF Done:  E(RHF) =  -994.009821503     A.U. after   11 cycles
            NFock= 11  Conv=0.40D-08     -V/T= 1.9978
 KE= 9.962042709040D+02 PE=-2.628314210815D+03 EE= 5.127376492283D+02
 Leave Link  502 at Mon Nov 15 07:44:00 2021, MaxMem= 16106127360 cpu:              32.2 elap:               1.8
 (Enter /sw/contrib/gaussian/g16/B01/g16/l801.exe)
 ExpMin= 2.53D-02 ExpMax= 4.56D+05 ExpMxC= 1.44D+03 IAcc=3 IRadAn=         5 AccDes= 0.00D+00
 HarFok:  IExCor=  205 AccDes= 0.00D+00 IRadAn=         5 IDoV=-2 UseB2=F ITyADJ=14
 ICtDFT= 12500011 ScaDFX=  1.000000  1.000000  1.000000  1.000000
 Largest valence mixing into a core orbital is  4.49D-04
 Largest core mixing into a valence orbital is  1.75D-04
 Range of M.O.s used for correlation:    12   169
 NBasis=   169 NAE=    22 NBE=    22 NFC=    11 NFV=     0
 NROrb=    158 NOA=    11 NOB=    11 NVA=   147 NVB=   147

 **** Warning!!: The largest alpha MO coefficient is  0.24797025D+02

 Leave Link  801 at Mon Nov 15 07:44:00 2021, MaxMem= 16106127360 cpu:               2.3 elap:               0.1
 (Enter /sw/contrib/gaussian/g16/B01/g16/l906.exe)
 Frozen-core derivative calculation, NFC=  11 NFV=   0.
 FulOut=F Deriv=T AODrv=T NAtomX=     4
   MMem=         143  MDisk=          11 MDiskD=          11
  W3Min=      736164 MinDsk=     1250177 NBas6D=         198
 NBas2D=       20187    NTT=       19701    LW2=     3500000
    MDV= 16105706199 MDiskM=      406659 NBas2p=       20117
 Fully direct method using O(ONN) memory.
 IMap=   1   2   3   4   5   6   7   8   9  10  11  12  13  14  15  16  17  18  19  20
 IMap=  21  22
 JobTyp=1 Pass  1:  I=  12 to  22 NPSUse= 28 ParTrn=T ParDer=T DoDerP=T.
 Spin components of T(2) and E(2):
     alpha-alpha T2 =       0.2683050904D-01 E2=     -0.8042427175D-01
     alpha-beta  T2 =       0.1492167708D+00 E2=     -0.4847075660D+00
     beta-beta   T2 =       0.2683050904D-01 E2=     -0.8042427175D-01
 The integrals were generated   1 times.
 ANorm=    0.1096757853D+01
 E2 =    -0.6455561095D+00 EUMP2 =    -0.99465537761244D+03
 Leave Link  906 at Mon Nov 15 07:44:10 2021, MaxMem= 16106127360 cpu:             281.0 elap:              10.1
 (Enter /sw/contrib/gaussian/g16/B01/g16/l1002.exe)
 Minotr:  Closed shell wavefunction.
          Computing MP2/KS-MP2 derivatives.
          Using Z-Vector for PSCF gradient.
          Skipping F1 and S1 gradient terms here.
          IDoAtm=1111
          Frozen-core window.
          Direct CPHF calculation.
          Differentiating once with respect to electric field.
                with respect to dipole field.
          Differentiating once with respect to nuclear coordinates.
          Using symmetry in CPHF.
          Requested convergence is 1.0D-10 RMS, and 1.0D-09 maximum.
          NewPWx=F KeepS1=T KeepF1=T KeepIn=T MapXYZ=F SortEE=F KeepMc=T.
 Keep R1 ints in memory in symmetry-blocked form, NReq=155450263.
 FoFCou: FMM=F IPFlag=           0 FMFlag=           0 FMFlg1=           0
         NFxFlg=           0 DoJE=F BraDBF=F KetDBF=F FulRan=T
         wScrn=  0.000000 ICntrl=       600 IOpCl=  0 I1Cent=           0 NGrid=           0
         NMat0=    1 NMatS0=  14365 NMatT0=    0 NMatD0=    1 NMtDS0=    0 NMtDT0=    0
 Petite list used in FoFCou.
          MDV=   16106127360 using IRadAn=       5.
          Solving linear equations separately, MaxMat=       0.
          There are     1 degrees of freedom in the 1st order CPHF.  IDoFFX=0 NUNeed=     1.
 LinEq1:  Iter=  0 NonCon=     1 RMS=2.66D-03 Max=4.04D-02 NDo=     1
 AX will form     1 AO Fock derivatives at one time.
 LinEq1:  Iter=  1 NonCon=     1 RMS=3.36D-04 Max=5.85D-03 NDo=     1
 LinEq1:  Iter=  2 NonCon=     1 RMS=1.11D-04 Max=1.99D-03 NDo=     1
 LinEq1:  Iter=  3 NonCon=     1 RMS=2.38D-05 Max=4.76D-04 NDo=     1
 LinEq1:  Iter=  4 NonCon=     1 RMS=1.01D-05 Max=1.44D-04 NDo=     1
 LinEq1:  Iter=  5 NonCon=     1 RMS=4.10D-06 Max=1.13D-04 NDo=     1
 LinEq1:  Iter=  6 NonCon=     1 RMS=1.03D-06 Max=1.36D-05 NDo=     1
 LinEq1:  Iter=  7 NonCon=     1 RMS=2.37D-07 Max=5.43D-06 NDo=     1
 LinEq1:  Iter=  8 NonCon=     1 RMS=6.57D-08 Max=1.20D-06 NDo=     1
 LinEq1:  Iter=  9 NonCon=     1 RMS=2.15D-08 Max=4.24D-07 NDo=     1
 LinEq1:  Iter= 10 NonCon=     1 RMS=4.79D-09 Max=7.49D-08 NDo=     1
 LinEq1:  Iter= 11 NonCon=     1 RMS=1.14D-09 Max=9.71D-09 NDo=     1
 LinEq1:  Iter= 12 NonCon=     1 RMS=2.48D-10 Max=3.27D-09 NDo=     1
 LinEq1:  Iter= 13 NonCon=     0 RMS=5.56D-11 Max=8.22D-10 NDo=     1
 Linear equations converged to 1.000D-10 1.000D-09 after    13 iterations.
 End of Minotr F.D. properties file   721 does not exist.
 End of Minotr F.D. properties file   722 does not exist.
 End of Minotr F.D. properties file   788 does not exist.
 Leave Link 1002 at Mon Nov 15 07:44:12 2021, MaxMem= 16106127360 cpu:              33.5 elap:               1.9
 (Enter /sw/contrib/gaussian/g16/B01/g16/l701.exe)
 ... and contract with generalized density number  2.
 Compute integral first derivatives.
 Leave Link  701 at Mon Nov 15 07:44:12 2021, MaxMem= 16106127360 cpu:               4.2 elap:               0.2
 (Enter /sw/contrib/gaussian/g16/B01/g16/l702.exe)
 L702 exits ... SP integral derivatives will be done elsewhere.
 Leave Link  702 at Mon Nov 15 07:44:12 2021, MaxMem= 16106127360 cpu:               1.1 elap:               0.1
 (Enter /sw/contrib/gaussian/g16/B01/g16/l703.exe)
 Integral derivatives from FoFJK, PRISM(SPDF).
 Compute integral first derivatives, UseDBF=F ICtDFT=           0.
 Calling FoFJK, ICntrl=  10002127 FMM=F ISym2X=1 I1Cent= 0 IOpClX= 0 NMat=1 NMatS=1 NMatT=0.
 FoFJK:  IHMeth= 1 ICntrl=10002127 DoSepK=F KAlg= 0 I1Cent=           0 FoldK=F
 IRaf=         0 NMat=       1 IRICut=       1 DoRegI=T DoRafI=F ISym2E= 1 IDoP0=0 IntGTp=1.
 FoFCou: FMM=F IPFlag=           0 FMFlag=      100000 FMFlg1=         800
         NFxFlg=           0 DoJE=F BraDBF=F KetDBF=F FulRan=T
         wScrn=  0.000000 ICntrl=  10002127 IOpCl=  0 I1Cent=           0 NGrid=           0
         NMat0=    1 NMatS0=      1 NMatT0=    0 NMatD0=    1 NMtDS0=    0 NMtDT0=    0
 Petite list used in FoFCou.
 Leave Link  703 at Mon Nov 15 07:44:13 2021, MaxMem= 16106127360 cpu:              34.6 elap:               1.3
 (Enter /sw/contrib/gaussian/g16/B01/g16/l716.exe)
 Dipole        =-2.88645132D+00 5.80548627D-01 4.95305474D-34
 ***** Axes restored to original set *****
 -------------------------------------------------------------------
 Center     Atomic                   Forces (Hartrees/Bohr)
 Number     Number              X              Y              Z
 -------------------------------------------------------------------
      1        8           0.542439809    2.211777128    0.000000000
      2       17          -0.011667401   -0.000107813   -0.000000000
      3       17          -0.000424033   -0.000699913   -0.000000000
      4        1          -0.530348376   -2.210969402   -0.000000000
 -------------------------------------------------------------------
 Cartesian Forces:  Max     2.211777128 RMS     0.928977525
 -----------------------------------------------------------------------------------------------
                       Internal Coordinate Forces (Hartree/Bohr or radian)
  Cent   Atom   N1       Length/X         N2         Alpha/Y        N3         Beta/Z          J
 -----------------------------------------------------------------------------------------------
      1  O 
         X        1   0.000000(     1)
      2  Cl       1  -0.011667(     2)      2   0.000000(     5)
      3  Cl       1   0.000780(     3)      2   0.000000(     6)      3   0.001364(     8)     0
      4  H        1   2.273687(     4)      2   0.000000(     7)      3  -0.001707(     9)     0
 -----------------------------------------------------------------------------------------------
 Internal  Forces:  Max     2.273686961 RMS     0.757906027
 Leave Link  716 at Mon Nov 15 07:44:13 2021, MaxMem= 16106127360 cpu:               0.9 elap:               0.1
 (Enter /sw/contrib/gaussian/g16/B01/g16/l103.exe)

 GradGradGradGradGradGradGradGradGradGradGradGradGradGradGradGradGradGrad
 Berny optimization.
 Search for a local minimum.
 Step number   1 out of a maximum of   20 on scan point     2 out of    31
 All quantities printed in internal units (Hartrees-Bohrs-Radians)
 Second derivative matrix not updated -- first step.
 The second derivative matrix:
                          r1        r2        r3        a1        OOP
           r1           0.38049
           r2           0.00000   0.02777
           r3          -0.00000  -0.00000   8.32120
           a1          -0.00000   0.00000   0.00000   0.41000
           OOP         -0.00000   0.00000   0.00000   0.00000   0.25728
 ITU=  0
     Eigenvalues --- 1000.000001000.000001000.000001000.000001000.00000
 RFO step:  Lambda= 0.00000000D+00 EMin= 1.00000000D+03
 Linear search not attempted -- first point.
 Variable       Old X    -DE/DX   Delta X   Delta X   Delta X     New X
                                 (Linear)    (Quad)   (Total)
    r1        3.17994  -0.01167   0.00000   0.00000   0.00000   3.17994
    r2        5.48904   0.00078   0.00000   0.00000   0.00000   5.48904
    r3        1.03935   2.27369   0.00000   0.00000   0.00000   1.03935
    a1        1.80694  -0.00034   0.00000   0.00000   0.00000   1.80694
   OOP        1.57080   0.00000   0.00000   0.00000   0.00000   1.57080
         Item               Value     Threshold  Converged?
 Maximum Force            0.000000     0.000450     YES
 RMS     Force            0.000000     0.000300     YES
 Maximum Displacement     0.000000     0.001800     YES
 RMS     Displacement     0.000000     0.001200     YES
 Predicted change in Energy=-0.000000D+00
 Optimization completed.
    -- Stationary point found.
                       ----------------------------
                       !   Optimized Parameters   !
                       ! (Angstroms and Degrees)  !
 ----------------------                            ----------------------
 !      Name          Value   Derivative information (Atomic Units)     !
 ------------------------------------------------------------------------
 !       r1          1.6827   -DE/DX =   -0.0117                        !
 !       r2          2.9047   -DE/DX =    0.0008                        !
 !       r3          0.55     -DE/DX =    2.2737                        !
 !       a1        103.5302   -DE/DX =   -0.0003                        !
 !       OOP        90.0      -DE/DX =    0.0                           !
 ------------------------------------------------------------------------
 Lowest energy point so far.  Saving SCF results.
 GradGradGradGradGradGradGradGradGradGradGradGradGradGradGradGradGradGrad

 Leave Link  103 at Mon Nov 15 07:44:13 2021, MaxMem= 16106127360 cpu:               1.4 elap:               0.1
 (Enter /sw/contrib/gaussian/g16/B01/g16/l202.exe)
 ---------------------------------------------------------------------------------------------------
                            Z-MATRIX (ANGSTROMS AND DEGREES)
   CD    Cent   Atom    N1       Length/X        N2       Alpha/Y        N3        Beta/Z          J
 ---------------------------------------------------------------------------------------------------
      1      1  O 
      2         X        1  10.000000(     1)
      3      2  Cl       1   1.682749(     2)      2   90.000(     5)
      4      3  Cl       1   2.904676(     3)      2   90.000(     6)      3  103.530(     8)      0
      5      4  H        1   0.600000(     4)      2   90.000(     7)      3  103.530(     9)      0
 ---------------------------------------------------------------------------------------------------
                         Z-Matrix orientation:                         
 ---------------------------------------------------------------------
 Center     Atomic      Atomic             Coordinates (Angstroms)
 Number     Number       Type             X           Y           Z
 ---------------------------------------------------------------------
      1          8           0        0.000000    0.000000    0.000000
      2         -1           0        0.000000    0.000000   10.000000
      3         17           0        1.682749    0.000000    0.000000
      4         17           0       -0.679570   -2.824062    0.000000
      5          1           0       -0.140374   -0.583348    0.000000
 ---------------------------------------------------------------------
                    Distance matrix (angstroms):
                    1          2          3          4          5
     1  O    0.000000
     2  X   10.000000   0.000000
     3  Cl   1.682749  10.140594   0.000000
     4  Cl   2.904676  10.413316   3.681831   0.000000
     5  H    0.600000  10.017984   1.914177   2.304676   0.000000
 Stoichiometry    Cl2HO(1-)
 Framework group  CS[SG(Cl2HO)]
 Deg. of freedom     5
 Full point group                 CS      NOp   2
 RotChk:  IX=0 Diff= 7.39D-02
 Largest Abelian subgroup         CS      NOp   2
 Largest concise Abelian subgroup C1      NOp   1
                         Standard orientation:                         
 ---------------------------------------------------------------------
 Center     Atomic      Atomic             Coordinates (Angstroms)
 Number     Number       Type             X           Y           Z
 ---------------------------------------------------------------------
      1          8           0       -0.507946    1.083391   -0.000000
      2         17           0       -1.712051   -0.092100   -0.000000
      3         17           0        1.951084   -0.462674    0.000000
      4          1           0       -0.000000    0.764030   -0.000000
 ---------------------------------------------------------------------
 Rotational constants (GHZ):          23.4428825           2.0601817           1.8937567
 Leave Link  202 at Mon Nov 15 07:44:13 2021, MaxMem= 16106127360 cpu:               0.9 elap:               0.1
 (Enter /sw/contrib/gaussian/g16/B01/g16/l301.exe)
 Standard basis: Aug-CC-pVTZ (5D, 7F)
 Ernie: Thresh=  0.10000D-02 Tol=  0.10000D-05 Strict=F.
 Ernie:  29 primitive shells out of 169 were deleted.
 There are   135 symmetry adapted cartesian basis functions of A'  symmetry.
 There are    63 symmetry adapted cartesian basis functions of A"  symmetry.
 There are   112 symmetry adapted basis functions of A'  symmetry.
 There are    57 symmetry adapted basis functions of A"  symmetry.
   169 basis functions,   327 primitive gaussians,   198 cartesian basis functions
    22 alpha electrons       22 beta electrons
       nuclear repulsion energy       124.7405443333 Hartrees.
 IExCor=    0 DFT=F Ex=HF Corr=None ExCW=0 ScaHFX=  1.000000
 ScaDFX=  1.000000  1.000000  1.000000  1.000000 ScalE2=  1.000000  1.000000
 IRadAn=      5 IRanWt=     -1 IRanGd=            0 ICorTp=0 IEmpDi=  4
 NAtoms=    4 NActive=    4 NUniq=    4 SFac= 1.00D+00 NAtFMM=   60 NAOKFM=F Big=F
 Integral buffers will be    131072 words long.
 Raffenetti 1 integral format.
 Two-electron integral symmetry is turned on.
 Leave Link  301 at Mon Nov 15 07:44:14 2021, MaxMem= 16106127360 cpu:               2.9 elap:               0.1
 (Enter /sw/contrib/gaussian/g16/B01/g16/l302.exe)
 NPDir=0 NMtPBC=     1 NCelOv=     1 NCel=       1 NClECP=     1 NCelD=      1
         NCelK=      1 NCelE2=     1 NClLst=     1 CellRange=     0.0.
 One-electron integrals computed using PRISM.
 One-electron integral symmetry used in STVInt
 NBasis=   169 RedAO= T EigKep=  1.26D-04  NBF=   112    57
 NBsUse=   169 1.00D-06 EigRej= -1.00D+00 NBFU=   112    57
 Leave Link  302 at Mon Nov 15 07:44:14 2021, MaxMem= 16106127360 cpu:               4.0 elap:               0.2
 (Enter /sw/contrib/gaussian/g16/B01/g16/l303.exe)
 DipDrv:  MaxL=1.
 Leave Link  303 at Mon Nov 15 07:44:14 2021, MaxMem= 16106127360 cpu:               1.0 elap:               0.1
 (Enter /sw/contrib/gaussian/g16/B01/g16/l401.exe)
 Initial guess from the checkpoint file:  "/gscratch/ilahie/mccoygrp/coire_hocl/rOH_s_oop_0/clhocl/clhocl_rOH_s_05-20.chk"
 B after Tr=    -0.000000    0.000000   -0.000000
         Rot=    0.999662   -0.000000   -0.000000   -0.026016 Ang=  -2.98 deg.
 Guess basis will be translated and rotated to current coordinates.
 JPrj=2 DoOrth=T DoCkMO=T.
 Initial guess orbital symmetries:
       Occupied  (A') (A') (A') (A') (A') (A') (A') (A") (A') (A")
                 (A') (A') (A') (A') (A') (A") (A') (A') (A") (A')
                 (A') (A")
       Virtual   (A') (A') (A') (A") (A') (A') (A") (A') (A') (A")
                 (A') (A') (A') (A') (A") (A') (A') (A") (A") (A')
                 (A') (A") (A') (A') (A") (A') (A') (A') (A") (A')
                 (A') (A') (A") (A") (A') (A') (A") (A') (A") (A')
                 (A') (A") (A') (A') (A") (A') (A') (A") (A") (A')
                 (A') (A") (A') (A") (A') (A') (A') (A") (A') (A")
                 (A') (A") (A') (A') (A') (A") (A') (A") (A') (A')
                 (A") (A') (A') (A') (A") (A') (A') (A") (A') (A')
                 (A") (A') (A") (A') (A") (A') (A") (A') (A") (A')
                 (A") (A') (A') (A") (A') (A') (A") (A") (A') (A')
                 (A") (A') (A') (A") (A') (A') (A") (A') (A") (A")
                 (A') (A') (A') (A") (A') (A") (A') (A') (A') (A')
                 (A') (A") (A') (A") (A') (A') (A") (A') (A") (A')
                 (A') (A') (A') (A") (A') (A') (A") (A") (A') (A')
                 (A") (A') (A") (A') (A') (A') (A')
 The electronic state of the initial guess is 1-A'.
 Generating alternative initial guess.
 ExpMin= 2.53D-02 ExpMax= 4.56D+05 ExpMxC= 1.44D+03 IAcc=3 IRadAn=         5 AccDes= 0.00D+00
 Harris functional with IExCor=  205 and IRadAn=       5 diagonalized for initial guess.
 HarFok:  IExCor=  205 AccDes= 0.00D+00 IRadAn=         5 IDoV= 1 UseB2=F ITyADJ=14
 ICtDFT=  3500011 ScaDFX=  1.000000  1.000000  1.000000  1.000000
 FoFCou: FMM=F IPFlag=           0 FMFlag=      100000 FMFlg1=           0
         NFxFlg=           0 DoJE=T BraDBF=F KetDBF=T FulRan=T
         wScrn=  0.000000 ICntrl=       500 IOpCl=  0 I1Cent=   200000004 NGrid=           0
         NMat0=    1 NMatS0=      1 NMatT0=    0 NMatD0=    1 NMtDS0=    0 NMtDT0=    0
 Petite list used in FoFCou.
 Harris En= -993.546250207719    
 Leave Link  401 at Mon Nov 15 07:44:14 2021, MaxMem= 16106127360 cpu:               8.1 elap:               0.3
 (Enter /sw/contrib/gaussian/g16/B01/g16/l502.exe)
 Keep R1 ints in memory in symmetry-blocked form, NReq=155449223.
 FoFCou: FMM=F IPFlag=           0 FMFlag=           0 FMFlg1=           0
         NFxFlg=           0 DoJE=F BraDBF=F KetDBF=F FulRan=T
         wScrn=  0.000000 ICntrl=       600 IOpCl=  0 I1Cent=           0 NGrid=           0
         NMat0=    1 NMatS0=  14365 NMatT0=    0 NMatD0=    1 NMtDS0=    0 NMtDT0=    0
 Petite list used in FoFCou.
 Closed shell SCF:
 Using DIIS extrapolation, IDIIS=  1040.
 NGot= 16106127360 LenX= 16053777278 LenY= 16053737633
 Requested convergence on RMS density matrix=1.00D-08 within 128 cycles.
 Requested convergence on MAX density matrix=1.00D-06.
 Requested convergence on             energy=1.00D-06.
 No special actions if energy rises.

 Cycle   1  Pass 1  IDiag  1:
 E= -994.183418372697    
 DIIS: error= 9.73D-03 at cycle   1 NSaved=   1.
 NSaved= 1 IEnMin= 1 EnMin= -994.183418372697     IErMin= 1 ErrMin= 9.73D-03
 ErrMax= 9.73D-03  0.00D+00 EMaxC= 1.00D-01 BMatC= 1.10D-02 BMatP= 1.10D-02
 IDIUse=3 WtCom= 9.03D-01 WtEn= 9.73D-02
 Coeff-Com:  0.100D+01
 Coeff-En:   0.100D+01
 Coeff:      0.100D+01
 Gap=     0.327 Goal=   None    Shift=    0.000
 GapD=    0.327 DampG=1.000 DampE=1.000 DampFc=1.0000 IDamp=-1.
 RMSDP=8.02D-04 MaxDP=3.43D-02              OVMax= 1.57D-02

 Cycle   2  Pass 1  IDiag  1:
 E= -994.187814578043     Delta-E=       -0.004396205346 Rises=F Damp=F
 DIIS: error= 1.39D-03 at cycle   2 NSaved=   2.
 NSaved= 2 IEnMin= 2 EnMin= -994.187814578043     IErMin= 2 ErrMin= 1.39D-03
 ErrMax= 1.39D-03  0.00D+00 EMaxC= 1.00D-01 BMatC= 4.55D-04 BMatP= 1.10D-02
 IDIUse=3 WtCom= 9.86D-01 WtEn= 1.39D-02
 Coeff-Com:  0.345D-01 0.966D+00
 Coeff-En:   0.000D+00 0.100D+01
 Coeff:      0.340D-01 0.966D+00
 Gap=     0.327 Goal=   None    Shift=    0.000
 RMSDP=7.66D-05 MaxDP=2.92D-03 DE=-4.40D-03 OVMax= 7.58D-03

 Cycle   3  Pass 1  IDiag  1:
 E= -994.188027515227     Delta-E=       -0.000212937184 Rises=F Damp=F
 DIIS: error= 7.63D-04 at cycle   3 NSaved=   3.
 NSaved= 3 IEnMin= 3 EnMin= -994.188027515227     IErMin= 3 ErrMin= 7.63D-04
 ErrMax= 7.63D-04  0.00D+00 EMaxC= 1.00D-01 BMatC= 1.26D-04 BMatP= 4.55D-04
 IDIUse=3 WtCom= 9.92D-01 WtEn= 7.63D-03
 Coeff-Com: -0.306D-01 0.312D+00 0.719D+00
 Coeff-En:   0.000D+00 0.000D+00 0.100D+01
 Coeff:     -0.303D-01 0.309D+00 0.721D+00
[...]
         NMat0=    1 NMatS0=      1 NMatT0=    0 NMatD0=    1 NMtDS0=    0 NMtDT0=    0
 Petite list used in FoFCou.
 Leave Link  703 at Mon Nov 15 07:52:15 2021, MaxMem= 16106127360 cpu:              35.1 elap:               1.3
 (Enter /sw/contrib/gaussian/g16/B01/g16/l716.exe)
 Dipole        = 9.99557051D-01 1.03212703D+00-1.50648530D-32
 ***** Axes restored to original set *****
 -------------------------------------------------------------------
 Center     Atomic                   Forces (Hartrees/Bohr)
 Number     Number              X              Y              Z
 -------------------------------------------------------------------
      1        8           0.006456766    0.000703950    0.000000000
      2       17          -0.006498478    0.000032561    0.000000000
      3       17          -0.177251859   -0.734328810   -0.000000000
      4        1           0.177293572    0.733592298    0.000000000
 -------------------------------------------------------------------
 Cartesian Forces:  Max     0.734328810 RMS     0.308265593
 -----------------------------------------------------------------------------------------------
                       Internal Coordinate Forces (Hartree/Bohr or radian)
  Cent   Atom   N1       Length/X         N2         Alpha/Y        N3         Beta/Z          J
 -----------------------------------------------------------------------------------------------
      1  O 
         X        1   0.000000(     1)
      2  Cl       1  -0.006498(     2)      2  -0.000000(     5)
      3  Cl       1   0.755418(     3)      2   0.000000(     6)      3   0.002915(     8)     0
      4  H        1  -0.754712(     4)      2  -0.000000(     7)      3  -0.002812(     9)     0
 -----------------------------------------------------------------------------------------------
 Internal  Forces:  Max     0.755418255 RMS     0.355950292
 Leave Link  716 at Mon Nov 15 07:52:15 2021, MaxMem= 16106127360 cpu:               1.7 elap:               0.1
 (Enter /sw/contrib/gaussian/g16/B01/g16/l103.exe)

 GradGradGradGradGradGradGradGradGradGradGradGradGradGradGradGradGradGrad
 Berny optimization.
 Search for a local minimum.
 Step number   1 out of a maximum of   20 on scan point    31 out of    31
 All quantities printed in internal units (Hartrees-Bohrs-Radians)
 Second derivative matrix not updated -- first step.
 The second derivative matrix:
                          r1        r2        r3        a1        OOP
           r1           0.38049
           r2           0.00000   0.02777
           r3          -0.00000  -0.00000   8.32120
           a1          -0.00000   0.00000   0.00000   0.41000
           OOP         -0.00000   0.00000   0.00000   0.00000   0.25728
 ITU=  0
     Eigenvalues --- 1000.000001000.000001000.000001000.000001000.00000
 RFO step:  Lambda= 0.00000000D+00 EMin= 1.00000000D+03
 Linear search not attempted -- first point.
 Variable       Old X    -DE/DX   Delta X   Delta X   Delta X     New X
                                 (Linear)    (Quad)   (Total)
    r1        3.17994  -0.00650   0.00000   0.00000   0.00000   3.17994
    r2        5.48904   0.75542   0.00000   0.00000   0.00000   5.48904
    r3        3.77945  -0.75471   0.00000   0.00000   0.00000   3.77945
    a1        1.80694   0.00010   0.00000   0.00000   0.00000   1.80694
   OOP        1.57080  -0.00000   0.00000   0.00000   0.00000   1.57080
         Item               Value     Threshold  Converged?
 Maximum Force            0.000000     0.000450     YES
 RMS     Force            0.000000     0.000300     YES
 Maximum Displacement     0.000000     0.001800     YES
 RMS     Displacement     0.000000     0.001200     YES
 Predicted change in Energy=-0.000000D+00
 Optimization completed.
    -- Stationary point found.
                       ----------------------------
                       !   Optimized Parameters   !
                       ! (Angstroms and Degrees)  !
 ----------------------                            ----------------------
 !      Name          Value   Derivative information (Atomic Units)     !
 ------------------------------------------------------------------------
 !       r1          1.6827   -DE/DX =   -0.0065                        !
 !       r2          2.9047   -DE/DX =    0.7554                        !
 !       r3          2.0      -DE/DX =   -0.7547                        !
 !       a1        103.5302   -DE/DX =    0.0001                        !
 !       OOP        90.0      -DE/DX =    0.0                           !
 ------------------------------------------------------------------------
 Lowest energy point so far.  Saving SCF results.
 Summary of Optimized Potential Surface Scan (add -995.0 to energies):
                           1         2         3         4         5
     Eigenvalues --     0.60427   0.34462   0.16480   0.04043  -0.04501
           r1           1.68275   1.68275   1.68275   1.68275   1.68275
           r2           2.90468   2.90468   2.90468   2.90468   2.90468
           r3           0.50000   0.55000   0.60000   0.65000   0.70000
           a1         103.53016 103.53016 103.53016 103.53016 103.53016
           OOP         90.00000  90.00000  90.00000  90.00000  90.00000
                           6         7         8         9        10
     Eigenvalues --    -0.10293  -0.14129  -0.16580  -0.18053  -0.18844
           r1           1.68275   1.68275   1.68275   1.68275   1.68275
           r2           2.90468   2.90468   2.90468   2.90468   2.90468
           r3           0.75000   0.80000   0.85000   0.90000   0.95000
           a1         103.53016 103.53016 103.53016 103.53016 103.53016
           OOP         90.00000  90.00000  90.00000  90.00000  90.00000
                          11        12        13        14        15
     Eigenvalues --    -0.19171  -0.19192  -0.19023  -0.18748  -0.18426
           r1           1.68275   1.68275   1.68275   1.68275   1.68275
           r2           2.90468   2.90468   2.90468   2.90468   2.90468
           r3           1.00000   1.05000   1.10000   1.15000   1.20000
           a1         103.53016 103.53016 103.53016 103.53016 103.53016
           OOP         90.00000  90.00000  90.00000  90.00000  90.00000
                          16        17        18        19        20
     Eigenvalues --    -0.18095  -0.17778  -0.17484  -0.17213  -0.16952
           r1           1.68275   1.68275   1.68275   1.68275   1.68275
           r2           2.90468   2.90468   2.90468   2.90468   2.90468
           r3           1.25000   1.30000   1.35000   1.40000   1.45000
           a1         103.53016 103.53016 103.53016 103.53016 103.53016
           OOP         90.00000  90.00000  90.00000  90.00000  90.00000
                          21        22        23        24        25
     Eigenvalues --    -0.16678  -0.16358  -0.15939  -0.15354  -0.14516
           r1           1.68275   1.68275   1.68275   1.68275   1.68275
           r2           2.90468   2.90468   2.90468   2.90468   2.90468
           r3           1.50000   1.55000   1.60000   1.65000   1.70000
           a1         103.53016 103.53016 103.53016 103.53016 103.53016
           OOP         90.00000  90.00000  90.00000  90.00000  90.00000
                          26        27        28        29        30
     Eigenvalues --    -0.13310  -0.11593  -0.09183  -0.05846  -0.01284
           r1           1.68275   1.68275   1.68275   1.68275   1.68275
           r2           2.90468   2.90468   2.90468   2.90468   2.90468
           r3           1.75000   1.80000   1.85000   1.90000   1.95000
           a1         103.53016 103.53016 103.53016 103.53016 103.53016
           OOP         90.00000  90.00000  90.00000  90.00000  90.00000
                          31
     Eigenvalues --     0.04888
           r1           1.68275
           r2           2.90468
           r3           2.00000
           a1         103.53016
           OOP         90.00000
 Largest change from initial coordinates is atom    3       0.338 Angstoms.
 GradGradGradGradGradGradGradGradGradGradGradGradGradGradGradGradGradGrad

 Leave Link  103 at Mon Nov 15 07:52:15 2021, MaxMem= 16106127360 cpu:               0.8 elap:               0.1
 (Enter /sw/contrib/gaussian/g16/B01/g16/l202.exe)
 ---------------------------------------------------------------------------------------------------
                            Z-MATRIX (ANGSTROMS AND DEGREES)
   CD    Cent   Atom    N1       Length/X        N2       Alpha/Y        N3        Beta/Z          J
 ---------------------------------------------------------------------------------------------------
      1      1  O 
      2         X        1  10.000000(     1)
      3      2  Cl       1   1.682749(     2)      2   90.000(     5)
      4      3  Cl       1   2.904676(     3)      2   90.000(     6)      3  103.530(     8)      0
      5      4  H        1   2.000000(     4)      2   90.000(     7)      3  103.530(     9)      0
 ---------------------------------------------------------------------------------------------------
                         Z-Matrix orientation:                         
 ---------------------------------------------------------------------
 Center     Atomic      Atomic             Coordinates (Angstroms)
 Number     Number       Type             X           Y           Z
 ---------------------------------------------------------------------
      1          8           0        0.000000    0.000000    0.000000
      2         -1           0        0.000000    0.000000   10.000000
      3         17           0        1.682749    0.000000    0.000000
      4         17           0       -0.679570   -2.824062    0.000000
      5          1           0       -0.467914   -1.944494    0.000000
 ---------------------------------------------------------------------
                    Distance matrix (angstroms):
                    1          2          3          4          5
     1  O    0.000000
     2  X   10.000000   0.000000
     3  Cl   1.682749  10.140594   0.000000
     4  Cl   2.904676  10.413316   3.681831   0.000000
     5  H    2.000000  10.198039   2.899381   0.904676   0.000000
 Stoichiometry    Cl2HO(1-)
 Framework group  CS[SG(Cl2HO)]
 Deg. of freedom     5
 Full point group                 CS      NOp   2
 RotChk:  IX=2 Diff= 2.42D-16
 Largest Abelian subgroup         CS      NOp   2
 Largest concise Abelian subgroup C1      NOp   1
                         Standard orientation:                         
 ---------------------------------------------------------------------
 Center     Atomic      Atomic             Coordinates (Angstroms)
 Number     Number       Type             X           Y           Z
 ---------------------------------------------------------------------
      1          8           0       -1.116913   -0.500858    0.000000
      2         17           0        0.020384   -1.741100   -0.000000
      3         17           0        0.505222    1.908668   -0.000000
      4          1           0       -0.000000    1.158209    0.000000
 ---------------------------------------------------------------------
 Rotational constants (GHZ):          24.0578539           2.0490970           1.8882663
 Leave Link  202 at Mon Nov 15 07:52:15 2021, MaxMem= 16106127360 cpu:               0.4 elap:               0.0
 (Enter /sw/contrib/gaussian/g16/B01/g16/l601.exe)
 Copying SCF densities to generalized density rwf, IOpCl= 0 IROHF=0.

 **********************************************************************

            Population analysis using the MP2 Density.

 **********************************************************************

 Orbital symmetries:
       Occupied  (A') (A') (A') (A') (A') (A') (A") (A') (A') (A')
                 (A") (A') (A') (A') (A') (A') (A") (A') (A") (A')
                 (A') (A")
       Virtual   (A') (A') (A') (A") (A') (A') (A") (A') (A') (A')
                 (A") (A') (A') (A") (A') (A') (A") (A') (A') (A')
                 (A") (A') (A") (A") (A') (A') (A') (A') (A") (A')
                 (A") (A') (A') (A') (A') (A") (A") (A') (A') (A')
                 (A") (A') (A") (A') (A") (A') (A") (A') (A") (A')
                 (A') (A') (A") (A') (A") (A') (A") (A') (A') (A')
                 (A") (A') (A") (A') (A') (A') (A") (A") (A') (A')
                 (A") (A') (A') (A') (A") (A') (A') (A") (A') (A")
                 (A') (A') (A") (A') (A") (A') (A') (A") (A') (A')
                 (A") (A') (A") (A') (A") (A') (A") (A') (A') (A")
                 (A") (A') (A') (A") (A") (A') (A') (A") (A') (A')
                 (A") (A') (A') (A') (A") (A') (A") (A') (A') (A')
                 (A") (A') (A') (A") (A") (A') (A') (A') (A") (A')
                 (A') (A') (A') (A") (A') (A') (A") (A") (A') (A')
                 (A") (A') (A") (A') (A') (A') (A')
 The electronic state is 1-A'.
 Alpha  occ. eigenvalues -- -104.64711-104.62847 -20.30343 -10.39455 -10.34841
 Alpha  occ. eigenvalues --   -7.86539  -7.85651  -7.85649  -7.81540  -7.81369
 Alpha  occ. eigenvalues --   -7.81368  -1.05807  -1.03798  -0.76471  -0.52681
 Alpha  occ. eigenvalues --   -0.32450  -0.32423  -0.30999  -0.30890  -0.29827
 Alpha  occ. eigenvalues --   -0.15994  -0.15769
 Alpha virt. eigenvalues --    0.15141   0.20877   0.22288   0.23101   0.24501
 Alpha virt. eigenvalues --    0.26391   0.26977   0.30841   0.33093   0.36806
 Alpha virt. eigenvalues --    0.37226   0.39836   0.40303   0.46508   0.47842
 Alpha virt. eigenvalues --    0.49471   0.49569   0.50703   0.55258   0.57552
 Alpha virt. eigenvalues --    0.58682   0.59883   0.61372   0.63665   0.63724
 Alpha virt. eigenvalues --    0.66641   0.71791   0.72332   0.83624   0.84515
 Alpha virt. eigenvalues --    0.88413   0.88928   0.90557   0.93760   0.95585
 Alpha virt. eigenvalues --    0.97909   0.99044   1.00021   1.01607   1.03987
 Alpha virt. eigenvalues --    1.04367   1.06518   1.10653   1.11617   1.14737
 Alpha virt. eigenvalues --    1.17694   1.20340   1.22223   1.22483   1.24639
 Alpha virt. eigenvalues --    1.27231   1.29883   1.30895   1.32251   1.33767
 Alpha virt. eigenvalues --    1.34777   1.39770   1.40245   1.42274   1.45820
 Alpha virt. eigenvalues --    1.47003   1.49149   1.53100   1.63302   1.70773
 Alpha virt. eigenvalues --    1.72393   1.73780   1.75777   1.78202   1.82775
 Alpha virt. eigenvalues --    1.83208   1.90427   1.96429   2.06656   2.09891
 Alpha virt. eigenvalues --    2.15840   2.37838   2.49787   2.50256   2.53743
 Alpha virt. eigenvalues --    2.54473   2.60913   2.61301   2.63906   2.65633
 Alpha virt. eigenvalues --    2.68759   2.71855   2.72345   2.74124   2.75624
 Alpha virt. eigenvalues --    2.76027   2.80228   2.80878   2.81495   2.83850
 Alpha virt. eigenvalues --    2.86743   2.89091   2.97472   3.04572   3.04735
 Alpha virt. eigenvalues --    3.18175   3.20019   3.21411   3.21463   3.23393
 Alpha virt. eigenvalues --    3.24024   3.24859   3.31003   3.31741   3.35313
 Alpha virt. eigenvalues --    3.36828   3.42487   3.52129   3.58115   3.63436
 Alpha virt. eigenvalues --    3.70987   3.75485   3.83146   3.86914   4.00404
 Alpha virt. eigenvalues --    4.38412   4.40936   4.59277   4.67388   4.95394
 Alpha virt. eigenvalues --    4.99494   4.99807   5.42371   5.49181   5.49672
 Alpha virt. eigenvalues --    5.68912   6.51115   6.65622   6.90822   6.97152
 Alpha virt. eigenvalues --    7.01752   7.01898   7.09870   7.16698   7.30437
 Alpha virt. eigenvalues --    7.42196   7.45496   7.49254   7.60694   7.97015
 Alpha virt. eigenvalues --   12.25949  14.41890
          Condensed to atoms (all electrons):
               1          2          3          4
     1  O    9.186249  -0.255395  -0.027984  -0.035879
     2  Cl  -0.255395  17.376270   0.004371  -0.001148
     3  Cl  -0.027984   0.004371  17.513152   0.079395
     4  H   -0.035879  -0.001148   0.079395   0.397608
 Mulliken charges:
               1
     1  O   -0.866991
     2  Cl  -0.124099
     3  Cl  -0.568934
     4  H    0.560024
 Sum of Mulliken charges =  -1.00000
 Mulliken charges with hydrogens summed into heavy atoms:
               1
     1  O   -0.866991
     2  Cl  -0.124099
     3  Cl  -0.008910
 Electronic spatial extent (au):  <R**2>=            558.0418
 Charge=             -1.0000 electrons
 Dipole moment (field-independent basis, Debye):
    X=              2.5406    Y=              2.6234    Z=             -0.0000  Tot=              3.6520
 Quadrupole moment (field-independent basis, Debye-Ang):
   XX=            -39.8106   YY=            -44.9979   ZZ=            -35.8838
   XY=             -2.7490   XZ=              0.0000   YZ=              0.0000
 Traceless Quadrupole moment (field-independent basis, Debye-Ang):
   XX=              0.4202   YY=             -4.7671   ZZ=              4.3469
   XY=             -2.7490   XZ=              0.0000   YZ=              0.0000
 Octapole moment (field-independent basis, Debye-Ang**2):
  XXX=              7.1861  YYY=             10.5411  ZZZ=             -0.0000  XYY=              1.3506
  XXY=              4.7468  XXZ=             -0.0000  XZZ=              0.6006  YZZ=              2.7847
  YYZ=              0.0000  XYZ=             -0.0000
 Hexadecapole moment (field-independent basis, Debye-Ang**3):
 XXXX=           -127.2705 YYYY=           -644.5996 ZZZZ=            -47.1777 XXXY=            -52.2142
 XXXZ=              0.0000 YYYX=            -50.6322 YYYZ=              0.0000 ZZZX=              0.0000
 ZZZY=              0.0000 XXYY=           -119.0726 XXZZ=            -29.0230 YYZZ=           -114.4095
 XXYZ=              0.0000 YYXZ=              0.0000 ZZXY=            -15.7365
 N-N= 1.242451479038D+02 E-N=-2.627191731736D+03  KE= 9.960780880100D+02
 Symmetry A'   KE= 9.001435075676D+02
 Symmetry A"   KE= 9.593458044241D+01
 No NMR shielding tensors so no spin-rotation constants.
 Leave Link  601 at Mon Nov 15 07:52:15 2021, MaxMem= 16106127360 cpu:               6.5 elap:               0.3
 (Enter /sw/contrib/gaussian/g16/B01/g16/l9999.exe)
 1\1\GINC-N2398\Scan\RMP2-FC\Aug-CC-pVTZ\Cl2H1O1(1-)\CGAVINH\15-Nov-202
 1\1\\#p opt=(z-matrix) mp2/aug-cc-pvtz density=current\\title\\-1,1\O\
 X,1,10.\Cl,1,r1,2,90.\Cl,1,r2,2,90.,3,a1,0\H,1,r3,2,OOP,3,a1,0\\r1=1.6
 8274941,s,-1000,0.\r2=2.90467605,s,-1000,0.\r3=2.,s,30,0.05\a1=103.530
 15695,s,-1000,0.\OOP=90.,s,-1000,0.\\Version=ES64L-G16RevB.01\State=1-
 A'\HF=-993.7513552,-994.0098215,-994.1881081,-994.3106526,-994.3940314
 ,-994.449675,-994.4855956,-994.5074983,-994.519502,-994.5246153,-994.5
 250596,-994.5224921,-994.5181594,-994.5129997,-994.507709,-994.5027798
 ,-994.4985223,-994.4950764,-994.4924192,-994.4903716,-994.4886037,-994
 .4866386,-994.4838503,-994.4794529,-994.4724772,-994.4617293,-994.4457
 305,-994.4226303,-994.3900904,-994.3451266,-994.2838995\MP2=-994.39573
 31,-994.6553776,-994.8351967,-994.9595659,-995.0450107,-995.102925,-99
 5.1412944,-995.1657991,-995.1805269,-995.1884437,-995.1917139,-995.191
 9236,-995.1902333,-995.187482,-995.1842573,-995.1809464,-995.1777753,-
 995.17484,-995.1721265,-995.1695172,-995.1667849,-995.1635759,-995.159
 3876,-995.1535426,-995.1451574,-995.1331007,-995.1159346,-995.0918312,
 -995.0584607,-995.0128388,-994.9511229\RMSD=4.702e-09,4.041e-09,6.326e
 -09,8.809e-09,4.450e-09,4.445e-09,4.617e-09,4.849e-09,5.114e-09,5.448e
 -09,5.847e-09,5.951e-09,5.387e-09,4.547e-09,4.100e-09,4.255e-09,4.842e
 -09,5.579e-09,6.218e-09,6.601e-09,6.671e-09,6.449e-09,5.994e-09,5.375e
 -09,4.659e-09,3.920e-09,9.539e-09,9.206e-09,9.380e-09,3.434e-09,4.442e
 -09\PG=CS [SG(Cl2H1O1)]\\@


 TO DRY ONE'S EYES AND LAUGH AT A FALL
 AND BAFFLED, GET UP AND BEGIN AGAIN.
           R. BROWNING
 Job cpu time:       0 days  3 hours 32 minutes 51.4 seconds.
 Elapsed time:       0 days  0 hours  8 minutes 31.8 seconds.
 File lengths (MBytes):  RWF=     19 Int=      0 D2E=      0 Chk=      8 Scr=      1
 Normal termination of Gaussian 16 at Mon Nov 15 07:52:15 2021.
