 Entering Gaussian System, Link 0=g09
 Input=brhod_rOH_100_sp.gjf
 Output=brhod_rOH_100_sp.log
 Initial command:
 /usr/local/gaussian/g09/l1.exe "/scratch/Gau-14330.inp" -scrdir="/scratch/"
 Entering Link 1 = /usr/local/gaussian/g09/l1.exe PID=     14331.
  
 Copyright (c) 1988,1990,1992,1993,1995,1998,2003,2009,2015,
            Gaussian, Inc.  All Rights Reserved.
  
 This is part of the Gaussian(R) 09 program.  It is based on
 the Gaussian(R) 03 system (copyright 2003, Gaussian, Inc.),
 the Gaussian(R) 98 system (copyright 1998, Gaussian, Inc.),
 the Gaussian(R) 94 system (copyright 1995, Gaussian, Inc.),
 the Gaussian 92(TM) system (copyright 1992, Gaussian, Inc.),
 the Gaussian 90(TM) system (copyright 1990, Gaussian, Inc.),
 the Gaussian 88(TM) system (copyright 1988, Gaussian, Inc.),
 the Gaussian 86(TM) system (copyright 1986, Carnegie Mellon
 University), and the Gaussian 82(TM) system (copyright 1983,
 Carnegie Mellon University). Gaussian is a federally registered
 trademark of Gaussian, Inc.
  
 This software contains proprietary and confidential information,
 including trade secrets, belonging to Gaussian, Inc.
  
 This software is provided under written license and may be
 used, copied, transmitted, or stored only in accord with that
 written license.
  
 The following legend is applicable only to US Government
 contracts under FAR:
  
                    RESTRICTED RIGHTS LEGEND
  
 Use, reproduction and disclosure by the US Government is
 subject to restrictions as set forth in subparagraphs (a)
 and (c) of the Commercial Computer Software - Restricted
 Rights clause in FAR 52.227-19.
  
 Gaussian, Inc.
 340 Quinnipiac St., Bldg. 40, Wallingford CT 06492
  
  
 ---------------------------------------------------------------
 Warning -- This program may not be used in any manner that
 competes with the business of Gaussian, Inc. or will provide
 assistance to any competitor of Gaussian, Inc.  The licensee
 of this program is prohibited from giving any competitor of
 Gaussian, Inc. access to this program.  By using this program,
 the user acknowledges that Gaussian, Inc. is engaged in the
 business of creating and licensing software in the field of
 computational chemistry and represents and warrants to the
 licensee that it is not a competitor of Gaussian, Inc. and that
 it will not use this program in any manner prohibited above.
 ---------------------------------------------------------------
  

 Cite this work as:
 Gaussian 09, Revision E.01,
 M. J. Frisch, G. W. Trucks, H. B. Schlegel, G. E. Scuseria, 
 M. A. Robb, J. R. Cheeseman, G. Scalmani, V. Barone, B. Mennucci, 
 G. A. Petersson, H. Nakatsuji, M. Caricato, X. Li, H. P. Hratchian, 
 A. F. Izmaylov, J. Bloino, G. Zheng, J. L. Sonnenberg, M. Hada, 
 M. Ehara, K. Toyota, R. Fukuda, J. Hasegawa, M. Ishida, T. Nakajima, 
 Y. Honda, O. Kitao, H. Nakai, T. Vreven, J. A. Montgomery, Jr., 
 J. E. Peralta, F. Ogliaro, M. Bearpark, J. J. Heyd, E. Brothers, 
 K. N. Kudin, V. N. Staroverov, T. Keith, R. Kobayashi, J. Normand, 
 K. Raghavachari, A. Rendell, J. C. Burant, S. S. Iyengar, J. Tomasi, 
 M. Cossi, N. Rega, J. M. Millam, M. Klene, J. E. Knox, J. B. Cross, 
 V. Bakken, C. Adamo, J. Jaramillo, R. Gomperts, R. E. Stratmann, 
 O. Yazyev, A. J. Austin, R. Cammi, C. Pomelli, J. W. Ochterski, 
 R. L. Martin, K. Morokuma, V. G. Zakrzewski, G. A. Voth, 
 P. Salvador, J. J. Dannenberg, S. Dapprich, A. D. Daniels, 
 O. Farkas, J. B. Foresman, J. V. Ortiz, J. Cioslowski, 
 and D. J. Fox, Gaussian, Inc., Wallingford CT, 2013.
 
 ******************************************
 Gaussian 09:  ES64L-G09RevE.01 30-Nov-2015
                12-Oct-2021 
 ******************************************
 %nproc=12
 Will use up to   12 processors via shared memory.
 %mem=8000MB
 %chk=/home/netid.washington.edu/cgavinh/mccoy_hocl/rOH_s_oop_0/brhod/brhod_rOH_1
 00_sp.chk
 ----------------------------------------------------
 #p pop=NBO SP NoSymm mp2/aug-cc-pvtz density=current
 ----------------------------------------------------
 1/30=1,38=1/1;
 2/12=2,15=1,17=6,18=5,40=1/2;
 3/5=16,6=1,7=10,11=9,16=1,25=1,30=1,71=1/1,2,3;
 4//1;
 5/5=2,38=5/2;
 8/6=4,10=1/1;
 9/15=1,16=-3/6;
 10/5=1,13=10,31=1/2;
 6/7=2,8=2,9=2,10=2,22=-1,40=1/1,7;
 99/5=1,9=1/99;
 Leave Link    1 at Tue Oct 12 14:16:44 2021, MaxMem=  1048576000 cpu:         0.2
 (Enter /usr/local/gaussian/g09/l101.exe)
 -----
 title
 -----
 Symbolic Z-matrix:
 Charge = -1 Multiplicity = 1
 O
 X                    1     10. 
 H(iso=2)             1    r1       2     90. 
 Br                   1    r2       2     90.      3    a1       0
 H                    1    r3       2    oop      3    a1       0
       Variables:
  r1                    0.96079                  
  r2                    3.25662                  
  r3                    1.                       
  a1                  101.73887                  
  OOP                  90.                       
 
 NAtoms=      4 NQM=        4 NQMF=       0 NMMI=      0 NMMIF=      0
                NMic=       0 NMicF=      0.
                    Isotopes and Nuclear Properties:
 (Nuclear quadrupole moments (NQMom) in fm**2, nuclear magnetic moments (NMagM)
  in nuclear magnetons)

  Atom         1           2           3           4
 IAtWgt=          16           2          79           1
 AtmWgt=  15.9949146   2.0141018  78.9183361   1.0078250
 NucSpn=           0           2           3           1
 AtZEff=   0.0000000   0.0000000   0.0000000   0.0000000
 NQMom=    0.0000000   0.2860000  31.3000000   0.0000000
 NMagM=    0.0000000   0.8574380   2.1063990   2.7928460
 AtZNuc=   8.0000000   1.0000000  35.0000000   1.0000000
 Leave Link  101 at Tue Oct 12 14:16:44 2021, MaxMem=  1048576000 cpu:         0.4
 (Enter /usr/local/gaussian/g09/l202.exe)
                          Input orientation:                          
 ---------------------------------------------------------------------
 Center     Atomic      Atomic             Coordinates (Angstroms)
 Number     Number       Type             X           Y           Z
 ---------------------------------------------------------------------
      1          8           0        0.000000    0.000000    0.000000
      2          1           0        0.960788    0.000000    0.000000
      3         35           0       -0.662564   -3.188507    0.000000
      4          1           0       -0.203452   -0.979085    0.000000
 ---------------------------------------------------------------------
                    Distance matrix (angstroms):
                    1          2          3          4
     1  O    0.000000
     2  H    0.960788   0.000000
     3  Br   3.256620   3.577967   0.000000
     4  H    1.000000   1.521204   2.256620   0.000000
 Symmetry turned off by external request.
 Stoichiometry    BrH2O(1-)
 Framework group  CS[SG(BrH2O)]
 Deg. of freedom     5
 Full point group                 CS      NOp   2
 Rotational constants (GHZ):    322.9020363      3.1476015      3.1172154
 Leave Link  202 at Tue Oct 12 14:16:44 2021, MaxMem=  1048576000 cpu:         0.0
 (Enter /usr/local/gaussian/g09/l301.exe)
 Standard basis: Aug-CC-pVTZ (5D, 7F)
 Ernie: Thresh=  0.10000D-02 Tol=  0.10000D-05 Strict=F.
 Ernie:  35 primitive shells out of 175 were deleted.
   151 basis functions,   343 primitive gaussians,   174 cartesian basis functions
    23 alpha electrons       23 beta electrons
       nuclear repulsion energy        67.8694205208 Hartrees.
 IExCor=    0 DFT=F Ex=HF Corr=None ExCW=0 ScaHFX=  1.000000
 ScaDFX=  1.000000  1.000000  1.000000  1.000000 ScalE2=  1.000000  1.000000
 IRadAn=      0 IRanWt=     -1 IRanGd=            0 ICorTp=0 IEmpDi=  4
 NAtoms=    4 NActive=    4 NUniq=    4 SFac= 1.00D+00 NAtFMM=   60 NAOKFM=F Big=F
 Integral buffers will be    131072 words long.
 Raffenetti 1 integral format.
 Two-electron integral symmetry is turned off.
 Leave Link  301 at Tue Oct 12 14:16:44 2021, MaxMem=  1048576000 cpu:         0.3
 (Enter /usr/local/gaussian/g09/l302.exe)
 NPDir=0 NMtPBC=     1 NCelOv=     1 NCel=       1 NClECP=     1 NCelD=      1
         NCelK=      1 NCelE2=     1 NClLst=     1 CellRange=     0.0.
 One-electron integrals computed using PRISM.
 NBasis=   151 RedAO= T EigKep=  2.99D-04  NBF=   151
 NBsUse=   151 1.00D-06 EigRej= -1.00D+00 NBFU=   151
 Leave Link  302 at Tue Oct 12 14:16:44 2021, MaxMem=  1048576000 cpu:         1.6
 (Enter /usr/local/gaussian/g09/l303.exe)
 DipDrv:  MaxL=1.
 Leave Link  303 at Tue Oct 12 14:16:44 2021, MaxMem=  1048576000 cpu:         0.2
 (Enter /usr/local/gaussian/g09/l401.exe)
 ExpMin= 2.53D-02 ExpMax= 1.06D+07 ExpMxC= 1.21D+04 IAcc=3 IRadAn=         5 AccDes= 0.00D+00
 Harris functional with IExCor=  205 and IRadAn=       5 diagonalized for initial guess.
 HarFok:  IExCor=  205 AccDes= 0.00D+00 IRadAn=         5 IDoV= 1 UseB2=F ITyADJ=14
 ICtDFT=  3500011 ScaDFX=  1.000000  1.000000  1.000000  1.000000
 FoFCou: FMM=F IPFlag=           0 FMFlag=      100000 FMFlg1=           0
         NFxFlg=           0 DoJE=T BraDBF=F KetDBF=T FulRan=T
         wScrn=  0.000000 ICntrl=     500 IOpCl=  0 I1Cent=   200000004 NGrid=           0
         NMat0=    1 NMatS0=      1 NMatT0=    0 NMatD0=    1 NMtDS0=    0 NMtDT0=    0
 Symmetry not used in FoFCou.
 Harris En= -2648.01591820794    
 JPrj=0 DoOrth=F DoCkMO=F.
 Leave Link  401 at Tue Oct 12 14:16:44 2021, MaxMem=  1048576000 cpu:         2.7
 (Enter /usr/local/gaussian/g09/l502.exe)
 Closed shell SCF:
 Using DIIS extrapolation, IDIIS=  1040.
 Two-electron integral symmetry not used.
 Keep R1 ints in memory in canonical form, NReq=69268840.
 IVT=      112518 IEndB=      112518 NGot=  1048576000 MDV=   982608457
 LenX=   982608457 LenY=   982577740
 Requested convergence on RMS density matrix=1.00D-08 within 128 cycles.
 Requested convergence on MAX density matrix=1.00D-06.
 Requested convergence on             energy=1.00D-06.
 No special actions if energy rises.
 FoFCou: FMM=F IPFlag=           0 FMFlag=           0 FMFlg1=           0
         NFxFlg=           0 DoJE=F BraDBF=F KetDBF=F FulRan=T
         wScrn=  0.000000 ICntrl=     600 IOpCl=  0 I1Cent=           0 NGrid=           0
         NMat0=    1 NMatS0=  11476 NMatT0=    0 NMatD0=    1 NMtDS0=    0 NMtDT0=    0
 Symmetry not used in FoFCou.

 Cycle   1  Pass 1  IDiag  1:
 E= -2648.44100921495    
 DIIS: error= 7.43D-02 at cycle   1 NSaved=   1.
 NSaved= 1 IEnMin= 1 EnMin= -2648.44100921495     IErMin= 1 ErrMin= 7.43D-02
 ErrMax= 7.43D-02  0.00D+00 EMaxC= 1.00D-01 BMatC= 5.44D-01 BMatP= 5.44D-01
 IDIUse=3 WtCom= 2.57D-01 WtEn= 7.43D-01
 Coeff-Com:  0.100D+01
 Coeff-En:   0.100D+01
 Coeff:      0.100D+01
 Gap=     0.391 Goal=   None    Shift=    0.000
 GapD=    0.391 DampG=1.000 DampE=0.500 DampFc=0.5000 IDamp=-1.
 Damping current iteration by 5.00D-01
 RMSDP=3.20D-03 MaxDP=9.64D-02              OVMax= 1.24D-01

 Cycle   2  Pass 1  IDiag  1:
 E= -2648.52766840933     Delta-E=       -0.086659194380 Rises=F Damp=T
 DIIS: error= 3.48D-02 at cycle   2 NSaved=   2.
 NSaved= 2 IEnMin= 2 EnMin= -2648.52766840933     IErMin= 2 ErrMin= 3.48D-02
 ErrMax= 3.48D-02  0.00D+00 EMaxC= 1.00D-01 BMatC= 1.02D-01 BMatP= 5.44D-01
 IDIUse=3 WtCom= 6.52D-01 WtEn= 3.48D-01
 Coeff-Com: -0.599D+00 0.160D+01
 Coeff-En:   0.000D+00 0.100D+01
 Coeff:     -0.390D+00 0.139D+01
 Gap=     0.283 Goal=   None    Shift=    0.000
 RMSDP=1.29D-03 MaxDP=3.46D-02 DE=-8.67D-02 OVMax= 6.11D-02

 Cycle   3  Pass 1  IDiag  1:
 E= -2648.60504894403     Delta-E=       -0.077380534698 Rises=F Damp=F
 DIIS: error= 3.59D-03 at cycle   3 NSaved=   3.
 NSaved= 3 IEnMin= 3 EnMin= -2648.60504894403     IErMin= 3 ErrMin= 3.59D-03
 ErrMax= 3.59D-03  0.00D+00 EMaxC= 1.00D-01 BMatC= 2.05D-03 BMatP= 1.02D-01
 IDIUse=3 WtCom= 9.64D-01 WtEn= 3.59D-02
 Coeff-Com: -0.138D+00 0.299D+00 0.839D+00
 Coeff-En:   0.000D+00 0.000D+00 0.100D+01
 Coeff:     -0.134D+00 0.289D+00 0.845D+00
 Gap=     0.298 Goal=   None    Shift=    0.000
 RMSDP=2.64D-04 MaxDP=7.75D-03 DE=-7.74D-02 OVMax= 1.06D-02

 Cycle   4  Pass 1  IDiag  1:
 E= -2648.60639473701     Delta-E=       -0.001345792979 Rises=F Damp=F
 DIIS: error= 4.26D-04 at cycle   4 NSaved=   4.
 NSaved= 4 IEnMin= 4 EnMin= -2648.60639473701     IErMin= 4 ErrMin= 4.26D-04
 ErrMax= 4.26D-04  0.00D+00 EMaxC= 1.00D-01 BMatC= 3.20D-05 BMatP= 2.05D-03
 IDIUse=3 WtCom= 9.96D-01 WtEn= 4.26D-03
 Coeff-Com:  0.173D-01-0.409D-01 0.673D-02 0.102D+01
 Coeff-En:   0.000D+00 0.000D+00 0.000D+00 0.100D+01
 Coeff:      0.172D-01-0.408D-01 0.670D-02 0.102D+01
 Gap=     0.297 Goal=   None    Shift=    0.000
 RMSDP=4.29D-05 MaxDP=1.25D-03 DE=-1.35D-03 OVMax= 1.84D-03

 Cycle   5  Pass 1  IDiag  1:
 E= -2648.60643545489     Delta-E=       -0.000040717877 Rises=F Damp=F
 DIIS: error= 1.42D-04 at cycle   5 NSaved=   5.
 NSaved= 5 IEnMin= 5 EnMin= -2648.60643545489     IErMin= 5 ErrMin= 1.42D-04
 ErrMax= 1.42D-04  0.00D+00 EMaxC= 1.00D-01 BMatC= 1.56D-06 BMatP= 3.20D-05
 IDIUse=3 WtCom= 9.99D-01 WtEn= 1.42D-03
 Coeff-Com: -0.222D-02 0.642D-02-0.260D-01-0.371D+00 0.139D+01
 Coeff-En:   0.000D+00 0.000D+00 0.000D+00 0.000D+00 0.100D+01
 Coeff:     -0.222D-02 0.641D-02-0.260D-01-0.370D+00 0.139D+01
 Gap=     0.298 Goal=   None    Shift=    0.000
 RMSDP=1.89D-05 MaxDP=5.08D-04 DE=-4.07D-05 OVMax= 8.98D-04

 Cycle   6  Pass 1  IDiag  1:
 E= -2648.60644024513     Delta-E=       -0.000004790242 Rises=F Damp=F
 DIIS: error= 2.98D-05 at cycle   6 NSaved=   6.
 NSaved= 6 IEnMin= 6 EnMin= -2648.60644024513     IErMin= 6 ErrMin= 2.98D-05
 ErrMax= 2.98D-05  0.00D+00 EMaxC= 1.00D-01 BMatC= 6.20D-08 BMatP= 1.56D-06
 IDIUse=1 WtCom= 1.00D+00 WtEn= 0.00D+00
 Coeff-Com: -0.403D-03 0.726D-03 0.406D-02 0.214D-01-0.235D+00 0.121D+01
 Coeff:     -0.403D-03 0.726D-03 0.406D-02 0.214D-01-0.235D+00 0.121D+01
 Gap=     0.297 Goal=   None    Shift=    0.000
 RMSDP=3.22D-06 MaxDP=8.81D-05 DE=-4.79D-06 OVMax= 1.93D-04

 Cycle   7  Pass 1  IDiag  1:
 E= -2648.60644043602     Delta-E=       -0.000000190889 Rises=F Damp=F
 DIIS: error= 6.85D-06 at cycle   7 NSaved=   7.
 NSaved= 7 IEnMin= 7 EnMin= -2648.60644043602     IErMin= 7 ErrMin= 6.85D-06
 ErrMax= 6.85D-06  0.00D+00 EMaxC= 1.00D-01 BMatC= 5.87D-09 BMatP= 6.20D-08
 IDIUse=1 WtCom= 1.00D+00 WtEn= 0.00D+00
 Coeff-Com: -0.381D-04-0.777D-04 0.264D-02 0.247D-01-0.122D+00 0.134D+00
 Coeff-Com:  0.961D+00
 Coeff:     -0.381D-04-0.777D-04 0.264D-02 0.247D-01-0.122D+00 0.134D+00
 Coeff:      0.961D+00
 Gap=     0.297 Goal=   None    Shift=    0.000
 RMSDP=7.19D-07 MaxDP=1.85D-05 DE=-1.91D-07 OVMax= 5.04D-05

 Cycle   8  Pass 1  IDiag  1:
 E= -2648.60644044812     Delta-E=       -0.000000012105 Rises=F Damp=F
 DIIS: error= 1.62D-06 at cycle   8 NSaved=   8.
 NSaved= 8 IEnMin= 8 EnMin= -2648.60644044812     IErMin= 8 ErrMin= 1.62D-06
 ErrMax= 1.62D-06  0.00D+00 EMaxC= 1.00D-01 BMatC= 4.07D-10 BMatP= 5.87D-09
 IDIUse=1 WtCom= 1.00D+00 WtEn= 0.00D+00
 Coeff-Com:  0.852D-04-0.159D-03-0.543D-03-0.535D-03 0.202D-01-0.101D+00
 Coeff-Com: -0.667D-01 0.115D+01
 Coeff:      0.852D-04-0.159D-03-0.543D-03-0.535D-03 0.202D-01-0.101D+00
 Coeff:     -0.667D-01 0.115D+01
 Gap=     0.297 Goal=   None    Shift=    0.000
 RMSDP=2.87D-07 MaxDP=7.72D-06 DE=-1.21D-08 OVMax= 1.63D-05

 Cycle   9  Pass 1  IDiag  1:
 E= -2648.60644044909     Delta-E=       -0.000000000963 Rises=F Damp=F
 DIIS: error= 3.92D-07 at cycle   9 NSaved=   9.
 NSaved= 9 IEnMin= 9 EnMin= -2648.60644044909     IErMin= 9 ErrMin= 3.92D-07
 ErrMax= 3.92D-07  0.00D+00 EMaxC= 1.00D-01 BMatC= 2.43D-11 BMatP= 4.07D-10
 IDIUse=1 WtCom= 1.00D+00 WtEn= 0.00D+00
 Coeff-Com: -0.145D-04 0.372D-04-0.102D-03-0.176D-02 0.653D-02-0.237D-02
 Coeff-Com: -0.502D-01-0.179D-01 0.107D+01
 Coeff:     -0.145D-04 0.372D-04-0.102D-03-0.176D-02 0.653D-02-0.237D-02
 Coeff:     -0.502D-01-0.179D-01 0.107D+01
 Gap=     0.297 Goal=   None    Shift=    0.000
 RMSDP=5.09D-08 MaxDP=9.33D-07 DE=-9.63D-10 OVMax= 2.97D-06

 Cycle  10  Pass 1  IDiag  1:
 E= -2648.60644044912     Delta-E=       -0.000000000035 Rises=F Damp=F
 DIIS: error= 1.05D-07 at cycle  10 NSaved=  10.
 NSaved=10 IEnMin=10 EnMin= -2648.60644044912     IErMin=10 ErrMin= 1.05D-07
 ErrMax= 1.05D-07  0.00D+00 EMaxC= 1.00D-01 BMatC= 2.77D-12 BMatP= 2.43D-11
 IDIUse=1 WtCom= 1.00D+00 WtEn= 0.00D+00
 Coeff-Com: -0.603D-05 0.109D-04 0.465D-04 0.123D-03-0.202D-02 0.100D-01
 Coeff-Com:  0.611D-02-0.125D+00 0.744D-01 0.104D+01
 Coeff:     -0.603D-05 0.109D-04 0.465D-04 0.123D-03-0.202D-02 0.100D-01
 Coeff:      0.611D-02-0.125D+00 0.744D-01 0.104D+01
 Gap=     0.297 Goal=   None    Shift=    0.000
 RMSDP=1.46D-08 MaxDP=2.54D-07 DE=-3.50D-11 OVMax= 1.14D-06

 Cycle  11  Pass 1  IDiag  1:
 E= -2648.60644044914     Delta-E=       -0.000000000015 Rises=F Damp=F
 DIIS: error= 2.34D-08 at cycle  11 NSaved=  11.
 NSaved=11 IEnMin=11 EnMin= -2648.60644044914     IErMin=11 ErrMin= 2.34D-08
 ErrMax= 2.34D-08  0.00D+00 EMaxC= 1.00D-01 BMatC= 1.18D-13 BMatP= 2.77D-12
 IDIUse=1 WtCom= 1.00D+00 WtEn= 0.00D+00
 Coeff-Com:  0.142D-05-0.308D-05-0.626D-06 0.600D-04-0.152D-04-0.135D-02
 Coeff-Com:  0.160D-02 0.189D-01-0.793D-01-0.142D+00 0.120D+01
 Coeff:      0.142D-05-0.308D-05-0.626D-06 0.600D-04-0.152D-04-0.135D-02
 Coeff:      0.160D-02 0.189D-01-0.793D-01-0.142D+00 0.120D+01
 Gap=     0.297 Goal=   None    Shift=    0.000
 RMSDP=6.94D-09 MaxDP=2.42D-07 DE=-1.50D-11 OVMax= 3.11D-07

 SCF Done:  E(RHF) =  -2648.60644045     A.U. after   11 cycles
            NFock= 11  Conv=0.69D-08     -V/T= 2.0000
 KE= 2.648496241265D+03 PE=-6.483628527884D+03 EE= 1.118656425649D+03
 Leave Link  502 at Tue Oct 12 14:16:46 2021, MaxMem=  1048576000 cpu:        12.5
 (Enter /usr/local/gaussian/g09/l801.exe)
 ExpMin= 2.53D-02 ExpMax= 1.06D+07 ExpMxC= 1.21D+04 IAcc=3 IRadAn=         5 AccDes= 0.00D+00
 HarFok:  IExCor=  205 AccDes= 0.00D+00 IRadAn=         5 IDoV=-2 UseB2=F ITyADJ=14
 ICtDFT= 12500011 ScaDFX=  1.000000  1.000000  1.000000  1.000000
 Largest valence mixing into a core orbital is  1.27D-04
 Largest core mixing into a valence orbital is  3.62D-05
 Range of M.O.s used for correlation:    11   151
 NBasis=   151 NAE=    23 NBE=    23 NFC=    10 NFV=     0
 NROrb=    141 NOA=    13 NOB=    13 NVA=   128 NVB=   128

 **** Warning!!: The largest alpha MO coefficient is  0.14181188D+02

 Leave Link  801 at Tue Oct 12 14:16:46 2021, MaxMem=  1048576000 cpu:         0.7
 (Enter /usr/local/gaussian/g09/l906.exe)
 Frozen-core derivative calculation, NFC=  10 NFV=   0.
 FulOut=F Deriv=T AODrv=F NAtomX=     4
   MMem=         391  MDisk=          13 MDiskD=          13
  W3Min=      604302 MinDsk=     1007783 NBas6D=         174
 NBas2D=       15618    NTT=       15225    LW2=     9911920
    MDV=  1048225984 MDiskM=       30063 NBas2p=       15367
 Fully in-core method, ICMem=   275066562.
 IMap=   1   2   3   4   5   6   7   8   9  10  11  12  13  14  15  16  17  18  19  20
 IMap=  21  22  23
 JobTyp=1 Pass  1 fully in-core, NPsUse= 12.
 Compute canonical integrals.
 FoFCou: FMM=F IPFlag=           0 FMFlag=           0 FMFlg1=           0
         NFxFlg=           0 DoJE=F BraDBF=F KetDBF=F FulRan=T
         wScrn=  0.000000 ICntrl=     600 IOpCl=  1 I1Cent=           0 NGrid=           0
         NMat0=    1 NMatS0=  15618 NMatT0=    0 NMatD0=    1 NMtDS0=    0 NMtDT0=    0
 Symmetry not used in FoFCou.
 Spin components of T(2) and E(2):
     alpha-alpha T2 =       0.2063693260D-01 E2=     -0.7005819722D-01
     alpha-beta  T2 =       0.1093058315D+00 E2=     -0.3795214232D+00
     beta-beta   T2 =       0.2063693260D-01 E2=     -0.7005819722D-01
 The integrals were generated   1 times.
 ANorm=    0.1072650780D+01
 E2 =    -0.5196378176D+00 EUMP2 =    -0.26491260782668D+04
 Leave Link  906 at Tue Oct 12 14:16:52 2021, MaxMem=  1048576000 cpu:        71.4
 (Enter /usr/local/gaussian/g09/l1002.exe)
 Minotr:  Closed shell wavefunction.
          Computing MP2/KS-MP2 derivatives.
          Using Z-Vector for PSCF gradient.
          Skipping F1 and S1 gradient terms here.
          Frozen-core window.
          Direct CPHF calculation.
          Differentiating once with respect to electric field.
                with respect to dipole field.
          Electric field/nuclear overlap derivatives assumed to be zero.
          Requested convergence is 1.0D-10 RMS, and 1.0D-09 maximum.
          NewPWx=F KeepS1=T KeepF1=T KeepIn=T MapXYZ=F SortEE=F KeepMc=T.
          MDV=    1048575823 using IRadAn=       0.
 Keep R1 ints in memory in canonical form, NReq=69224366.
 FoFCou: FMM=F IPFlag=           0 FMFlag=           0 FMFlg1=           0
         NFxFlg=           0 DoJE=F BraDBF=F KetDBF=F FulRan=T
         wScrn=  0.000000 ICntrl=     600 IOpCl=  0 I1Cent=           0 NGrid=           0
         NMat0=    1 NMatS0=  11476 NMatT0=    0 NMatD0=    1 NMtDS0=    0 NMtDT0=    0
 Symmetry not used in FoFCou.
          Solving linear equations separately, MaxMat=       0.
          There are     1 degrees of freedom in the 1st order CPHF.  IDoFFX=0 NUNeed=     1.
 LinEq1:  Iter=  0 NonCon=     1 RMS=2.42D-03 Max=4.98D-02 NDo=     1
 AX will form     1 AO Fock derivatives at one time.
 LinEq1:  Iter=  1 NonCon=     1 RMS=4.02D-04 Max=5.24D-03 NDo=     1
 LinEq1:  Iter=  2 NonCon=     1 RMS=1.88D-04 Max=2.33D-03 NDo=     1
 LinEq1:  Iter=  3 NonCon=     1 RMS=5.29D-05 Max=1.03D-03 NDo=     1
 LinEq1:  Iter=  4 NonCon=     1 RMS=1.06D-05 Max=1.32D-04 NDo=     1
 LinEq1:  Iter=  5 NonCon=     1 RMS=4.64D-06 Max=6.67D-05 NDo=     1
 LinEq1:  Iter=  6 NonCon=     1 RMS=9.23D-07 Max=2.05D-05 NDo=     1
 LinEq1:  Iter=  7 NonCon=     1 RMS=2.09D-07 Max=3.47D-06 NDo=     1
 LinEq1:  Iter=  8 NonCon=     1 RMS=5.90D-08 Max=9.55D-07 NDo=     1
 LinEq1:  Iter=  9 NonCon=     1 RMS=7.50D-09 Max=1.42D-07 NDo=     1
 LinEq1:  Iter= 10 NonCon=     1 RMS=9.47D-10 Max=1.23D-08 NDo=     1
 LinEq1:  Iter= 11 NonCon=     1 RMS=2.76D-10 Max=5.44D-09 NDo=     1
 LinEq1:  Iter= 12 NonCon=     0 RMS=5.37D-11 Max=7.22D-10 NDo=     1
 Linear equations converged to 1.000D-10 1.000D-09 after    12 iterations.
 End of Minotr F.D. properties file   721 does not exist.
 End of Minotr F.D. properties file   722 does not exist.
 End of Minotr F.D. properties file   788 does not exist.
 Leave Link 1002 at Tue Oct 12 14:16:54 2021, MaxMem=  1048576000 cpu:        11.8
 (Enter /usr/local/gaussian/g09/l601.exe)
 Copying SCF densities to generalized density rwf, IOpCl= 0 IROHF=0.

 **********************************************************************

            Population analysis using the MP2 density.

 **********************************************************************

 Alpha  occ. eigenvalues -- -489.74127 -64.88153 -58.23601 -58.23600 -58.23600
 Alpha  occ. eigenvalues --  -20.38811  -9.55399  -7.16157  -7.16133  -7.16129
 Alpha  occ. eigenvalues --   -2.90322  -2.90313  -2.90309  -2.90284  -2.90284
 Alpha  occ. eigenvalues --   -1.16589  -0.71300  -0.52302  -0.41357  -0.33166
 Alpha  occ. eigenvalues --   -0.16715  -0.16183  -0.16139
 Alpha virt. eigenvalues --    0.13609   0.17397   0.23360   0.24163   0.24830
 Alpha virt. eigenvalues --    0.27549   0.29667   0.29949   0.33853   0.34922
 Alpha virt. eigenvalues --    0.39894   0.41113   0.41684   0.46395   0.48107
 Alpha virt. eigenvalues --    0.48523   0.51642   0.53491   0.57457   0.59867
 Alpha virt. eigenvalues --    0.61589   0.63395   0.70805   0.73715   0.75131
 Alpha virt. eigenvalues --    0.75696   0.82428   0.87571   0.88584   0.88612
 Alpha virt. eigenvalues --    0.90460   0.96150   0.99133   1.01021   1.01517
 Alpha virt. eigenvalues --    1.01908   1.03507   1.04726   1.07625   1.09432
 Alpha virt. eigenvalues --    1.09641   1.10824   1.16664   1.17711   1.17991
 Alpha virt. eigenvalues --    1.19274   1.19288   1.22897   1.23045   1.25550
 Alpha virt. eigenvalues --    1.33310   1.36799   1.41982   1.45172   1.46887
 Alpha virt. eigenvalues --    1.52514   1.63590   1.64328   1.68937   1.69937
 Alpha virt. eigenvalues --    1.77892   1.81536   2.05883   2.06861   2.18760
 Alpha virt. eigenvalues --    2.40917   2.41220   2.42794   2.44681   2.49520
 Alpha virt. eigenvalues --    2.53032   2.54573   2.55352   2.55776   2.56250
 Alpha virt. eigenvalues --    2.56334   2.57154   2.59079   2.62129   2.62939
 Alpha virt. eigenvalues --    2.65937   2.66475   2.67327   2.70241   2.74416
 Alpha virt. eigenvalues --    2.76138   2.80966   2.92055   2.93911   2.99621
 Alpha virt. eigenvalues --    3.11224   3.13599   3.14120   3.87032   4.11981
 Alpha virt. eigenvalues --    4.22096   4.33090   4.34585   4.44051   4.44168
 Alpha virt. eigenvalues --    4.55370   4.57233   4.62406   4.71739   4.79645
 Alpha virt. eigenvalues --    4.97970   5.12872   5.27232   5.35233   5.46075
 Alpha virt. eigenvalues --    5.49508   5.66126   5.82619   6.38651   6.70976
 Alpha virt. eigenvalues --    6.89681   7.09377   7.27641   7.42768   7.44122
 Alpha virt. eigenvalues --    7.46737   7.54805   7.61436   7.79868   8.06637
 Alpha virt. eigenvalues --    8.11718   8.92751  16.05919
          Condensed to atoms (all electrons):
               1          2          3          4
     1  O    8.274524   0.209650  -0.064664   0.124851
     2  H    0.209650   0.607291   0.004045   0.011495
     3  Br  -0.064664   0.004045  35.947146   0.030920
     4  H    0.124851   0.011495   0.030920   0.538446
 Mulliken charges:
               1
     1  O   -0.544361
     2  H    0.167519
     3  Br  -0.917447
     4  H    0.294289
 Sum of Mulliken charges =  -1.00000
 Mulliken charges with hydrogens summed into heavy atoms:
               1
     1  O   -0.082553
     3  Br  -0.917447
 Electronic spatial extent (au):  <R**2>=           1433.8465
 Charge=             -1.0000 electrons
 Dipole moment (field-independent basis, Debye):
    X=              3.8628    Y=             12.3209    Z=             -0.0000  Tot=             12.9123
 Quadrupole moment (field-independent basis, Debye-Ang):
   XX=            -30.8547   YY=            -73.8641   ZZ=            -31.6913
   XY=             -8.3273   XZ=             -0.0000   YZ=              0.0000
 Traceless Quadrupole moment (field-independent basis, Debye-Ang):
   XX=             14.6153   YY=            -28.3940   ZZ=             13.7787
   XY=             -8.3273   XZ=             -0.0000   YZ=              0.0000
 Octapole moment (field-independent basis, Debye-Ang**2):
  XXX=             47.7864  YYY=            364.1458  ZZZ=             -0.0000  XYY=             42.6580
  XXY=             81.0730  XXZ=              0.0000  XZZ=             14.9025  YZZ=             75.4068
  YYZ=             -0.0000  XYZ=              0.0000
 Hexadecapole moment (field-independent basis, Debye-Ang**3):
 XXXX=           -110.9313 YYYY=          -1917.2102 ZZZZ=            -50.1538 XXXY=           -151.5626
 XXXZ=             -0.0000 YYYX=           -234.9213 YYYZ=              0.0000 ZZZX=             -0.0000
 ZZZY=             -0.0000 XXYY=           -283.8987 XXZZ=            -27.0882 YYZZ=           -255.9826
 XXYZ=              0.0000 YYXZ=             -0.0000 ZZXY=            -49.3514
 N-N= 6.786942052082D+01 E-N=-6.482099739268D+03  KE= 2.648345711682D+03
 No NMR shielding tensors so no spin-rotation constants.
 Leave Link  601 at Tue Oct 12 14:16:54 2021, MaxMem=  1048576000 cpu:         2.1
 (Enter /usr/local/gaussian/g09/l607.exe)
 ******************************Gaussian NBO Version 3.1******************************
             N A T U R A L   A T O M I C   O R B I T A L   A N D
          N A T U R A L   B O N D   O R B I T A L   A N A L Y S I S
 ******************************Gaussian NBO Version 3.1******************************
       /RESON  / : Allow strongly delocalized NBO set

 Analyzing the MP2 density

 Job title: title                                                           

 Storage needed:     69217 in NPA,     91732 in NBO (1048575896 available)


 NATURAL POPULATIONS:  Natural atomic orbital occupancies 
                                                          
   NAO  Atom  No  lang   Type(AO)    Occupancy
 --------------------------------------------
     1    O    1  S      Cor( 1S)     1.99968
     2    O    1  S      Val( 2S)     1.74463
     3    O    1  S      Ryd( 3S)     0.00608
     4    O    1  S      Ryd( 4S)     0.00047
     5    O    1  S      Ryd( 5S)     0.00019
     6    O    1  px     Val( 2p)     1.52297
     7    O    1  px     Ryd( 3p)     0.00993
     8    O    1  px     Ryd( 4p)     0.00052
     9    O    1  px     Ryd( 5p)     0.00007
    10    O    1  py     Val( 2p)     1.66830
    11    O    1  py     Ryd( 3p)     0.01132
    12    O    1  py     Ryd( 4p)     0.00061
    13    O    1  py     Ryd( 5p)     0.00010
    14    O    1  pz     Val( 2p)     1.95393
    15    O    1  pz     Ryd( 3p)     0.02092
    16    O    1  pz     Ryd( 4p)     0.00060
    17    O    1  pz     Ryd( 5p)     0.00001
    18    O    1  dxy    Ryd( 3d)     0.00819
    19    O    1  dxy    Ryd( 4d)     0.00042
    20    O    1  dxy    Ryd( 5d)     0.00007
    21    O    1  dxz    Ryd( 3d)     0.00820
    22    O    1  dxz    Ryd( 4d)     0.00045
    23    O    1  dxz    Ryd( 5d)     0.00006
    24    O    1  dyz    Ryd( 3d)     0.00763
    25    O    1  dyz    Ryd( 4d)     0.00048
    26    O    1  dyz    Ryd( 5d)     0.00009
    27    O    1  dx2y2  Ryd( 3d)     0.01248
    28    O    1  dx2y2  Ryd( 4d)     0.00031
    29    O    1  dx2y2  Ryd( 5d)     0.00009
    30    O    1  dz2    Ryd( 3d)     0.00903
    31    O    1  dz2    Ryd( 4d)     0.00045
    32    O    1  dz2    Ryd( 5d)     0.00010
    33    O    1  f(0)   Ryd( 4f)     0.00064
    34    O    1  f(0)   Ryd( 5f)     0.00010
    35    O    1  f(C1)  Ryd( 4f)     0.00057
    36    O    1  f(C1)  Ryd( 5f)     0.00008
    37    O    1  f(S1)  Ryd( 4f)     0.00056
    38    O    1  f(S1)  Ryd( 5f)     0.00008
    39    O    1  f(C2)  Ryd( 4f)     0.00046
    40    O    1  f(C2)  Ryd( 5f)     0.00009
    41    O    1  f(S2)  Ryd( 4f)     0.00046
    42    O    1  f(S2)  Ryd( 5f)     0.00007
    43    O    1  f(C3)  Ryd( 4f)     0.00042
    44    O    1  f(C3)  Ryd( 5f)     0.00012
    45    O    1  f(S3)  Ryd( 4f)     0.00040
    46    O    1  f(S3)  Ryd( 5f)     0.00009

    47    H    2  S      Val( 1S)     0.54921
    48    H    2  S      Ryd( 2S)     0.00167
    49    H    2  S      Ryd( 3S)     0.00017
    50    H    2  S      Ryd( 4S)     0.00007
    51    H    2  px     Ryd( 2p)     0.00155
    52    H    2  px     Ryd( 3p)     0.00054
    53    H    2  px     Ryd( 4p)     0.00014
    54    H    2  py     Ryd( 2p)     0.00182
    55    H    2  py     Ryd( 3p)     0.00023
    56    H    2  py     Ryd( 4p)     0.00009
    57    H    2  pz     Ryd( 2p)     0.00490
    58    H    2  pz     Ryd( 3p)     0.00018
    59    H    2  pz     Ryd( 4p)     0.00005
    60    H    2  dxy    Ryd( 3d)     0.00006
    61    H    2  dxy    Ryd( 4d)     0.00005
    62    H    2  dxz    Ryd( 3d)     0.00008
    63    H    2  dxz    Ryd( 4d)     0.00006
    64    H    2  dyz    Ryd( 3d)     0.00011
    65    H    2  dyz    Ryd( 4d)     0.00004
    66    H    2  dx2y2  Ryd( 3d)     0.00009
    67    H    2  dx2y2  Ryd( 4d)     0.00004
    68    H    2  dz2    Ryd( 3d)     0.00011
    69    H    2  dz2    Ryd( 4d)     0.00006

    70   Br    3  S      Cor( 1S)     2.00000
    71   Br    3  S      Cor( 2S)     2.00000
    72   Br    3  S      Cor( 3S)     2.00000
    73   Br    3  S      Val( 4S)     1.97669
    74   Br    3  S      Ryd( 5S)     0.00245
    75   Br    3  S      Ryd( 6S)     0.00051
    76   Br    3  S      Ryd( 7S)     0.00009
    77   Br    3  px     Cor( 2p)     2.00002
    78   Br    3  px     Cor( 3p)     2.00000
    79   Br    3  px     Val( 4p)     1.95181
    80   Br    3  px     Ryd( 5p)     0.01163
    81   Br    3  px     Ryd( 6p)     0.00083
    82   Br    3  px     Ryd( 7p)     0.00005
    83   Br    3  py     Cor( 3p)     1.99998
    84   Br    3  py     Cor( 2p)     2.00000
    85   Br    3  py     Val( 4p)     1.90842
    86   Br    3  py     Ryd( 5p)     0.01013
    87   Br    3  py     Ryd( 6p)     0.00079
    88   Br    3  py     Ryd( 7p)     0.00013
    89   Br    3  pz     Cor( 2p)     2.00002
    90   Br    3  pz     Cor( 3p)     2.00000
    91   Br    3  pz     Val( 4p)     1.95419
    92   Br    3  pz     Ryd( 5p)     0.01167
    93   Br    3  pz     Ryd( 6p)     0.00083
    94   Br    3  pz     Ryd( 7p)     0.00004
    95   Br    3  dxy    Cor( 3d)     1.99767
    96   Br    3  dxy    Ryd( 4d)     0.01874
    97   Br    3  dxy    Ryd( 5d)     0.00149
    98   Br    3  dxy    Ryd( 6d)     0.00020
    99   Br    3  dxz    Cor( 3d)     1.99769
   100   Br    3  dxz    Ryd( 4d)     0.01866
   101   Br    3  dxz    Ryd( 5d)     0.00177
   102   Br    3  dxz    Ryd( 6d)     0.00022
   103   Br    3  dyz    Cor( 3d)     1.99767
   104   Br    3  dyz    Ryd( 4d)     0.01878
   105   Br    3  dyz    Ryd( 5d)     0.00150
   106   Br    3  dyz    Ryd( 6d)     0.00020
   107   Br    3  dx2y2  Cor( 3d)     1.99765
   108   Br    3  dx2y2  Ryd( 4d)     0.01838
   109   Br    3  dx2y2  Ryd( 5d)     0.00162
   110   Br    3  dx2y2  Ryd( 6d)     0.00023
   111   Br    3  dz2    Cor( 3d)     1.99768
   112   Br    3  dz2    Ryd( 4d)     0.01855
   113   Br    3  dz2    Ryd( 5d)     0.00173
   114   Br    3  dz2    Ryd( 6d)     0.00022
   115   Br    3  f(0)   Ryd( 4f)     0.00174
   116   Br    3  f(0)   Ryd( 5f)     0.00025
   117   Br    3  f(C1)  Ryd( 4f)     0.00175
   118   Br    3  f(C1)  Ryd( 5f)     0.00024
   119   Br    3  f(S1)  Ryd( 4f)     0.00175
   120   Br    3  f(S1)  Ryd( 5f)     0.00026
   121   Br    3  f(C2)  Ryd( 4f)     0.00173
   122   Br    3  f(C2)  Ryd( 5f)     0.00025
   123   Br    3  f(S2)  Ryd( 4f)     0.00176
   124   Br    3  f(S2)  Ryd( 5f)     0.00025
   125   Br    3  f(C3)  Ryd( 4f)     0.00170
   126   Br    3  f(C3)  Ryd( 5f)     0.00025
   127   Br    3  f(S3)  Ryd( 4f)     0.00172
   128   Br    3  f(S3)  Ryd( 5f)     0.00026

   129    H    4  S      Val( 1S)     0.48992
   130    H    4  S      Ryd( 2S)     0.00682
   131    H    4  S      Ryd( 3S)     0.00033
   132    H    4  S      Ryd( 4S)     0.00011
   133    H    4  px     Ryd( 2p)     0.00341
   134    H    4  px     Ryd( 3p)     0.00041
   135    H    4  px     Ryd( 4p)     0.00008
   136    H    4  py     Ryd( 2p)     0.00393
   137    H    4  py     Ryd( 3p)     0.00056
   138    H    4  py     Ryd( 4p)     0.00021
   139    H    4  pz     Ryd( 2p)     0.00374
   140    H    4  pz     Ryd( 3p)     0.00045
   141    H    4  pz     Ryd( 4p)     0.00008
   142    H    4  dxy    Ryd( 3d)     0.00020
   143    H    4  dxy    Ryd( 4d)     0.00009
   144    H    4  dxz    Ryd( 3d)     0.00016
   145    H    4  dxz    Ryd( 4d)     0.00005
   146    H    4  dyz    Ryd( 3d)     0.00021
   147    H    4  dyz    Ryd( 4d)     0.00009
   148    H    4  dx2y2  Ryd( 3d)     0.00017
   149    H    4  dx2y2  Ryd( 4d)     0.00009
   150    H    4  dz2    Ryd( 3d)     0.00017
   151    H    4  dz2    Ryd( 4d)     0.00007

 WARNING:  5 low occupancy (<1.9990e) core orbitals found on Br    3


 Summary of Natural Population Analysis:                  
                                                          
                                       Natural Population 
                Natural  -----------------------------------------------
    Atom  No    Charge         Core      Valence    Rydberg      Total
 -----------------------------------------------------------------------
      O    1   -0.99253      1.99968     6.88982    0.10303     8.99253
      H    2    0.43867      0.00000     0.54921    0.01212     0.56133
     Br    3   -0.93481     27.98836     7.79111    0.15533    35.93481
      H    4    0.48866      0.00000     0.48992    0.02142     0.51134
 =======================================================================
   * Total *   -1.00000     29.98804    15.72006    0.29190    46.00000

                                 Natural Population      
 --------------------------------------------------------
   Core                      29.98804 ( 99.9601% of  30)
   Valence                   15.72006 ( 98.2504% of  16)
   Natural Minimal Basis     45.70810 ( 99.3654% of  46)
   Natural Rydberg Basis      0.29190 (  0.6346% of  46)
 --------------------------------------------------------

    Atom  No          Natural Electron Configuration
 ----------------------------------------------------------------------------
      O    1      [core]2S( 1.74)2p( 5.15)3S( 0.01)3p( 0.04)3d( 0.05)
      H    2            1S( 0.55)2p( 0.01)
     Br    3      [core]4S( 1.98)4p( 5.81)4d( 0.09)5p( 0.03)4f( 0.01)5d( 0.01)
      H    4            1S( 0.49)2S( 0.01)2p( 0.01)


 NATURAL BOND ORBITAL ANALYSIS:
 Warning:  a bond orbital has occupanc of -0.00004

                       Occupancies       Lewis Structure    Low   High
           Occ.    -------------------  -----------------   occ   occ
  Cycle   Thresh.   Lewis   Non-Lewis     CR  BD  3C  LP    (L)   (NL)   Dev
 =============================================================================
   1(1)    1.90    45.64251   0.35749     15   2   0   6     0      0    0.08
 -----------------------------------------------------------------------------

 Structure accepted: No low occupancy Lewis orbitals

 WARNING:  5 low occupancy (<1.9990e) core orbitals found on Br    3

 --------------------------------------------------------
   Core                     29.98804 ( 99.960% of  30)
   Valence Lewis            15.65447 ( 97.840% of  16)
  ==================       ============================
   Total Lewis              45.64251 ( 99.223% of  46)
  -----------------------------------------------------
   Valence non-Lewis         0.09136 (  0.199% of  46)
   Rydberg non-Lewis         0.26613 (  0.579% of  46)
  ==================       ============================
   Total non-Lewis           0.35749 (  0.777% of  46)
 --------------------------------------------------------


       (Occupancy)   Bond orbital/ Coefficients/ Hybrids
 ---------------------------------------------------------------------------------
     1. (1.96568) BD ( 1) O   1 - H   2  
                ( 72.82%)   0.8534* O   1 s( 21.04%)p 3.73( 78.49%)d 0.02(  0.46%)
                                                  f 0.00(  0.01%)
                                            0.0002  0.4586 -0.0054 -0.0021 -0.0023
                                            0.8836 -0.0320  0.0092 -0.0031  0.0528
                                           -0.0138  0.0009 -0.0033  0.0000  0.0000
                                            0.0000  0.0000 -0.0194  0.0034  0.0009
                                            0.0000  0.0000  0.0000  0.0000  0.0000
                                            0.0000  0.0546 -0.0041 -0.0042 -0.0349
                                            0.0018 -0.0004  0.0000  0.0000 -0.0099
                                            0.0004 -0.0002  0.0000  0.0000  0.0000
                                            0.0000  0.0000  0.0036  0.0039  0.0021
                                           -0.0009
                ( 27.18%)   0.5213* H   2 s( 99.88%)p 0.00(  0.12%)d 0.00(  0.00%)
                                            0.9994  0.0035 -0.0001  0.0002  0.0179
                                            0.0275 -0.0048 -0.0101 -0.0040 -0.0022
                                            0.0000  0.0000  0.0000 -0.0003  0.0027
                                            0.0000  0.0000  0.0000  0.0000 -0.0012
                                            0.0015 -0.0012 -0.0012
     2. (1.96744) BD ( 1) O   1 - H   4  
                ( 77.86%)   0.8824* O   1 s( 26.18%)p 2.80( 73.40%)d 0.02(  0.41%)
                                                  f 0.00(  0.01%)
                                           -0.0003 -0.5117  0.0022  0.0017  0.0011
                                            0.2133 -0.0183  0.0020 -0.0014  0.8294
                                           -0.0128  0.0065 -0.0023  0.0000  0.0000
                                            0.0000  0.0000  0.0035 -0.0026 -0.0013
                                            0.0000  0.0000  0.0000  0.0000  0.0000
                                            0.0000  0.0526 -0.0039 -0.0008  0.0354
                                           -0.0024  0.0014  0.0000  0.0000 -0.0019
                                           -0.0001 -0.0087  0.0005  0.0000  0.0000
                                            0.0000  0.0000 -0.0028 -0.0015 -0.0018
                                           -0.0018
                ( 22.14%)   0.4705* H   4 s( 99.91%)p 0.00(  0.09%)d 0.00(  0.00%)
                                           -0.9992 -0.0271 -0.0010  0.0005 -0.0164
                                           -0.0026 -0.0012  0.0000 -0.0238 -0.0094
                                            0.0000  0.0000  0.0000  0.0018  0.0020
                                            0.0000  0.0000  0.0000  0.0000 -0.0025
                                            0.0008  0.0005  0.0012
     3. (1.99968) CR ( 1) O   1           s(100.00%)
                                            1.0000 -0.0004  0.0000  0.0000  0.0000
                                           -0.0001  0.0000 -0.0000  0.0000  0.0001
                                           -0.0000  0.0000 -0.0000  0.0000  0.0000
                                            0.0000  0.0000 -0.0000 -0.0000 -0.0000
                                            0.0000  0.0000  0.0000  0.0000  0.0000
                                            0.0000  0.0000 -0.0000  0.0000  0.0000
                                           -0.0000  0.0000  0.0000  0.0000  0.0000
                                            0.0000 -0.0000 -0.0000  0.0000  0.0000
                                            0.0000  0.0000 -0.0000 -0.0000 -0.0000
                                           -0.0000
     4. (2.00000) CR ( 1)Br   3           s(100.00%)
                                            1.0000  0.0000  0.0000 -0.0000 -0.0000
                                            0.0000 -0.0000  0.0000  0.0000 -0.0000
                                            0.0000  0.0000 -0.0000  0.0000  0.0000
                                           -0.0000  0.0000  0.0000 -0.0000  0.0000
                                            0.0000  0.0000  0.0000  0.0000  0.0000
                                            0.0000 -0.0000  0.0000 -0.0000  0.0000
                                            0.0000  0.0000  0.0000  0.0000  0.0000
                                            0.0000  0.0000 -0.0000  0.0000 -0.0000
                                           -0.0000 -0.0000  0.0000 -0.0000  0.0000
                                            0.0000  0.0000  0.0000  0.0000  0.0000
                                            0.0000  0.0000  0.0000  0.0000  0.0000
                                            0.0000  0.0000  0.0000  0.0000
     5. (2.00000) CR ( 2)Br   3           s(100.00%)
                                            0.0000  1.0000 -0.0000  0.0000  0.0000
                                           -0.0000  0.0000 -0.0000 -0.0000  0.0000
                                           -0.0000 -0.0000  0.0000 -0.0000 -0.0000
                                            0.0000 -0.0000 -0.0000  0.0000  0.0000
                                            0.0000  0.0000  0.0000  0.0000  0.0000
                                           -0.0000  0.0000 -0.0000  0.0000  0.0000
                                            0.0000  0.0000  0.0000  0.0000  0.0000
                                            0.0000  0.0000  0.0000 -0.0000  0.0000
                                            0.0000  0.0000 -0.0000  0.0000 -0.0000
                                            0.0000  0.0000 -0.0000 -0.0000 -0.0000
                                           -0.0000  0.0000  0.0000  0.0000  0.0000
                                           -0.0000 -0.0000 -0.0000 -0.0000
     6. (2.00000) CR ( 3)Br   3           s(100.00%)p 0.00(  0.00%)
                                            0.0000 -0.0000  1.0000  0.0000  0.0000
                                           -0.0000  0.0000 -0.0000 -0.0000  0.0001
                                           -0.0000 -0.0000  0.0000 -0.0000 -0.0000
                                            0.0003 -0.0000 -0.0000  0.0000  0.0000
                                            0.0000  0.0000  0.0000  0.0000  0.0000
                                           -0.0000  0.0000 -0.0000  0.0000  0.0000
                                            0.0000  0.0000  0.0000  0.0000  0.0000
                                            0.0000  0.0000  0.0000 -0.0000  0.0000
                                            0.0000  0.0000 -0.0000  0.0000 -0.0000
                                            0.0000  0.0000 -0.0000 -0.0000 -0.0000
                                           -0.0000  0.0000  0.0000  0.0000  0.0000
                                           -0.0000 -0.0000 -0.0000 -0.0000
     7. (2.00002) CR ( 4)Br   3           s(  0.00%)p 1.00(100.00%)
                                            0.0000 -0.0000 -0.0000  0.0000  0.0000
                                           -0.0000  0.0000  1.0000 -0.0000 -0.0001
                                           -0.0000 -0.0000  0.0000 -0.0000 -0.0000
                                            0.0001 -0.0000 -0.0000  0.0000  0.0000
                                            0.0000  0.0000  0.0000  0.0000  0.0000
                                           -0.0000 -0.0000  0.0000  0.0000  0.0000
                                            0.0000  0.0000  0.0000  0.0000  0.0000
                                            0.0000  0.0000  0.0000 -0.0000  0.0000
                                           -0.0000  0.0000 -0.0000  0.0000  0.0000
                                            0.0000  0.0000  0.0000  0.0000 -0.0000
                                           -0.0000  0.0000  0.0000  0.0000  0.0000
                                            0.0000  0.0000 -0.0000 -0.0000
     8. (2.00000) CR ( 5)Br   3           s(  0.00%)p 1.00(100.00%)
                                            0.0000 -0.0000 -0.0000  0.0000  0.0000
                                           -0.0000  0.0000 -0.0000  1.0000 -0.0000
                                           -0.0000 -0.0000  0.0000 -0.0000 -0.0000
                                            0.0000 -0.0000 -0.0000  0.0000  0.0000
                                            0.0000  0.0000  0.0000  0.0000  0.0000
                                           -0.0000 -0.0000  0.0000  0.0000  0.0000
                                            0.0000  0.0000  0.0000  0.0000  0.0000
                                            0.0000  0.0000  0.0000 -0.0000  0.0000
                                           -0.0000  0.0000 -0.0000  0.0000  0.0000
                                            0.0000  0.0000  0.0000  0.0000 -0.0000
                                           -0.0000  0.0000  0.0000  0.0000  0.0000
                                            0.0000  0.0000 -0.0000 -0.0000
     9. (1.99998) CR ( 6)Br   3           s(  0.00%)p 1.00(100.00%)
                                            0.0000 -0.0000 -0.0000  0.0001  0.0000
                                           -0.0000  0.0000 -0.0000 -0.0000  0.0001
                                            0.0000 -0.0000  0.0000  1.0000 -0.0000
                                            0.0002 -0.0000 -0.0000  0.0000  0.0000
                                            0.0000  0.0000  0.0000  0.0000  0.0000
                                           -0.0000  0.0000 -0.0000  0.0000  0.0000
                                            0.0000  0.0000  0.0000  0.0000  0.0000
                                            0.0000  0.0000  0.0000 -0.0000  0.0000
                                            0.0000  0.0000 -0.0000  0.0000 -0.0000
                                            0.0000  0.0000 -0.0000 -0.0000 -0.0000
                                           -0.0000  0.0000  0.0000  0.0000  0.0000
                                           -0.0000 -0.0000 -0.0000 -0.0000
    10. (2.00000) CR ( 7)Br   3           s(  0.00%)p 1.00(100.00%)
                                            0.0000 -0.0000 -0.0000  0.0000  0.0000
                                           -0.0000  0.0000 -0.0000 -0.0000  0.0000
                                            0.0000 -0.0000  0.0000 -0.0000  1.0000
                                            0.0000 -0.0000 -0.0000  0.0000  0.0000
                                            0.0000  0.0000  0.0000  0.0000  0.0000
                                           -0.0000  0.0000 -0.0000  0.0000  0.0000
                                            0.0000  0.0000  0.0000  0.0000  0.0000
                                            0.0000  0.0000  0.0000 -0.0000  0.0000
                                            0.0000  0.0000 -0.0000  0.0000 -0.0000
                                            0.0000  0.0000 -0.0000 -0.0000 -0.0000
                                           -0.0000  0.0000  0.0000  0.0000  0.0000
                                           -0.0000 -0.0000 -0.0000 -0.0000
    11. (2.00002) CR ( 8)Br   3           s(  0.00%)p 1.00(100.00%)
                                            0.0000  0.0000  0.0000  0.0000  0.0000
                                            0.0000  0.0000  0.0000  0.0000  0.0000
                                            0.0000  0.0000  0.0000  0.0000  0.0000
                                            0.0000  0.0000  0.0000  0.0000  1.0000
                                           -0.0000 -0.0001 -0.0000 -0.0000 -0.0000
                                            0.0000  0.0000  0.0000  0.0000  0.0000
                                           -0.0000  0.0000 -0.0000  0.0000 -0.0000
                                            0.0000  0.0000  0.0000  0.0000  0.0000
                                            0.0000  0.0000  0.0000  0.0000  0.0000
                                            0.0000  0.0000  0.0000  0.0000  0.0000
                                            0.0000  0.0000  0.0000 -0.0000 -0.0000
                                            0.0000  0.0000  0.0000  0.0000
    12. (2.00000) CR ( 9)Br   3           s(  0.00%)p 1.00(100.00%)
                                            0.0000  0.0000  0.0000  0.0000  0.0000
                                            0.0000  0.0000  0.0000  0.0000  0.0000
                                            0.0000  0.0000  0.0000  0.0000  0.0000
                                            0.0000  0.0000  0.0000  0.0000 -0.0000
                                            1.0000 -0.0000 -0.0000 -0.0000 -0.0000
                                            0.0000  0.0000  0.0000  0.0000  0.0000
                                           -0.0000  0.0000 -0.0000  0.0000 -0.0000
                                            0.0000  0.0000  0.0000  0.0000  0.0000
                                            0.0000  0.0000  0.0000  0.0000  0.0000
                                            0.0000  0.0000  0.0000  0.0000  0.0000
                                            0.0000  0.0000  0.0000 -0.0000 -0.0000
                                            0.0000  0.0000  0.0000  0.0000
    13. (1.99767) CR (10)Br   3           s(  0.00%)p 0.00(  0.00%)d 1.00(100.00%)
                                            0.0000 -0.0000 -0.0000  0.0000  0.0000
                                           -0.0000  0.0000 -0.0000 -0.0000  0.0000
                                            0.0000 -0.0000  0.0000 -0.0000 -0.0000
                                            0.0001 -0.0000 -0.0000  0.0000  0.0000
                                            0.0000  0.0000  0.0000  0.0000  0.0000
                                            1.0000  0.0000 -0.0000  0.0000  0.0000
                                            0.0000  0.0000  0.0000  0.0000  0.0000
                                            0.0000  0.0000  0.0000 -0.0000  0.0000
                                            0.0000  0.0000 -0.0000  0.0000 -0.0000
                                            0.0000  0.0000 -0.0000 -0.0000 -0.0000
                                           -0.0000  0.0000  0.0000  0.0000  0.0000
                                           -0.0000 -0.0000 -0.0000 -0.0000
    14. (1.99769) CR (11)Br   3           s(  0.00%)p 0.00(  0.00%)d 1.00(100.00%)
                                            0.0000  0.0000  0.0000  0.0000  0.0000
                                            0.0000  0.0000  0.0000  0.0000  0.0000
                                            0.0000  0.0000  0.0000  0.0000  0.0000
                                            0.0000  0.0000  0.0000  0.0000  0.0000
                                            0.0000  0.0000  0.0000  0.0000  0.0000
                                            0.0000  0.0000  0.0000  0.0000  1.0000
                                            0.0000 -0.0000  0.0000 -0.0000  0.0000
                                           -0.0000 -0.0000  0.0000  0.0000  0.0000
                                            0.0000  0.0000  0.0000  0.0000  0.0000
                                           -0.0000 -0.0000  0.0000  0.0000  0.0000
                                            0.0000 -0.0000 -0.0000  0.0000  0.0000
                                            0.0000  0.0000  0.0000  0.0000
    15. (1.99767) CR (12)Br   3           s(  0.00%)p 0.00(  0.00%)d 1.00(100.00%)
                                            0.0000  0.0000  0.0000  0.0000  0.0000
                                            0.0000  0.0000  0.0000  0.0000  0.0000
                                            0.0000  0.0000  0.0000  0.0000  0.0000
                                            0.0000  0.0000  0.0000  0.0000  0.0000
                                            0.0000  0.0000  0.0000  0.0000  0.0000
                                            0.0000  0.0000  0.0000  0.0000 -0.0000
                                            0.0000 -0.0000  0.0000  1.0000  0.0000
                                           -0.0000 -0.0000  0.0000  0.0000  0.0000
                                            0.0000  0.0000  0.0000  0.0000  0.0000
                                           -0.0000 -0.0000  0.0000  0.0000  0.0000
                                            0.0000 -0.0000 -0.0000  0.0000  0.0000
                                            0.0000  0.0000  0.0000  0.0000
    16. (1.99765) CR (13)Br   3           s(  0.00%)p 0.00(  0.00%)d 1.00(100.00%)
                                           -0.0000  0.0000  0.0000 -0.0001 -0.0000
                                            0.0000 -0.0000  0.0000  0.0000 -0.0000
                                           -0.0000  0.0000 -0.0000  0.0000  0.0000
                                           -0.0002  0.0000  0.0000 -0.0000  0.0000
                                            0.0000  0.0000  0.0000  0.0000  0.0000
                                            0.0000 -0.0000  0.0000 -0.0000  0.0000
                                            0.0000  0.0000  0.0000  0.0000  0.0000
                                            0.0000  0.0000  1.0000  0.0000 -0.0000
                                           -0.0000 -0.0000  0.0000 -0.0000  0.0000
                                            0.0000  0.0000  0.0000  0.0000  0.0000
                                            0.0000  0.0000  0.0000  0.0000  0.0000
                                            0.0000  0.0000  0.0000  0.0000
    17. (1.99768) CR (14)Br   3           s(  0.00%)p 0.00(  0.00%)d 1.00(100.00%)
                                           -0.0000  0.0000  0.0000 -0.0000 -0.0000
                                            0.0000 -0.0000  0.0000  0.0000 -0.0000
                                           -0.0000  0.0000 -0.0000  0.0000  0.0000
                                           -0.0001  0.0000  0.0000 -0.0000  0.0000
                                            0.0000  0.0000  0.0000  0.0000  0.0000
                                            0.0000 -0.0000  0.0000 -0.0000  0.0000
                                            0.0000  0.0000  0.0000  0.0000  0.0000
                                            0.0000  0.0000 -0.0000  0.0000 -0.0000
                                           -0.0000  1.0000  0.0000 -0.0000  0.0000
                                            0.0000  0.0000  0.0000  0.0000  0.0000
                                            0.0000  0.0000  0.0000  0.0000  0.0000
                                            0.0000  0.0000  0.0000  0.0000
    18. (1.96972) LP ( 1) O   1           s( 52.69%)p 0.90( 47.19%)d 0.00(  0.11%)
                                                  f 0.00(  0.00%)
                                            0.0002  0.7259  0.0030  0.0019  0.0013
                                           -0.4089 -0.0046  0.0023  0.0001  0.5520
                                            0.0083 -0.0046  0.0008  0.0000  0.0000
                                            0.0000  0.0000  0.0290 -0.0040  0.0014
                                            0.0000  0.0000  0.0000  0.0000  0.0000
                                            0.0000  0.0051 -0.0002  0.0013  0.0140
                                           -0.0020 -0.0012  0.0000  0.0000  0.0028
                                           -0.0007 -0.0029  0.0010  0.0000  0.0000
                                            0.0000  0.0000  0.0012 -0.0016  0.0010
                                           -0.0002
    19. (1.95961) LP ( 2) O   1           s(  0.00%)p 1.00( 99.80%)d 0.00(  0.19%)
                                                  f 0.00(  0.01%)
                                            0.0000  0.0000  0.0000  0.0000  0.0000
                                            0.0000  0.0000  0.0000  0.0000  0.0000
                                            0.0000  0.0000  0.0000  0.9985  0.0285
                                           -0.0069  0.0032  0.0000  0.0000  0.0000
                                            0.0333 -0.0036  0.0008 -0.0281  0.0028
                                           -0.0037  0.0000  0.0000  0.0000  0.0000
                                            0.0000  0.0000 -0.0096  0.0028  0.0000
                                            0.0000  0.0000  0.0000 -0.0009  0.0016
                                            0.0023 -0.0005  0.0000  0.0000  0.0000
                                            0.0000
    20. (1.97968) LP ( 1)Br   3           s( 96.11%)p 0.04(  3.89%)d 0.00(  0.00%)
                                                  f 0.00(  0.00%)
                                           -0.0000  0.0000  0.0001  0.9804 -0.0003
                                            0.0001 -0.0001 -0.0000 -0.0000 -0.0391
                                            0.0003 -0.0001  0.0001 -0.0001 -0.0000
                                           -0.1933  0.0007 -0.0006  0.0001  0.0000
                                            0.0000  0.0000  0.0000  0.0000  0.0000
                                           -0.0000  0.0003 -0.0001 -0.0002  0.0000
                                            0.0000  0.0000  0.0000  0.0000  0.0000
                                            0.0000  0.0000  0.0000 -0.0006  0.0002
                                            0.0003  0.0000 -0.0005  0.0002  0.0002
                                            0.0000  0.0000 -0.0001 -0.0001 -0.0004
                                           -0.0003  0.0000  0.0000  0.0000  0.0000
                                           -0.0003 -0.0002 -0.0004 -0.0002
    21. (1.95430) LP ( 2)Br   3           s(  0.00%)p 1.00( 99.99%)d 0.00(  0.00%)
                                                  f 0.00(  0.00%)
                                            0.0000  0.0000  0.0000  0.0000  0.0000
                                            0.0000  0.0000  0.0000  0.0000  0.0000
                                            0.0000  0.0000  0.0000  0.0000  0.0000
                                            0.0000  0.0000  0.0000  0.0000  0.0001
                                            0.0000  1.0000  0.0011  0.0010  0.0000
                                            0.0000  0.0000  0.0000  0.0000 -0.0000
                                            0.0025 -0.0011  0.0010 -0.0000  0.0057
                                           -0.0014 -0.0010  0.0000  0.0000  0.0000
                                            0.0000  0.0000  0.0000  0.0000  0.0000
                                           -0.0017 -0.0011  0.0000  0.0000  0.0000
                                            0.0000 -0.0016 -0.0009  0.0010  0.0008
                                            0.0000  0.0000  0.0000  0.0000
    22. (1.95407) LP ( 3)Br   3           s(  0.00%)p 1.00( 99.99%)d 0.00(  0.01%)
                                                  f 0.00(  0.00%)
                                           -0.0000 -0.0000 -0.0000  0.0024 -0.0003
                                           -0.0014  0.0021 -0.0001 -0.0000 -0.9777
                                           -0.0023 -0.0013  0.0006  0.0000  0.0000
                                            0.2097 -0.0004 -0.0002  0.0007 -0.0000
                                           -0.0000 -0.0000 -0.0000 -0.0000 -0.0000
                                            0.0000 -0.0060  0.0013  0.0009 -0.0000
                                           -0.0000 -0.0000 -0.0000 -0.0000 -0.0000
                                           -0.0000 -0.0000  0.0000 -0.0043  0.0015
                                           -0.0008 -0.0000  0.0007 -0.0005  0.0008
                                           -0.0000 -0.0000  0.0008  0.0005 -0.0001
                                            0.0000 -0.0000 -0.0000 -0.0000 -0.0000
                                            0.0017  0.0008 -0.0017 -0.0011
    23. (1.90397) LP ( 4)Br   3           s(  3.89%)p24.73( 96.08%)d 0.01(  0.03%)
                                                  f 0.00(  0.00%)
                                            0.0000 -0.0000 -0.0003  0.1971  0.0013
                                           -0.0004  0.0006 -0.0001 -0.0000  0.2060
                                            0.0000 -0.0005  0.0001 -0.0002 -0.0000
                                            0.9583 -0.0033 -0.0025  0.0005  0.0000
                                            0.0000  0.0000  0.0000  0.0000  0.0000
                                           -0.0001  0.0069 -0.0014  0.0003  0.0000
                                            0.0000  0.0000  0.0000  0.0000  0.0000
                                            0.0000  0.0000  0.0002 -0.0122  0.0023
                                            0.0007  0.0001 -0.0087  0.0020 -0.0003
                                            0.0000  0.0000 -0.0007 -0.0003 -0.0031
                                           -0.0014  0.0000  0.0000  0.0000  0.0000
                                           -0.0022 -0.0007 -0.0028 -0.0010
    24. (0.01958) RY*( 1) O   1           s(  0.00%)p 1.00( 98.52%)d 0.01(  1.46%)
                                                  f 0.00(  0.02%)
                                            0.0000  0.0000  0.0000  0.0000  0.0000
                                            0.0000  0.0000  0.0000  0.0000  0.0000
                                            0.0000  0.0000  0.0000 -0.0334  0.9914
                                            0.0295 -0.0162  0.0000  0.0000  0.0000
                                            0.0977 -0.0144 -0.0053 -0.0677  0.0138
                                            0.0046  0.0000  0.0000  0.0000  0.0000
                                            0.0000  0.0000 -0.0088  0.0102  0.0000
                                            0.0000  0.0000  0.0000 -0.0043  0.0032
                                           -0.0014 -0.0010  0.0000  0.0000  0.0000
                                            0.0000
    25. (0.01519) RY*( 2) O   1           s( 20.88%)p 3.66( 76.46%)d 0.12(  2.57%)
                                                  f 0.00(  0.09%)
                                           -0.0000 -0.0091  0.4568  0.0054 -0.0010
                                            0.0068 -0.4791 -0.0131  0.0058 -0.0096
                                            0.7311  0.0097 -0.0114  0.0000  0.0000
                                            0.0000  0.0000  0.1567 -0.0173 -0.0015
                                            0.0000  0.0000  0.0000  0.0000  0.0000
                                            0.0000  0.0001  0.0034  0.0035  0.0264
                                           -0.0107 -0.0035  0.0000  0.0000  0.0030
                                           -0.0020  0.0044  0.0010  0.0000  0.0000
                                            0.0000  0.0000  0.0224 -0.0136  0.0123
                                           -0.0039
    26. (0.00704) RY*( 3) O   1           s(  2.03%)p36.32( 73.64%)d11.77( 23.87%)
                                                  f 0.23(  0.46%)
                                           -0.0000 -0.0005  0.1346 -0.0431  0.0175
                                           -0.0593 -0.6934 -0.0411  0.0223 -0.0368
                                           -0.4980 -0.0214  0.0017 -0.0000 -0.0000
                                           -0.0000 -0.0000 -0.1973 -0.0104 -0.0031
                                           -0.0000 -0.0000 -0.0000 -0.0000 -0.0000
                                           -0.0000  0.4422  0.0458  0.0274  0.0339
                                            0.0091  0.0094 -0.0000 -0.0000 -0.0286
                                            0.0148 -0.0192  0.0079 -0.0000 -0.0000
                                           -0.0000 -0.0000  0.0229 -0.0160 -0.0432
                                            0.0216
    27. (0.00621) RY*( 4) O   1           s( 14.60%)p 0.11(  1.67%)d 5.67( 82.78%)
                                                  f 0.06(  0.95%)
                                            0.0000  0.0151  0.3817  0.0036  0.0062
                                            0.0036  0.1243  0.0050 -0.0068  0.0246
                                            0.0224 -0.0042 -0.0078 -0.0000 -0.0000
                                           -0.0000 -0.0000 -0.8472 -0.0236  0.0035
                                           -0.0000 -0.0000 -0.0000 -0.0000 -0.0000
                                           -0.0000 -0.2819 -0.0056  0.0025  0.1710
                                            0.0221  0.0130 -0.0000 -0.0000 -0.0066
                                            0.0102  0.0247 -0.0159 -0.0000 -0.0000
                                           -0.0000 -0.0000 -0.0808  0.0320 -0.0285
                                            0.0092
    28. (0.00619) RY*( 5) O   1           s(  0.00%)p 0.00(  0.00%)d 1.00( 98.90%)
                                                  f 0.01(  1.09%)
                                            0.0000  0.0000  0.0000  0.0000  0.0000
                                            0.0000  0.0000  0.0000  0.0000  0.0000
                                            0.0000  0.0000  0.0000  0.0045  0.0010
                                           -0.0030 -0.0004  0.0000  0.0000  0.0000
                                            0.5646  0.0333  0.0091  0.8167  0.0457
                                            0.0030  0.0000  0.0000  0.0000  0.0000
                                            0.0000  0.0000  0.0199 -0.0119  0.0000
                                            0.0000  0.0000  0.0000  0.0903 -0.0471
                                           -0.0045  0.0038  0.0000  0.0000  0.0000
                                            0.0000
    29. (0.00589) RY*( 6) O   1           s(  0.00%)p 1.00(  1.57%)d62.03( 97.57%)
                                                  f 0.55(  0.86%)
                                            0.0000  0.0000  0.0000  0.0000  0.0000
                                            0.0000  0.0000  0.0000  0.0000  0.0000
                                            0.0000  0.0000  0.0000 -0.0398 -0.1186
                                           -0.0089 -0.0031  0.0000  0.0000  0.0000
                                            0.8096  0.0613  0.0163 -0.5609 -0.0403
                                           -0.0020  0.0000  0.0000  0.0000  0.0000
                                            0.0000  0.0000 -0.0696  0.0363  0.0000
                                            0.0000  0.0000  0.0000  0.0224 -0.0112
                                           -0.0385  0.0179  0.0000  0.0000  0.0000
                                            0.0000
    30. (0.00570) RY*( 7) O   1           s(  7.02%)p 0.75(  5.23%)d12.41( 87.13%)
                                                  f 0.09(  0.62%)
                                            0.0000  0.0206  0.2640 -0.0085  0.0041
                                            0.0342  0.1597  0.0108 -0.0046 -0.0383
                                           -0.1538 -0.0152 -0.0111  0.0000  0.0000
                                            0.0000  0.0000  0.2938  0.0179  0.0019
                                            0.0000  0.0000  0.0000  0.0000  0.0000
                                            0.0000  0.0610  0.0073 -0.0022  0.8800
                                            0.0795  0.0098  0.0000  0.0000  0.0505
                                           -0.0239 -0.0492  0.0257  0.0000  0.0000
                                            0.0000  0.0000  0.0044 -0.0022  0.0039
                                            0.0003
    31. (0.00336) RY*( 8) O   1           s( 16.30%)p 1.30( 21.20%)d 3.77( 61.43%)
                                                  f 0.07(  1.06%)
                                            0.0000 -0.0061  0.4037 -0.0014  0.0062
                                            0.0310 -0.1631 -0.0028 -0.0108  0.0284
                                           -0.4222 -0.0381 -0.0621 -0.0000 -0.0000
                                           -0.0000 -0.0000  0.3238  0.0334 -0.0093
                                           -0.0000 -0.0000 -0.0000 -0.0000 -0.0000
                                           -0.0000 -0.6721 -0.0469  0.0520 -0.2251
                                           -0.0252  0.0165 -0.0000 -0.0000  0.0203
                                           -0.0117  0.0374 -0.0301 -0.0000 -0.0000
                                           -0.0000 -0.0000 -0.0018 -0.0140  0.0785
                                           -0.0375
    32. (0.00230) RY*( 9) O   1           s( 38.02%)p 0.59( 22.46%)d 1.02( 38.93%)
                                                  f 0.02(  0.59%)
                                           -0.0000 -0.0053  0.6149 -0.0091 -0.0452
                                           -0.0193  0.4579  0.0332 -0.0050 -0.0070
                                           -0.0963 -0.0486 -0.0407  0.0000  0.0000
                                            0.0000  0.0000  0.1041  0.0234  0.0190
                                            0.0000  0.0000  0.0000  0.0000  0.0000
                                            0.0000  0.4814  0.1147 -0.0549 -0.3435
                                           -0.1051  0.0246  0.0000  0.0000 -0.0158
                                            0.0385  0.0111 -0.0075  0.0000  0.0000
                                            0.0000  0.0000  0.0409 -0.0462 -0.0121
                                           -0.0031
    33. (0.00073) RY*(10) O   1           s( 46.07%)p 0.99( 45.65%)d 0.16(  7.34%)
                                                  f 0.02(  0.95%)
                                           -0.0000 -0.0049 -0.0329  0.6737 -0.0758
                                            0.0002 -0.0406  0.0870 -0.1195 -0.0012
                                            0.0033 -0.6563 -0.0468 -0.0000 -0.0000
                                           -0.0000 -0.0000 -0.0189  0.1011  0.1356
                                           -0.0000 -0.0000 -0.0000 -0.0000 -0.0000
                                           -0.0000  0.0133 -0.0242 -0.0772  0.0246
                                           -0.0850 -0.1728 -0.0000 -0.0000  0.0167
                                           -0.0043  0.0480  0.0219 -0.0000 -0.0000
                                           -0.0000 -0.0000  0.0046  0.0445  0.0455
                                            0.0487
    34. (0.00055) RY*(11) O   1           s(  0.00%)p 1.00( 60.55%)d 0.60( 36.50%)
                                                  f 0.05(  2.96%)
                                            0.0000  0.0000  0.0000  0.0000  0.0000
                                            0.0000  0.0000  0.0000  0.0000  0.0000
                                            0.0000  0.0000  0.0000  0.0017 -0.0404
                                            0.7770  0.0093  0.0000  0.0000  0.0000
                                            0.0225 -0.2491 -0.0620 -0.0197  0.5376
                                            0.0954  0.0000  0.0000  0.0000  0.0000
                                            0.0000  0.0000 -0.1402  0.0339  0.0000
                                            0.0000  0.0000  0.0000 -0.0760  0.0080
                                           -0.0538 -0.0058  0.0000  0.0000  0.0000
                                            0.0000
    35. (0.00048) RY*(12) O   1           s(  4.72%)p 3.65( 17.21%)d12.58( 59.36%)
                                                  f 3.97( 18.72%)
                                            0.0000  0.0041 -0.0001  0.1989  0.0871
                                            0.0053  0.0101 -0.3025 -0.0324 -0.0053
                                           -0.0301  0.2780 -0.0342 -0.0000 -0.0000
                                           -0.0000 -0.0000 -0.0363 -0.3293  0.0387
                                           -0.0000 -0.0000 -0.0000 -0.0000 -0.0000
                                           -0.0000 -0.0012 -0.1687 -0.0204  0.0684
                                           -0.6483 -0.1687 -0.0000 -0.0000  0.1906
                                           -0.0104 -0.0017  0.0125 -0.0000 -0.0000
                                           -0.0000 -0.0000  0.3618  0.0026  0.1397
                                            0.0134
    36. (0.00046) RY*(13) O   1           s(  0.00%)p 1.00( 14.17%)d 0.84( 11.96%)
                                                  f 5.21( 73.87%)
                                            0.0000  0.0000  0.0000  0.0000  0.0000
                                            0.0000  0.0000  0.0000  0.0000  0.0000
                                            0.0000  0.0000  0.0000  0.0032 -0.0009
                                            0.3645  0.0937  0.0000  0.0000  0.0000
                                            0.0076  0.2168  0.0112 -0.0225 -0.2679
                                            0.0134  0.0000  0.0000  0.0000  0.0000
                                            0.0000  0.0000  0.1957  0.0087  0.0000
                                            0.0000  0.0000  0.0000  0.2208 -0.0002
                                            0.8072 -0.0011  0.0000  0.0000  0.0000
                                            0.0000
    37. (0.00044) RY*(14) O   1           s(  0.18%)p 9.64(  1.75%)d34.45(  6.26%)
                                                  f99.99( 91.80%)
                                           -0.0000  0.0011 -0.0040  0.0420  0.0063
                                           -0.0026 -0.0034 -0.0575 -0.0219 -0.0007
                                           -0.0119  0.1165  0.0003 -0.0000 -0.0000
                                           -0.0000 -0.0000  0.0521 -0.0182 -0.0501
                                           -0.0000 -0.0000 -0.0000 -0.0000 -0.0000
                                           -0.0000  0.0301 -0.0491 -0.0307  0.0754
                                           -0.2063 -0.0675 -0.0000 -0.0000 -0.5389
                                           -0.0097  0.7212  0.0251 -0.0000 -0.0000
                                           -0.0000 -0.0000 -0.3265  0.0063  0.0036
                                            0.0068
    38. (0.00044) RY*(15) O   1           s(  0.00%)p 1.00(  0.66%)d19.26( 12.63%)
                                                  f99.99( 86.71%)
                                            0.0000  0.0000  0.0000  0.0000  0.0000
                                            0.0000  0.0000  0.0000  0.0000  0.0000
                                            0.0000  0.0000  0.0000  0.0039 -0.0041
                                           -0.0797 -0.0134  0.0000  0.0000  0.0000
                                            0.0204 -0.2144 -0.0182 -0.0859  0.2504
                                            0.0976  0.0000  0.0000  0.0000  0.0000
                                            0.0000  0.0000  0.8212  0.0133  0.0000
                                            0.0000  0.0000  0.0000  0.4162  0.0093
                                           -0.1389  0.0014  0.0000  0.0000  0.0000
                                            0.0000
    39. (0.00042) RY*(16) O   1           s(  0.00%)p 1.00( 14.35%)d 2.02( 28.99%)
                                                  f 3.95( 56.66%)
                                            0.0000  0.0000  0.0000  0.0000  0.0000
                                            0.0000  0.0000  0.0000  0.0000  0.0000
                                            0.0000  0.0000  0.0000 -0.0077 -0.0118
                                           -0.3590 -0.1199  0.0000  0.0000  0.0000
                                            0.0873 -0.4025 -0.1002 -0.0046  0.3302
                                           -0.0347  0.0000  0.0000  0.0000  0.0000
                                            0.0000  0.0000  0.1159  0.0063  0.0000
                                            0.0000  0.0000  0.0000 -0.5370 -0.0251
                                            0.5135  0.0193  0.0000  0.0000  0.0000
                                            0.0000
    40. (0.00041) RY*(17) O   1           s(  0.00%)p 1.00( 11.68%)d 2.45( 28.58%)
                                                  f 5.12( 59.74%)
                                            0.0000  0.0000  0.0000  0.0000  0.0000
                                            0.0000  0.0000  0.0000  0.0000  0.0000
                                            0.0000  0.0000  0.0000 -0.0065  0.0038
                                           -0.3174 -0.1263  0.0000  0.0000  0.0000
                                           -0.0589  0.0959  0.0888 -0.0457  0.5129
                                            0.0092  0.0000  0.0000  0.0000  0.0000
                                            0.0000  0.0000 -0.4272 -0.0270  0.0000
                                            0.0000  0.0000  0.0000  0.5943  0.0499
                                            0.2417  0.0083  0.0000  0.0000  0.0000
                                            0.0000
    41. (0.00041) RY*(18) O   1           s(  0.06%)p99.99( 13.57%)d99.99( 12.51%)
                                                  f99.99( 73.87%)
                                            0.0000  0.0016 -0.0065  0.0210  0.0087
                                            0.0026  0.0210 -0.3462 -0.0711 -0.0008
                                            0.0081 -0.0822 -0.0588 -0.0000 -0.0000
                                           -0.0000 -0.0000  0.0167 -0.1743  0.0028
                                           -0.0000 -0.0000 -0.0000 -0.0000 -0.0000
                                           -0.0000 -0.0628  0.2959 -0.0169  0.0125
                                           -0.0412 -0.0274 -0.0000 -0.0000 -0.6588
[...]
                                            0.0062  0.0056 -0.0488  0.0536  0.0000
                                            0.0000  0.0000  0.0000
   130. (0.00366) RY*( 3) H   4           s(  5.77%)p16.20( 93.49%)d 0.13(  0.74%)
                                           -0.0182  0.1799  0.1558  0.0271  0.6679
                                            0.0195 -0.0168 -0.6914  0.0966 -0.0273
                                           -0.0000 -0.0000 -0.0000 -0.0691  0.0195
                                           -0.0000 -0.0000 -0.0000 -0.0000  0.0168
                                            0.0250 -0.0344  0.0115
   131. (0.00271) RY*( 4) H   4           s( 20.28%)p 3.88( 78.66%)d 0.05(  1.06%)
                                           -0.0046  0.4012  0.2011  0.0371 -0.7001
                                            0.0412 -0.0119 -0.5000  0.2113 -0.0089
                                           -0.0000 -0.0000 -0.0000  0.0533 -0.0478
                                           -0.0000 -0.0000 -0.0000 -0.0000  0.0335
                                            0.0432  0.0460  0.0179
   132. (0.00047) RY*( 5) H   4           s( 13.21%)p 6.11( 80.69%)d 0.46(  6.10%)
                                           -0.0020 -0.0355  0.2590 -0.2525  0.0250
                                            0.8859 -0.1045  0.1015 -0.0149 -0.0020
                                            0.0000  0.0000  0.0000 -0.0544  0.0754
                                            0.0000  0.0000  0.0000  0.0000  0.2156
                                            0.0316  0.0468  0.0521
   133. (0.00036) RY*( 6) H   4           s(  0.00%)p 1.00( 92.27%)d 0.08(  7.73%)
                                            0.0000  0.0000  0.0000  0.0000  0.0000
                                            0.0000  0.0000  0.0000  0.0000  0.0000
                                           -0.1572  0.9470  0.0322  0.0000  0.0000
                                            0.0152  0.0296  0.2596  0.0940  0.0000
                                            0.0000  0.0000  0.0000
   134. (0.00033) RY*( 7) H   4           s(  4.18%)p14.13( 59.05%)d 8.80( 36.77%)
                                           -0.0050 -0.1203  0.1612  0.0362  0.0559
                                           -0.1709 -0.1340  0.1719  0.4968 -0.5136
                                           -0.0000 -0.0000 -0.0000 -0.2257 -0.1953
                                           -0.0000 -0.0000 -0.0000 -0.0000  0.2646
                                            0.2862  0.2853  0.2129
   135. (0.00021) RY*( 8) H   4           s( 17.22%)p 3.28( 56.47%)d 1.53( 26.31%)
                                           -0.0154 -0.0691  0.3851 -0.1372  0.0388
                                           -0.0923 -0.0366  0.1602  0.5058  0.5214
                                            0.0000  0.0000  0.0000 -0.2711  0.0933
                                            0.0000  0.0000  0.0000  0.0000 -0.3858
                                           -0.1350  0.0666 -0.0972
   136. (0.00021) RY*( 9) H   4           s(  0.00%)p 1.00( 13.59%)d 6.36( 86.41%)
                                            0.0000  0.0000  0.0000  0.0000  0.0000
                                            0.0000  0.0000  0.0000  0.0000  0.0000
                                            0.1000 -0.2250  0.2743  0.0000  0.0000
                                           -0.0373 -0.0177  0.9131 -0.1696  0.0000
                                            0.0000  0.0000  0.0000
   137. (0.00018) RY*(10) H   4           s(  5.04%)p 4.64( 23.38%)d14.20( 71.58%)
                                            0.0080  0.0476 -0.1036  0.1932 -0.1142
                                            0.0413 -0.3425 -0.0559 -0.3063 -0.0691
                                           -0.0000 -0.0000 -0.0000 -0.8139  0.0400
                                           -0.0000 -0.0000 -0.0000 -0.0000 -0.1562
                                            0.0566 -0.1549  0.0128
   138. (0.00016) RY*(11) H   4           s(  0.00%)p 1.00(  0.24%)d99.99( 99.76%)
                                            0.0000  0.0000  0.0000  0.0000  0.0000
                                            0.0000  0.0000  0.0000  0.0000  0.0000
                                            0.0019 -0.0163 -0.0462  0.0000  0.0000
                                            0.9930  0.0497  0.0347 -0.0885  0.0000
                                            0.0000  0.0000  0.0000
   139. (0.00016) RY*(12) H   4           s(  8.00%)p 2.78( 22.23%)d 8.73( 69.78%)
                                            0.0107  0.0112  0.2605 -0.1089 -0.0031
                                           -0.1518  0.0283 -0.0496 -0.4426 -0.0098
                                            0.0000  0.0000  0.0000 -0.0674  0.1076
                                            0.0000  0.0000  0.0000  0.0000  0.0012
                                           -0.1616  0.8071 -0.0649
   140. (0.00012) RY*(13) H   4           s( 15.41%)p 0.84( 12.93%)d 4.65( 71.66%)
                                            0.0009 -0.0299  0.2914 -0.2613 -0.0462
                                           -0.3046  0.1353  0.0238 -0.0947  0.0808
                                            0.0000  0.0000  0.0000 -0.2163  0.1483
                                            0.0000  0.0000  0.0000  0.0000  0.6832
                                           -0.1880 -0.3322 -0.1881
   141. (0.00010) RY*(14) H   4           s(  0.00%)p 1.00( 43.58%)d 1.29( 56.42%)
                                            0.0000  0.0000  0.0000  0.0000  0.0000
                                            0.0000  0.0000  0.0000  0.0000  0.0000
                                           -0.0161 -0.0828  0.6548  0.0000  0.0000
                                            0.0845  0.2139 -0.0757  0.7110  0.0000
                                            0.0000  0.0000  0.0000
   142. (0.00009) RY*(15) H   4           s(  0.05%)p99.99( 35.06%)d99.99( 64.89%)
   143. (0.00007) RY*(16) H   4           s( 77.77%)p 0.08(  6.27%)d 0.21( 15.97%)
   144. (0.00004) RY*(17) H   4           s( 34.59%)p 0.44( 15.30%)d 1.45( 50.11%)
   145. (0.00005) RY*(18) H   4           s(  0.00%)p 1.00(  1.45%)d68.11( 98.55%)
   146. (0.00004) RY*(19) H   4           s(  2.96%)p 2.78(  8.22%)d29.98( 88.81%)
   147. (0.00004) RY*(20) H   4           s(  4.45%)p 8.07( 35.95%)d13.39( 59.60%)
   148. (0.00003) RY*(21) H   4           s(  0.00%)p 1.00( 49.41%)d 1.02( 50.59%)
   149. (0.00003) RY*(22) H   4           s( 13.00%)p 3.90( 50.74%)d 2.79( 36.26%)
   150. (0.02152) BD*( 1) O   1 - H   2  
                ( 27.18%)   0.5213* O   1 s( 21.04%)p 3.73( 78.49%)d 0.02(  0.46%)
                                                  f 0.00(  0.01%)
                                           -0.0002 -0.4586  0.0054  0.0021  0.0023
                                           -0.8836  0.0320 -0.0092  0.0031 -0.0528
                                            0.0138 -0.0009  0.0033 -0.0000 -0.0000
                                           -0.0000 -0.0000  0.0194 -0.0034 -0.0009
                                           -0.0000 -0.0000 -0.0000 -0.0000 -0.0000
                                           -0.0000 -0.0546  0.0041  0.0042  0.0349
                                           -0.0018  0.0004 -0.0000 -0.0000  0.0099
                                           -0.0004  0.0002 -0.0000 -0.0000 -0.0000
                                           -0.0000 -0.0000 -0.0036 -0.0039 -0.0021
                                            0.0009
                ( 72.82%)  -0.8534* H   2 s( 99.88%)p 0.00(  0.12%)d 0.00(  0.00%)
                                           -0.9994 -0.0035  0.0001 -0.0002 -0.0179
                                           -0.0275  0.0048  0.0101  0.0040  0.0022
                                           -0.0000 -0.0000 -0.0000  0.0003 -0.0027
                                           -0.0000 -0.0000 -0.0000 -0.0000  0.0012
                                           -0.0015  0.0012  0.0012
   151. (0.06984) BD*( 1) O   1 - H   4  
                ( 22.14%)   0.4705* O   1 s( 26.18%)p 2.80( 73.40%)d 0.02(  0.41%)
                                                  f 0.00(  0.01%)
                                            0.0003  0.5117 -0.0022 -0.0017 -0.0011
                                           -0.2133  0.0183 -0.0020  0.0014 -0.8294
                                            0.0128 -0.0065  0.0023 -0.0000 -0.0000
                                           -0.0000 -0.0000 -0.0035  0.0026  0.0013
                                           -0.0000 -0.0000 -0.0000 -0.0000 -0.0000
                                           -0.0000 -0.0526  0.0039  0.0008 -0.0354
                                            0.0024 -0.0014 -0.0000 -0.0000  0.0019
                                            0.0001  0.0087 -0.0005 -0.0000 -0.0000
                                           -0.0000 -0.0000  0.0028  0.0015  0.0018
                                            0.0018
                ( 77.86%)  -0.8824* H   4 s( 99.91%)p 0.00(  0.09%)d 0.00(  0.00%)
                                            0.9992  0.0271  0.0010 -0.0005  0.0164
                                            0.0026  0.0012 -0.0000  0.0238  0.0094
                                           -0.0000 -0.0000 -0.0000 -0.0018 -0.0020
                                           -0.0000 -0.0000 -0.0000 -0.0000  0.0025
                                           -0.0008 -0.0005 -0.0012


 NHO Directionality and "Bond Bending" (deviations from line of nuclear centers)

         [Thresholds for printing:  angular deviation  >  1.0 degree]
                                    hybrid p-character > 25.0%
                                    orbital occupancy  >  0.10e

                                Line of Centers        Hybrid 1              Hybrid 2
                                ---------------  -------------------   ------------------
                NBO               Theta   Phi    Theta   Phi    Dev    Theta   Phi    Dev
 ========================================================================================
     1. BD (   1) O   1 - H   2    90.0    0.0    90.0    2.4   2.4      --     --    --
     2. BD (   1) O   1 - H   4    90.0  258.3    90.0  256.6   1.7      --     --    --
    18. LP (   1) O   1             --     --     90.0  126.5   --       --     --    --
    19. LP (   2) O   1             --     --      0.0    0.0   --       --     --    --
    21. LP (   2)Br   3             --     --      0.0    0.0   --       --     --    --
    22. LP (   3)Br   3             --     --     90.0  167.9   --       --     --    --
    23. LP (   4)Br   3             --     --     90.0   77.8   --       --     --    --


 Natural Bond Orbitals (Summary):

           NBO                  Occupancy  
 -----------------------------------------------
 Molecular unit  1  (H2O)
     1. BD (   1) O   1 - H   2          1.96568
     2. BD (   1) O   1 - H   4          1.96744
     3. CR (   1) O   1                  1.99968
    18. LP (   1) O   1                  1.96972
    19. LP (   2) O   1                  1.95961
    24. RY*(   1) O   1                  0.01958
    25. RY*(   2) O   1                  0.01519
    26. RY*(   3) O   1                  0.00704
    27. RY*(   4) O   1                  0.00621
    28. RY*(   5) O   1                  0.00619
    29. RY*(   6) O   1                  0.00589
    30. RY*(   7) O   1                  0.00570
    31. RY*(   8) O   1                  0.00336
    32. RY*(   9) O   1                  0.00230
    33. RY*(  10) O   1                  0.00073
    34. RY*(  11) O   1                  0.00055
    35. RY*(  12) O   1                  0.00048
    36. RY*(  13) O   1                  0.00046
    37. RY*(  14) O   1                  0.00044
    38. RY*(  15) O   1                  0.00044
    39. RY*(  16) O   1                  0.00042
    40. RY*(  17) O   1                  0.00041
    41. RY*(  18) O   1                  0.00041
    42. RY*(  19) O   1                  0.00041
    43. RY*(  20) O   1                  0.00037
    44. RY*(  21) O   1                  0.00034
    45. RY*(  22) O   1                  0.00034
    46. RY*(  23) O   1                  0.00030
    47. RY*(  24) O   1                  0.00026
    48. RY*(  25) O   1                  0.00022
    49. RY*(  26) O   1                  0.00014
    50. RY*(  27) O   1                  0.00007
    51. RY*(  28) O   1                  0.00008
    52. RY*(  29) O   1                  0.00007
    53. RY*(  30) O   1                  0.00007
    54. RY*(  31) O   1                  0.00007
    55. RY*(  32) O   1                  0.00006
    56. RY*(  33) O   1                  0.00007
    57. RY*(  34) O   1                  0.00005
    58. RY*(  35) O   1                  0.00004
    59. RY*(  36) O   1                  0.00004
    60. RY*(  37) O   1                  0.00004
    61. RY*(  38) O   1                  0.00001
    62. RY*(  39) O   1                  0.00001
    63. RY*(  40) O   1                  0.00002
    64. RY*(  41) O   1                 -0.00004
    65. RY*(   1) H   2                  0.00495
    66. RY*(   2) H   2                  0.00225
    67. RY*(   3) H   2                  0.00189
    68. RY*(   4) H   2                  0.00085
    69. RY*(   5) H   2                  0.00029
    70. RY*(   6) H   2                  0.00020
    71. RY*(   7) H   2                  0.00018
    72. RY*(   8) H   2                  0.00011
    73. RY*(   9) H   2                  0.00011
    74. RY*(  10) H   2                  0.00009
    75. RY*(  11) H   2                  0.00010
    76. RY*(  12) H   2                  0.00007
    77. RY*(  13) H   2                  0.00007
    78. RY*(  14) H   2                  0.00005
    79. RY*(  15) H   2                  0.00003
    80. RY*(  16) H   2                  0.00004
    81. RY*(  17) H   2                  0.00003
    82. RY*(  18) H   2                  0.00004
    83. RY*(  19) H   2                  0.00002
    84. RY*(  20) H   2                  0.00001
    85. RY*(  21) H   2                  0.00002
    86. RY*(  22) H   2                  0.00002
   128. RY*(   1) H   4                  0.00848
   129. RY*(   2) H   4                  0.00386
   130. RY*(   3) H   4                  0.00366
   131. RY*(   4) H   4                  0.00271
   132. RY*(   5) H   4                  0.00047
   133. RY*(   6) H   4                  0.00036
   134. RY*(   7) H   4                  0.00033
   135. RY*(   8) H   4                  0.00021
   136. RY*(   9) H   4                  0.00021
   137. RY*(  10) H   4                  0.00018
   138. RY*(  11) H   4                  0.00016
   139. RY*(  12) H   4                  0.00016
   140. RY*(  13) H   4                  0.00012
   141. RY*(  14) H   4                  0.00010
   142. RY*(  15) H   4                  0.00009
   143. RY*(  16) H   4                  0.00007
   144. RY*(  17) H   4                  0.00004
   145. RY*(  18) H   4                  0.00005
   146. RY*(  19) H   4                  0.00004
   147. RY*(  20) H   4                  0.00004
   148. RY*(  21) H   4                  0.00003
   149. RY*(  22) H   4                  0.00003
   150. BD*(   1) O   1 - H   2          0.02152
   151. BD*(   1) O   1 - H   4          0.06984
       -------------------------------
              Total Lewis    9.86213  ( 97.9826%)
        Valence non-Lewis    0.09136  (  0.9077%)
        Rydberg non-Lewis    0.11170  (  1.1097%)
       -------------------------------
            Total unit  1   10.06519  (100.0000%)
           Charge unit  1   -0.06519

 Molecular unit  2  (Br)
     4. CR (   1)Br   3                  2.00000
     5. CR (   2)Br   3                  2.00000
     6. CR (   3)Br   3                  2.00000
     7. CR (   4)Br   3                  2.00002
     8. CR (   5)Br   3                  2.00000
     9. CR (   6)Br   3                  1.99998
    10. CR (   7)Br   3                  2.00000
    11. CR (   8)Br   3                  2.00002
    12. CR (   9)Br   3                  2.00000
    13. CR (  10)Br   3                  1.99767
    14. CR (  11)Br   3                  1.99769
    15. CR (  12)Br   3                  1.99767
    16. CR (  13)Br   3                  1.99765
    17. CR (  14)Br   3                  1.99768
    20. LP (   1)Br   3                  1.97968
    21. LP (   2)Br   3                  1.95430
    22. LP (   3)Br   3                  1.95407
    23. LP (   4)Br   3                  1.90397
    87. RY*(   1)Br   3                  0.01874
    88. RY*(   2)Br   3                  0.01871
    89. RY*(   3)Br   3                  0.01863
    90. RY*(   4)Br   3                  0.01863
    91. RY*(   5)Br   3                  0.01806
    92. RY*(   6)Br   3                  0.01169
    93. RY*(   7)Br   3                  0.01166
    94. RY*(   8)Br   3                  0.00983
    95. RY*(   9)Br   3                  0.00279
    96. RY*(  10)Br   3                  0.00180
    97. RY*(  11)Br   3                  0.00179
    98. RY*(  12)Br   3                  0.00176
    99. RY*(  13)Br   3                  0.00176
   100. RY*(  14)Br   3                  0.00176
   101. RY*(  15)Br   3                  0.00176
   102. RY*(  16)Br   3                  0.00176
   103. RY*(  17)Br   3                  0.00176
   104. RY*(  18)Br   3                  0.00176
   105. RY*(  19)Br   3                  0.00147
   106. RY*(  20)Br   3                  0.00144
   107. RY*(  21)Br   3                  0.00128
   108. RY*(  22)Br   3                  0.00081
   109. RY*(  23)Br   3                  0.00081
   110. RY*(  24)Br   3                  0.00077
   111. RY*(  25)Br   3                  0.00044
   112. RY*(  26)Br   3                  0.00025
   113. RY*(  27)Br   3                  0.00024
   114. RY*(  28)Br   3                  0.00025
   115. RY*(  29)Br   3                  0.00025
   116. RY*(  30)Br   3                  0.00025
   117. RY*(  31)Br   3                  0.00024
   118. RY*(  32)Br   3                  0.00025
   119. RY*(  33)Br   3                  0.00021
   120. RY*(  34)Br   3                  0.00021
   121. RY*(  35)Br   3                  0.00015
   122. RY*(  36)Br   3                  0.00014
   123. RY*(  37)Br   3                  0.00015
   124. RY*(  38)Br   3                  0.00006
   125. RY*(  39)Br   3                  0.00005
   126. RY*(  40)Br   3                  0.00005
   127. RY*(  41)Br   3                  0.00004
       -------------------------------
              Total Lewis   35.78038  ( 99.5702%)
        Valence non-Lewis    0.00000  (  0.0000%)
        Rydberg non-Lewis    0.15443  (  0.4298%)
       -------------------------------
            Total unit  2   35.93481  (100.0000%)
           Charge unit  2   -0.93481
 Leave Link  607 at Tue Oct 12 14:16:55 2021, MaxMem=  1048576000 cpu:         5.5
 (Enter /usr/local/gaussian/g09/l9999.exe)
 1\1\GINC-KRYPTON\SP\RMP2-FC\Aug-CC-pVTZ\Br1H2O1(1-)\CGAVINH\12-Oct-202
 1\0\\#p pop=NBO SP NoSymm mp2/aug-cc-pvtz density=current\\title\\-1,1
 \O\X,1,10.\H,1,0.96078759,2,90.\Br,1,3.25661955,2,90.,3,101.73887131,0
 \H,1,1.,2,90.,3,101.73887131,0\\Version=ES64L-G09RevE.01\HF=-2648.6064
 404\MP2=-2649.1260783\RMSD=6.937e-09\Dipole=0.5777116,0.1198816,0.\Qua
 drupole=10.8661165,-21.1102676,10.244151,-6.1911491,0.,0.\PG=CS [SG(Br
 1H2O1)]\\@


     "IF I COULD JUST GET IT ON PAPER"
 LIFE AND INK, THEY RUN OUT AT THE SAME TIME,
 OR SO SAID MY OLD FRIEND THE SQUID.
     -- JIMMY BUFFETT, 1981
 Job cpu time:       0 days  0 hours  1 minutes 49.7 seconds.
 File lengths (MBytes):  RWF=     10 Int=      0 D2E=      0 Chk=      3 Scr=      1
 Normal termination of Gaussian 09 at Tue Oct 12 14:16:55 2021.
