 Entering Gaussian System, Link 0=g09
 Input=brhod_rOH_150_sp.gjf
 Output=brhod_rOH_150_sp.log
 Initial command:
 /usr/local/gaussian/g09/l1.exe "/scratch/Gau-15998.inp" -scrdir="/scratch/"
 Entering Link 1 = /usr/local/gaussian/g09/l1.exe PID=     15999.
  
 Copyright (c) 1988,1990,1992,1993,1995,1998,2003,2009,2015,
            Gaussian, Inc.  All Rights Reserved.
  
 This is part of the Gaussian(R) 09 program.  It is based on
 the Gaussian(R) 03 system (copyright 2003, Gaussian, Inc.),
 the Gaussian(R) 98 system (copyright 1998, Gaussian, Inc.),
 the Gaussian(R) 94 system (copyright 1995, Gaussian, Inc.),
 the Gaussian 92(TM) system (copyright 1992, Gaussian, Inc.),
 the Gaussian 90(TM) system (copyright 1990, Gaussian, Inc.),
 the Gaussian 88(TM) system (copyright 1988, Gaussian, Inc.),
 the Gaussian 86(TM) system (copyright 1986, Carnegie Mellon
 University), and the Gaussian 82(TM) system (copyright 1983,
 Carnegie Mellon University). Gaussian is a federally registered
 trademark of Gaussian, Inc.
  
 This software contains proprietary and confidential information,
 including trade secrets, belonging to Gaussian, Inc.
  
 This software is provided under written license and may be
 used, copied, transmitted, or stored only in accord with that
 written license.
  
 The following legend is applicable only to US Government
 contracts under FAR:
  
                    RESTRICTED RIGHTS LEGEND
  
 Use, reproduction and disclosure by the US Government is
 subject to restrictions as set forth in subparagraphs (a)
 and (c) of the Commercial Computer Software - Restricted
 Rights clause in FAR 52.227-19.
  
 Gaussian, Inc.
 340 Quinnipiac St., Bldg. 40, Wallingford CT 06492
  
  
 ---------------------------------------------------------------
 Warning -- This program may not be used in any manner that
 competes with the business of Gaussian, Inc. or will provide
 assistance to any competitor of Gaussian, Inc.  The licensee
 of this program is prohibited from giving any competitor of
 Gaussian, Inc. access to this program.  By using this program,
 the user acknowledges that Gaussian, Inc. is engaged in the
 business of creating and licensing software in the field of
 computational chemistry and represents and warrants to the
 licensee that it is not a competitor of Gaussian, Inc. and that
 it will not use this program in any manner prohibited above.
 ---------------------------------------------------------------
  

 Cite this work as:
 Gaussian 09, Revision E.01,
 M. J. Frisch, G. W. Trucks, H. B. Schlegel, G. E. Scuseria, 
 M. A. Robb, J. R. Cheeseman, G. Scalmani, V. Barone, B. Mennucci, 
 G. A. Petersson, H. Nakatsuji, M. Caricato, X. Li, H. P. Hratchian, 
 A. F. Izmaylov, J. Bloino, G. Zheng, J. L. Sonnenberg, M. Hada, 
 M. Ehara, K. Toyota, R. Fukuda, J. Hasegawa, M. Ishida, T. Nakajima, 
 Y. Honda, O. Kitao, H. Nakai, T. Vreven, J. A. Montgomery, Jr., 
 J. E. Peralta, F. Ogliaro, M. Bearpark, J. J. Heyd, E. Brothers, 
 K. N. Kudin, V. N. Staroverov, T. Keith, R. Kobayashi, J. Normand, 
 K. Raghavachari, A. Rendell, J. C. Burant, S. S. Iyengar, J. Tomasi, 
 M. Cossi, N. Rega, J. M. Millam, M. Klene, J. E. Knox, J. B. Cross, 
 V. Bakken, C. Adamo, J. Jaramillo, R. Gomperts, R. E. Stratmann, 
 O. Yazyev, A. J. Austin, R. Cammi, C. Pomelli, J. W. Ochterski, 
 R. L. Martin, K. Morokuma, V. G. Zakrzewski, G. A. Voth, 
 P. Salvador, J. J. Dannenberg, S. Dapprich, A. D. Daniels, 
 O. Farkas, J. B. Foresman, J. V. Ortiz, J. Cioslowski, 
 and D. J. Fox, Gaussian, Inc., Wallingford CT, 2013.
 
 ******************************************
 Gaussian 09:  ES64L-G09RevE.01 30-Nov-2015
                12-Oct-2021 
 ******************************************
 %nproc=12
 Will use up to   12 processors via shared memory.
 %mem=8000MB
 %chk=/home/netid.washington.edu/cgavinh/mccoy_hocl/rOH_s_oop_0/brhod/brhod_rOH_1
 50_sp.chk
 ----------------------------------------------------
 #p pop=NBO SP NoSymm mp2/aug-cc-pvtz density=current
 ----------------------------------------------------
 1/30=1,38=1/1;
 2/12=2,15=1,17=6,18=5,40=1/2;
 3/5=16,6=1,7=10,11=9,16=1,25=1,30=1,71=1/1,2,3;
 4//1;
 5/5=2,38=5/2;
 8/6=4,10=1/1;
 9/15=1,16=-3/6;
 10/5=1,13=10,31=1/2;
 6/7=2,8=2,9=2,10=2,22=-1,40=1/1,7;
 99/5=1,9=1/99;
 Leave Link    1 at Tue Oct 12 14:18:38 2021, MaxMem=  1048576000 cpu:         0.2
 (Enter /usr/local/gaussian/g09/l101.exe)
 -----
 title
 -----
 Symbolic Z-matrix:
 Charge = -1 Multiplicity = 1
 O
 X                    1     10. 
 H(iso=2)             1    r1       2     90. 
 Br                   1    r2       2     90.      3    a1       0
 H                    1    r3       2    oop      3    a1       0
       Variables:
  r1                    0.96079                  
  r2                    3.25662                  
  r3                    1.5                      
  a1                  101.73887                  
  OOP                  90.                       
 
 NAtoms=      4 NQM=        4 NQMF=       0 NMMI=      0 NMMIF=      0
                NMic=       0 NMicF=      0.
                    Isotopes and Nuclear Properties:
 (Nuclear quadrupole moments (NQMom) in fm**2, nuclear magnetic moments (NMagM)
  in nuclear magnetons)

  Atom         1           2           3           4
 IAtWgt=          16           2          79           1
 AtmWgt=  15.9949146   2.0141018  78.9183361   1.0078250
 NucSpn=           0           2           3           1
 AtZEff=   0.0000000   0.0000000   0.0000000   0.0000000
 NQMom=    0.0000000   0.2860000  31.3000000   0.0000000
 NMagM=    0.0000000   0.8574380   2.1063990   2.7928460
 AtZNuc=   8.0000000   1.0000000  35.0000000   1.0000000
 Leave Link  101 at Tue Oct 12 14:18:38 2021, MaxMem=  1048576000 cpu:         0.4
 (Enter /usr/local/gaussian/g09/l202.exe)
                          Input orientation:                          
 ---------------------------------------------------------------------
 Center     Atomic      Atomic             Coordinates (Angstroms)
 Number     Number       Type             X           Y           Z
 ---------------------------------------------------------------------
      1          8           0        0.000000    0.000000    0.000000
      2          1           0        0.960788    0.000000    0.000000
      3         35           0       -0.662564   -3.188507    0.000000
      4          1           0       -0.305177   -1.468628    0.000000
 ---------------------------------------------------------------------
                    Distance matrix (angstroms):
                    1          2          3          4
     1  O    0.000000
     2  H    0.960788   0.000000
     3  Br   3.256620   3.577967   0.000000
     4  H    1.500000   1.938952   1.756620   0.000000
 Symmetry turned off by external request.
 Stoichiometry    BrH2O(1-)
 Framework group  CS[SG(BrH2O)]
 Deg. of freedom     5
 Full point group                 CS      NOp   2
 Rotational constants (GHZ):    323.3688833      3.1751221      3.1442490
 Leave Link  202 at Tue Oct 12 14:18:38 2021, MaxMem=  1048576000 cpu:         0.0
 (Enter /usr/local/gaussian/g09/l301.exe)
 Standard basis: Aug-CC-pVTZ (5D, 7F)
 Ernie: Thresh=  0.10000D-02 Tol=  0.10000D-05 Strict=F.
 Ernie:  35 primitive shells out of 175 were deleted.
   151 basis functions,   343 primitive gaussians,   174 cartesian basis functions
    23 alpha electrons       23 beta electrons
       nuclear repulsion energy        68.7194959597 Hartrees.
 IExCor=    0 DFT=F Ex=HF Corr=None ExCW=0 ScaHFX=  1.000000
 ScaDFX=  1.000000  1.000000  1.000000  1.000000 ScalE2=  1.000000  1.000000
 IRadAn=      0 IRanWt=     -1 IRanGd=            0 ICorTp=0 IEmpDi=  4
 NAtoms=    4 NActive=    4 NUniq=    4 SFac= 1.00D+00 NAtFMM=   60 NAOKFM=F Big=F
 Integral buffers will be    131072 words long.
 Raffenetti 1 integral format.
 Two-electron integral symmetry is turned off.
 Leave Link  301 at Tue Oct 12 14:18:38 2021, MaxMem=  1048576000 cpu:         0.3
 (Enter /usr/local/gaussian/g09/l302.exe)
 NPDir=0 NMtPBC=     1 NCelOv=     1 NCel=       1 NClECP=     1 NCelD=      1
         NCelK=      1 NCelE2=     1 NClLst=     1 CellRange=     0.0.
 One-electron integrals computed using PRISM.
 NBasis=   151 RedAO= T EigKep=  3.01D-04  NBF=   151
 NBsUse=   151 1.00D-06 EigRej= -1.00D+00 NBFU=   151
 Leave Link  302 at Tue Oct 12 14:18:38 2021, MaxMem=  1048576000 cpu:         1.5
 (Enter /usr/local/gaussian/g09/l303.exe)
 DipDrv:  MaxL=1.
 Leave Link  303 at Tue Oct 12 14:18:38 2021, MaxMem=  1048576000 cpu:         0.2
 (Enter /usr/local/gaussian/g09/l401.exe)
 ExpMin= 2.53D-02 ExpMax= 1.06D+07 ExpMxC= 1.21D+04 IAcc=3 IRadAn=         5 AccDes= 0.00D+00
 Harris functional with IExCor=  205 and IRadAn=       5 diagonalized for initial guess.
 HarFok:  IExCor=  205 AccDes= 0.00D+00 IRadAn=         5 IDoV= 1 UseB2=F ITyADJ=14
 ICtDFT=  3500011 ScaDFX=  1.000000  1.000000  1.000000  1.000000
 FoFCou: FMM=F IPFlag=           0 FMFlag=      100000 FMFlg1=           0
         NFxFlg=           0 DoJE=T BraDBF=F KetDBF=T FulRan=T
         wScrn=  0.000000 ICntrl=     500 IOpCl=  0 I1Cent=   200000004 NGrid=           0
         NMat0=    1 NMatS0=      1 NMatT0=    0 NMatD0=    1 NMtDS0=    0 NMtDT0=    0
 Symmetry not used in FoFCou.
 Harris En= -2647.95653801375    
 JPrj=0 DoOrth=F DoCkMO=F.
 Leave Link  401 at Tue Oct 12 14:18:38 2021, MaxMem=  1048576000 cpu:         2.6
 (Enter /usr/local/gaussian/g09/l502.exe)
 Closed shell SCF:
 Using DIIS extrapolation, IDIIS=  1040.
 Two-electron integral symmetry not used.
 Keep R1 ints in memory in canonical form, NReq=69268896.
 IVT=      112518 IEndB=      112518 NGot=  1048576000 MDV=   982608457
 LenX=   982608457 LenY=   982577740
 Requested convergence on RMS density matrix=1.00D-08 within 128 cycles.
 Requested convergence on MAX density matrix=1.00D-06.
 Requested convergence on             energy=1.00D-06.
 No special actions if energy rises.
 FoFCou: FMM=F IPFlag=           0 FMFlag=           0 FMFlg1=           0
         NFxFlg=           0 DoJE=F BraDBF=F KetDBF=F FulRan=T
         wScrn=  0.000000 ICntrl=     600 IOpCl=  0 I1Cent=           0 NGrid=           0
         NMat0=    1 NMatS0=  11476 NMatT0=    0 NMatD0=    1 NMtDS0=    0 NMtDT0=    0
 Symmetry not used in FoFCou.

 Cycle   1  Pass 1  IDiag  1:
 E= -2648.34402557449    
 DIIS: error= 5.33D-02 at cycle   1 NSaved=   1.
 NSaved= 1 IEnMin= 1 EnMin= -2648.34402557449     IErMin= 1 ErrMin= 5.33D-02
 ErrMax= 5.33D-02  0.00D+00 EMaxC= 1.00D-01 BMatC= 6.10D-01 BMatP= 6.10D-01
 IDIUse=3 WtCom= 4.67D-01 WtEn= 5.33D-01
 Coeff-Com:  0.100D+01
 Coeff-En:   0.100D+01
 Coeff:      0.100D+01
 Gap=     0.557 Goal=   None    Shift=    0.000
 GapD=    0.557 DampG=2.000 DampE=0.500 DampFc=1.0000 IDamp=-1.
 RMSDP=3.67D-03 MaxDP=1.10D-01              OVMax= 1.85D-01

 Cycle   2  Pass 1  IDiag  1:
 E= -2648.44051279060     Delta-E=       -0.096487216112 Rises=F Damp=F
 DIIS: error= 3.04D-02 at cycle   2 NSaved=   2.
 NSaved= 2 IEnMin= 2 EnMin= -2648.44051279060     IErMin= 2 ErrMin= 3.04D-02
 ErrMax= 3.04D-02  0.00D+00 EMaxC= 1.00D-01 BMatC= 1.33D-01 BMatP= 6.10D-01
 IDIUse=3 WtCom= 6.96D-01 WtEn= 3.04D-01
 Coeff-Com:  0.277D+00 0.723D+00
 Coeff-En:   0.237D+00 0.763D+00
 Coeff:      0.265D+00 0.735D+00
 Gap=     0.449 Goal=   None    Shift=    0.000
 RMSDP=1.61D-03 MaxDP=4.47D-02 DE=-9.65D-02 OVMax= 1.15D-01

 Cycle   3  Pass 1  IDiag  1:
 E= -2648.51645548814     Delta-E=       -0.075942697545 Rises=F Damp=F
 DIIS: error= 1.20D-02 at cycle   3 NSaved=   3.
 NSaved= 3 IEnMin= 3 EnMin= -2648.51645548814     IErMin= 3 ErrMin= 1.20D-02
 ErrMax= 1.20D-02  0.00D+00 EMaxC= 1.00D-01 BMatC= 1.98D-02 BMatP= 1.33D-01
 IDIUse=3 WtCom= 8.80D-01 WtEn= 1.20D-01
 Coeff-Com:  0.115D-01 0.281D+00 0.708D+00
 Coeff-En:   0.000D+00 0.184D-01 0.982D+00
 Coeff:      0.101D-01 0.249D+00 0.741D+00
 Gap=     0.363 Goal=   None    Shift=    0.000
 RMSDP=4.68D-04 MaxDP=1.16D-02 DE=-7.59D-02 OVMax= 3.73D-02

 Cycle   4  Pass 1  IDiag  1:
 E= -2648.52958590326     Delta-E=       -0.013130415119 Rises=F Damp=F
 DIIS: error= 1.25D-03 at cycle   4 NSaved=   4.
 NSaved= 4 IEnMin= 4 EnMin= -2648.52958590326     IErMin= 4 ErrMin= 1.25D-03
 ErrMax= 1.25D-03  0.00D+00 EMaxC= 1.00D-01 BMatC= 2.12D-04 BMatP= 1.98D-02
 IDIUse=3 WtCom= 9.88D-01 WtEn= 1.25D-02
 Coeff-Com: -0.508D-02-0.166D-01 0.633D-01 0.958D+00
 Coeff-En:   0.000D+00 0.000D+00 0.000D+00 0.100D+01
 Coeff:     -0.501D-02-0.164D-01 0.625D-01 0.959D+00
 Gap=     0.342 Goal=   None    Shift=    0.000
 RMSDP=6.37D-05 MaxDP=1.54D-03 DE=-1.31D-02 OVMax= 4.30D-03

 Cycle   5  Pass 1  IDiag  1:
 E= -2648.52975513849     Delta-E=       -0.000169235225 Rises=F Damp=F
 DIIS: error= 1.39D-04 at cycle   5 NSaved=   5.
 NSaved= 5 IEnMin= 5 EnMin= -2648.52975513849     IErMin= 5 ErrMin= 1.39D-04
 ErrMax= 1.39D-04  0.00D+00 EMaxC= 1.00D-01 BMatC= 4.08D-06 BMatP= 2.12D-04
 IDIUse=3 WtCom= 9.99D-01 WtEn= 1.39D-03
 Coeff-Com:  0.627D-03-0.914D-02-0.311D-01-0.631D-01 0.110D+01
 Coeff-En:   0.000D+00 0.000D+00 0.000D+00 0.000D+00 0.100D+01
 Coeff:      0.626D-03-0.913D-02-0.310D-01-0.630D-01 0.110D+01
 Gap=     0.342 Goal=   None    Shift=    0.000
 RMSDP=2.46D-05 MaxDP=6.55D-04 DE=-1.69D-04 OVMax= 1.10D-03

 Cycle   6  Pass 1  IDiag  1:
 E= -2648.52976411208     Delta-E=       -0.000008973591 Rises=F Damp=F
 DIIS: error= 5.31D-05 at cycle   6 NSaved=   6.
 NSaved= 6 IEnMin= 6 EnMin= -2648.52976411208     IErMin= 6 ErrMin= 5.31D-05
 ErrMax= 5.31D-05  0.00D+00 EMaxC= 1.00D-01 BMatC= 5.55D-07 BMatP= 4.08D-06
 IDIUse=1 WtCom= 1.00D+00 WtEn= 0.00D+00
 Coeff-Com:  0.355D-03 0.254D-02-0.515D-02-0.114D+00 0.724D-01 0.104D+01
 Coeff:      0.355D-03 0.254D-02-0.515D-02-0.114D+00 0.724D-01 0.104D+01
 Gap=     0.343 Goal=   None    Shift=    0.000
 RMSDP=8.30D-06 MaxDP=2.23D-04 DE=-8.97D-06 OVMax= 4.80D-04

 Cycle   7  Pass 1  IDiag  1:
 E= -2648.52976533320     Delta-E=       -0.000001221120 Rises=F Damp=F
 DIIS: error= 1.86D-05 at cycle   7 NSaved=   7.
 NSaved= 7 IEnMin= 7 EnMin= -2648.52976533320     IErMin= 7 ErrMin= 1.86D-05
 ErrMax= 1.86D-05  0.00D+00 EMaxC= 1.00D-01 BMatC= 4.06D-08 BMatP= 5.55D-07
 IDIUse=1 WtCom= 1.00D+00 WtEn= 0.00D+00
 Coeff-Com: -0.146D-03-0.191D-03 0.314D-02 0.405D-01-0.121D+00-0.261D+00
 Coeff-Com:  0.134D+01
 Coeff:     -0.146D-03-0.191D-03 0.314D-02 0.405D-01-0.121D+00-0.261D+00
 Coeff:      0.134D+01
 Gap=     0.343 Goal=   None    Shift=    0.000
 RMSDP=2.61D-06 MaxDP=5.70D-05 DE=-1.22D-06 OVMax= 1.82D-04

 Cycle   8  Pass 1  IDiag  1:
 E= -2648.52976546137     Delta-E=       -0.000000128170 Rises=F Damp=F
 DIIS: error= 6.02D-06 at cycle   8 NSaved=   8.
 NSaved= 8 IEnMin= 8 EnMin= -2648.52976546137     IErMin= 8 ErrMin= 6.02D-06
 ErrMax= 6.02D-06  0.00D+00 EMaxC= 1.00D-01 BMatC= 1.90D-09 BMatP= 4.06D-08
 IDIUse=1 WtCom= 1.00D+00 WtEn= 0.00D+00
 Coeff-Com:  0.188D-04-0.893D-04-0.436D-03-0.472D-02 0.301D-01 0.848D-02
 Coeff-Com: -0.357D+00 0.132D+01
 Coeff:      0.188D-04-0.893D-04-0.436D-03-0.472D-02 0.301D-01 0.848D-02
 Coeff:     -0.357D+00 0.132D+01
 Gap=     0.343 Goal=   None    Shift=    0.000
 RMSDP=5.43D-07 MaxDP=1.58D-05 DE=-1.28D-07 OVMax= 5.08D-05

 Cycle   9  Pass 1  IDiag  1:
 E= -2648.52976546800     Delta-E=       -0.000000006633 Rises=F Damp=F
 DIIS: error= 1.33D-06 at cycle   9 NSaved=   9.
 NSaved= 9 IEnMin= 9 EnMin= -2648.52976546800     IErMin= 9 ErrMin= 1.33D-06
 ErrMax= 1.33D-06  0.00D+00 EMaxC= 1.00D-01 BMatC= 1.17D-10 BMatP= 1.90D-09
 IDIUse=1 WtCom= 1.00D+00 WtEn= 0.00D+00
 Coeff-Com:  0.116D-05 0.255D-04-0.345D-04-0.786D-03-0.230D-02 0.122D-01
 Coeff-Com:  0.257D-01-0.365D+00 0.133D+01
 Coeff:      0.116D-05 0.255D-04-0.345D-04-0.786D-03-0.230D-02 0.122D-01
 Coeff:      0.257D-01-0.365D+00 0.133D+01
 Gap=     0.343 Goal=   None    Shift=    0.000
 RMSDP=1.46D-07 MaxDP=3.46D-06 DE=-6.63D-09 OVMax= 1.22D-05

 Cycle  10  Pass 1  IDiag  1:
 E= -2648.52976546844     Delta-E=       -0.000000000436 Rises=F Damp=F
 DIIS: error= 2.66D-07 at cycle  10 NSaved=  10.
 NSaved=10 IEnMin=10 EnMin= -2648.52976546844     IErMin=10 ErrMin= 2.66D-07
 ErrMax= 2.66D-07  0.00D+00 EMaxC= 1.00D-01 BMatC= 9.00D-12 BMatP= 1.17D-10
 IDIUse=1 WtCom= 1.00D+00 WtEn= 0.00D+00
 Coeff-Com: -0.154D-05 0.333D-05 0.302D-04 0.407D-03-0.186D-02-0.118D-02
 Coeff-Com:  0.218D-01-0.571D-01-0.155D+00 0.119D+01
 Coeff:     -0.154D-05 0.333D-05 0.302D-04 0.407D-03-0.186D-02-0.118D-02
 Coeff:      0.218D-01-0.571D-01-0.155D+00 0.119D+01
 Gap=     0.343 Goal=   None    Shift=    0.000
 RMSDP=4.25D-08 MaxDP=1.12D-06 DE=-4.36D-10 OVMax= 4.21D-06

 Cycle  11  Pass 1  IDiag  1:
 E= -2648.52976546847     Delta-E=       -0.000000000033 Rises=F Damp=F
 DIIS: error= 9.88D-08 at cycle  11 NSaved=  11.
 NSaved=11 IEnMin=11 EnMin= -2648.52976546847     IErMin=11 ErrMin= 9.88D-08
 ErrMax= 9.88D-08  0.00D+00 EMaxC= 1.00D-01 BMatC= 1.05D-12 BMatP= 9.00D-12
 IDIUse=1 WtCom= 1.00D+00 WtEn= 0.00D+00
 Coeff-Com:  0.246D-06-0.316D-05-0.216D-05-0.215D-04 0.693D-03-0.981D-03
 Coeff-Com: -0.808D-02 0.525D-01-0.101D+00-0.284D+00 0.134D+01
 Coeff:      0.246D-06-0.316D-05-0.216D-05-0.215D-04 0.693D-03-0.981D-03
 Coeff:     -0.808D-02 0.525D-01-0.101D+00-0.284D+00 0.134D+01
 Gap=     0.343 Goal=   None    Shift=    0.000
 RMSDP=1.48D-08 MaxDP=4.03D-07 DE=-3.32D-11 OVMax= 1.53D-06

 Cycle  12  Pass 1  IDiag  1:
 E= -2648.52976546849     Delta-E=       -0.000000000014 Rises=F Damp=F
 DIIS: error= 2.65D-08 at cycle  12 NSaved=  12.
 NSaved=12 IEnMin=12 EnMin= -2648.52976546849     IErMin=12 ErrMin= 2.65D-08
 ErrMax= 2.65D-08  0.00D+00 EMaxC= 1.00D-01 BMatC= 7.58D-14 BMatP= 1.05D-12
 IDIUse=1 WtCom= 1.00D+00 WtEn= 0.00D+00
 Coeff-Com:  0.841D-07-0.416D-06-0.104D-05-0.217D-04 0.110D-03 0.222D-04
 Coeff-Com: -0.131D-02 0.291D-02 0.161D-01-0.975D-01-0.441D-01 0.112D+01
 Coeff:      0.841D-07-0.416D-06-0.104D-05-0.217D-04 0.110D-03 0.222D-04
 Coeff:     -0.131D-02 0.291D-02 0.161D-01-0.975D-01-0.441D-01 0.112D+01
 Gap=     0.343 Goal=   None    Shift=    0.000
 RMSDP=3.83D-09 MaxDP=8.32D-08 DE=-1.36D-11 OVMax= 3.48D-07

 SCF Done:  E(RHF) =  -2648.52976547     A.U. after   12 cycles
            NFock= 12  Conv=0.38D-08     -V/T= 2.0001
 KE= 2.648226462496D+03 PE=-6.484075547171D+03 EE= 1.118599823248D+03
 Leave Link  502 at Tue Oct 12 14:18:40 2021, MaxMem=  1048576000 cpu:        12.8
 (Enter /usr/local/gaussian/g09/l801.exe)
 ExpMin= 2.53D-02 ExpMax= 1.06D+07 ExpMxC= 1.21D+04 IAcc=3 IRadAn=         5 AccDes= 0.00D+00
 HarFok:  IExCor=  205 AccDes= 0.00D+00 IRadAn=         5 IDoV=-2 UseB2=F ITyADJ=14
 ICtDFT= 12500011 ScaDFX=  1.000000  1.000000  1.000000  1.000000
 DSYEVD-2 returned Info=          93 IAlg= 4 N=    46 NDim=    46 NE2=    17771069 trying  DSYEV.
 Largest valence mixing into a core orbital is  1.31D-04
 Largest core mixing into a valence orbital is  3.56D-05
 Range of M.O.s used for correlation:    11   151
 NBasis=   151 NAE=    23 NBE=    23 NFC=    10 NFV=     0
 NROrb=    141 NOA=    13 NOB=    13 NVA=   128 NVB=   128

 **** Warning!!: The largest alpha MO coefficient is  0.16291155D+02

 Leave Link  801 at Tue Oct 12 14:18:40 2021, MaxMem=  1048576000 cpu:         0.7
 (Enter /usr/local/gaussian/g09/l906.exe)
 Frozen-core derivative calculation, NFC=  10 NFV=   0.
 FulOut=F Deriv=T AODrv=F NAtomX=     4
   MMem=         391  MDisk=          13 MDiskD=          13
  W3Min=      604302 MinDsk=     1007783 NBas6D=         174
 NBas2D=       15618    NTT=       15225    LW2=     9911920
    MDV=  1048225858 MDiskM=       30063 NBas2p=       15367
 Fully in-core method, ICMem=   275066562.
 IMap=   1   2   3   4   5   6   7   8   9  10  11  12  13  14  15  16  17  18  19  20
 IMap=  21  22  23
 JobTyp=1 Pass  1 fully in-core, NPsUse= 12.
 Compute canonical integrals.
 FoFCou: FMM=F IPFlag=           0 FMFlag=           0 FMFlg1=           0
         NFxFlg=           0 DoJE=F BraDBF=F KetDBF=F FulRan=T
         wScrn=  0.000000 ICntrl=     600 IOpCl=  1 I1Cent=           0 NGrid=           0
         NMat0=    1 NMatS0=  15618 NMatT0=    0 NMatD0=    1 NMtDS0=    0 NMtDT0=    0
 Symmetry not used in FoFCou.
 Spin components of T(2) and E(2):
     alpha-alpha T2 =       0.2312715943D-01 E2=     -0.7385373513D-01
     alpha-beta  T2 =       0.1217348634D+00 E2=     -0.3952376959D+00
     beta-beta   T2 =       0.2312715943D-01 E2=     -0.7385373513D-01
 The integrals were generated   1 times.
 ANorm=    0.1080735482D+01
 E2 =    -0.5429451661D+00 EUMP2 =    -0.26490727106346D+04
 Leave Link  906 at Tue Oct 12 14:18:46 2021, MaxMem=  1048576000 cpu:        71.5
 (Enter /usr/local/gaussian/g09/l1002.exe)
 Minotr:  Closed shell wavefunction.
          Computing MP2/KS-MP2 derivatives.
          Using Z-Vector for PSCF gradient.
          Skipping F1 and S1 gradient terms here.
          Frozen-core window.
          Direct CPHF calculation.
          Differentiating once with respect to electric field.
                with respect to dipole field.
          Electric field/nuclear overlap derivatives assumed to be zero.
          Requested convergence is 1.0D-10 RMS, and 1.0D-09 maximum.
          NewPWx=F KeepS1=T KeepF1=T KeepIn=T MapXYZ=F SortEE=F KeepMc=T.
          MDV=    1048575823 using IRadAn=       0.
 Keep R1 ints in memory in canonical form, NReq=69224423.
 FoFCou: FMM=F IPFlag=           0 FMFlag=           0 FMFlg1=           0
         NFxFlg=           0 DoJE=F BraDBF=F KetDBF=F FulRan=T
         wScrn=  0.000000 ICntrl=     600 IOpCl=  0 I1Cent=           0 NGrid=           0
         NMat0=    1 NMatS0=  11476 NMatT0=    0 NMatD0=    1 NMtDS0=    0 NMtDT0=    0
 Symmetry not used in FoFCou.
          Solving linear equations separately, MaxMat=       0.
          There are     1 degrees of freedom in the 1st order CPHF.  IDoFFX=0 NUNeed=     1.
 LinEq1:  Iter=  0 NonCon=     1 RMS=3.58D-03 Max=8.73D-02 NDo=     1
 AX will form     1 AO Fock derivatives at one time.
 LinEq1:  Iter=  1 NonCon=     1 RMS=6.49D-04 Max=1.13D-02 NDo=     1
 LinEq1:  Iter=  2 NonCon=     1 RMS=2.75D-04 Max=4.50D-03 NDo=     1
 LinEq1:  Iter=  3 NonCon=     1 RMS=1.01D-04 Max=1.18D-03 NDo=     1
 LinEq1:  Iter=  4 NonCon=     1 RMS=5.14D-05 Max=8.40D-04 NDo=     1
 LinEq1:  Iter=  5 NonCon=     1 RMS=9.83D-06 Max=1.48D-04 NDo=     1
 LinEq1:  Iter=  6 NonCon=     1 RMS=1.92D-06 Max=3.09D-05 NDo=     1
 LinEq1:  Iter=  7 NonCon=     1 RMS=4.15D-07 Max=5.78D-06 NDo=     1
 LinEq1:  Iter=  8 NonCon=     1 RMS=1.28D-07 Max=2.01D-06 NDo=     1
 LinEq1:  Iter=  9 NonCon=     1 RMS=2.80D-08 Max=3.58D-07 NDo=     1
 LinEq1:  Iter= 10 NonCon=     1 RMS=4.32D-09 Max=5.76D-08 NDo=     1
 LinEq1:  Iter= 11 NonCon=     1 RMS=9.58D-10 Max=1.28D-08 NDo=     1
 LinEq1:  Iter= 12 NonCon=     1 RMS=2.20D-10 Max=3.29D-09 NDo=     1
 LinEq1:  Iter= 13 NonCon=     0 RMS=4.99D-11 Max=5.71D-10 NDo=     1
 Linear equations converged to 1.000D-10 1.000D-09 after    13 iterations.
 End of Minotr F.D. properties file   721 does not exist.
 End of Minotr F.D. properties file   722 does not exist.
 End of Minotr F.D. properties file   788 does not exist.
 Leave Link 1002 at Tue Oct 12 14:18:48 2021, MaxMem=  1048576000 cpu:        11.9
 (Enter /usr/local/gaussian/g09/l601.exe)
 Copying SCF densities to generalized density rwf, IOpCl= 0 IROHF=0.

 **********************************************************************

            Population analysis using the MP2 density.

 **********************************************************************

 Alpha  occ. eigenvalues -- -489.79595 -64.93615 -58.29087 -58.29049 -58.29049
 Alpha  occ. eigenvalues --  -20.30832  -9.60866  -7.21751  -7.21532  -7.21528
 Alpha  occ. eigenvalues --   -2.95974  -2.95859  -2.95854  -2.95581  -2.95581
 Alpha  occ. eigenvalues --   -1.03220  -0.77404  -0.38903  -0.32733  -0.23644
 Alpha  occ. eigenvalues --   -0.20972  -0.20790  -0.19053
 Alpha virt. eigenvalues --    0.15212   0.16670   0.22535   0.23198   0.23488
 Alpha virt. eigenvalues --    0.28840   0.32054   0.32636   0.32714   0.36567
 Alpha virt. eigenvalues --    0.40902   0.41658   0.42880   0.44964   0.45981
 Alpha virt. eigenvalues --    0.47185   0.47908   0.53513   0.57139   0.60100
 Alpha virt. eigenvalues --    0.62509   0.64050   0.65830   0.70096   0.71900
 Alpha virt. eigenvalues --    0.72742   0.82194   0.90405   0.92253   0.95222
 Alpha virt. eigenvalues --    0.95557   0.96998   0.97281   0.97768   0.99435
 Alpha virt. eigenvalues --    1.01586   1.04612   1.05102   1.10799   1.12823
 Alpha virt. eigenvalues --    1.13117   1.15241   1.15461   1.15908   1.20050
 Alpha virt. eigenvalues --    1.22922   1.23427   1.24646   1.26057   1.28808
 Alpha virt. eigenvalues --    1.34188   1.36831   1.45873   1.47758   1.50041
 Alpha virt. eigenvalues --    1.51777   1.65576   1.70169   1.74678   1.76830
 Alpha virt. eigenvalues --    1.78574   1.82275   1.94849   1.98269   2.15081
 Alpha virt. eigenvalues --    2.34085   2.40941   2.42732   2.44320   2.50403
 Alpha virt. eigenvalues --    2.50505   2.50905   2.51765   2.51791   2.53437
 Alpha virt. eigenvalues --    2.54573   2.54984   2.55705   2.59838   2.61610
 Alpha virt. eigenvalues --    2.64007   2.65556   2.68383   2.72306   2.73252
 Alpha virt. eigenvalues --    2.75493   2.80960   2.99910   3.03367   3.05191
 Alpha virt. eigenvalues --    3.14167   3.18410   3.50289   3.91664   3.95334
 Alpha virt. eigenvalues --    4.14766   4.15708   4.33455   4.33469   4.41436
 Alpha virt. eigenvalues --    4.47227   4.50244   4.51079   4.56345   4.61634
 Alpha virt. eigenvalues --    4.76208   4.82794   5.04814   5.15080   5.23957
 Alpha virt. eigenvalues --    5.47990   5.58414   5.61279   5.96910   6.53281
 Alpha virt. eigenvalues --    6.94947   7.04653   7.12453   7.14508   7.47157
 Alpha virt. eigenvalues --    7.49504   7.54558   7.56967   7.58264   7.77776
 Alpha virt. eigenvalues --    7.87147   8.47959  14.49614
          Condensed to atoms (all electrons):
               1          2          3          4
     1  O    8.448363   0.208122  -0.114549   0.185222
     2  H    0.208122   0.639531  -0.005856   0.025206
     3  Br  -0.114549  -0.005856  35.670672   0.038841
     4  H    0.185222   0.025206   0.038841   0.567462
 Mulliken charges:
               1
     1  O   -0.727158
     2  H    0.132996
     3  Br  -0.589108
     4  H    0.183270
 Sum of Mulliken charges =  -1.00000
 Mulliken charges with hydrogens summed into heavy atoms:
               1
     1  O   -0.410892
     3  Br  -0.589108
 Electronic spatial extent (au):  <R**2>=           1426.5890
 Charge=             -1.0000 electrons
 Dipole moment (field-independent basis, Debye):
    X=              2.7549    Y=              8.0221    Z=             -0.0000  Tot=              8.4819
 Quadrupole moment (field-independent basis, Debye-Ang):
   XX=            -29.9195   YY=            -59.3414   ZZ=            -31.3837
   XY=             -5.5771   XZ=              0.0000   YZ=              0.0000
 Traceless Quadrupole moment (field-independent basis, Debye-Ang):
   XX=             10.2954   YY=            -19.1266   ZZ=              8.8312
   XY=             -5.5771   XZ=              0.0000   YZ=              0.0000
 Octapole moment (field-independent basis, Debye-Ang**2):
  XXX=             43.9172  YYY=            302.9890  ZZZ=             -0.0000  XYY=             32.2336
  XXY=             74.4773  XXZ=             -0.0000  XZZ=             13.7998  YZZ=             70.6825
  YYZ=             -0.0000  XYZ=             -0.0000
 Hexadecapole moment (field-independent basis, Debye-Ang**3):
 XXXX=           -102.8772 YYYY=          -1657.9284 ZZZZ=            -46.7658 XXXY=           -141.3515
 XXXZ=              0.0000 YYYX=           -193.3008 YYYZ=              0.0000 ZZZX=              0.0000
 ZZZY=              0.0000 XXYY=           -260.2285 XXZZ=            -25.1939 YYZZ=           -239.5595
 XXYZ=              0.0000 YYXZ=              0.0000 ZZXY=            -46.3660
 N-N= 6.871949595965D+01 E-N=-6.482607909061D+03  KE= 2.648119337663D+03
 No NMR shielding tensors so no spin-rotation constants.
 Leave Link  601 at Tue Oct 12 14:18:49 2021, MaxMem=  1048576000 cpu:         2.0
 (Enter /usr/local/gaussian/g09/l607.exe)
 ******************************Gaussian NBO Version 3.1******************************
             N A T U R A L   A T O M I C   O R B I T A L   A N D
          N A T U R A L   B O N D   O R B I T A L   A N A L Y S I S
 ******************************Gaussian NBO Version 3.1******************************
       /RESON  / : Allow strongly delocalized NBO set

 Analyzing the MP2 density

 Job title: title                                                           

 Storage needed:     69217 in NPA,     91732 in NBO (1048575904 available)


 NATURAL POPULATIONS:  Natural atomic orbital occupancies 
                                                          
   NAO  Atom  No  lang   Type(AO)    Occupancy
 --------------------------------------------
     1    O    1  S      Cor( 1S)     1.99972
     2    O    1  S      Val( 2S)     1.81220
     3    O    1  S      Ryd( 3S)     0.00799
     4    O    1  S      Ryd( 4S)     0.00033
     5    O    1  S      Ryd( 5S)     0.00019
     6    O    1  px     Val( 2p)     1.51283
     7    O    1  px     Ryd( 3p)     0.01463
     8    O    1  px     Ryd( 4p)     0.00061
     9    O    1  px     Ryd( 5p)     0.00020
    10    O    1  py     Val( 2p)     1.72497
    11    O    1  py     Ryd( 3p)     0.01697
    12    O    1  py     Ryd( 4p)     0.00059
    13    O    1  py     Ryd( 5p)     0.00000
    14    O    1  pz     Val( 2p)     1.94870
    15    O    1  pz     Ryd( 3p)     0.02679
    16    O    1  pz     Ryd( 4p)     0.00058
    17    O    1  pz     Ryd( 5p)     0.00000
    18    O    1  dxy    Ryd( 3d)     0.00826
    19    O    1  dxy    Ryd( 4d)     0.00049
    20    O    1  dxy    Ryd( 5d)     0.00008
    21    O    1  dxz    Ryd( 3d)     0.00877
    22    O    1  dxz    Ryd( 4d)     0.00051
    23    O    1  dxz    Ryd( 5d)     0.00008
    24    O    1  dyz    Ryd( 3d)     0.00662
    25    O    1  dyz    Ryd( 4d)     0.00058
    26    O    1  dyz    Ryd( 5d)     0.00008
    27    O    1  dx2y2  Ryd( 3d)     0.01060
    28    O    1  dx2y2  Ryd( 4d)     0.00051
    29    O    1  dx2y2  Ryd( 5d)     0.00011
    30    O    1  dz2    Ryd( 3d)     0.00749
    31    O    1  dz2    Ryd( 4d)     0.00061
    32    O    1  dz2    Ryd( 5d)     0.00011
    33    O    1  f(0)   Ryd( 4f)     0.00059
    34    O    1  f(0)   Ryd( 5f)     0.00011
    35    O    1  f(C1)  Ryd( 4f)     0.00056
    36    O    1  f(C1)  Ryd( 5f)     0.00009
    37    O    1  f(S1)  Ryd( 4f)     0.00059
    38    O    1  f(S1)  Ryd( 5f)     0.00013
    39    O    1  f(C2)  Ryd( 4f)     0.00050
    40    O    1  f(C2)  Ryd( 5f)     0.00010
    41    O    1  f(S2)  Ryd( 4f)     0.00048
    42    O    1  f(S2)  Ryd( 5f)     0.00008
    43    O    1  f(C3)  Ryd( 4f)     0.00048
    44    O    1  f(C3)  Ryd( 5f)     0.00013
    45    O    1  f(S3)  Ryd( 4f)     0.00048
    46    O    1  f(S3)  Ryd( 5f)     0.00012

    47    H    2  S      Val( 1S)     0.57022
    48    H    2  S      Ryd( 2S)     0.00265
    49    H    2  S      Ryd( 3S)     0.00016
    50    H    2  S      Ryd( 4S)     0.00010
    51    H    2  px     Ryd( 2p)     0.00267
    52    H    2  px     Ryd( 3p)     0.00082
    53    H    2  px     Ryd( 4p)     0.00013
    54    H    2  py     Ryd( 2p)     0.00354
    55    H    2  py     Ryd( 3p)     0.00024
    56    H    2  py     Ryd( 4p)     0.00012
    57    H    2  pz     Ryd( 2p)     0.00599
    58    H    2  pz     Ryd( 3p)     0.00021
    59    H    2  pz     Ryd( 4p)     0.00006
    60    H    2  dxy    Ryd( 3d)     0.00007
    61    H    2  dxy    Ryd( 4d)     0.00005
    62    H    2  dxz    Ryd( 3d)     0.00008
    63    H    2  dxz    Ryd( 4d)     0.00007
    64    H    2  dyz    Ryd( 3d)     0.00013
    65    H    2  dyz    Ryd( 4d)     0.00005
    66    H    2  dx2y2  Ryd( 3d)     0.00011
    67    H    2  dx2y2  Ryd( 4d)     0.00006
    68    H    2  dz2    Ryd( 3d)     0.00013
    69    H    2  dz2    Ryd( 4d)     0.00007

    70   Br    3  S      Cor( 1S)     2.00000
    71   Br    3  S      Cor( 2S)     2.00000
    72   Br    3  S      Cor( 3S)     1.99944
    73   Br    3  S      Val( 4S)     1.93122
    74   Br    3  S      Ryd( 5S)     0.00140
    75   Br    3  S      Ryd( 6S)     0.00035
    76   Br    3  S      Ryd( 7S)     0.00013
    77   Br    3  px     Cor( 2p)     2.00000
    78   Br    3  px     Cor( 3p)     1.99995
    79   Br    3  px     Val( 4p)     1.94230
    80   Br    3  px     Ryd( 5p)     0.01005
    81   Br    3  px     Ryd( 6p)     0.00078
    82   Br    3  px     Ryd( 7p)     0.00006
    83   Br    3  py     Cor( 2p)     2.00000
    84   Br    3  py     Cor( 3p)     1.99981
    85   Br    3  py     Val( 4p)     1.67009
    86   Br    3  py     Ryd( 5p)     0.00845
    87   Br    3  py     Ryd( 6p)     0.00076
    88   Br    3  py     Ryd( 7p)     0.00022
    89   Br    3  pz     Cor( 2p)     2.00000
    90   Br    3  pz     Cor( 3p)     1.99996
    91   Br    3  pz     Val( 4p)     1.95486
    92   Br    3  pz     Ryd( 5p)     0.01009
    93   Br    3  pz     Ryd( 6p)     0.00077
    94   Br    3  pz     Ryd( 7p)     0.00001
    95   Br    3  dxy    Cor( 3d)     1.99764
    96   Br    3  dxy    Ryd( 4d)     0.01816
    97   Br    3  dxy    Ryd( 5d)     0.00126
    98   Br    3  dxy    Ryd( 6d)     0.00025
    99   Br    3  dxz    Cor( 3d)     1.99769
   100   Br    3  dxz    Ryd( 4d)     0.01808
   101   Br    3  dxz    Ryd( 5d)     0.00163
   102   Br    3  dxz    Ryd( 6d)     0.00019
   103   Br    3  dyz    Cor( 3d)     1.99766
   104   Br    3  dyz    Ryd( 4d)     0.01794
   105   Br    3  dyz    Ryd( 5d)     0.00127
   106   Br    3  dyz    Ryd( 6d)     0.00025
   107   Br    3  dx2y2  Cor( 3d)     1.99758
   108   Br    3  dx2y2  Ryd( 4d)     0.01918
   109   Br    3  dx2y2  Ryd( 5d)     0.00141
   110   Br    3  dx2y2  Ryd( 6d)     0.00021
   111   Br    3  dz2    Cor( 3d)     1.99765
   112   Br    3  dz2    Ryd( 4d)     0.01857
   113   Br    3  dz2    Ryd( 5d)     0.00157
   114   Br    3  dz2    Ryd( 6d)     0.00019
   115   Br    3  f(0)   Ryd( 4f)     0.00171
   116   Br    3  f(0)   Ryd( 5f)     0.00024
   117   Br    3  f(C1)  Ryd( 4f)     0.00173
   118   Br    3  f(C1)  Ryd( 5f)     0.00023
   119   Br    3  f(S1)  Ryd( 4f)     0.00177
   120   Br    3  f(S1)  Ryd( 5f)     0.00025
   121   Br    3  f(C2)  Ryd( 4f)     0.00169
   122   Br    3  f(C2)  Ryd( 5f)     0.00024
   123   Br    3  f(S2)  Ryd( 4f)     0.00170
   124   Br    3  f(S2)  Ryd( 5f)     0.00023
   125   Br    3  f(C3)  Ryd( 4f)     0.00170
   126   Br    3  f(C3)  Ryd( 5f)     0.00025
   127   Br    3  f(S3)  Ryd( 4f)     0.00176
   128   Br    3  f(S3)  Ryd( 5f)     0.00025

   129    H    4  S      Val( 1S)     0.64072
   130    H    4  S      Ryd( 2S)     0.00551
   131    H    4  S      Ryd( 3S)     0.00035
   132    H    4  S      Ryd( 4S)     0.00012
   133    H    4  px     Ryd( 2p)     0.00430
   134    H    4  px     Ryd( 3p)     0.00038
   135    H    4  px     Ryd( 4p)     0.00007
   136    H    4  py     Ryd( 2p)     0.00372
   137    H    4  py     Ryd( 3p)     0.00126
   138    H    4  py     Ryd( 4p)     0.00013
   139    H    4  pz     Ryd( 2p)     0.00454
   140    H    4  pz     Ryd( 3p)     0.00031
   141    H    4  pz     Ryd( 4p)     0.00006
   142    H    4  dxy    Ryd( 3d)     0.00028
   143    H    4  dxy    Ryd( 4d)     0.00007
   144    H    4  dxz    Ryd( 3d)     0.00022
   145    H    4  dxz    Ryd( 4d)     0.00006
   146    H    4  dyz    Ryd( 3d)     0.00030
   147    H    4  dyz    Ryd( 4d)     0.00006
   148    H    4  dx2y2  Ryd( 3d)     0.00020
   149    H    4  dx2y2  Ryd( 4d)     0.00014
   150    H    4  dz2    Ryd( 3d)     0.00021
   151    H    4  dz2    Ryd( 4d)     0.00009

 WARNING:  5 low occupancy (<1.9990e) core orbitals found on Br    3


 Summary of Natural Population Analysis:                  
                                                          
                                       Natural Population 
                Natural  -----------------------------------------------
    Atom  No    Charge         Core      Valence    Rydberg      Total
 -----------------------------------------------------------------------
      O    1   -1.11663      1.99972     6.99871    0.11821     9.11663
      H    2    0.41227      0.00000     0.57022    0.01751     0.58773
     Br    3   -0.63280     27.98738     7.49847    0.14695    35.63280
      H    4    0.33691      0.00000     0.64072    0.02237     0.66309
 =======================================================================
   * Total *   -1.00025     29.98710    15.70811    0.30504    46.00025

                                 Natural Population      
 --------------------------------------------------------
   Core                      29.98710 ( 99.9570% of  30)
   Valence                   15.70811 ( 98.1757% of  16)
   Natural Minimal Basis     45.69521 ( 99.3374% of  46)
   Natural Rydberg Basis      0.30504 (  0.6631% of  46)
 --------------------------------------------------------

    Atom  No          Natural Electron Configuration
 ----------------------------------------------------------------------------
      O    1      [core]2S( 1.81)2p( 5.19)3S( 0.01)3p( 0.06)3d( 0.04)
      H    2            1S( 0.57)2p( 0.01)
     Br    3      [core]4S( 1.93)4p( 5.57)4d( 0.09)5p( 0.03)4f( 0.01)5d( 0.01)
      H    4            1S( 0.64)2S( 0.01)2p( 0.01)


 NATURAL BOND ORBITAL ANALYSIS:
 Warning:  a bond orbital has occupanc of -0.00006
 Warning:  a bond orbital has occupanc of -0.00042

                       Occupancies       Lewis Structure    Low   High
           Occ.    -------------------  -----------------   occ   occ
  Cycle   Thresh.   Lewis   Non-Lewis     CR  BD  3C  LP    (L)   (NL)   Dev
 =============================================================================
   1(1)    1.90    45.32086   0.67914     15   2   0   6     1      1    0.45
 Warning:  a bond orbital has occupanc of -0.00006
 Warning:  a bond orbital has occupanc of -0.00042
   2(2)    1.90    45.39351   0.60649     15   2   0   6     1      1    0.35
 Warning:  a bond orbital has occupanc of -0.00006
 Warning:  a bond orbital has occupanc of -0.00042
   3(3)    1.90    45.32086   0.67914     15   2   0   6     1      1    0.45
 Warning:  a bond orbital has occupanc of -0.00006
 Warning:  a bond orbital has occupanc of -0.00042
   4(4)    1.90    45.39351   0.60649     15   2   0   6     1      1    0.35
 Warning:  a bond orbital has occupanc of -0.00006
 Warning:  a bond orbital has occupanc of -0.00042
   5(1)    1.80    45.39351   0.60649     15   2   0   6     1      1    0.35
 Warning:  a bond orbital has occupanc of -0.00006
 Warning:  a bond orbital has occupanc of -0.00042
   6(2)    1.80    45.32086   0.67914     15   2   0   6     1      1    0.45
 Warning:  a bond orbital has occupanc of -0.00006
 Warning:  a bond orbital has occupanc of -0.00042
   7(3)    1.80    45.39351   0.60649     15   2   0   6     1      1    0.35
 Warning:  a bond orbital has occupanc of -0.00006
 Warning:  a bond orbital has occupanc of -0.00042
   8(1)    1.70    45.39351   0.60649     15   2   0   6     1      1    0.35
 Warning:  a bond orbital has occupanc of -0.00006
 Warning:  a bond orbital has occupanc of -0.00042
   9(2)    1.70    45.32086   0.67914     15   2   0   6     1      1    0.45
 Warning:  a bond orbital has occupanc of -0.00006
 Warning:  a bond orbital has occupanc of -0.00042
  10(3)    1.70    45.39351   0.60649     15   2   0   6     1      1    0.35
 Warning:  a bond orbital has occupanc of -0.00006
 Warning:  a bond orbital has occupanc of -0.00042
  11(1)    1.60    45.05597   0.94403     15   1   0   7     0      1    0.45
 Warning:  a bond orbital has occupanc of -0.00006
 Warning:  a bond orbital has occupanc of -0.00042
  12(2)    1.60    45.05597   0.94403     15   1   0   7     0      1    0.45
 Warning:  a bond orbital has occupanc of -0.00006
 Warning:  a bond orbital has occupanc of -0.00042
  13(1)    1.50    45.05597   0.94403     15   1   0   7     0      1    0.45
 Warning:  a bond orbital has occupanc of -0.00006
 Warning:  a bond orbital has occupanc of -0.00042
  14(2)    1.50    45.05597   0.94403     15   1   0   7     0      1    0.45
 Warning:  a bond orbital has occupanc of -0.00006
 Warning:  a bond orbital has occupanc of -0.00042
  15(1)    1.90    45.39351   0.60649     15   2   0   6     1      1    0.35
 -----------------------------------------------------------------------------

 Structure accepted: RESONANCE keyword permits strongly delocalized structure

 WARNING:  5 low occupancy (<1.9990e) core orbitals found on Br    3

 --------------------------------------------------------
   Core                     29.98710 ( 99.957% of  30)
   Valence Lewis            15.40640 ( 96.290% of  16)
  ==================       ============================
   Total Lewis              45.39351 ( 98.682% of  46)
  -----------------------------------------------------
   Valence non-Lewis         0.32667 (  0.710% of  46)
   Rydberg non-Lewis         0.27982 (  0.608% of  46)
  ==================       ============================
   Total non-Lewis           0.60649 (  1.318% of  46)
 --------------------------------------------------------


       (Occupancy)   Bond orbital/ Coefficients/ Hybrids
 ---------------------------------------------------------------------------------
     1. (1.96179) BD ( 1) O   1 - H   2  
                ( 71.76%)   0.8471* O   1 s( 22.49%)p 3.43( 77.05%)d 0.02(  0.45%)
                                                  f 0.00(  0.01%)
                                            0.0003  0.4741 -0.0107 -0.0024 -0.0022
                                            0.8763 -0.0477 -0.0103 -0.0091 -0.0101
                                           -0.0040  0.0022 -0.0021  0.0000  0.0000
                                            0.0000  0.0000 -0.0108  0.0039 -0.0023
                                            0.0000  0.0000  0.0000  0.0000  0.0000
                                            0.0000  0.0567 -0.0057  0.0033 -0.0331
                                            0.0004  0.0007  0.0000  0.0000 -0.0091
                                            0.0001 -0.0005  0.0002  0.0000  0.0000
                                            0.0000  0.0000  0.0065  0.0032  0.0001
                                           -0.0001
                ( 28.24%)   0.5315* H   2 s( 99.81%)p 0.00(  0.19%)d 0.00(  0.00%)
                                            0.9990  0.0057  0.0001 -0.0003  0.0253
                                           -0.0344 -0.0036 -0.0077  0.0001  0.0007
                                            0.0000  0.0000  0.0000  0.0004  0.0022
                                            0.0000  0.0000  0.0000  0.0000  0.0022
                                            0.0021 -0.0021 -0.0002
     2. (1.95488) BD ( 1)Br   3 - H   4  
                ( 79.56%)   0.8919*Br   3 s( 12.54%)p 6.95( 87.19%)d 0.02(  0.25%)
                                                  f 0.00(  0.02%)
                                           -0.0000  0.0000  0.0003  0.3541 -0.0025
                                           -0.0019  0.0022 -0.0000  0.0001  0.1902
                                           -0.0032 -0.0018  0.0013 -0.0000  0.0005
                                            0.9140 -0.0153 -0.0074  0.0025  0.0000
                                            0.0000  0.0000  0.0000  0.0000  0.0000
                                           -0.0000  0.0174 -0.0016 -0.0003  0.0000
                                            0.0000  0.0000  0.0000  0.0000  0.0000
                                            0.0000  0.0000 -0.0000 -0.0391  0.0034
                                            0.0004 -0.0000 -0.0252  0.0024  0.0002
                                            0.0000  0.0000 -0.0018 -0.0000 -0.0086
                                           -0.0002  0.0000  0.0000  0.0000  0.0000
                                           -0.0064 -0.0002 -0.0090 -0.0006
                ( 20.44%)   0.4522* H   4 s( 99.82%)p 0.00(  0.15%)d 0.00(  0.03%)
                                            0.9990 -0.0076 -0.0087  0.0024 -0.0033
                                           -0.0054 -0.0022 -0.0228 -0.0293 -0.0061
                                            0.0000  0.0000  0.0000  0.0028  0.0058
                                            0.0000  0.0000  0.0000  0.0000 -0.0061
                                           -0.0121 -0.0049 -0.0078
     3. (1.99972) CR ( 1) O   1           s(100.00%)p 0.00(  0.00%)
                                            1.0000 -0.0004  0.0000  0.0000  0.0000
                                           -0.0001  0.0000  0.0000  0.0000 -0.0001
                                           -0.0000 -0.0000 -0.0000  0.0000  0.0000
                                            0.0000  0.0000 -0.0000 -0.0000  0.0000
                                            0.0000  0.0000  0.0000  0.0000  0.0000
                                            0.0000 -0.0000  0.0000 -0.0000  0.0000
                                            0.0000 -0.0000  0.0000  0.0000  0.0000
                                            0.0000  0.0000 -0.0000  0.0000  0.0000
                                            0.0000  0.0000 -0.0000 -0.0000 -0.0000
                                            0.0000
     4. (2.00000) CR ( 1)Br   3           s(100.00%)
                                            1.0000  0.0000  0.0000  0.0000 -0.0000
                                           -0.0000  0.0000 -0.0000  0.0000  0.0000
                                           -0.0000 -0.0000  0.0000 -0.0000  0.0000
                                            0.0000 -0.0000 -0.0000  0.0000  0.0000
                                            0.0000  0.0000  0.0000  0.0000  0.0000
                                           -0.0000  0.0000 -0.0000 -0.0000  0.0000
                                            0.0000  0.0000  0.0000  0.0000  0.0000
                                            0.0000  0.0000  0.0000 -0.0000  0.0000
                                            0.0000  0.0000 -0.0000  0.0000  0.0000
                                            0.0000  0.0000 -0.0000  0.0000 -0.0000
                                            0.0000  0.0000  0.0000  0.0000  0.0000
                                           -0.0000  0.0000 -0.0000 -0.0000
     5. (2.00000) CR ( 2)Br   3           s(100.00%)
                                            0.0000  1.0000 -0.0000 -0.0000  0.0000
                                            0.0000 -0.0000  0.0000 -0.0000 -0.0000
                                            0.0000  0.0000 -0.0000  0.0000 -0.0000
                                           -0.0000  0.0000  0.0000 -0.0000  0.0000
                                            0.0000  0.0000  0.0000  0.0000  0.0000
                                            0.0000 -0.0000  0.0000  0.0000  0.0000
                                            0.0000  0.0000  0.0000  0.0000  0.0000
                                            0.0000  0.0000 -0.0000  0.0000 -0.0000
                                           -0.0000 -0.0000  0.0000 -0.0000 -0.0000
                                            0.0000  0.0000  0.0000 -0.0000  0.0000
                                           -0.0000  0.0000  0.0000  0.0000  0.0000
                                            0.0000 -0.0000  0.0000  0.0000
     6. (1.99944) CR ( 3)Br   3           s(100.00%)p 0.00(  0.00%)
                                            0.0000 -0.0000  1.0000 -0.0006  0.0000
                                            0.0000 -0.0000  0.0000 -0.0000 -0.0000
                                            0.0000  0.0000 -0.0000  0.0000 -0.0000
                                           -0.0001  0.0000  0.0000 -0.0000  0.0000
                                            0.0000  0.0000  0.0000  0.0000  0.0000
                                            0.0000 -0.0000  0.0000  0.0000  0.0000
                                            0.0000  0.0000  0.0000  0.0000  0.0000
                                            0.0000  0.0000 -0.0000  0.0000 -0.0000
                                           -0.0000 -0.0000  0.0000 -0.0000 -0.0000
                                            0.0000  0.0000  0.0000 -0.0000  0.0000
                                           -0.0000  0.0000  0.0000  0.0000  0.0000
                                            0.0000 -0.0000  0.0000  0.0000
     7. (2.00000) CR ( 4)Br   3           s(  0.00%)p 1.00(100.00%)
                                           -0.0000  0.0000  0.0000  0.0000 -0.0000
                                            0.0000 -0.0000  1.0000  0.0000  0.0000
                                            0.0000  0.0000 -0.0000 -0.0000  0.0000
                                            0.0000 -0.0000 -0.0000  0.0000  0.0000
                                            0.0000  0.0000  0.0000  0.0000  0.0000
                                           -0.0000  0.0000 -0.0000 -0.0000  0.0000
                                            0.0000  0.0000  0.0000  0.0000  0.0000
                                            0.0000  0.0000 -0.0000 -0.0000  0.0000
                                           -0.0000 -0.0000 -0.0000  0.0000 -0.0000
                                            0.0000  0.0000 -0.0000  0.0000 -0.0000
                                           -0.0000  0.0000  0.0000  0.0000  0.0000
                                           -0.0000  0.0000  0.0000 -0.0000
     8. (1.99995) CR ( 5)Br   3           s(  0.00%)p 1.00(100.00%)
                                            0.0000 -0.0000 -0.0000  0.0000  0.0000
                                           -0.0000  0.0000  0.0000  1.0000 -0.0004
                                           -0.0000 -0.0000  0.0000  0.0000 -0.0000
                                           -0.0000  0.0000  0.0000 -0.0000  0.0000
                                            0.0000  0.0000  0.0000  0.0000  0.0000
                                            0.0000 -0.0000  0.0000  0.0000  0.0000
                                            0.0000  0.0000  0.0000  0.0000  0.0000
                                            0.0000  0.0000  0.0000  0.0000 -0.0000
                                            0.0000  0.0000  0.0000 -0.0000  0.0000
                                            0.0000  0.0000  0.0000 -0.0000  0.0000
                                            0.0000  0.0000  0.0000  0.0000  0.0000
                                            0.0000 -0.0000 -0.0000  0.0000
     9. (2.00000) CR ( 6)Br   3           s(  0.00%)p 1.00(100.00%)
                                           -0.0000  0.0000  0.0000  0.0000 -0.0000
                                           -0.0000  0.0000 -0.0000  0.0000  0.0000
                                           -0.0000 -0.0000  0.0000  1.0000  0.0000
                                            0.0000 -0.0000 -0.0000  0.0000  0.0000
                                            0.0000  0.0000  0.0000  0.0000  0.0000
                                            0.0000  0.0000 -0.0000  0.0000  0.0000
                                            0.0000  0.0000  0.0000  0.0000  0.0000
                                            0.0000  0.0000 -0.0000 -0.0000  0.0000
                                            0.0000 -0.0000 -0.0000  0.0000  0.0000
                                            0.0000  0.0000 -0.0000 -0.0000 -0.0000
                                           -0.0000  0.0000  0.0000  0.0000  0.0000
                                           -0.0000 -0.0000 -0.0000 -0.0000
    10. (1.99982) CR ( 7)Br   3           s(  0.00%)p 1.00(100.00%)
                                            0.0000 -0.0000 -0.0000  0.0001  0.0000
                                            0.0000 -0.0000  0.0000 -0.0000 -0.0000
                                            0.0000  0.0000 -0.0000  0.0000  1.0000
                                           -0.0006  0.0000  0.0000 -0.0000  0.0000
                                            0.0000  0.0000  0.0000  0.0000  0.0000
                                           -0.0000 -0.0000  0.0000 -0.0000  0.0000
                                            0.0000  0.0000  0.0000  0.0000  0.0000
                                            0.0000  0.0000  0.0000  0.0000 -0.0000
                                           -0.0000  0.0000  0.0000 -0.0000 -0.0000
                                            0.0000  0.0000  0.0000  0.0000  0.0000
                                            0.0000  0.0000  0.0000  0.0000  0.0000
                                            0.0000  0.0000  0.0000  0.0000
    11. (2.00000) CR ( 8)Br   3           s(  0.00%)p 1.00(100.00%)
                                            0.0000  0.0000  0.0000  0.0000  0.0000
                                            0.0000  0.0000  0.0000  0.0000  0.0000
                                            0.0000  0.0000  0.0000  0.0000  0.0000
                                            0.0000  0.0000  0.0000  0.0000  1.0000
                                            0.0000  0.0000  0.0000  0.0000 -0.0000
                                            0.0000  0.0000  0.0000  0.0000 -0.0000
                                            0.0000 -0.0000 -0.0000 -0.0000  0.0000
                                            0.0000 -0.0000  0.0000  0.0000  0.0000
                                            0.0000  0.0000  0.0000  0.0000  0.0000
                                           -0.0000  0.0000  0.0000  0.0000  0.0000
                                            0.0000 -0.0000  0.0000  0.0000 -0.0000
                                            0.0000  0.0000  0.0000  0.0000
    12. (1.99996) CR ( 9)Br   3           s(  0.00%)p 1.00(100.00%)
                                            0.0000  0.0000  0.0000  0.0000  0.0000
                                            0.0000  0.0000  0.0000  0.0000  0.0000
                                            0.0000  0.0000  0.0000  0.0000  0.0000
                                            0.0000  0.0000  0.0000  0.0000  0.0000
                                            1.0000 -0.0004 -0.0000 -0.0000  0.0000
                                            0.0000  0.0000  0.0000  0.0000  0.0000
                                           -0.0000  0.0000  0.0000  0.0000 -0.0000
                                           -0.0000  0.0000  0.0000  0.0000  0.0000
                                            0.0000  0.0000  0.0000  0.0000  0.0000
                                            0.0000 -0.0000  0.0000  0.0000  0.0000
                                            0.0000  0.0000 -0.0000 -0.0000  0.0000
                                            0.0000  0.0000  0.0000  0.0000
    13. (1.99764) CR (10)Br   3           s(  0.00%)p 0.00(  0.00%)d 1.00(100.00%)
                                           -0.0000  0.0000  0.0000  0.0000  0.0000
                                            0.0000 -0.0000 -0.0000  0.0000  0.0000
                                            0.0000  0.0000 -0.0000  0.0000 -0.0000
                                           -0.0000  0.0000 -0.0000 -0.0000  0.0000
                                            0.0000  0.0000  0.0000  0.0000  0.0000
                                            1.0000  0.0000  0.0000 -0.0000  0.0000
                                            0.0000  0.0000  0.0000  0.0000  0.0000
                                            0.0000  0.0000  0.0000  0.0000 -0.0000
                                           -0.0000  0.0000  0.0000  0.0000 -0.0000
                                            0.0000  0.0000 -0.0000  0.0000  0.0000
                                            0.0000  0.0000  0.0000  0.0000  0.0000
                                           -0.0000  0.0000  0.0000 -0.0000
    14. (1.99769) CR (11)Br   3           s(  0.00%)p 0.00(  0.00%)d 1.00(100.00%)
                                            0.0000  0.0000  0.0000  0.0000  0.0000
                                            0.0000  0.0000  0.0000  0.0000  0.0000
                                            0.0000  0.0000  0.0000  0.0000  0.0000
                                            0.0000  0.0000  0.0000  0.0000 -0.0000
                                            0.0000  0.0000  0.0000  0.0000 -0.0000
                                            0.0000  0.0000  0.0000  0.0000  1.0000
                                            0.0000 -0.0000 -0.0000 -0.0000  0.0000
                                            0.0000 -0.0000  0.0000  0.0000  0.0000
                                            0.0000  0.0000  0.0000  0.0000  0.0000
                                           -0.0000  0.0000  0.0000  0.0000  0.0000
                                            0.0000 -0.0000  0.0000  0.0000 -0.0000
                                            0.0000  0.0000  0.0000  0.0000
    15. (1.99766) CR (12)Br   3           s(  0.00%)p 0.00(  0.00%)d 1.00(100.00%)
                                            0.0000  0.0000  0.0000  0.0000  0.0000
                                            0.0000  0.0000  0.0000  0.0000  0.0000
                                            0.0000  0.0000  0.0000  0.0000  0.0000
                                            0.0000  0.0000  0.0000  0.0000 -0.0000
                                            0.0000  0.0000  0.0000  0.0000 -0.0000
                                            0.0000  0.0000  0.0000  0.0000 -0.0000
                                            0.0000 -0.0000 -0.0000  1.0000  0.0000
                                            0.0000 -0.0000  0.0000  0.0000  0.0000
                                            0.0000  0.0000  0.0000  0.0000  0.0000
                                           -0.0000  0.0000  0.0000  0.0000  0.0000
                                            0.0000 -0.0000  0.0000  0.0000 -0.0000
                                            0.0000  0.0000  0.0000  0.0000
    16. (1.99758) CR (13)Br   3           s(  0.00%)p 0.00(  0.00%)d 1.00(100.00%)
                                            0.0000 -0.0000 -0.0000 -0.0001 -0.0000
                                           -0.0000  0.0000 -0.0000  0.0000  0.0000
                                           -0.0000  0.0000  0.0000 -0.0000  0.0000
                                            0.0000 -0.0000 -0.0000  0.0000  0.0000
                                            0.0000  0.0000  0.0000  0.0000  0.0000
                                            0.0000  0.0000  0.0000 -0.0000  0.0000
                                            0.0000  0.0000  0.0000  0.0000  0.0000
                                            0.0000  0.0000  1.0000 -0.0000  0.0000
                                           -0.0000 -0.0000 -0.0000  0.0000 -0.0000
                                            0.0000  0.0000 -0.0000  0.0000 -0.0000
                                           -0.0000  0.0000  0.0000  0.0000  0.0000
                                           -0.0000  0.0000 -0.0000 -0.0000
    17. (1.99765) CR (14)Br   3           s(  0.00%)p 0.00(  0.00%)d 1.00(100.00%)
                                            0.0000 -0.0000 -0.0000 -0.0000 -0.0000
                                           -0.0000  0.0000 -0.0000  0.0000  0.0000
                                           -0.0000 -0.0000  0.0000 -0.0000  0.0000
                                            0.0000 -0.0000 -0.0000  0.0000  0.0000
                                            0.0000  0.0000  0.0000  0.0000  0.0000
                                            0.0000  0.0000 -0.0000  0.0000  0.0000
                                            0.0000  0.0000  0.0000  0.0000  0.0000
                                            0.0000  0.0000 -0.0000 -0.0000  0.0000
                                           -0.0000  1.0000 -0.0000  0.0000 -0.0000
                                            0.0000  0.0000 -0.0000 -0.0000 -0.0000
                                           -0.0000  0.0000  0.0000  0.0000  0.0000
                                           -0.0000 -0.0000 -0.0000 -0.0000
    18. (1.96785) LP ( 1) O   1           s( 65.34%)p 0.53( 34.60%)d 0.00(  0.06%)
                                                  f 0.00(  0.00%)
                                            0.0003  0.8083  0.0000  0.0001  0.0001
                                           -0.4315  0.0025 -0.0020  0.0029  0.3997
                                            0.0054  0.0024  0.0024  0.0000  0.0000
                                            0.0000  0.0000  0.0205 -0.0030 -0.0006
                                            0.0000  0.0000  0.0000  0.0000  0.0000
                                            0.0000 -0.0069  0.0014 -0.0007  0.0084
                                           -0.0018  0.0015  0.0000  0.0000  0.0026
                                           -0.0008 -0.0010  0.0001  0.0000  0.0000
                                            0.0000  0.0000 -0.0002 -0.0012  0.0021
                                           -0.0003
    19. (1.95301) LP ( 2) O   1           s(  0.00%)p 1.00( 99.84%)d 0.00(  0.15%)
                                                  f 0.00(  0.01%)
                                            0.0000  0.0000  0.0000  0.0000  0.0000
                                            0.0000  0.0000  0.0000  0.0000  0.0000
                                            0.0000  0.0000  0.0000  0.9989  0.0237
                                            0.0045  0.0075  0.0000  0.0000  0.0000
                                            0.0364 -0.0031 -0.0020 -0.0131  0.0018
                                            0.0012  0.0000  0.0000  0.0000  0.0000
                                            0.0000  0.0000 -0.0074  0.0024  0.0000
                                            0.0000  0.0000  0.0000  0.0028  0.0003
                                            0.0011 -0.0004  0.0000  0.0000  0.0000
                                            0.0000
    20. (1.68306) LP ( 3) O   1           s( 12.13%)p 7.23( 87.69%)d 0.01(  0.17%)
                                                  f 0.00(  0.01%)
                                           -0.0000  0.3480  0.0125  0.0022  0.0022
                                           -0.1970  0.0099  0.0010  0.0028 -0.9154
                                           -0.0119 -0.0005  0.0013 -0.0000 -0.0000
                                           -0.0000 -0.0000 -0.0233  0.0024 -0.0002
                                           -0.0000 -0.0000 -0.0000 -0.0000 -0.0000
                                           -0.0000 -0.0298  0.0062 -0.0013 -0.0149
                                            0.0039  0.0001 -0.0000 -0.0000  0.0012
                                            0.0002  0.0069 -0.0028 -0.0000 -0.0000
                                           -0.0000 -0.0000  0.0019 -0.0010 -0.0010
                                           -0.0013
    21. (1.97569) LP ( 1)Br   3           s( 87.44%)p 0.14( 12.55%)d 0.00(  0.00%)
                                                  f 0.00(  0.00%)
                                           -0.0000  0.0000  0.0005  0.9351  0.0009
                                            0.0007 -0.0011  0.0000 -0.0001 -0.0735
                                            0.0012  0.0002 -0.0002  0.0000 -0.0003
                                           -0.3466  0.0050  0.0004 -0.0004  0.0000
                                            0.0000  0.0000  0.0000  0.0000  0.0000
                                           -0.0000 -0.0021 -0.0000 -0.0002  0.0000
                                            0.0000  0.0000  0.0000  0.0000  0.0000
                                            0.0000  0.0000  0.0001  0.0047 -0.0002
                                            0.0006  0.0000  0.0029 -0.0001  0.0004
                                            0.0000  0.0000  0.0001  0.0001  0.0005
                                            0.0003  0.0000  0.0000  0.0000  0.0000
                                            0.0004  0.0002  0.0005  0.0003
    22. (1.95519) LP ( 2)Br   3           s(  0.00%)p 1.00( 99.99%)d 0.00(  0.01%)
                                                  f 0.00(  0.00%)
                                            0.0000  0.0000  0.0000  0.0000  0.0000
                                            0.0000  0.0000  0.0000  0.0000  0.0000
                                            0.0000  0.0000  0.0000  0.0000  0.0000
                                            0.0000  0.0000  0.0000  0.0000 -0.0000
                                            0.0004  0.9999  0.0049  0.0024 -0.0003
                                            0.0000  0.0000  0.0000  0.0000 -0.0000
                                            0.0025 -0.0005 -0.0002 -0.0000  0.0076
                                            0.0003 -0.0054  0.0000  0.0000  0.0000
                                            0.0000  0.0000  0.0000  0.0000  0.0000
                                           -0.0039  0.0017  0.0000  0.0000  0.0000
                                            0.0000 -0.0043  0.0016  0.0020 -0.0009
                                            0.0000  0.0000  0.0000  0.0000
    23. (1.95495) LP ( 3)Br   3           s(  0.00%)p 1.00( 99.98%)d 0.00(  0.01%)
                                                  f 0.00(  0.00%)
                                           -0.0000  0.0000 -0.0000  0.0013  0.0002
                                            0.0007 -0.0010 -0.0000  0.0004  0.9788
                                            0.0057  0.0027 -0.0009  0.0000 -0.0001
                                           -0.2042 -0.0008 -0.0002 -0.0003  0.0000
                                            0.0000  0.0000  0.0000  0.0000  0.0000
                                           -0.0000  0.0077  0.0002 -0.0050  0.0000
                                            0.0000  0.0000  0.0000  0.0000  0.0000
                                            0.0000  0.0000 -0.0000  0.0048 -0.0005
                                           -0.0013  0.0000 -0.0003  0.0003 -0.0006
                                            0.0000  0.0000 -0.0017  0.0008  0.0003
                                           -0.0000  0.0000  0.0000  0.0000  0.0000
                                           -0.0046  0.0017  0.0035 -0.0013
    24. (0.02592) RY*( 1) O   1           s(  0.00%)p 1.00( 99.16%)d 0.01(  0.82%)
                                                  f 0.00(  0.02%)
                                            0.0000  0.0000  0.0000  0.0000  0.0000
                                            0.0000  0.0000  0.0000  0.0000  0.0000
                                            0.0000  0.0000  0.0000 -0.0267  0.9948
                                           -0.0252 -0.0265  0.0000  0.0000  0.0000
                                            0.0753 -0.0175  0.0067 -0.0430  0.0162
                                           -0.0093  0.0000  0.0000  0.0000  0.0000
                                            0.0000  0.0000 -0.0085  0.0099  0.0000
                                            0.0000  0.0000  0.0000 -0.0013  0.0003
                                            0.0001 -0.0014  0.0000  0.0000  0.0000
                                            0.0000
    25. (0.01971) RY*( 2) O   1           s( 13.27%)p 6.40( 84.92%)d 0.13(  1.79%)
                                                  f 0.00(  0.02%)
                                            0.0000 -0.0056  0.3640  0.0028 -0.0129
                                           -0.0084 -0.4186  0.0053  0.0174 -0.0135
                                            0.8205 -0.0115 -0.0059  0.0000  0.0000
                                            0.0000  0.0000  0.1288 -0.0232  0.0087
                                            0.0000  0.0000  0.0000  0.0000  0.0000
                                            0.0000 -0.0183 -0.0028  0.0043  0.0092
                                           -0.0129  0.0063  0.0000  0.0000  0.0003
                                           -0.0008 -0.0020  0.0053  0.0000  0.0000
                                            0.0000  0.0000  0.0109 -0.0059  0.0070
                                           -0.0019
    26. (0.01125) RY*( 3) O   1           s( 13.97%)p 5.97( 83.45%)d 0.17(  2.32%)
                                                  f 0.02(  0.27%)
                                            0.0000 -0.0141  0.3726 -0.0144  0.0221
                                           -0.0370 -0.7424  0.0178  0.0339  0.0064
                                           -0.5289 -0.0085 -0.0246 -0.0000 -0.0000
                                           -0.0000 -0.0000 -0.0903 -0.0124  0.0056
                                           -0.0000 -0.0000 -0.0000 -0.0000 -0.0000
                                           -0.0000  0.1003  0.0582 -0.0280  0.0052
                                            0.0214 -0.0123 -0.0000 -0.0000 -0.0049
                                            0.0020  0.0196 -0.0201 -0.0000 -0.0000
                                           -0.0000 -0.0000  0.0304 -0.0269  0.0083
                                           -0.0112
    27. (0.00664) RY*( 4) O   1           s( 24.97%)p 0.29(  7.23%)d 2.69( 67.13%)
                                                  f 0.03(  0.68%)
                                           -0.0000  0.0139  0.4993  0.0074 -0.0085
                                            0.0394  0.2624 -0.0065 -0.0096  0.0370
                                            0.0080 -0.0127 -0.0123 -0.0000 -0.0000
                                           -0.0000 -0.0000 -0.6671 -0.0159  0.0008
                                           -0.0000 -0.0000 -0.0000 -0.0000 -0.0000
                                           -0.0000 -0.4620  0.0040 -0.0079  0.1069
                                            0.0284 -0.0154 -0.0000 -0.0000  0.0125
                                           -0.0005  0.0403 -0.0294 -0.0000 -0.0000
                                           -0.0000 -0.0000 -0.0561  0.0238 -0.0186
                                           -0.0066
    28. (0.00638) RY*( 5) O   1           s(  0.00%)p 1.00(  0.02%)d99.99( 99.13%)
                                                  f41.25(  0.85%)
                                            0.0000  0.0000  0.0000  0.0000  0.0000
                                            0.0000  0.0000  0.0000  0.0000  0.0000
                                            0.0000  0.0000  0.0000 -0.0070 -0.0013
                                           -0.0119 -0.0034  0.0000  0.0000  0.0000
                                            0.5005  0.0294 -0.0092  0.8588  0.0476
                                           -0.0031  0.0000  0.0000  0.0000  0.0000
                                            0.0000  0.0000  0.0046 -0.0106  0.0000
                                            0.0000  0.0000  0.0000  0.0764 -0.0476
                                            0.0148 -0.0012  0.0000  0.0000  0.0000
                                            0.0000
    29. (0.00612) RY*( 6) O   1           s(  0.00%)p 1.00(  0.87%)d99.99( 98.15%)
                                                  f 1.11(  0.97%)
                                            0.0000  0.0000  0.0000  0.0000  0.0000
                                            0.0000  0.0000  0.0000  0.0000  0.0000
                                            0.0000  0.0000  0.0000 -0.0360 -0.0854
                                            0.0113  0.0040  0.0000  0.0000  0.0000
                                            0.8510  0.0679 -0.0276 -0.5004 -0.0394
                                            0.0072  0.0000  0.0000  0.0000  0.0000
                                            0.0000  0.0000 -0.0672  0.0366  0.0000
                                            0.0000  0.0000  0.0000  0.0463 -0.0194
                                           -0.0334  0.0153  0.0000  0.0000  0.0000
                                            0.0000
    30. (0.00603) RY*( 7) O   1           s(  4.35%)p 0.62(  2.68%)d21.26( 92.40%)
                                                  f 0.13(  0.57%)
                                           -0.0000  0.0123  0.2075 -0.0145 -0.0054
                                            0.0247  0.1523 -0.0117 -0.0024 -0.0232
                                           -0.0477  0.0084 -0.0046  0.0000  0.0000
                                            0.0000  0.0000  0.1926  0.0144 -0.0030
                                            0.0000  0.0000  0.0000  0.0000  0.0000
                                            0.0000  0.2425  0.0096  0.0004  0.9064
                                            0.0766 -0.0204  0.0000  0.0000  0.0456
                                           -0.0215 -0.0455  0.0295  0.0000  0.0000
                                            0.0000  0.0000  0.0022  0.0025 -0.0086
                                            0.0112
    31. (0.00578) RY*( 8) O   1           s( 12.61%)p 0.54(  6.80%)d 6.23( 78.61%)
                                                  f 0.16(  1.99%)
                                           -0.0000  0.0045  0.3550  0.0054 -0.0031
                                            0.0492  0.1631 -0.0211 -0.0003  0.0030
                                           -0.1932 -0.0085 -0.0335  0.0000  0.0000
                                            0.0000  0.0000  0.6891  0.0184  0.0032
                                            0.0000  0.0000  0.0000  0.0000  0.0000
                                            0.0000 -0.5434  0.0196 -0.0119 -0.1213
                                            0.0140 -0.0094  0.0000  0.0000  0.0374
                                           -0.0246  0.0332 -0.0336  0.0000  0.0000
                                            0.0000  0.0000  0.0149 -0.0262  0.1044
                                           -0.0618
    32. (0.00256) RY*( 9) O   1           s( 29.30%)p 0.51( 15.05%)d 1.86( 54.60%)
                                                  f 0.04(  1.04%)
                                            0.0000 -0.0054  0.5389 -0.0465 -0.0209
                                           -0.0232  0.3832  0.0268 -0.0227 -0.0005
                                           -0.0355  0.0168 -0.0196  0.0000  0.0000
                                            0.0000  0.0000  0.0526  0.0121 -0.0117
                                            0.0000  0.0000  0.0000  0.0000  0.0000
                                            0.0000  0.6237  0.1225  0.0416 -0.3586
                                           -0.0911 -0.0185  0.0000  0.0000 -0.0372
                                            0.0461  0.0081 -0.0066  0.0000  0.0000
                                            0.0000  0.0000  0.0565 -0.0587 -0.0130
                                            0.0012
    33. (0.00063) RY*(10) O   1           s( 11.84%)p 6.78( 80.28%)d 0.60(  7.10%)
                                                  f 0.07(  0.78%)
                                            0.0000 -0.0040  0.0098  0.3125 -0.1439
                                           -0.0034 -0.0210 -0.1506 -0.0192  0.0011
                                            0.0058  0.8826  0.0123  0.0000  0.0000
                                            0.0000  0.0000 -0.0062  0.2419 -0.0351
                                            0.0000  0.0000  0.0000  0.0000  0.0000
                                            0.0000 -0.0020  0.0591 -0.0053 -0.0100
                                            0.0838  0.0231  0.0000  0.0000  0.0057
                                            0.0033  0.0790 -0.0034  0.0000  0.0000
                                            0.0000  0.0000 -0.0249  0.0063 -0.0138
                                            0.0257
    34. (0.00062) RY*(11) O   1           s(  6.45%)p 0.05(  0.32%)d14.25( 91.89%)
                                                  f 0.21(  1.34%)
                                            0.0000  0.0008  0.0444  0.2003 -0.1496
                                           -0.0007 -0.0176 -0.0064 -0.0122 -0.0063
                                           -0.0480  0.0145  0.0121 -0.0000 -0.0000
                                           -0.0000 -0.0000 -0.0025  0.0156 -0.0099
                                           -0.0000 -0.0000 -0.0000 -0.0000 -0.0000
                                           -0.0000 -0.0132 -0.4494  0.0082  0.0676
                                           -0.8385  0.0940 -0.0000 -0.0000  0.0229
                                            0.0102 -0.0823  0.0357 -0.0000 -0.0000
                                           -0.0000 -0.0000  0.0425  0.0163  0.0481
                                            0.0179
    35. (0.00059) RY*(12) O   1           s(  0.00%)p 1.00( 60.22%)d 0.62( 37.45%)
                                                  f 0.04(  2.32%)
                                            0.0000  0.0000  0.0000  0.0000  0.0000
                                            0.0000  0.0000  0.0000  0.0000  0.0000
                                            0.0000  0.0000  0.0000  0.0002  0.0345
                                            0.7633 -0.1357  0.0000  0.0000  0.0000
                                           -0.0309  0.2843 -0.0221  0.0363 -0.5388
                                            0.0257  0.0000  0.0000  0.0000  0.0000
                                            0.0000  0.0000  0.0538 -0.0136  0.0000
                                            0.0000  0.0000  0.0000  0.1107  0.0004
                                            0.0890 -0.0026  0.0000  0.0000  0.0000
                                            0.0000
    36. (0.00054) RY*(13) O   1           s(  0.00%)p 1.00( 33.30%)d 1.79( 59.69%)
                                                  f 0.21(  7.02%)
                                            0.0000  0.0000  0.0000  0.0000  0.0000
                                            0.0000  0.0000  0.0000  0.0000  0.0000
                                            0.0000  0.0000  0.0000 -0.0031 -0.0037
                                            0.5654 -0.1150  0.0000  0.0000  0.0000
                                            0.0083 -0.0680  0.0031 -0.0371  0.7686
                                            0.0055  0.0000  0.0000  0.0000  0.0000
                                            0.0000  0.0000  0.0981 -0.0061  0.0000
                                            0.0000  0.0000  0.0000  0.0379  0.0074
                                           -0.2430  0.0035  0.0000  0.0000  0.0000
                                            0.0000
    37. (0.00048) RY*(14) O   1           s(  0.29%)p99.99( 43.94%)d29.00(  8.49%)
                                                  f99.99( 47.27%)
                                            0.0000 -0.0031  0.0252  0.0354 -0.0321
                                           -0.0103 -0.0191 -0.6293  0.0086 -0.0028
                                           -0.0067 -0.2070  0.0029 -0.0000 -0.0000
                                           -0.0000 -0.0000  0.0082  0.2769  0.0159
                                           -0.0000 -0.0000 -0.0000 -0.0000 -0.0000
                                           -0.0000  0.0565 -0.0505  0.0346 -0.0155
                                            0.0233 -0.0146 -0.0000 -0.0000 -0.2998
                                            0.0135 -0.0456  0.0113 -0.0000 -0.0000
                                           -0.0000 -0.0000 -0.5885 -0.0231  0.1832
                                            0.0054
    38. (0.00048) RY*(15) O   1           s(  0.00%)p 1.00(  3.00%)d 1.26(  3.79%)
[...]
   129. (0.00459) RY*( 2) H   4           s(  0.00%)p 1.00( 99.25%)d 0.01(  0.75%)
                                            0.0000  0.0000  0.0000  0.0000  0.0000
                                            0.0000  0.0000  0.0000  0.0000  0.0000
                                            0.9947  0.0413 -0.0360  0.0000  0.0000
                                           -0.0101  0.0064 -0.0795  0.0323  0.0000
                                            0.0000  0.0000  0.0000
   130. (0.00444) RY*( 3) H   4           s(  8.24%)p11.00( 90.63%)d 0.14(  1.13%)
                                            0.0187  0.2742  0.0697 -0.0447  0.8930
                                            0.0330 -0.0036  0.2501  0.1956  0.0837
                                            0.0000  0.0000  0.0000 -0.1010 -0.0030
                                            0.0000  0.0000  0.0000  0.0000  0.0055
                                            0.0168 -0.0011  0.0275
   131. (0.00376) RY*( 4) H   4           s(  3.05%)p31.61( 96.48%)d 0.15(  0.46%)
                                           -0.0173  0.0627  0.1442  0.0741  0.2187
                                            0.0259 -0.0381 -0.9502  0.0974 -0.0504
                                           -0.0000 -0.0000 -0.0000 -0.0329  0.0032
                                           -0.0000 -0.0000 -0.0000 -0.0000 -0.0485
                                           -0.0092 -0.0332  0.0001
   132. (0.00171) RY*( 5) H   4           s( 13.81%)p 6.21( 85.72%)d 0.03(  0.47%)
                                            0.0310 -0.1548  0.3292 -0.0695 -0.2081
                                            0.1283  0.0544  0.0661  0.8777  0.1404
                                            0.0000  0.0000  0.0000  0.0367 -0.0246
                                            0.0000  0.0000  0.0000  0.0000  0.0256
                                            0.0390  0.0173  0.0155
   133. (0.00039) RY*( 6) H   4           s(  1.76%)p51.09( 89.95%)d 4.71(  8.29%)
                                            0.0002 -0.0334  0.1277  0.0139 -0.0386
                                            0.8942 -0.2355  0.0363 -0.1798  0.0969
                                            0.0000  0.0000  0.0000 -0.2429 -0.0512
                                            0.0000  0.0000  0.0000  0.0000 -0.1048
                                           -0.0772 -0.0655  0.0052
   134. (0.00036) RY*( 7) H   4           s(  0.00%)p 1.00( 64.58%)d 0.55( 35.42%)
                                            0.0000  0.0000  0.0000  0.0000  0.0000
                                            0.0000  0.0000  0.0000  0.0000  0.0000
                                           -0.0833  0.7545 -0.2636  0.0000  0.0000
                                           -0.0410 -0.0631 -0.5784 -0.1183  0.0000
                                            0.0000  0.0000  0.0000
   135. (0.00025) RY*( 8) H   4           s(  0.74%)p 5.04(  3.72%)d99.99( 95.55%)
                                           -0.0007  0.0100  0.0830  0.0193  0.0545
                                            0.1645  0.0482 -0.0033 -0.0630 -0.0286
                                            0.0000  0.0000  0.0000  0.5337  0.0988
                                            0.0000  0.0000  0.0000  0.0000  0.5744
                                           -0.0879 -0.5259  0.2159
   136. (0.00025) RY*( 9) H   4           s(  0.00%)p 1.00(  0.06%)d99.99( 99.94%)
                                            0.0000  0.0000  0.0000  0.0000  0.0000
                                            0.0000  0.0000  0.0000  0.0000  0.0000
                                            0.0079  0.0146 -0.0188  0.0000  0.0000
                                            0.9263 -0.3717 -0.0100  0.0552  0.0000
                                            0.0000  0.0000  0.0000
   137. (0.00024) RY*(10) H   4           s(  0.00%)p 1.00( 38.78%)d 1.58( 61.22%)
                                            0.0000  0.0000  0.0000  0.0000  0.0000
                                            0.0000  0.0000  0.0000  0.0000  0.0000
                                            0.0375  0.6207  0.0344  0.0000  0.0000
                                            0.0274  0.0708  0.7787  0.0005  0.0000
                                            0.0000  0.0000  0.0000
   138. (0.00023) RY*(11) H   4           s(  4.66%)p 1.44(  6.70%)d19.00( 88.63%)
                                           -0.0013  0.0042  0.2054  0.0666  0.0862
                                            0.1783  0.0654  0.0039 -0.1291  0.0826
                                           -0.0000 -0.0000 -0.0000  0.6959  0.0031
                                           -0.0000 -0.0000 -0.0000 -0.0000 -0.1349
                                            0.0860  0.5496 -0.2728
   139. (0.00018) RY*(12) H   4           s( 15.89%)p 1.08( 17.15%)d 4.21( 66.96%)
                                           -0.0094  0.0190 -0.1852  0.3524  0.0051
                                           -0.0403  0.0982  0.0231  0.0759  0.3923
                                            0.0000  0.0000  0.0000  0.1908  0.1642
                                            0.0000  0.0000  0.0000  0.0000 -0.5324
                                           -0.3304 -0.4255 -0.1804
   140. (0.00012) RY*(13) H   4           s( 72.58%)p 0.24( 17.43%)d 0.14(  9.99%)
                                           -0.0021  0.0330  0.8471  0.0847 -0.0546
                                           -0.2368  0.0802  0.0918 -0.2936  0.1190
                                           -0.0000 -0.0000 -0.0000 -0.2009  0.2018
                                           -0.0000 -0.0000 -0.0000 -0.0000 -0.0213
                                           -0.0688 -0.1051 -0.0505
   141. (0.00008) RY*(14) H   4           s( 75.16%)p 0.02(  1.54%)d 0.31( 23.30%)
   142. (0.00007) RY*(15) H   4           s(  2.63%)p29.67( 77.92%)d 7.41( 19.45%)
   143. (0.00006) RY*(16) H   4           s(  0.00%)p 1.00(  9.60%)d 9.42( 90.40%)
   144. (0.00005) RY*(17) H   4           s(  3.41%)p 1.12(  3.83%)d27.17( 92.76%)
   145. (0.00003) RY*(18) H   4           s(  0.00%)p 1.00( 86.13%)d 0.16( 13.87%)
   146. (0.00003) RY*(19) H   4           s(  0.24%)p99.99( 97.08%)d11.09(  2.68%)
   147. (0.00002) RY*(20) H   4           s(  7.60%)p 0.08(  0.61%)d12.07( 91.78%)
   148. (0.00002) RY*(21) H   4           s(  0.00%)p 1.00(  1.60%)d61.66( 98.40%)
   149. (0.00002) RY*(22) H   4           s(  1.04%)p 0.64(  0.66%)d94.87( 98.30%)
   150. (0.02404) BD*( 1) O   1 - H   2  
                ( 28.24%)   0.5315* O   1 s( 22.49%)p 3.43( 77.05%)d 0.02(  0.45%)
                                                  f 0.00(  0.01%)
                                           -0.0003 -0.4741  0.0107  0.0024  0.0022
                                           -0.8763  0.0477  0.0103  0.0091  0.0101
                                            0.0040 -0.0022  0.0021 -0.0000 -0.0000
                                           -0.0000 -0.0000  0.0108 -0.0039  0.0023
                                           -0.0000 -0.0000 -0.0000 -0.0000 -0.0000
                                           -0.0000 -0.0567  0.0057 -0.0033  0.0331
                                           -0.0004 -0.0007 -0.0000 -0.0000  0.0091
                                           -0.0001  0.0005 -0.0002 -0.0000 -0.0000
                                           -0.0000 -0.0000 -0.0065 -0.0032 -0.0001
                                            0.0001
                ( 71.76%)  -0.8471* H   2 s( 99.81%)p 0.00(  0.19%)d 0.00(  0.00%)
                                           -0.9990 -0.0057 -0.0001  0.0003 -0.0253
                                            0.0344  0.0036  0.0077 -0.0001 -0.0007
                                           -0.0000 -0.0000 -0.0000 -0.0004 -0.0022
                                           -0.0000 -0.0000 -0.0000 -0.0000 -0.0022
                                           -0.0021  0.0021  0.0002
   151. (0.30263) BD*( 1)Br   3 - H   4  
                ( 20.44%)   0.4522*Br   3 s( 12.54%)p 6.95( 87.19%)d 0.02(  0.25%)
                                                  f 0.00(  0.02%)
                                            0.0000 -0.0000 -0.0003 -0.3541  0.0025
                                            0.0019 -0.0022  0.0000 -0.0001 -0.1902
                                            0.0032  0.0018 -0.0013  0.0000 -0.0005
                                           -0.9140  0.0153  0.0074 -0.0025 -0.0000
                                           -0.0000 -0.0000 -0.0000 -0.0000 -0.0000
                                            0.0000 -0.0174  0.0016  0.0003 -0.0000
                                           -0.0000 -0.0000 -0.0000 -0.0000 -0.0000
                                           -0.0000 -0.0000  0.0000  0.0391 -0.0034
                                           -0.0004  0.0000  0.0252 -0.0024 -0.0002
                                           -0.0000 -0.0000  0.0018  0.0000  0.0086
                                            0.0002 -0.0000 -0.0000 -0.0000 -0.0000
                                            0.0064  0.0002  0.0090  0.0006
                ( 79.56%)  -0.8919* H   4 s( 99.82%)p 0.00(  0.15%)d 0.00(  0.03%)
                                           -0.9990  0.0076  0.0087 -0.0024  0.0033
                                            0.0054  0.0022  0.0228  0.0293  0.0061
                                           -0.0000 -0.0000 -0.0000 -0.0028 -0.0058
                                           -0.0000 -0.0000 -0.0000 -0.0000  0.0061
                                            0.0121  0.0049  0.0078


 NHO Directionality and "Bond Bending" (deviations from line of nuclear centers)

         [Thresholds for printing:  angular deviation  >  1.0 degree]
                                    hybrid p-character > 25.0%
                                    orbital occupancy  >  0.10e

                                Line of Centers        Hybrid 1              Hybrid 2
                                ---------------  -------------------   ------------------
                NBO               Theta   Phi    Theta   Phi    Dev    Theta   Phi    Dev
 ========================================================================================
    18. LP (   1) O   1             --     --     90.0  136.2   --       --     --    --
    19. LP (   2) O   1             --     --      0.0    0.0   --       --     --    --
    20. LP (   3) O   1             --     --     90.0  258.8   --       --     --    --
    22. LP (   2)Br   3             --     --      0.0    0.0   --       --     --    --
    23. LP (   3)Br   3             --     --     90.0  348.2   --       --     --    --


 Natural Bond Orbitals (Summary):

           NBO                  Occupancy  
 -----------------------------------------------
 Molecular unit  1  (HO)
     1. BD (   1) O   1 - H   2          1.96179
     3. CR (   1) O   1                  1.99972
    18. LP (   1) O   1                  1.96785
    19. LP (   2) O   1                  1.95301
    20. LP (   3) O   1                  1.68306
    24. RY*(   1) O   1                  0.02592
    25. RY*(   2) O   1                  0.01971
    26. RY*(   3) O   1                  0.01125
    27. RY*(   4) O   1                  0.00664
    28. RY*(   5) O   1                  0.00638
    29. RY*(   6) O   1                  0.00612
    30. RY*(   7) O   1                  0.00603
    31. RY*(   8) O   1                  0.00578
    32. RY*(   9) O   1                  0.00256
    33. RY*(  10) O   1                  0.00063
    34. RY*(  11) O   1                  0.00062
    35. RY*(  12) O   1                  0.00059
    36. RY*(  13) O   1                  0.00054
    37. RY*(  14) O   1                  0.00048
    38. RY*(  15) O   1                  0.00048
    39. RY*(  16) O   1                  0.00048
    40. RY*(  17) O   1                  0.00046
    41. RY*(  18) O   1                  0.00046
    42. RY*(  19) O   1                  0.00046
    43. RY*(  20) O   1                  0.00041
    44. RY*(  21) O   1                  0.00042
    45. RY*(  22) O   1                  0.00042
    46. RY*(  23) O   1                  0.00036
    47. RY*(  24) O   1                  0.00031
    48. RY*(  25) O   1                  0.00022
    49. RY*(  26) O   1                  0.00015
    50. RY*(  27) O   1                  0.00008
    51. RY*(  28) O   1                  0.00008
    52. RY*(  29) O   1                  0.00009
    53. RY*(  30) O   1                  0.00008
    54. RY*(  31) O   1                  0.00009
    55. RY*(  32) O   1                  0.00008
    56. RY*(  33) O   1                  0.00008
    57. RY*(  34) O   1                  0.00007
    58. RY*(  35) O   1                  0.00007
    59. RY*(  36) O   1                  0.00005
    60. RY*(  37) O   1                  0.00006
    61. RY*(  38) O   1                  0.00003
    62. RY*(  39) O   1                  0.00002
    63. RY*(  40) O   1                 -0.00006
    64. RY*(  41) O   1                 -0.00042
    65. RY*(   1) H   2                  0.00605
    66. RY*(   2) H   2                  0.00378
    67. RY*(   3) H   2                  0.00304
    68. RY*(   4) H   2                  0.00183
    69. RY*(   5) H   2                  0.00027
    70. RY*(   6) H   2                  0.00021
    71. RY*(   7) H   2                  0.00019
    72. RY*(   8) H   2                  0.00015
    73. RY*(   9) H   2                  0.00013
    74. RY*(  10) H   2                  0.00011
    75. RY*(  11) H   2                  0.00012
    76. RY*(  12) H   2                  0.00011
    77. RY*(  13) H   2                  0.00008
    78. RY*(  14) H   2                  0.00006
    79. RY*(  15) H   2                  0.00005
    80. RY*(  16) H   2                  0.00004
    81. RY*(  17) H   2                  0.00005
    82. RY*(  18) H   2                  0.00004
    83. RY*(  19) H   2                  0.00002
    84. RY*(  20) H   2                  0.00001
    85. RY*(  21) H   2                  0.00002
    86. RY*(  22) H   2                  0.00002
   150. BD*(   1) O   1 - H   2          0.02404
       -------------------------------
              Total Lewis    9.56543  ( 98.5709%)
        Valence non-Lewis    0.02404  (  0.2478%)
        Rydberg non-Lewis    0.11464  (  1.1813%)
       -------------------------------
            Total unit  1    9.70411  (100.0000%)
           Charge unit  1   -0.70411

 Molecular unit  2  (HBr)
     2. BD (   1)Br   3 - H   4          1.95488
     4. CR (   1)Br   3                  2.00000
     5. CR (   2)Br   3                  2.00000
     6. CR (   3)Br   3                  1.99944
     7. CR (   4)Br   3                  2.00000
     8. CR (   5)Br   3                  1.99995
     9. CR (   6)Br   3                  2.00000
    10. CR (   7)Br   3                  1.99982
    11. CR (   8)Br   3                  2.00000
    12. CR (   9)Br   3                  1.99996
    13. CR (  10)Br   3                  1.99764
    14. CR (  11)Br   3                  1.99769
    15. CR (  12)Br   3                  1.99766
    16. CR (  13)Br   3                  1.99758
    17. CR (  14)Br   3                  1.99765
    21. LP (   1)Br   3                  1.97569
    22. LP (   2)Br   3                  1.95519
    23. LP (   3)Br   3                  1.95495
    87. RY*(   1)Br   3                  0.01807
    88. RY*(   2)Br   3                  0.01807
    89. RY*(   3)Br   3                  0.01786
    90. RY*(   4)Br   3                  0.01785
    91. RY*(   5)Br   3                  0.01756
    92. RY*(   6)Br   3                  0.01009
    93. RY*(   7)Br   3                  0.01005
    94. RY*(   8)Br   3                  0.00762
    95. RY*(   9)Br   3                  0.00172
    96. RY*(  10)Br   3                  0.00173
    97. RY*(  11)Br   3                  0.00173
    98. RY*(  12)Br   3                  0.00170
    99. RY*(  13)Br   3                  0.00170
   100. RY*(  14)Br   3                  0.00168
   101. RY*(  15)Br   3                  0.00168
   102. RY*(  16)Br   3                  0.00166
   103. RY*(  17)Br   3                  0.00166
   104. RY*(  18)Br   3                  0.00160
   105. RY*(  19)Br   3                  0.00125
   106. RY*(  20)Br   3                  0.00123
   107. RY*(  21)Br   3                  0.00107
   108. RY*(  22)Br   3                  0.00074
   109. RY*(  23)Br   3                  0.00075
   110. RY*(  24)Br   3                  0.00066
   111. RY*(  25)Br   3                  0.00034
   112. RY*(  26)Br   3                  0.00025
   113. RY*(  27)Br   3                  0.00022
   114. RY*(  28)Br   3                  0.00022
   115. RY*(  29)Br   3                  0.00022
   116. RY*(  30)Br   3                  0.00022
   117. RY*(  31)Br   3                  0.00023
   118. RY*(  32)Br   3                  0.00022
   119. RY*(  33)Br   3                  0.00017
   120. RY*(  34)Br   3                  0.00017
   121. RY*(  35)Br   3                  0.00011
   122. RY*(  36)Br   3                  0.00010
   123. RY*(  37)Br   3                  0.00011
   124. RY*(  38)Br   3                  0.00010
   125. RY*(  39)Br   3                  0.00004
   126. RY*(  40)Br   3                  0.00003
   127. RY*(  41)Br   3                  0.00001
   128. RY*(   1) H   4                  0.00577
   129. RY*(   2) H   4                  0.00459
   130. RY*(   3) H   4                  0.00444
   131. RY*(   4) H   4                  0.00376
   132. RY*(   5) H   4                  0.00171
   133. RY*(   6) H   4                  0.00039
   134. RY*(   7) H   4                  0.00036
   135. RY*(   8) H   4                  0.00025
   136. RY*(   9) H   4                  0.00025
   137. RY*(  10) H   4                  0.00024
   138. RY*(  11) H   4                  0.00023
   139. RY*(  12) H   4                  0.00018
   140. RY*(  13) H   4                  0.00012
   141. RY*(  14) H   4                  0.00008
   142. RY*(  15) H   4                  0.00007
   143. RY*(  16) H   4                  0.00006
   144. RY*(  17) H   4                  0.00005
   145. RY*(  18) H   4                  0.00003
   146. RY*(  19) H   4                  0.00003
   147. RY*(  20) H   4                  0.00002
   148. RY*(  21) H   4                  0.00002
   149. RY*(  22) H   4                  0.00002
   151. BD*(   1)Br   3 - H   4          0.30263
       -------------------------------
              Total Lewis   35.82808  ( 98.7111%)
        Valence non-Lewis    0.30263  (  0.8338%)
        Rydberg non-Lewis    0.16519  (  0.4551%)
       -------------------------------
            Total unit  2   36.29589  (100.0000%)
           Charge unit  2   -0.29589
 Leave Link  607 at Tue Oct 12 14:18:49 2021, MaxMem=  1048576000 cpu:         9.3
 (Enter /usr/local/gaussian/g09/l9999.exe)
 1\1\GINC-KRYPTON\SP\RMP2-FC\Aug-CC-pVTZ\Br1H2O1(1-)\CGAVINH\12-Oct-202
 1\0\\#p pop=NBO SP NoSymm mp2/aug-cc-pvtz density=current\\title\\-1,1
 \O\X,1,10.\H,1,0.96078759,2,90.\Br,1,3.25661955,2,90.,3,101.73887131,0
 \H,1,1.5,2,90.,3,101.73887131,0\\Version=ES64L-G09RevE.01\HF=-2648.529
 7655\MP2=-2649.0727106\RMSD=3.826e-09\Dipole=0.1375549,-1.5919785,0.\Q
 uadrupole=7.6543782,-14.2201491,6.5657708,-4.146441,0.,0.\PG=CS [SG(Br
 1H2O1)]\\@


       THE DEATH-KNELL OF THE ATOM

 SO THE ATOMS IN TURN, WE NOW CLEARLY DISCERN,
 FLY TO BITS WITH THE UTMOST FACILITY;
 THEY WEND ON THEIR WAY, AND, IN SPLITTING, DISPLAY
 AN ABSOLUTE LACK OF STABILITY.

          SIR WM. RAMSAY, 1905
 Job cpu time:       0 days  0 hours  1 minutes 53.8 seconds.
 File lengths (MBytes):  RWF=     10 Int=      0 D2E=      0 Chk=      3 Scr=      1
 Normal termination of Gaussian 09 at Tue Oct 12 14:18:49 2021.
