 Entering Gaussian System, Link 0=g09
 Input=brhod_rOH_130_sp.gjf
 Output=brhod_rOH_130_sp.log
 Initial command:
 /usr/local/gaussian/g09/l1.exe "/scratch/Gau-15329.inp" -scrdir="/scratch/"
 Entering Link 1 = /usr/local/gaussian/g09/l1.exe PID=     15330.
  
 Copyright (c) 1988,1990,1992,1993,1995,1998,2003,2009,2015,
            Gaussian, Inc.  All Rights Reserved.
  
 This is part of the Gaussian(R) 09 program.  It is based on
 the Gaussian(R) 03 system (copyright 2003, Gaussian, Inc.),
 the Gaussian(R) 98 system (copyright 1998, Gaussian, Inc.),
 the Gaussian(R) 94 system (copyright 1995, Gaussian, Inc.),
 the Gaussian 92(TM) system (copyright 1992, Gaussian, Inc.),
 the Gaussian 90(TM) system (copyright 1990, Gaussian, Inc.),
 the Gaussian 88(TM) system (copyright 1988, Gaussian, Inc.),
 the Gaussian 86(TM) system (copyright 1986, Carnegie Mellon
 University), and the Gaussian 82(TM) system (copyright 1983,
 Carnegie Mellon University). Gaussian is a federally registered
 trademark of Gaussian, Inc.
  
 This software contains proprietary and confidential information,
 including trade secrets, belonging to Gaussian, Inc.
  
 This software is provided under written license and may be
 used, copied, transmitted, or stored only in accord with that
 written license.
  
 The following legend is applicable only to US Government
 contracts under FAR:
  
                    RESTRICTED RIGHTS LEGEND
  
 Use, reproduction and disclosure by the US Government is
 subject to restrictions as set forth in subparagraphs (a)
 and (c) of the Commercial Computer Software - Restricted
 Rights clause in FAR 52.227-19.
  
 Gaussian, Inc.
 340 Quinnipiac St., Bldg. 40, Wallingford CT 06492
  
  
 ---------------------------------------------------------------
 Warning -- This program may not be used in any manner that
 competes with the business of Gaussian, Inc. or will provide
 assistance to any competitor of Gaussian, Inc.  The licensee
 of this program is prohibited from giving any competitor of
 Gaussian, Inc. access to this program.  By using this program,
 the user acknowledges that Gaussian, Inc. is engaged in the
 business of creating and licensing software in the field of
 computational chemistry and represents and warrants to the
 licensee that it is not a competitor of Gaussian, Inc. and that
 it will not use this program in any manner prohibited above.
 ---------------------------------------------------------------
  

 Cite this work as:
 Gaussian 09, Revision E.01,
 M. J. Frisch, G. W. Trucks, H. B. Schlegel, G. E. Scuseria, 
 M. A. Robb, J. R. Cheeseman, G. Scalmani, V. Barone, B. Mennucci, 
 G. A. Petersson, H. Nakatsuji, M. Caricato, X. Li, H. P. Hratchian, 
 A. F. Izmaylov, J. Bloino, G. Zheng, J. L. Sonnenberg, M. Hada, 
 M. Ehara, K. Toyota, R. Fukuda, J. Hasegawa, M. Ishida, T. Nakajima, 
 Y. Honda, O. Kitao, H. Nakai, T. Vreven, J. A. Montgomery, Jr., 
 J. E. Peralta, F. Ogliaro, M. Bearpark, J. J. Heyd, E. Brothers, 
 K. N. Kudin, V. N. Staroverov, T. Keith, R. Kobayashi, J. Normand, 
 K. Raghavachari, A. Rendell, J. C. Burant, S. S. Iyengar, J. Tomasi, 
 M. Cossi, N. Rega, J. M. Millam, M. Klene, J. E. Knox, J. B. Cross, 
 V. Bakken, C. Adamo, J. Jaramillo, R. Gomperts, R. E. Stratmann, 
 O. Yazyev, A. J. Austin, R. Cammi, C. Pomelli, J. W. Ochterski, 
 R. L. Martin, K. Morokuma, V. G. Zakrzewski, G. A. Voth, 
 P. Salvador, J. J. Dannenberg, S. Dapprich, A. D. Daniels, 
 O. Farkas, J. B. Foresman, J. V. Ortiz, J. Cioslowski, 
 and D. J. Fox, Gaussian, Inc., Wallingford CT, 2013.
 
 ******************************************
 Gaussian 09:  ES64L-G09RevE.01 30-Nov-2015
                12-Oct-2021 
 ******************************************
 %nproc=12
 Will use up to   12 processors via shared memory.
 %mem=8000MB
 %chk=/home/netid.washington.edu/cgavinh/mccoy_hocl/rOH_s_oop_0/brhod/brhod_rOH_1
 30_sp.chk
 ----------------------------------------------------
 #p pop=NBO SP NoSymm mp2/aug-cc-pvtz density=current
 ----------------------------------------------------
 1/30=1,38=1/1;
 2/12=2,15=1,17=6,18=5,40=1/2;
 3/5=16,6=1,7=10,11=9,16=1,25=1,30=1,71=1/1,2,3;
 4//1;
 5/5=2,38=5/2;
 8/6=4,10=1/1;
 9/15=1,16=-3/6;
 10/5=1,13=10,31=1/2;
 6/7=2,8=2,9=2,10=2,22=-1,40=1/1,7;
 99/5=1,9=1/99;
 Leave Link    1 at Tue Oct 12 14:17:52 2021, MaxMem=  1048576000 cpu:         0.2
 (Enter /usr/local/gaussian/g09/l101.exe)
 -----
 title
 -----
 Symbolic Z-matrix:
 Charge = -1 Multiplicity = 1
 O
 X                    1     10. 
 H(iso=2)             1    r1       2     90. 
 Br                   1    r2       2     90.      3    a1       0
 H                    1    r3       2    oop      3    a1       0
       Variables:
  r1                    0.96079                  
  r2                    3.25662                  
  r3                    1.3                      
  a1                  101.73887                  
  OOP                  90.                       
 
 NAtoms=      4 NQM=        4 NQMF=       0 NMMI=      0 NMMIF=      0
                NMic=       0 NMicF=      0.
                    Isotopes and Nuclear Properties:
 (Nuclear quadrupole moments (NQMom) in fm**2, nuclear magnetic moments (NMagM)
  in nuclear magnetons)

  Atom         1           2           3           4
 IAtWgt=          16           2          79           1
 AtmWgt=  15.9949146   2.0141018  78.9183361   1.0078250
 NucSpn=           0           2           3           1
 AtZEff=   0.0000000   0.0000000   0.0000000   0.0000000
 NQMom=    0.0000000   0.2860000  31.3000000   0.0000000
 NMagM=    0.0000000   0.8574380   2.1063990   2.7928460
 AtZNuc=   8.0000000   1.0000000  35.0000000   1.0000000
 Leave Link  101 at Tue Oct 12 14:17:52 2021, MaxMem=  1048576000 cpu:         0.4
 (Enter /usr/local/gaussian/g09/l202.exe)
                          Input orientation:                          
 ---------------------------------------------------------------------
 Center     Atomic      Atomic             Coordinates (Angstroms)
 Number     Number       Type             X           Y           Z
 ---------------------------------------------------------------------
      1          8           0        0.000000    0.000000    0.000000
      2          1           0        0.960788    0.000000    0.000000
      3         35           0       -0.662564   -3.188507    0.000000
      4          1           0       -0.264487   -1.272811    0.000000
 ---------------------------------------------------------------------
                    Distance matrix (angstroms):
                    1          2          3          4
     1  O    0.000000
     2  H    0.960788   0.000000
     3  Br   3.256620   3.577967   0.000000
     4  H    1.300000   1.766733   1.956620   0.000000
 Symmetry turned off by external request.
 Stoichiometry    BrH2O(1-)
 Framework group  CS[SG(BrH2O)]
 Deg. of freedom     5
 Full point group                 CS      NOp   2
 Rotational constants (GHZ):    323.1951949      3.1652410      3.1345426
 Leave Link  202 at Tue Oct 12 14:17:52 2021, MaxMem=  1048576000 cpu:         0.0
 (Enter /usr/local/gaussian/g09/l301.exe)
 Standard basis: Aug-CC-pVTZ (5D, 7F)
 Ernie: Thresh=  0.10000D-02 Tol=  0.10000D-05 Strict=F.
 Ernie:  35 primitive shells out of 175 were deleted.
   151 basis functions,   343 primitive gaussians,   174 cartesian basis functions
    23 alpha electrons       23 beta electrons
       nuclear repulsion energy        68.1025538403 Hartrees.
 IExCor=    0 DFT=F Ex=HF Corr=None ExCW=0 ScaHFX=  1.000000
 ScaDFX=  1.000000  1.000000  1.000000  1.000000 ScalE2=  1.000000  1.000000
 IRadAn=      0 IRanWt=     -1 IRanGd=            0 ICorTp=0 IEmpDi=  4
 NAtoms=    4 NActive=    4 NUniq=    4 SFac= 1.00D+00 NAtFMM=   60 NAOKFM=F Big=F
 Integral buffers will be    131072 words long.
 Raffenetti 1 integral format.
 Two-electron integral symmetry is turned off.
 Leave Link  301 at Tue Oct 12 14:17:52 2021, MaxMem=  1048576000 cpu:         0.3
 (Enter /usr/local/gaussian/g09/l302.exe)
 NPDir=0 NMtPBC=     1 NCelOv=     1 NCel=       1 NClECP=     1 NCelD=      1
         NCelK=      1 NCelE2=     1 NClLst=     1 CellRange=     0.0.
 One-electron integrals computed using PRISM.
 NBasis=   151 RedAO= T EigKep=  3.45D-04  NBF=   151
 NBsUse=   151 1.00D-06 EigRej= -1.00D+00 NBFU=   151
 Leave Link  302 at Tue Oct 12 14:17:52 2021, MaxMem=  1048576000 cpu:         1.6
 (Enter /usr/local/gaussian/g09/l303.exe)
 DipDrv:  MaxL=1.
 Leave Link  303 at Tue Oct 12 14:17:52 2021, MaxMem=  1048576000 cpu:         0.2
 (Enter /usr/local/gaussian/g09/l401.exe)
 ExpMin= 2.53D-02 ExpMax= 1.06D+07 ExpMxC= 1.21D+04 IAcc=3 IRadAn=         5 AccDes= 0.00D+00
 Harris functional with IExCor=  205 and IRadAn=       5 diagonalized for initial guess.
 HarFok:  IExCor=  205 AccDes= 0.00D+00 IRadAn=         5 IDoV= 1 UseB2=F ITyADJ=14
 ICtDFT=  3500011 ScaDFX=  1.000000  1.000000  1.000000  1.000000
 FoFCou: FMM=F IPFlag=           0 FMFlag=      100000 FMFlg1=           0
         NFxFlg=           0 DoJE=T BraDBF=F KetDBF=T FulRan=T
         wScrn=  0.000000 ICntrl=     500 IOpCl=  0 I1Cent=   200000004 NGrid=           0
         NMat0=    1 NMatS0=      1 NMatT0=    0 NMatD0=    1 NMtDS0=    0 NMtDT0=    0
 Symmetry not used in FoFCou.
 Harris En= -2647.97606613881    
 JPrj=0 DoOrth=F DoCkMO=F.
 Leave Link  401 at Tue Oct 12 14:17:52 2021, MaxMem=  1048576000 cpu:         2.7
 (Enter /usr/local/gaussian/g09/l502.exe)
 Closed shell SCF:
 Using DIIS extrapolation, IDIIS=  1040.
 Two-electron integral symmetry not used.
 Keep R1 ints in memory in canonical form, NReq=69268966.
 IVT=      112518 IEndB=      112518 NGot=  1048576000 MDV=   982608457
 LenX=   982608457 LenY=   982577740
 Requested convergence on RMS density matrix=1.00D-08 within 128 cycles.
 Requested convergence on MAX density matrix=1.00D-06.
 Requested convergence on             energy=1.00D-06.
 No special actions if energy rises.
 FoFCou: FMM=F IPFlag=           0 FMFlag=           0 FMFlg1=           0
         NFxFlg=           0 DoJE=F BraDBF=F KetDBF=F FulRan=T
         wScrn=  0.000000 ICntrl=     600 IOpCl=  0 I1Cent=           0 NGrid=           0
         NMat0=    1 NMatS0=  11476 NMatT0=    0 NMatD0=    1 NMtDS0=    0 NMtDT0=    0
 Symmetry not used in FoFCou.

 Cycle   1  Pass 1  IDiag  1:
 E= -2648.39191532526    
 DIIS: error= 6.77D-02 at cycle   1 NSaved=   1.
 NSaved= 1 IEnMin= 1 EnMin= -2648.39191532526     IErMin= 1 ErrMin= 6.77D-02
 ErrMax= 6.77D-02  0.00D+00 EMaxC= 1.00D-01 BMatC= 5.65D-01 BMatP= 5.65D-01
 IDIUse=3 WtCom= 3.23D-01 WtEn= 6.77D-01
 Coeff-Com:  0.100D+01
 Coeff-En:   0.100D+01
 Coeff:      0.100D+01
 Gap=     0.528 Goal=   None    Shift=    0.000
 GapD=    0.528 DampG=2.000 DampE=0.500 DampFc=1.0000 IDamp=-1.
 RMSDP=3.36D-03 MaxDP=1.04D-01              OVMax= 1.35D-01

 Cycle   2  Pass 1  IDiag  1:
 E= -2648.50350556481     Delta-E=       -0.111590239556 Rises=F Damp=F
 DIIS: error= 2.46D-02 at cycle   2 NSaved=   2.
 NSaved= 2 IEnMin= 2 EnMin= -2648.50350556481     IErMin= 2 ErrMin= 2.46D-02
 ErrMax= 2.46D-02  0.00D+00 EMaxC= 1.00D-01 BMatC= 8.58D-02 BMatP= 5.65D-01
 IDIUse=3 WtCom= 7.54D-01 WtEn= 2.46D-01
 Coeff-Com:  0.231D+00 0.769D+00
 Coeff-En:   0.357D-01 0.964D+00
 Coeff:      0.183D+00 0.817D+00
 Gap=     0.356 Goal=   None    Shift=    0.000
 RMSDP=1.40D-03 MaxDP=4.52D-02 DE=-1.12D-01 OVMax= 9.23D-02

 Cycle   3  Pass 1  IDiag  1:
 E= -2648.54579163359     Delta-E=       -0.042286068780 Rises=F Damp=F
 DIIS: error= 1.21D-02 at cycle   3 NSaved=   3.
 NSaved= 3 IEnMin= 3 EnMin= -2648.54579163359     IErMin= 3 ErrMin= 1.21D-02
 ErrMax= 1.21D-02  0.00D+00 EMaxC= 1.00D-01 BMatC= 1.89D-02 BMatP= 8.58D-02
 IDIUse=3 WtCom= 8.79D-01 WtEn= 1.21D-01
 Coeff-Com:  0.108D-01 0.322D+00 0.667D+00
 Coeff-En:   0.000D+00 0.890D-01 0.911D+00
 Coeff:      0.947D-02 0.294D+00 0.696D+00
 Gap=     0.331 Goal=   None    Shift=    0.000
 RMSDP=4.30D-04 MaxDP=1.19D-02 DE=-4.23D-02 OVMax= 2.90D-02

 Cycle   4  Pass 1  IDiag  1:
 E= -2648.55784079958     Delta-E=       -0.012049165985 Rises=F Damp=F
 DIIS: error= 1.01D-03 at cycle   4 NSaved=   4.
 NSaved= 4 IEnMin= 4 EnMin= -2648.55784079958     IErMin= 4 ErrMin= 1.01D-03
 ErrMax= 1.01D-03  0.00D+00 EMaxC= 1.00D-01 BMatC= 1.30D-04 BMatP= 1.89D-02
 IDIUse=3 WtCom= 9.90D-01 WtEn= 1.01D-02
 Coeff-Com: -0.424D-02-0.229D-01 0.382D-01 0.989D+00
 Coeff-En:   0.000D+00 0.000D+00 0.000D+00 0.100D+01
 Coeff:     -0.419D-02-0.227D-01 0.378D-01 0.989D+00
 Gap=     0.330 Goal=   None    Shift=    0.000
 RMSDP=5.04D-05 MaxDP=1.25D-03 DE=-1.20D-02 OVMax= 3.65D-03

 Cycle   5  Pass 1  IDiag  1:
 E= -2648.55795331061     Delta-E=       -0.000112511028 Rises=F Damp=F
 DIIS: error= 1.17D-04 at cycle   5 NSaved=   5.
 NSaved= 5 IEnMin= 5 EnMin= -2648.55795331061     IErMin= 5 ErrMin= 1.17D-04
 ErrMax= 1.17D-04  0.00D+00 EMaxC= 1.00D-01 BMatC= 2.45D-06 BMatP= 1.30D-04
 IDIUse=3 WtCom= 9.99D-01 WtEn= 1.17D-03
 Coeff-Com:  0.115D-02-0.347D-02-0.302D-01-0.267D+00 0.130D+01
 Coeff-En:   0.000D+00 0.000D+00 0.000D+00 0.000D+00 0.100D+01
 Coeff:      0.115D-02-0.347D-02-0.301D-01-0.267D+00 0.130D+01
 Gap=     0.329 Goal=   None    Shift=    0.000
 RMSDP=2.32D-05 MaxDP=6.92D-04 DE=-1.13D-04 OVMax= 1.26D-03

 Cycle   6  Pass 1  IDiag  1:
 E= -2648.55796120398     Delta-E=       -0.000007893373 Rises=F Damp=F
 DIIS: error= 4.53D-05 at cycle   6 NSaved=   6.
 NSaved= 6 IEnMin= 6 EnMin= -2648.55796120398     IErMin= 6 ErrMin= 4.53D-05
 ErrMax= 4.53D-05  0.00D+00 EMaxC= 1.00D-01 BMatC= 2.39D-07 BMatP= 2.45D-06
 IDIUse=1 WtCom= 1.00D+00 WtEn= 0.00D+00
 Coeff-Com:  0.142D-03 0.272D-02 0.109D-03-0.704D-01-0.291D-01 0.110D+01
 Coeff:      0.142D-03 0.272D-02 0.109D-03-0.704D-01-0.291D-01 0.110D+01
 Gap=     0.329 Goal=   None    Shift=    0.000
 RMSDP=5.68D-06 MaxDP=1.51D-04 DE=-7.89D-06 OVMax= 4.16D-04

 Cycle   7  Pass 1  IDiag  1:
 E= -2648.55796185487     Delta-E=       -0.000000650888 Rises=F Damp=F
 DIIS: error= 1.30D-05 at cycle   7 NSaved=   7.
 NSaved= 7 IEnMin= 7 EnMin= -2648.55796185487     IErMin= 7 ErrMin= 1.30D-05
 ErrMax= 1.30D-05  0.00D+00 EMaxC= 1.00D-01 BMatC= 2.94D-08 BMatP= 2.39D-07
 IDIUse=1 WtCom= 1.00D+00 WtEn= 0.00D+00
 Coeff-Com: -0.147D-03-0.891D-04 0.340D-02 0.444D-01-0.184D+00 0.207D-01
 Coeff-Com:  0.112D+01
 Coeff:     -0.147D-03-0.891D-04 0.340D-02 0.444D-01-0.184D+00 0.207D-01
 Coeff:      0.112D+01
 Gap=     0.329 Goal=   None    Shift=    0.000
 RMSDP=1.92D-06 MaxDP=4.38D-05 DE=-6.51D-07 OVMax= 1.39D-04

 Cycle   8  Pass 1  IDiag  1:
 E= -2648.55796192877     Delta-E=       -0.000000073903 Rises=F Damp=F
 DIIS: error= 4.06D-06 at cycle   8 NSaved=   8.
 NSaved= 8 IEnMin= 8 EnMin= -2648.55796192877     IErMin= 8 ErrMin= 4.06D-06
 ErrMax= 4.06D-06  0.00D+00 EMaxC= 1.00D-01 BMatC= 1.50D-09 BMatP= 2.94D-08
 IDIUse=1 WtCom= 1.00D+00 WtEn= 0.00D+00
 Coeff-Com:  0.156D-04-0.149D-03-0.603D-03-0.392D-02 0.402D-01-0.913D-01
 Coeff-Com: -0.189D+00 0.125D+01
 Coeff:      0.156D-04-0.149D-03-0.603D-03-0.392D-02 0.402D-01-0.913D-01
 Coeff:     -0.189D+00 0.125D+01
 Gap=     0.329 Goal=   None    Shift=    0.000
 RMSDP=4.44D-07 MaxDP=1.15D-05 DE=-7.39D-08 OVMax= 3.66D-05

 Cycle   9  Pass 1  IDiag  1:
 E= -2648.55796193362     Delta-E=       -0.000000004851 Rises=F Damp=F
 DIIS: error= 9.23D-07 at cycle   9 NSaved=   9.
 NSaved= 9 IEnMin= 9 EnMin= -2648.55796193362     IErMin= 9 ErrMin= 9.23D-07
 ErrMax= 9.23D-07  0.00D+00 EMaxC= 1.00D-01 BMatC= 1.14D-10 BMatP= 1.50D-09
 IDIUse=1 WtCom= 1.00D+00 WtEn= 0.00D+00
 Coeff-Com:  0.638D-05 0.116D-04-0.113D-03-0.202D-02 0.554D-02 0.107D-01
 Coeff-Com: -0.466D-01-0.148D+00 0.118D+01
 Coeff:      0.638D-05 0.116D-04-0.113D-03-0.202D-02 0.554D-02 0.107D-01
 Coeff:     -0.466D-01-0.148D+00 0.118D+01
 Gap=     0.329 Goal=   None    Shift=    0.000
 RMSDP=1.14D-07 MaxDP=2.81D-06 DE=-4.85D-09 OVMax= 1.03D-05

 Cycle  10  Pass 1  IDiag  1:
 E= -2648.55796193398     Delta-E=       -0.000000000357 Rises=F Damp=F
 DIIS: error= 2.57D-07 at cycle  10 NSaved=  10.
 NSaved=10 IEnMin=10 EnMin= -2648.55796193398     IErMin=10 ErrMin= 2.57D-07
 ErrMax= 2.57D-07  0.00D+00 EMaxC= 1.00D-01 BMatC= 1.04D-11 BMatP= 1.14D-10
 IDIUse=1 WtCom= 1.00D+00 WtEn= 0.00D+00
 Coeff-Com: -0.121D-05 0.180D-04 0.489D-04 0.150D-03-0.329D-02 0.101D-01
 Coeff-Com:  0.132D-01-0.123D+00-0.586D-02 0.111D+01
 Coeff:     -0.121D-05 0.180D-04 0.489D-04 0.150D-03-0.329D-02 0.101D-01
 Coeff:      0.132D-01-0.123D+00-0.586D-02 0.111D+01
 Gap=     0.329 Goal=   None    Shift=    0.000
 RMSDP=4.40D-08 MaxDP=1.26D-06 DE=-3.57D-10 OVMax= 3.18D-06

 Cycle  11  Pass 1  IDiag  1:
 E= -2648.55796193401     Delta-E=       -0.000000000029 Rises=F Damp=F
 DIIS: error= 8.40D-08 at cycle  11 NSaved=  11.
 NSaved=11 IEnMin=11 EnMin= -2648.55796193401     IErMin=11 ErrMin= 8.40D-08
 ErrMax= 8.40D-08  0.00D+00 EMaxC= 1.00D-01 BMatC= 7.14D-13 BMatP= 1.04D-11
 IDIUse=1 WtCom= 1.00D+00 WtEn= 0.00D+00
 Coeff-Com: -0.179D-06-0.382D-05-0.241D-05 0.114D-03 0.229D-03-0.241D-02
 Coeff-Com:  0.116D-02 0.299D-01-0.895D-01-0.134D+00 0.119D+01
 Coeff:     -0.179D-06-0.382D-05-0.241D-05 0.114D-03 0.229D-03-0.241D-02
 Coeff:      0.116D-02 0.299D-01-0.895D-01-0.134D+00 0.119D+01
 Gap=     0.329 Goal=   None    Shift=    0.000
 RMSDP=1.27D-08 MaxDP=3.84D-07 DE=-2.86D-11 OVMax= 9.19D-07

 Cycle  12  Pass 1  IDiag  1:
 E= -2648.55796193401     Delta-E=        0.000000000000 Rises=F Damp=F
 DIIS: error= 2.78D-08 at cycle  12 NSaved=  12.
 NSaved=12 IEnMin=11 EnMin= -2648.55796193401     IErMin=12 ErrMin= 2.78D-08
 ErrMax= 2.78D-08  0.00D+00 EMaxC= 1.00D-01 BMatC= 5.23D-14 BMatP= 7.14D-13
 IDIUse=1 WtCom= 1.00D+00 WtEn= 0.00D+00
 Coeff-Com:  0.995D-07-0.971D-06-0.255D-05-0.200D-04 0.200D-03-0.589D-03
 Coeff-Com: -0.839D-03 0.633D-02 0.619D-02-0.643D-01-0.143D+00 0.120D+01
 Coeff:      0.995D-07-0.971D-06-0.255D-05-0.200D-04 0.200D-03-0.589D-03
 Coeff:     -0.839D-03 0.633D-02 0.619D-02-0.643D-01-0.143D+00 0.120D+01
 Gap=     0.329 Goal=   None    Shift=    0.000
 RMSDP=3.26D-09 MaxDP=6.74D-08 DE= 4.55D-13 OVMax= 2.11D-07

 SCF Done:  E(RHF) =  -2648.55796193     A.U. after   12 cycles
            NFock= 12  Conv=0.33D-08     -V/T= 2.0001
 KE= 2.648241204431D+03 PE=-6.483450041932D+03 EE= 1.118548321727D+03
 Leave Link  502 at Tue Oct 12 14:17:54 2021, MaxMem=  1048576000 cpu:        12.7
 (Enter /usr/local/gaussian/g09/l801.exe)
 ExpMin= 2.53D-02 ExpMax= 1.06D+07 ExpMxC= 1.21D+04 IAcc=3 IRadAn=         5 AccDes= 0.00D+00
 HarFok:  IExCor=  205 AccDes= 0.00D+00 IRadAn=         5 IDoV=-2 UseB2=F ITyADJ=14
 ICtDFT= 12500011 ScaDFX=  1.000000  1.000000  1.000000  1.000000
 DSYEVD-2 returned Info=          93 IAlg= 4 N=    46 NDim=    46 NE2=    17771069 trying  DSYEV.
 Largest valence mixing into a core orbital is  1.31D-04
 Largest core mixing into a valence orbital is  3.60D-05
 Range of M.O.s used for correlation:    11   151
 NBasis=   151 NAE=    23 NBE=    23 NFC=    10 NFV=     0
 NROrb=    141 NOA=    13 NOB=    13 NVA=   128 NVB=   128

 **** Warning!!: The largest alpha MO coefficient is  0.15385782D+02

 Leave Link  801 at Tue Oct 12 14:17:54 2021, MaxMem=  1048576000 cpu:         0.7
 (Enter /usr/local/gaussian/g09/l906.exe)
 Frozen-core derivative calculation, NFC=  10 NFV=   0.
 FulOut=F Deriv=T AODrv=F NAtomX=     4
   MMem=         391  MDisk=          13 MDiskD=          13
  W3Min=      604302 MinDsk=     1007783 NBas6D=         174
 NBas2D=       15618    NTT=       15225    LW2=     9911920
    MDV=  1048225816 MDiskM=       30063 NBas2p=       15367
 Fully in-core method, ICMem=   275066562.
 IMap=   1   2   3   4   5   6   7   8   9  10  11  12  13  14  15  16  17  18  19  20
 IMap=  21  22  23
 JobTyp=1 Pass  1 fully in-core, NPsUse= 12.
 Compute canonical integrals.
 FoFCou: FMM=F IPFlag=           0 FMFlag=           0 FMFlg1=           0
         NFxFlg=           0 DoJE=F BraDBF=F KetDBF=F FulRan=T
         wScrn=  0.000000 ICntrl=     600 IOpCl=  1 I1Cent=           0 NGrid=           0
         NMat0=    1 NMatS0=  15618 NMatT0=    0 NMatD0=    1 NMtDS0=    0 NMtDT0=    0
 Symmetry not used in FoFCou.
 Spin components of T(2) and E(2):
     alpha-alpha T2 =       0.2237460464D-01 E2=     -0.7269943851D-01
     alpha-beta  T2 =       0.1180113160D+00 E2=     -0.3904311160D+00
     beta-beta   T2 =       0.2237460464D-01 E2=     -0.7269943851D-01
 The integrals were generated   1 times.
 ANorm=    0.1078313742D+01
 E2 =    -0.5358299930D+00 EUMP2 =    -0.26490937919270D+04
 Leave Link  906 at Tue Oct 12 14:18:00 2021, MaxMem=  1048576000 cpu:        71.9
 (Enter /usr/local/gaussian/g09/l1002.exe)
 Minotr:  Closed shell wavefunction.
          Computing MP2/KS-MP2 derivatives.
          Using Z-Vector for PSCF gradient.
          Skipping F1 and S1 gradient terms here.
          Frozen-core window.
          Direct CPHF calculation.
          Differentiating once with respect to electric field.
                with respect to dipole field.
          Electric field/nuclear overlap derivatives assumed to be zero.
          Requested convergence is 1.0D-10 RMS, and 1.0D-09 maximum.
          NewPWx=F KeepS1=T KeepF1=T KeepIn=T MapXYZ=F SortEE=F KeepMc=T.
          MDV=    1048575823 using IRadAn=       0.
 Keep R1 ints in memory in canonical form, NReq=69224442.
 FoFCou: FMM=F IPFlag=           0 FMFlag=           0 FMFlg1=           0
         NFxFlg=           0 DoJE=F BraDBF=F KetDBF=F FulRan=T
         wScrn=  0.000000 ICntrl=     600 IOpCl=  0 I1Cent=           0 NGrid=           0
         NMat0=    1 NMatS0=  11476 NMatT0=    0 NMatD0=    1 NMtDS0=    0 NMtDT0=    0
 Symmetry not used in FoFCou.
          Solving linear equations separately, MaxMat=       0.
          There are     1 degrees of freedom in the 1st order CPHF.  IDoFFX=0 NUNeed=     1.
 LinEq1:  Iter=  0 NonCon=     1 RMS=3.04D-03 Max=7.30D-02 NDo=     1
 AX will form     1 AO Fock derivatives at one time.
 LinEq1:  Iter=  1 NonCon=     1 RMS=5.25D-04 Max=6.83D-03 NDo=     1
 LinEq1:  Iter=  2 NonCon=     1 RMS=2.01D-04 Max=2.41D-03 NDo=     1
 LinEq1:  Iter=  3 NonCon=     1 RMS=6.99D-05 Max=1.32D-03 NDo=     1
 LinEq1:  Iter=  4 NonCon=     1 RMS=2.62D-05 Max=3.77D-04 NDo=     1
 LinEq1:  Iter=  5 NonCon=     1 RMS=8.91D-06 Max=1.23D-04 NDo=     1
 LinEq1:  Iter=  6 NonCon=     1 RMS=1.98D-06 Max=2.87D-05 NDo=     1
 LinEq1:  Iter=  7 NonCon=     1 RMS=4.52D-07 Max=6.38D-06 NDo=     1
 LinEq1:  Iter=  8 NonCon=     1 RMS=1.20D-07 Max=1.18D-06 NDo=     1
 LinEq1:  Iter=  9 NonCon=     1 RMS=1.82D-08 Max=2.21D-07 NDo=     1
 LinEq1:  Iter= 10 NonCon=     1 RMS=3.20D-09 Max=4.40D-08 NDo=     1
 LinEq1:  Iter= 11 NonCon=     1 RMS=7.98D-10 Max=1.12D-08 NDo=     1
 LinEq1:  Iter= 12 NonCon=     1 RMS=1.38D-10 Max=1.92D-09 NDo=     1
 LinEq1:  Iter= 13 NonCon=     0 RMS=3.04D-11 Max=3.66D-10 NDo=     1
 Linear equations converged to 1.000D-10 1.000D-09 after    13 iterations.
 End of Minotr F.D. properties file   721 does not exist.
 End of Minotr F.D. properties file   722 does not exist.
 End of Minotr F.D. properties file   788 does not exist.
 Leave Link 1002 at Tue Oct 12 14:18:02 2021, MaxMem=  1048576000 cpu:        12.0
 (Enter /usr/local/gaussian/g09/l601.exe)
 Copying SCF densities to generalized density rwf, IOpCl= 0 IROHF=0.

 **********************************************************************

            Population analysis using the MP2 density.

 **********************************************************************

 Alpha  occ. eigenvalues -- -489.76731 -64.90754 -58.26213 -58.26195 -58.26194
 Alpha  occ. eigenvalues --  -20.35385  -9.57998  -7.18815  -7.18700  -7.18696
 Alpha  occ. eigenvalues --   -2.93005  -2.92949  -2.92944  -2.92804  -2.92804
 Alpha  occ. eigenvalues --   -1.08478  -0.74189  -0.43753  -0.35296  -0.28170
 Alpha  occ. eigenvalues --   -0.18617  -0.18487  -0.18435
 Alpha virt. eigenvalues --    0.14419   0.17166   0.22995   0.23736   0.24175
 Alpha virt. eigenvalues --    0.28289   0.30978   0.31359   0.33041   0.35773
 Alpha virt. eigenvalues --    0.40790   0.41886   0.42260   0.46269   0.46339
 Alpha virt. eigenvalues --    0.47681   0.47939   0.53568   0.57630   0.60309
 Alpha virt. eigenvalues --    0.62352   0.62604   0.68483   0.72237   0.73460
 Alpha virt. eigenvalues --    0.74439   0.80619   0.88170   0.90598   0.92497
 Alpha virt. eigenvalues --    0.95398   0.96163   0.98038   0.99297   0.99441
 Alpha virt. eigenvalues --    1.00611   1.03435   1.04754   1.08860   1.10820
 Alpha virt. eigenvalues --    1.11298   1.12776   1.17078   1.17183   1.19500
 Alpha virt. eigenvalues --    1.20372   1.21174   1.23678   1.25872   1.27125
 Alpha virt. eigenvalues --    1.34527   1.39043   1.44935   1.47182   1.47469
 Alpha virt. eigenvalues --    1.52607   1.66245   1.67256   1.72295   1.72735
 Alpha virt. eigenvalues --    1.74473   1.80869   1.99669   2.04692   2.12980
 Alpha virt. eigenvalues --    2.32539   2.41675   2.42363   2.43936   2.47977
 Alpha virt. eigenvalues --    2.52685   2.53092   2.54062   2.54129   2.54700
 Alpha virt. eigenvalues --    2.55385   2.55594   2.56714   2.60880   2.64399
 Alpha virt. eigenvalues --    2.64640   2.64954   2.69098   2.71028   2.73546
 Alpha virt. eigenvalues --    2.73585   2.78344   2.98404   2.98731   3.06541
 Alpha virt. eigenvalues --    3.15118   3.15576   3.37322   3.88248   3.95428
 Alpha virt. eigenvalues --    4.16365   4.20074   4.29405   4.34969   4.41791
 Alpha virt. eigenvalues --    4.49843   4.54349   4.55098   4.62240   4.74177
 Alpha virt. eigenvalues --    4.74460   4.89906   4.99278   5.12582   5.25528
 Alpha virt. eigenvalues --    5.43516   5.57396   5.59667   6.29305   6.59583
 Alpha virt. eigenvalues --    6.91844   7.00058   7.07884   7.29617   7.44135
 Alpha virt. eigenvalues --    7.48235   7.55750   7.58883   7.64141   7.79865
 Alpha virt. eigenvalues --    8.04776   8.42562  14.46506
          Condensed to atoms (all electrons):
               1          2          3          4
     1  O    8.354808   0.184023  -0.089803   0.177937
     2  H    0.184023   0.625595  -0.003891   0.038081
     3  Br  -0.089803  -0.003891  35.821138   0.027130
     4  H    0.177937   0.038081   0.027130   0.531505
 Mulliken charges:
               1
     1  O   -0.626964
     2  H    0.156192
     3  Br  -0.754574
     4  H    0.225346
 Sum of Mulliken charges =  -1.00000
 Mulliken charges with hydrogens summed into heavy atoms:
               1
     1  O   -0.245426
     3  Br  -0.754574
 Electronic spatial extent (au):  <R**2>=           1430.2978
 Charge=             -1.0000 electrons
 Dipole moment (field-independent basis, Debye):
    X=              3.2844    Y=             10.1053    Z=              0.0000  Tot=             10.6256
 Quadrupole moment (field-independent basis, Debye-Ang):
   XX=            -30.4138   YY=            -66.3466   ZZ=            -31.5624
   XY=             -6.9066   XZ=              0.0000   YZ=             -0.0000
 Traceless Quadrupole moment (field-independent basis, Debye-Ang):
   XX=             12.3604   YY=            -23.5723   ZZ=             11.2119
   XY=             -6.9066   XZ=              0.0000   YZ=             -0.0000
 Octapole moment (field-independent basis, Debye-Ang**2):
  XXX=             45.8070  YYY=            332.6945  ZZZ=             -0.0000  XYY=             37.3182
  XXY=             77.7089  XXZ=             -0.0000  XZZ=             14.3411  YZZ=             72.9946
  YYZ=              0.0000  XYZ=              0.0000
 Hexadecapole moment (field-independent basis, Debye-Ang**3):
 XXXX=           -106.5548 YYYY=          -1781.9327 ZZZZ=            -48.1046 XXXY=           -146.2610
 XXXZ=              0.0000 YYYX=           -213.4016 YYYZ=             -0.0000 ZZZX=              0.0000
 ZZZY=             -0.0000 XXYY=           -271.4868 XXZZ=            -26.0209 YYZZ=           -247.2829
 XXYZ=             -0.0000 YYXZ=             -0.0000 ZZXY=            -47.7968
 N-N= 6.810255384031D+01 E-N=-6.481928631683D+03  KE= 2.648123530536D+03
 No NMR shielding tensors so no spin-rotation constants.
 Leave Link  601 at Tue Oct 12 14:18:03 2021, MaxMem=  1048576000 cpu:         2.1
 (Enter /usr/local/gaussian/g09/l607.exe)
 ******************************Gaussian NBO Version 3.1******************************
             N A T U R A L   A T O M I C   O R B I T A L   A N D
          N A T U R A L   B O N D   O R B I T A L   A N A L Y S I S
 ******************************Gaussian NBO Version 3.1******************************
       /RESON  / : Allow strongly delocalized NBO set

 Analyzing the MP2 density

 Job title: title                                                           

 Storage needed:     69217 in NPA,     91732 in NBO (1048575904 available)


 NATURAL POPULATIONS:  Natural atomic orbital occupancies 
                                                          
   NAO  Atom  No  lang   Type(AO)    Occupancy
 --------------------------------------------
     1    O    1  S      Cor( 1S)     1.99971
     2    O    1  S      Val( 2S)     1.79367
     3    O    1  S      Ryd( 3S)     0.00750
     4    O    1  S      Ryd( 4S)     0.00035
     5    O    1  S      Ryd( 5S)     0.00019
     6    O    1  px     Val( 2p)     1.51798
     7    O    1  px     Ryd( 3p)     0.01256
     8    O    1  px     Ryd( 4p)     0.00057
     9    O    1  px     Ryd( 5p)     0.00013
    10    O    1  py     Val( 2p)     1.69220
    11    O    1  py     Ryd( 3p)     0.01394
    12    O    1  py     Ryd( 4p)     0.00055
    13    O    1  py     Ryd( 5p)     0.00009
    14    O    1  pz     Val( 2p)     1.95168
    15    O    1  pz     Ryd( 3p)     0.02406
    16    O    1  pz     Ryd( 4p)     0.00058
    17    O    1  pz     Ryd( 5p)     0.00000
    18    O    1  dxy    Ryd( 3d)     0.00813
    19    O    1  dxy    Ryd( 4d)     0.00048
    20    O    1  dxy    Ryd( 5d)     0.00008
    21    O    1  dxz    Ryd( 3d)     0.00875
    22    O    1  dxz    Ryd( 4d)     0.00052
    23    O    1  dxz    Ryd( 5d)     0.00008
    24    O    1  dyz    Ryd( 3d)     0.00691
    25    O    1  dyz    Ryd( 4d)     0.00056
    26    O    1  dyz    Ryd( 5d)     0.00008
    27    O    1  dx2y2  Ryd( 3d)     0.01182
    28    O    1  dx2y2  Ryd( 4d)     0.00046
    29    O    1  dx2y2  Ryd( 5d)     0.00011
    30    O    1  dz2    Ryd( 3d)     0.00807
    31    O    1  dz2    Ryd( 4d)     0.00058
    32    O    1  dz2    Ryd( 5d)     0.00011
    33    O    1  f(0)   Ryd( 4f)     0.00061
    34    O    1  f(0)   Ryd( 5f)     0.00011
    35    O    1  f(C1)  Ryd( 4f)     0.00057
    36    O    1  f(C1)  Ryd( 5f)     0.00009
    37    O    1  f(S1)  Ryd( 4f)     0.00061
    38    O    1  f(S1)  Ryd( 5f)     0.00011
    39    O    1  f(C2)  Ryd( 4f)     0.00048
    40    O    1  f(C2)  Ryd( 5f)     0.00010
    41    O    1  f(S2)  Ryd( 4f)     0.00047
    42    O    1  f(S2)  Ryd( 5f)     0.00008
    43    O    1  f(C3)  Ryd( 4f)     0.00046
    44    O    1  f(C3)  Ryd( 5f)     0.00013
    45    O    1  f(S3)  Ryd( 4f)     0.00046
    46    O    1  f(S3)  Ryd( 5f)     0.00010

    47    H    2  S      Val( 1S)     0.55995
    48    H    2  S      Ryd( 2S)     0.00230
    49    H    2  S      Ryd( 3S)     0.00016
    50    H    2  S      Ryd( 4S)     0.00008
    51    H    2  px     Ryd( 2p)     0.00219
    52    H    2  px     Ryd( 3p)     0.00074
    53    H    2  px     Ryd( 4p)     0.00014
    54    H    2  py     Ryd( 2p)     0.00240
    55    H    2  py     Ryd( 3p)     0.00024
    56    H    2  py     Ryd( 4p)     0.00012
    57    H    2  pz     Ryd( 2p)     0.00501
    58    H    2  pz     Ryd( 3p)     0.00019
    59    H    2  pz     Ryd( 4p)     0.00006
    60    H    2  dxy    Ryd( 3d)     0.00007
    61    H    2  dxy    Ryd( 4d)     0.00005
    62    H    2  dxz    Ryd( 3d)     0.00008
    63    H    2  dxz    Ryd( 4d)     0.00006
    64    H    2  dyz    Ryd( 3d)     0.00012
    65    H    2  dyz    Ryd( 4d)     0.00005
    66    H    2  dx2y2  Ryd( 3d)     0.00011
    67    H    2  dx2y2  Ryd( 4d)     0.00006
    68    H    2  dz2    Ryd( 3d)     0.00012
    69    H    2  dz2    Ryd( 4d)     0.00007

    70   Br    3  S      Cor( 1S)     2.00000
    71   Br    3  S      Cor( 2S)     2.00000
    72   Br    3  S      Cor( 3S)     1.99968
    73   Br    3  S      Val( 4S)     1.95464
    74   Br    3  S      Ryd( 5S)     0.00169
    75   Br    3  S      Ryd( 6S)     0.00042
    76   Br    3  S      Ryd( 7S)     0.00009
    77   Br    3  px     Cor( 2p)     2.00000
    78   Br    3  px     Cor( 3p)     1.99998
    79   Br    3  px     Val( 4p)     1.94640
    80   Br    3  px     Ryd( 5p)     0.01083
    81   Br    3  px     Ryd( 6p)     0.00081
    82   Br    3  px     Ryd( 7p)     0.00005
    83   Br    3  py     Cor( 2p)     2.00000
    84   Br    3  py     Cor( 3p)     1.99987
    85   Br    3  py     Val( 4p)     1.77964
    86   Br    3  py     Ryd( 5p)     0.00894
    87   Br    3  py     Ryd( 6p)     0.00077
    88   Br    3  py     Ryd( 7p)     0.00017
    89   Br    3  pz     Cor( 2p)     2.00000
    90   Br    3  pz     Cor( 3p)     1.99998
    91   Br    3  pz     Val( 4p)     1.95435
    92   Br    3  pz     Ryd( 5p)     0.01089
    93   Br    3  pz     Ryd( 6p)     0.00081
    94   Br    3  pz     Ryd( 7p)     0.00003
    95   Br    3  dxy    Cor( 3d)     1.99765
    96   Br    3  dxy    Ryd( 4d)     0.01852
    97   Br    3  dxy    Ryd( 5d)     0.00135
    98   Br    3  dxy    Ryd( 6d)     0.00022
    99   Br    3  dxz    Cor( 3d)     1.99769
   100   Br    3  dxz    Ryd( 4d)     0.01840
   101   Br    3  dxz    Ryd( 5d)     0.00170
   102   Br    3  dxz    Ryd( 6d)     0.00021
   103   Br    3  dyz    Cor( 3d)     1.99766
   104   Br    3  dyz    Ryd( 4d)     0.01845
   105   Br    3  dyz    Ryd( 5d)     0.00136
   106   Br    3  dyz    Ryd( 6d)     0.00021
   107   Br    3  dx2y2  Cor( 3d)     1.99761
   108   Br    3  dx2y2  Ryd( 4d)     0.01877
   109   Br    3  dx2y2  Ryd( 5d)     0.00152
   110   Br    3  dx2y2  Ryd( 6d)     0.00022
   111   Br    3  dz2    Cor( 3d)     1.99766
   112   Br    3  dz2    Ryd( 4d)     0.01857
   113   Br    3  dz2    Ryd( 5d)     0.00165
   114   Br    3  dz2    Ryd( 6d)     0.00021
   115   Br    3  f(0)   Ryd( 4f)     0.00172
   116   Br    3  f(0)   Ryd( 5f)     0.00024
   117   Br    3  f(C1)  Ryd( 4f)     0.00174
   118   Br    3  f(C1)  Ryd( 5f)     0.00024
   119   Br    3  f(S1)  Ryd( 4f)     0.00177
   120   Br    3  f(S1)  Ryd( 5f)     0.00026
   121   Br    3  f(C2)  Ryd( 4f)     0.00170
   122   Br    3  f(C2)  Ryd( 5f)     0.00024
   123   Br    3  f(S2)  Ryd( 4f)     0.00173
   124   Br    3  f(S2)  Ryd( 5f)     0.00024
   125   Br    3  f(C3)  Ryd( 4f)     0.00170
   126   Br    3  f(C3)  Ryd( 5f)     0.00026
   127   Br    3  f(S3)  Ryd( 4f)     0.00175
   128   Br    3  f(S3)  Ryd( 5f)     0.00027

   129    H    4  S      Val( 1S)     0.56331
   130    H    4  S      Ryd( 2S)     0.00583
   131    H    4  S      Ryd( 3S)     0.00047
   132    H    4  S      Ryd( 4S)     0.00016
   133    H    4  px     Ryd( 2p)     0.00393
   134    H    4  px     Ryd( 3p)     0.00040
   135    H    4  px     Ryd( 4p)     0.00007
   136    H    4  py     Ryd( 2p)     0.00383
   137    H    4  py     Ryd( 3p)     0.00106
   138    H    4  py     Ryd( 4p)     0.00015
   139    H    4  pz     Ryd( 2p)     0.00409
   140    H    4  pz     Ryd( 3p)     0.00033
   141    H    4  pz     Ryd( 4p)     0.00006
   142    H    4  dxy    Ryd( 3d)     0.00028
   143    H    4  dxy    Ryd( 4d)     0.00008
   144    H    4  dxz    Ryd( 3d)     0.00020
   145    H    4  dxz    Ryd( 4d)     0.00004
   146    H    4  dyz    Ryd( 3d)     0.00030
   147    H    4  dyz    Ryd( 4d)     0.00009
   148    H    4  dx2y2  Ryd( 3d)     0.00020
   149    H    4  dx2y2  Ryd( 4d)     0.00011
   150    H    4  dz2    Ryd( 3d)     0.00020
   151    H    4  dz2    Ryd( 4d)     0.00006

 WARNING:  5 low occupancy (<1.9990e) core orbitals found on Br    3


 Summary of Natural Population Analysis:                  
                                                          
                                       Natural Population 
                Natural  -----------------------------------------------
    Atom  No    Charge         Core      Valence    Rydberg      Total
 -----------------------------------------------------------------------
      O    1   -1.06690      1.99971     6.95554    0.11165     9.06690
      H    2    0.42561      0.00000     0.55995    0.01444     0.57439
     Br    3   -0.77356     27.98778     7.63503    0.15076    35.77356
      H    4    0.41475      0.00000     0.56331    0.02194     0.58525
 =======================================================================
   * Total *   -1.00010     29.98749    15.71383    0.29878    46.00010

                                 Natural Population      
 --------------------------------------------------------
   Core                      29.98749 ( 99.9583% of  30)
   Valence                   15.71383 ( 98.2114% of  16)
   Natural Minimal Basis     45.70132 ( 99.3507% of  46)
   Natural Rydberg Basis      0.29878 (  0.6495% of  46)
 --------------------------------------------------------

    Atom  No          Natural Electron Configuration
 ----------------------------------------------------------------------------
      O    1      [core]2S( 1.79)2p( 5.16)3S( 0.01)3p( 0.05)3d( 0.04)
      H    2            1S( 0.56)2p( 0.01)
     Br    3      [core]4S( 1.95)4p( 5.68)4d( 0.09)5p( 0.03)4f( 0.01)5d( 0.01)
      H    4            1S( 0.56)2S( 0.01)2p( 0.01)


 NATURAL BOND ORBITAL ANALYSIS:
 Warning:  a bond orbital has occupanc of -0.00001
 Warning:  a bond orbital has occupanc of -0.00022

                       Occupancies       Lewis Structure    Low   High
           Occ.    -------------------  -----------------   occ   occ
  Cycle   Thresh.   Lewis   Non-Lewis     CR  BD  3C  LP    (L)   (NL)   Dev
 =============================================================================
   1(1)    1.90    45.46597   0.53403     15   2   0   6     1      1    0.29
 Warning:  a bond orbital has occupanc of -0.00001
 Warning:  a bond orbital has occupanc of -0.00022
   2(2)    1.90    45.34272   0.65728     15   2   0   6     1      1    0.46
 Warning:  a bond orbital has occupanc of -0.00001
 Warning:  a bond orbital has occupanc of -0.00022
   3(3)    1.90    45.46597   0.53403     15   2   0   6     1      1    0.29
 Warning:  a bond orbital has occupanc of -0.00001
 Warning:  a bond orbital has occupanc of -0.00022
   4(1)    1.80    45.46597   0.53403     15   2   0   6     1      1    0.29
 Warning:  a bond orbital has occupanc of -0.00001
 Warning:  a bond orbital has occupanc of -0.00022
   5(2)    1.80    45.34272   0.65728     15   2   0   6     1      1    0.46
 Warning:  a bond orbital has occupanc of -0.00001
 Warning:  a bond orbital has occupanc of -0.00022
   6(3)    1.80    45.46597   0.53403     15   2   0   6     1      1    0.29
 Warning:  a bond orbital has occupanc of -0.00001
 Warning:  a bond orbital has occupanc of -0.00022
   7(1)    1.70    45.46597   0.53403     15   2   0   6     0      1    0.29
 Warning:  a bond orbital has occupanc of -0.00001
 Warning:  a bond orbital has occupanc of -0.00022
   8(2)    1.70    45.46597   0.53403     15   2   0   6     0      1    0.29
 Warning:  a bond orbital has occupanc of -0.00001
 Warning:  a bond orbital has occupanc of -0.00022
   9(1)    1.60    45.13963   0.86037     15   1   0   7     0      1    0.46
 Warning:  a bond orbital has occupanc of -0.00001
 Warning:  a bond orbital has occupanc of -0.00022
  10(2)    1.60    45.13963   0.86037     15   1   0   7     0      1    0.46
 Warning:  a bond orbital has occupanc of -0.00001
 Warning:  a bond orbital has occupanc of -0.00022
  11(1)    1.50    45.13963   0.86037     15   1   0   7     0      1    0.46
 Warning:  a bond orbital has occupanc of -0.00001
 Warning:  a bond orbital has occupanc of -0.00022
  12(2)    1.50    45.13963   0.86037     15   1   0   7     0      1    0.46
 Warning:  a bond orbital has occupanc of -0.00001
 Warning:  a bond orbital has occupanc of -0.00022
  13(1)    1.90    45.46597   0.53403     15   2   0   6     1      1    0.29
 -----------------------------------------------------------------------------

 Structure accepted: RESONANCE keyword permits strongly delocalized structure

 WARNING:  5 low occupancy (<1.9990e) core orbitals found on Br    3

 --------------------------------------------------------
   Core                     29.98749 ( 99.958% of  30)
   Valence Lewis            15.47848 ( 96.741% of  16)
  ==================       ============================
   Total Lewis              45.46597 ( 98.839% of  46)
  -----------------------------------------------------
   Valence non-Lewis         0.25921 (  0.564% of  46)
   Rydberg non-Lewis         0.27482 (  0.597% of  46)
  ==================       ============================
   Total non-Lewis           0.53403 (  1.161% of  46)
 --------------------------------------------------------


       (Occupancy)   Bond orbital/ Coefficients/ Hybrids
 ---------------------------------------------------------------------------------
     1. (1.96280) BD ( 1) O   1 - H   2  
                ( 72.26%)   0.8501* O   1 s( 21.56%)p 3.61( 77.94%)d 0.02(  0.48%)
                                                  f 0.00(  0.01%)
                                            0.0003  0.4642 -0.0102 -0.0036 -0.0016
                                            0.8815 -0.0408 -0.0096 -0.0064  0.0236
                                           -0.0061  0.0014 -0.0026  0.0000  0.0000
                                            0.0000  0.0000 -0.0140  0.0039 -0.0021
                                            0.0000  0.0000  0.0000  0.0000  0.0000
                                            0.0000  0.0585 -0.0058  0.0042 -0.0339
                                            0.0010  0.0001  0.0000  0.0000 -0.0097
                                            0.0005 -0.0005  0.0001  0.0000  0.0000
                                            0.0000  0.0000  0.0054  0.0034  0.0006
                                           -0.0004
                ( 27.74%)   0.5267* H   2 s( 99.83%)p 0.00(  0.17%)d 0.00(  0.00%)
                                            0.9991  0.0050  0.0001 -0.0003  0.0236
                                           -0.0329 -0.0039 -0.0077  0.0008 -0.0000
                                            0.0000  0.0000  0.0000  0.0001  0.0025
                                            0.0000  0.0000  0.0000  0.0000  0.0020
                                            0.0030 -0.0026 -0.0016
     2. (1.95356) BD ( 1) O   1 - H   4  
                ( 81.00%)   0.9000* O   1 s( 17.13%)p 4.82( 82.60%)d 0.02(  0.26%)
                                                  f 0.00(  0.01%)
                                           -0.0002 -0.4139 -0.0075 -0.0005 -0.0014
                                            0.1920 -0.0130 -0.0015 -0.0023  0.8882
                                            0.0063 -0.0023 -0.0032  0.0000  0.0000
                                            0.0000  0.0000  0.0157 -0.0024  0.0011
                                            0.0000  0.0000  0.0000  0.0000  0.0000
                                            0.0000  0.0405 -0.0058  0.0001  0.0251
                                           -0.0037 -0.0012  0.0000  0.0000 -0.0014
                                           -0.0001 -0.0085  0.0023  0.0000  0.0000
                                            0.0000  0.0000 -0.0027  0.0001 -0.0013
                                            0.0010
                ( 19.00%)   0.4359* H   4 s( 99.84%)p 0.00(  0.15%)d 0.00(  0.01%)
                                           -0.9986 -0.0314  0.0109  0.0042 -0.0216
                                           -0.0048 -0.0017  0.0011 -0.0307 -0.0108
                                            0.0000  0.0000  0.0000  0.0012 -0.0015
                                            0.0000  0.0000  0.0000  0.0000  0.0031
                                            0.0052  0.0030  0.0036
     3. (1.99971) CR ( 1) O   1           s(100.00%)
                                            1.0000 -0.0004  0.0000  0.0000  0.0000
                                           -0.0001  0.0000  0.0000  0.0000  0.0001
                                            0.0000 -0.0000 -0.0000  0.0000  0.0000
                                            0.0000  0.0000  0.0000 -0.0000  0.0000
                                            0.0000  0.0000  0.0000  0.0000  0.0000
                                            0.0000 -0.0000 -0.0000 -0.0000  0.0000
                                           -0.0000 -0.0000  0.0000  0.0000  0.0000
                                            0.0000 -0.0000  0.0000  0.0000  0.0000
                                            0.0000  0.0000 -0.0000 -0.0000 -0.0000
                                            0.0000
     4. (2.00000) CR ( 1)Br   3           s(100.00%)
                                            1.0000  0.0000  0.0000  0.0000  0.0000
                                            0.0000 -0.0000  0.0000 -0.0000 -0.0000
                                            0.0000  0.0000 -0.0000  0.0000 -0.0000
                                           -0.0000  0.0000 -0.0000 -0.0000  0.0000
                                            0.0000  0.0000  0.0000  0.0000  0.0000
                                           -0.0000 -0.0000 -0.0000 -0.0000  0.0000
                                            0.0000  0.0000  0.0000  0.0000  0.0000
                                            0.0000  0.0000  0.0000  0.0000 -0.0000
                                            0.0000  0.0000  0.0000  0.0000  0.0000
                                            0.0000  0.0000 -0.0000 -0.0000  0.0000
                                           -0.0000  0.0000  0.0000  0.0000  0.0000
                                           -0.0000 -0.0000  0.0000 -0.0000
     5. (2.00000) CR ( 2)Br   3           s(100.00%)
                                            0.0000  1.0000 -0.0000 -0.0000 -0.0000
                                           -0.0000  0.0000 -0.0000  0.0000  0.0000
                                           -0.0000 -0.0000  0.0000 -0.0000  0.0000
                                            0.0000 -0.0000  0.0000  0.0000  0.0000
                                            0.0000  0.0000  0.0000  0.0000  0.0000
                                            0.0000  0.0000  0.0000  0.0000  0.0000
                                            0.0000  0.0000  0.0000  0.0000  0.0000
                                            0.0000  0.0000 -0.0000 -0.0000  0.0000
                                           -0.0000 -0.0000 -0.0000 -0.0000 -0.0000
                                            0.0000  0.0000  0.0000  0.0000 -0.0000
                                            0.0000  0.0000  0.0000  0.0000  0.0000
                                            0.0000  0.0000 -0.0000  0.0000
     6. (1.99967) CR ( 3)Br   3           s(100.00%)p 0.00(  0.00%)
                                            0.0000 -0.0000  1.0000 -0.0004 -0.0000
                                           -0.0000  0.0000 -0.0000  0.0000  0.0000
                                           -0.0000  0.0000  0.0000 -0.0000  0.0000
                                            0.0001 -0.0000  0.0000  0.0000  0.0000
                                            0.0000  0.0000  0.0000  0.0000  0.0000
                                            0.0000  0.0000  0.0000  0.0000  0.0000
                                            0.0000  0.0000  0.0000  0.0000  0.0000
                                            0.0000  0.0000 -0.0000 -0.0000 -0.0000
                                           -0.0000 -0.0000 -0.0000 -0.0000 -0.0000
                                            0.0000  0.0000 -0.0000  0.0000 -0.0000
                                            0.0000  0.0000  0.0000  0.0000  0.0000
                                           -0.0000  0.0000 -0.0000  0.0000
     7. (2.00000) CR ( 4)Br   3           s(  0.00%)p 1.00(100.00%)
                                            0.0000 -0.0000 -0.0000 -0.0000  0.0000
                                            0.0000 -0.0000  1.0000  0.0000  0.0000
                                            0.0000  0.0000 -0.0000  0.0000 -0.0000
                                           -0.0000 -0.0000 -0.0000 -0.0000  0.0000
                                            0.0000  0.0000  0.0000  0.0000  0.0000
                                           -0.0000  0.0000 -0.0000 -0.0000  0.0000
                                            0.0000  0.0000  0.0000  0.0000  0.0000
                                            0.0000  0.0000 -0.0000  0.0000 -0.0000
                                           -0.0000 -0.0000 -0.0000  0.0000 -0.0000
                                            0.0000  0.0000 -0.0000 -0.0000  0.0000
                                            0.0000  0.0000  0.0000  0.0000  0.0000
                                           -0.0000 -0.0000  0.0000  0.0000
     8. (1.99998) CR ( 5)Br   3           s(  0.00%)p 1.00(100.00%)
                                           -0.0000  0.0000  0.0000  0.0000 -0.0000
                                           -0.0000  0.0000  0.0000  1.0000 -0.0003
                                           -0.0000 -0.0000  0.0000 -0.0000  0.0000
                                            0.0001  0.0000 -0.0000  0.0000  0.0000
                                            0.0000  0.0000  0.0000  0.0000  0.0000
                                            0.0000 -0.0000  0.0000  0.0000  0.0000
                                            0.0000  0.0000  0.0000  0.0000  0.0000
                                            0.0000  0.0000  0.0000 -0.0000  0.0000
                                            0.0000  0.0000  0.0000 -0.0000  0.0000
                                            0.0000  0.0000  0.0000  0.0000 -0.0000
                                           -0.0000  0.0000  0.0000  0.0000  0.0000
                                            0.0000  0.0000 -0.0000 -0.0000
     9. (2.00000) CR ( 6)Br   3           s(  0.00%)p 1.00(100.00%)
                                            0.0000 -0.0000 -0.0000 -0.0000 -0.0000
                                           -0.0000  0.0000  0.0000 -0.0000 -0.0000
                                           -0.0000 -0.0000  0.0000  1.0000  0.0000
                                            0.0000 -0.0000  0.0000  0.0000  0.0000
                                            0.0000  0.0000  0.0000  0.0000  0.0000
                                            0.0000 -0.0000  0.0000  0.0000  0.0000
                                            0.0000  0.0000  0.0000  0.0000  0.0000
                                            0.0000  0.0000 -0.0000 -0.0000  0.0000
                                           -0.0000 -0.0000 -0.0000 -0.0000  0.0000
                                            0.0000  0.0000  0.0000  0.0000 -0.0000
                                            0.0000  0.0000  0.0000  0.0000  0.0000
                                            0.0000  0.0000 -0.0000 -0.0000
    10. (1.99987) CR ( 7)Br   3           s(  0.00%)p 1.00(100.00%)
                                           -0.0000  0.0000  0.0000  0.0002  0.0000
                                            0.0000 -0.0000 -0.0000  0.0000  0.0001
                                            0.0000  0.0000 -0.0000  0.0000  1.0000
                                           -0.0001  0.0000 -0.0000 -0.0000  0.0000
                                            0.0000  0.0000  0.0000  0.0000  0.0000
                                           -0.0000  0.0000 -0.0000 -0.0000  0.0000
                                            0.0000  0.0000  0.0000  0.0000  0.0000
                                            0.0000  0.0000  0.0000  0.0000 -0.0000
                                            0.0000  0.0000  0.0000  0.0000  0.0000
                                            0.0000  0.0000 -0.0000 -0.0000  0.0000
                                           -0.0000  0.0000  0.0000  0.0000  0.0000
                                           -0.0000 -0.0000  0.0000  0.0000
    11. (2.00000) CR ( 8)Br   3           s(  0.00%)p 1.00(100.00%)
                                            0.0000  0.0000  0.0000  0.0000  0.0000
                                            0.0000  0.0000  0.0000  0.0000  0.0000
                                            0.0000  0.0000  0.0000  0.0000  0.0000
                                            0.0000  0.0000  0.0000  0.0000  1.0000
                                            0.0000  0.0000  0.0000  0.0000 -0.0000
                                            0.0000  0.0000  0.0000  0.0000 -0.0000
                                            0.0000 -0.0000  0.0000 -0.0000  0.0000
                                           -0.0000 -0.0000  0.0000  0.0000  0.0000
                                            0.0000  0.0000  0.0000  0.0000  0.0000
                                           -0.0000 -0.0000  0.0000  0.0000  0.0000
                                            0.0000 -0.0000 -0.0000  0.0000  0.0000
                                            0.0000  0.0000  0.0000  0.0000
    12. (1.99998) CR ( 9)Br   3           s(  0.00%)p 1.00(100.00%)
                                            0.0000  0.0000  0.0000  0.0000  0.0000
                                            0.0000  0.0000  0.0000  0.0000  0.0000
                                            0.0000  0.0000  0.0000  0.0000  0.0000
                                            0.0000  0.0000  0.0000  0.0000  0.0000
                                            1.0000 -0.0003 -0.0000 -0.0000  0.0000
                                            0.0000  0.0000  0.0000  0.0000  0.0000
                                           -0.0000  0.0000 -0.0000  0.0000 -0.0000
                                            0.0000  0.0000  0.0000  0.0000  0.0000
                                            0.0000  0.0000  0.0000  0.0000  0.0000
                                            0.0000  0.0000  0.0000  0.0000  0.0000
                                            0.0000  0.0000  0.0000 -0.0000 -0.0000
                                            0.0000  0.0000  0.0000  0.0000
    13. (1.99765) CR (10)Br   3           s(  0.00%)p 0.00(  0.00%)d 1.00(100.00%)
                                           -0.0000  0.0000  0.0000  0.0000  0.0000
                                            0.0000 -0.0000 -0.0000  0.0000  0.0000
                                            0.0000  0.0000 -0.0000  0.0000 -0.0000
                                           -0.0000  0.0000 -0.0000 -0.0000  0.0000
                                            0.0000  0.0000  0.0000  0.0000  0.0000
                                            1.0000  0.0000 -0.0000 -0.0000  0.0000
                                            0.0000  0.0000  0.0000  0.0000  0.0000
                                            0.0000  0.0000  0.0000  0.0000 -0.0000
                                            0.0000  0.0000  0.0000  0.0000 -0.0000
                                            0.0000  0.0000 -0.0000 -0.0000  0.0000
                                           -0.0000  0.0000  0.0000  0.0000  0.0000
                                           -0.0000 -0.0000  0.0000  0.0000
    14. (1.99769) CR (11)Br   3           s(  0.00%)p 0.00(  0.00%)d 1.00(100.00%)
                                            0.0000  0.0000  0.0000  0.0000  0.0000
                                            0.0000  0.0000  0.0000  0.0000  0.0000
                                            0.0000  0.0000  0.0000  0.0000  0.0000
                                            0.0000  0.0000  0.0000  0.0000 -0.0000
                                            0.0000  0.0000  0.0000  0.0000 -0.0000
                                            0.0000  0.0000  0.0000  0.0000  1.0000
                                            0.0000 -0.0000  0.0000 -0.0000  0.0000
                                           -0.0000 -0.0000  0.0000  0.0000  0.0000
                                            0.0000  0.0000  0.0000  0.0000  0.0000
                                           -0.0000 -0.0000  0.0000  0.0000  0.0000
                                            0.0000 -0.0000 -0.0000  0.0000  0.0000
                                            0.0000  0.0000  0.0000  0.0000
    15. (1.99766) CR (12)Br   3           s(  0.00%)p 0.00(  0.00%)d 1.00(100.00%)
                                            0.0000  0.0000  0.0000  0.0000  0.0000
                                            0.0000  0.0000  0.0000  0.0000  0.0000
                                            0.0000  0.0000  0.0000  0.0000  0.0000
                                            0.0000  0.0000  0.0000  0.0000 -0.0000
                                            0.0000  0.0000  0.0000  0.0000 -0.0000
                                            0.0000  0.0000  0.0000  0.0000 -0.0000
                                            0.0000 -0.0000  0.0000  1.0000  0.0000
                                           -0.0000 -0.0000  0.0000  0.0000  0.0000
                                            0.0000  0.0000  0.0000  0.0000  0.0000
                                           -0.0000 -0.0000  0.0000  0.0000  0.0000
                                            0.0000 -0.0000 -0.0000  0.0000  0.0000
                                            0.0000  0.0000  0.0000  0.0000
    16. (1.99761) CR (13)Br   3           s(  0.00%)p 0.00(  0.00%)d 1.00(100.00%)
                                            0.0000 -0.0000 -0.0000 -0.0000 -0.0000
                                           -0.0000  0.0000 -0.0000  0.0000  0.0000
                                           -0.0000  0.0000 -0.0000 -0.0000  0.0000
                                            0.0000 -0.0000  0.0000  0.0000  0.0000
                                            0.0000  0.0000  0.0000  0.0000  0.0000
                                            0.0000  0.0000  0.0000 -0.0000  0.0000
                                            0.0000  0.0000  0.0000  0.0000  0.0000
                                            0.0000  0.0000  1.0000 -0.0000 -0.0000
                                           -0.0000 -0.0000 -0.0000  0.0000 -0.0000
                                            0.0000  0.0000 -0.0000 -0.0000 -0.0000
                                            0.0000  0.0000  0.0000  0.0000  0.0000
                                           -0.0000 -0.0000  0.0000  0.0000
    17. (1.99766) CR (14)Br   3           s(  0.00%)p 0.00(  0.00%)d 1.00(100.00%)
                                            0.0000 -0.0000 -0.0000 -0.0000 -0.0000
                                           -0.0000  0.0000 -0.0000  0.0000  0.0000
                                           -0.0000 -0.0000  0.0000 -0.0000  0.0000
                                            0.0000 -0.0000  0.0000  0.0000  0.0000
                                            0.0000  0.0000  0.0000  0.0000  0.0000
                                            0.0000  0.0000  0.0000  0.0000  0.0000
                                            0.0000  0.0000  0.0000  0.0000  0.0000
                                            0.0000  0.0000 -0.0000 -0.0000  0.0000
                                           -0.0000  1.0000 -0.0000 -0.0000 -0.0000
                                            0.0000  0.0000  0.0000  0.0000 -0.0000
                                            0.0000  0.0000  0.0000  0.0000  0.0000
                                            0.0000  0.0000 -0.0000  0.0000
    18. (1.96828) LP ( 1) O   1           s( 61.25%)p 0.63( 38.68%)d 0.00(  0.07%)
                                                  f 0.00(  0.00%)
                                            0.0002  0.7826 -0.0001  0.0012 -0.0003
                                           -0.4233 -0.0002 -0.0023  0.0014  0.4555
                                            0.0052  0.0033  0.0017  0.0000  0.0000
                                            0.0000  0.0000  0.0243 -0.0035 -0.0008
                                            0.0000  0.0000  0.0000  0.0000  0.0000
                                            0.0000 -0.0033  0.0008 -0.0008  0.0108
                                           -0.0021  0.0016  0.0000  0.0000  0.0028
                                           -0.0009 -0.0016  0.0004  0.0000  0.0000
                                            0.0000  0.0000  0.0004 -0.0015  0.0018
                                           -0.0001
    19. (1.95629) LP ( 2) O   1           s(  0.00%)p 1.00( 99.82%)d 0.00(  0.17%)
                                                  f 0.00(  0.01%)
                                            0.0000  0.0000  0.0000  0.0000  0.0000
                                            0.0000  0.0000  0.0000  0.0000  0.0000
                                            0.0000  0.0000  0.0000  0.9988  0.0227
                                            0.0053  0.0060  0.0000  0.0000  0.0000
                                            0.0366 -0.0033 -0.0016 -0.0186  0.0023
                                            0.0018  0.0000  0.0000  0.0000  0.0000
                                            0.0000  0.0000 -0.0084  0.0028  0.0000
                                            0.0000  0.0000  0.0000  0.0013  0.0012
                                            0.0016 -0.0006  0.0000  0.0000  0.0000
                                            0.0000
    20. (1.97743) LP ( 1)Br   3           s( 89.97%)p 0.11( 10.03%)d 0.00(  0.00%)
                                                  f 0.00(  0.00%)
                                           -0.0000  0.0000  0.0004  0.9485  0.0005
                                            0.0006 -0.0006  0.0000 -0.0000 -0.0649
                                            0.0007 -0.0000 -0.0001  0.0000 -0.0002
                                           -0.3099  0.0028 -0.0003 -0.0001  0.0000
                                            0.0000  0.0000  0.0000  0.0000  0.0000
                                           -0.0000 -0.0010 -0.0001 -0.0002  0.0000
                                            0.0000  0.0000  0.0000  0.0000  0.0000
                                            0.0000  0.0000  0.0001  0.0022  0.0000
                                            0.0004  0.0000  0.0013  0.0000  0.0003
                                            0.0000  0.0000  0.0000 -0.0000  0.0000
                                           -0.0002  0.0000  0.0000  0.0000  0.0000
                                            0.0001 -0.0002  0.0001 -0.0002
    21. (1.95455) LP ( 2)Br   3           s(  0.00%)p 1.00( 99.99%)d 0.00(  0.01%)
                                                  f 0.00(  0.00%)
                                            0.0000  0.0000  0.0000  0.0000  0.0000
                                            0.0000  0.0000  0.0000  0.0000  0.0000
                                            0.0000  0.0000  0.0000  0.0000  0.0000
                                            0.0000  0.0000  0.0000  0.0000 -0.0000
                                            0.0003  0.9999  0.0033  0.0019 -0.0002
                                            0.0000  0.0000  0.0000  0.0000 -0.0000
                                            0.0025 -0.0008  0.0003 -0.0000  0.0068
                                           -0.0005 -0.0033  0.0000  0.0000  0.0000
                                            0.0000  0.0000  0.0000  0.0000  0.0000
                                           -0.0028 -0.0015  0.0000  0.0000  0.0000
                                            0.0000 -0.0030 -0.0014  0.0015  0.0009
                                            0.0000  0.0000  0.0000  0.0000
    22. (1.95430) LP ( 3)Br   3           s(  0.00%)p 1.00( 99.99%)d 0.00(  0.01%)
                                                  f 0.00(  0.00%)
                                            0.0000 -0.0000  0.0000  0.0002 -0.0001
                                           -0.0009  0.0015  0.0000 -0.0003 -0.9786
                                           -0.0042 -0.0022  0.0009 -0.0000  0.0001
                                            0.2054  0.0005  0.0000  0.0005 -0.0000
                                           -0.0000 -0.0000 -0.0000 -0.0000 -0.0000
                                            0.0000 -0.0069  0.0005  0.0030 -0.0000
                                           -0.0000 -0.0000 -0.0000 -0.0000 -0.0000
                                           -0.0000 -0.0000  0.0000 -0.0047  0.0009
                                            0.0003 -0.0000  0.0004 -0.0004  0.0007
                                           -0.0000 -0.0000  0.0012  0.0007 -0.0002
                                            0.0000 -0.0000 -0.0000 -0.0000 -0.0000
                                            0.0032  0.0013 -0.0026 -0.0012
    23. (1.75126) LP ( 4)Br   3           s( 10.02%)p 8.97( 89.87%)d 0.01(  0.10%)
                                                  f 0.00(  0.01%)
                                            0.0000  0.0000 -0.0000  0.3165 -0.0017
                                           -0.0020  0.0020 -0.0000 -0.0000  0.1948
                                           -0.0016 -0.0011  0.0006 -0.0000  0.0000
                                            0.9277 -0.0076 -0.0048  0.0011  0.0000
                                            0.0000  0.0000  0.0000  0.0000  0.0000
                                            0.0000  0.0109 -0.0016 -0.0004  0.0000
                                            0.0000  0.0000  0.0000  0.0000  0.0000
                                            0.0000  0.0000  0.0000 -0.0239  0.0038
                                            0.0012 -0.0000 -0.0157  0.0027  0.0002
                                            0.0000  0.0000 -0.0013 -0.0004 -0.0063
                                           -0.0019  0.0000  0.0000  0.0000  0.0000
                                           -0.0045 -0.0010 -0.0064 -0.0016
    24. (0.02331) RY*( 1) O   1           s(  0.00%)p 1.00( 98.80%)d 0.01(  1.17%)
                                                  f 0.00(  0.03%)
                                            0.0000  0.0000  0.0000  0.0000  0.0000
                                            0.0000  0.0000  0.0000  0.0000  0.0000
                                            0.0000  0.0000  0.0000 -0.0268  0.9931
                                           -0.0239 -0.0214  0.0000  0.0000  0.0000
                                            0.0858 -0.0164  0.0061 -0.0601  0.0172
                                           -0.0096  0.0000  0.0000  0.0000  0.0000
                                            0.0000  0.0000 -0.0111  0.0118  0.0000
                                            0.0000  0.0000  0.0000 -0.0041  0.0025
                                            0.0001 -0.0016  0.0000  0.0000  0.0000
                                            0.0000
    25. (0.01776) RY*( 2) O   1           s( 17.77%)p 4.49( 79.84%)d 0.13(  2.32%)
                                                  f 0.00(  0.06%)
                                           -0.0000 -0.0053  0.4213  0.0060 -0.0127
                                           -0.0048 -0.4751  0.0059  0.0144 -0.0130
                                            0.7564 -0.0073 -0.0107  0.0000  0.0000
                                            0.0000  0.0000  0.1479 -0.0238  0.0087
                                            0.0000  0.0000  0.0000  0.0000  0.0000
                                            0.0000 -0.0086  0.0025  0.0014  0.0201
                                           -0.0127  0.0065  0.0000  0.0000  0.0027
                                           -0.0027  0.0016  0.0026  0.0000  0.0000
                                            0.0000  0.0000  0.0190 -0.0112  0.0105
                                           -0.0037
    26. (0.00931) RY*( 3) O   1           s(  9.32%)p 9.01( 84.01%)d 0.69(  6.47%)
                                                  f 0.02(  0.19%)
                                            0.0000 -0.0100  0.3029 -0.0219  0.0308
                                           -0.0411 -0.7035  0.0223  0.0284 -0.0064
                                           -0.5842 -0.0026 -0.0304 -0.0000 -0.0000
                                           -0.0000 -0.0000 -0.1394 -0.0145  0.0049
                                           -0.0000 -0.0000 -0.0000 -0.0000 -0.0000
                                           -0.0000  0.1988  0.0562 -0.0252  0.0351
                                            0.0202 -0.0101 -0.0000 -0.0000 -0.0108
                                            0.0061  0.0103 -0.0106 -0.0000 -0.0000
                                           -0.0000 -0.0000  0.0313 -0.0238 -0.0039
                                           -0.0016
    27. (0.00656) RY*( 4) O   1           s( 20.84%)p 0.26(  5.34%)d 3.50( 73.03%)
                                                  f 0.04(  0.79%)
                                           -0.0000  0.0148  0.4562  0.0044 -0.0010
                                            0.0266  0.2242 -0.0049 -0.0064  0.0330
                                            0.0277 -0.0101 -0.0207 -0.0000 -0.0000
                                           -0.0000 -0.0000 -0.7509 -0.0194 -0.0027
                                           -0.0000 -0.0000 -0.0000 -0.0000 -0.0000
                                           -0.0000 -0.3651 -0.0034 -0.0039  0.1783
                                            0.0296 -0.0128 -0.0000 -0.0000  0.0045
                                            0.0051  0.0336 -0.0224 -0.0000 -0.0000
                                           -0.0000 -0.0000 -0.0683  0.0324 -0.0231
                                           -0.0018
    28. (0.00637) RY*( 5) O   1           s(  0.00%)p 1.00(  0.01%)d99.99( 98.86%)
                                                  f92.23(  1.12%)
                                            0.0000  0.0000  0.0000  0.0000  0.0000
                                            0.0000  0.0000  0.0000  0.0000  0.0000
                                            0.0000  0.0000  0.0000 -0.0052  0.0016
                                           -0.0095 -0.0018  0.0000  0.0000  0.0000
                                            0.5590  0.0375 -0.0103  0.8200  0.0482
                                           -0.0019  0.0000  0.0000  0.0000  0.0000
                                            0.0000  0.0000  0.0104 -0.0128  0.0000
                                            0.0000  0.0000  0.0000  0.0896 -0.0539
                                            0.0042  0.0037  0.0000  0.0000  0.0000
                                            0.0000
    29. (0.00601) RY*( 6) O   1           s(  0.00%)p 1.00(  1.24%)d78.95( 97.79%)
                                                  f 0.78(  0.97%)
                                            0.0000  0.0000  0.0000  0.0000  0.0000
                                            0.0000  0.0000  0.0000  0.0000  0.0000
                                            0.0000  0.0000  0.0000 -0.0383 -0.1030
                                            0.0160  0.0072  0.0000  0.0000  0.0000
                                            0.8115  0.0761 -0.0283 -0.5570 -0.0491
                                            0.0094  0.0000  0.0000  0.0000  0.0000
                                            0.0000  0.0000 -0.0716  0.0392  0.0000
                                            0.0000  0.0000  0.0000  0.0346 -0.0137
                                           -0.0367  0.0166  0.0000  0.0000  0.0000
                                            0.0000
    30. (0.00587) RY*( 7) O   1           s(  5.49%)p 0.88(  4.83%)d16.23( 89.02%)
                                                  f 0.12(  0.66%)
                                           -0.0000  0.0153  0.2334 -0.0123  0.0007
                                            0.0348  0.1896 -0.0195 -0.0035 -0.0307
                                           -0.0982  0.0096 -0.0103  0.0000  0.0000
                                            0.0000  0.0000  0.3446  0.0200 -0.0020
                                            0.0000  0.0000  0.0000  0.0000  0.0000
                                            0.0000  0.1146  0.0155 -0.0023  0.8652
                                            0.0925 -0.0233  0.0000  0.0000  0.0544
                                           -0.0278 -0.0454  0.0257  0.0000  0.0000
                                            0.0000  0.0000  0.0077 -0.0035  0.0094
                                           -0.0001
    31. (0.00514) RY*( 8) O   1           s( 14.92%)p 0.55(  8.24%)d 5.00( 74.58%)
                                                  f 0.15(  2.26%)
                                           -0.0000 -0.0016  0.3862  0.0057 -0.0029
                                            0.0474  0.0868 -0.0185 -0.0009  0.0243
                                           -0.2616 -0.0024 -0.0565 -0.0000 -0.0000
                                           -0.0000 -0.0000  0.5037  0.0197  0.0053
                                           -0.0000 -0.0000 -0.0000 -0.0000 -0.0000
                                           -0.0000 -0.6474 -0.0038 -0.0097 -0.2688
                                           -0.0126  0.0001 -0.0000 -0.0000  0.0317
                                           -0.0200  0.0539 -0.0406 -0.0000 -0.0000
                                           -0.0000 -0.0000  0.0131 -0.0212  0.1098
                                           -0.0631
    32. (0.00244) RY*( 9) O   1           s( 29.92%)p 0.60( 18.09%)d 1.70( 50.98%)
                                                  f 0.03(  1.02%)
                                            0.0000 -0.0048  0.5447 -0.0428 -0.0254
                                           -0.0235  0.4206  0.0057 -0.0065 -0.0044
                                           -0.0414  0.0225 -0.0334  0.0000  0.0000
                                            0.0000  0.0000  0.0723  0.0145 -0.0145
                                            0.0000  0.0000  0.0000  0.0000  0.0000
                                            0.0000  0.5961  0.1373  0.0538 -0.3399
                                           -0.1056 -0.0167  0.0000  0.0000 -0.0321
                                            0.0477  0.0106 -0.0071  0.0000  0.0000
                                            0.0000  0.0000  0.0539 -0.0604 -0.0118
                                            0.0007
    33. (0.00061) RY*(10) O   1           s( 21.80%)p 3.19( 69.56%)d 0.33(  7.24%)
                                                  f 0.06(  1.40%)
                                            0.0000 -0.0048  0.0029  0.4472 -0.1342
                                           -0.0020 -0.0283 -0.1684 -0.0595  0.0005
                                           -0.0065  0.8141 -0.0072  0.0000  0.0000
                                            0.0000  0.0000 -0.0189  0.2190 -0.0780
                                            0.0000  0.0000  0.0000  0.0000  0.0000
                                            0.0000  0.0082 -0.0285  0.0386  0.0154
                                           -0.0867  0.0888  0.0000  0.0000  0.0333
                                            0.0003  0.1089 -0.0120  0.0000  0.0000
                                            0.0000  0.0000 -0.0039  0.0060  0.0265
                                            0.0119
    34. (0.00056) RY*(11) O   1           s(  0.00%)p 1.00( 46.49%)d 1.06( 49.50%)
                                                  f 0.09(  4.02%)
                                            0.0000  0.0000  0.0000  0.0000  0.0000
                                            0.0000  0.0000  0.0000  0.0000  0.0000
                                            0.0000  0.0000  0.0000  0.0011  0.0387
                                            0.6754 -0.0847  0.0000  0.0000  0.0000
                                           -0.0393  0.3146 -0.0310  0.0402 -0.6247
                                            0.0399  0.0000  0.0000  0.0000  0.0000
                                            0.0000  0.0000  0.0955 -0.0195  0.0000
                                            0.0000  0.0000  0.0000  0.1240 -0.0069
                                            0.1234  0.0014  0.0000  0.0000  0.0000
                                            0.0000
    35. (0.00054) RY*(12) O   1           s(  4.04%)p 0.97(  3.92%)d20.80( 84.11%)
                                                  f 1.96(  7.92%)
                                           -0.0000  0.0023  0.0035  0.1981 -0.0342
                                            0.0028 -0.0057  0.0689 -0.0252 -0.0072
                                           -0.0348 -0.1782 -0.0274 -0.0000 -0.0000
                                           -0.0000 -0.0000 -0.0248 -0.1944 -0.0366
                                           -0.0000 -0.0000 -0.0000 -0.0000 -0.0000
                                           -0.0000  0.0035 -0.3344  0.0251  0.1007
                                           -0.8156  0.1163 -0.0000 -0.0000  0.1311
                                           -0.0012  0.0051  0.0028 -0.0000 -0.0000
                                           -0.0000 -0.0000  0.2078 -0.0084  0.1369
                                           -0.0066
    36. (0.00051) RY*(13) O   1           s(  0.00%)p 1.00( 50.23%)d 0.79( 39.77%)
                                                  f 0.20( 10.00%)
                                            0.0000  0.0000  0.0000  0.0000  0.0000
                                            0.0000  0.0000  0.0000  0.0000  0.0000
                                            0.0000  0.0000  0.0000 -0.0049 -0.0032
                                            0.6876 -0.1717  0.0000  0.0000  0.0000
                                            0.0126 -0.1669  0.0048 -0.0211  0.6076
                                            0.0105  0.0000  0.0000  0.0000  0.0000
                                            0.0000  0.0000 -0.0106  0.0005  0.0000
                                            0.0000  0.0000  0.0000 -0.0491  0.0126
                                           -0.3119 -0.0034  0.0000  0.0000  0.0000
                                            0.0000
    37. (0.00046) RY*(14) O   1           s(  0.00%)p 1.00(  0.77%)d 2.77(  2.13%)
                                                  f99.99( 97.10%)
                                            0.0000  0.0000  0.0000  0.0000  0.0000
                                            0.0000  0.0000  0.0000  0.0000  0.0000
                                            0.0000  0.0000  0.0000  0.0044  0.0021
                                           -0.0791  0.0378  0.0000  0.0000  0.0000
                                           -0.0000 -0.0752 -0.0178 -0.0728  0.0718
                                           -0.0699  0.0000  0.0000  0.0000  0.0000
                                            0.0000  0.0000  0.7805  0.0386  0.0000
                                            0.0000  0.0000  0.0000  0.5854  0.0256
                                           -0.1302 -0.0033  0.0000  0.0000  0.0000
                                            0.0000
    38. (0.00046) RY*(15) O   1           s(  0.00%)p 1.00(  0.51%)d61.67( 31.24%)
                                                  f99.99( 68.26%)
                                            0.0000  0.0000  0.0000  0.0000  0.0000
                                            0.0000  0.0000  0.0000  0.0000  0.0000
                                            0.0000  0.0000  0.0000 -0.0019 -0.0024
                                            0.0680 -0.0208  0.0000  0.0000  0.0000
[...]
   127. (0.00002) RY*(41)Br   3           s(  0.00%)p 1.00( 99.86%)d 0.00(  0.11%)
                                                  f 0.00(  0.03%)
   128. (0.00764) RY*( 1) H   4           s( 74.75%)p 0.33( 24.83%)d 0.01(  0.42%)
                                           -0.0396  0.8624 -0.0307 -0.0358  0.3611
                                           -0.0031  0.0142  0.3095  0.1376  0.0540
                                            0.0000  0.0000  0.0000 -0.0455 -0.0038
                                            0.0000  0.0000  0.0000  0.0000  0.0386
                                            0.0178  0.0145  0.0116
   129. (0.00417) RY*( 2) H   4           s(  0.00%)p 1.00( 98.77%)d 0.01(  1.23%)
                                            0.0000  0.0000  0.0000  0.0000  0.0000
                                            0.0000  0.0000  0.0000  0.0000  0.0000
                                            0.9891  0.0926 -0.0288  0.0000  0.0000
                                           -0.0098  0.0145 -0.0830  0.0717  0.0000
                                            0.0000  0.0000  0.0000
   130. (0.00383) RY*( 3) H   4           s(  2.87%)p33.56( 96.17%)d 0.33(  0.96%)
                                            0.0178 -0.0182  0.1247 -0.1116 -0.5887
                                           -0.0076  0.0361  0.7775 -0.0912  0.0323
                                            0.0000  0.0000  0.0000  0.0759 -0.0249
                                            0.0000  0.0000  0.0000  0.0000  0.0376
                                           -0.0060  0.0408 -0.0098
   131. (0.00311) RY*( 4) H   4           s( 21.24%)p 3.66( 77.86%)d 0.04(  0.90%)
                                           -0.0061  0.4416 -0.1048  0.0799 -0.7085
                                            0.0207  0.0072 -0.4836  0.2052 -0.0084
                                           -0.0000 -0.0000 -0.0000  0.0881 -0.0323
                                           -0.0000 -0.0000 -0.0000 -0.0000  0.0020
                                            0.0065  0.0071 -0.0098
   132. (0.00153) RY*( 5) H   4           s( 30.75%)p 2.11( 64.78%)d 0.15(  4.47%)
                                            0.0224  0.2282  0.4869  0.1338 -0.0261
                                           -0.2165  0.0051 -0.1598 -0.7567 -0.0465
                                           -0.0000 -0.0000 -0.0000  0.0694  0.0579
                                           -0.0000 -0.0000 -0.0000 -0.0000 -0.0980
                                           -0.1158 -0.0970 -0.0641
   133. (0.00039) RY*( 6) H   4           s(  1.87%)p50.43( 94.35%)d 2.02(  3.78%)
                                           -0.0004 -0.0519  0.1150 -0.0528  0.0219
                                           -0.9100  0.1416 -0.0051  0.2870 -0.1119
                                            0.0000  0.0000  0.0000  0.0541 -0.1360
                                            0.0000  0.0000  0.0000  0.0000  0.0347
                                            0.0323  0.1187  0.0050
   134. (0.00031) RY*( 7) H   4           s(  0.00%)p 1.00( 78.28%)d 0.28( 21.72%)
                                            0.0000  0.0000  0.0000  0.0000  0.0000
                                            0.0000  0.0000  0.0000  0.0000  0.0000
                                           -0.0551  0.8817  0.0487  0.0000  0.0000
                                            0.0508  0.0646  0.4367  0.1405  0.0000
                                            0.0000  0.0000  0.0000
   135. (0.00029) RY*( 8) H   4           s(  0.00%)p 1.00( 28.24%)d 2.54( 71.76%)
                                            0.0000  0.0000  0.0000  0.0000  0.0000
                                            0.0000  0.0000  0.0000  0.0000  0.0000
                                            0.1185 -0.4345  0.2820  0.0000  0.0000
                                            0.0383  0.0513  0.8446  0.0126  0.0000
                                            0.0000  0.0000  0.0000
   136. (0.00025) RY*( 9) H   4           s(  0.49%)p14.73(  7.29%)d99.99( 92.22%)
                                           -0.0000  0.0134  0.0667 -0.0179 -0.1081
                                           -0.0680 -0.2261  0.0070  0.0183  0.0711
                                           -0.0000 -0.0000 -0.0000 -0.8417 -0.0913
                                           -0.0000 -0.0000 -0.0000 -0.0000 -0.4320
                                           -0.0087  0.1336 -0.0306
   137. (0.00021) RY*(10) H   4           s(  0.00%)p 1.00(  0.12%)d99.99( 99.88%)
                                            0.0000  0.0000  0.0000  0.0000  0.0000
                                            0.0000  0.0000  0.0000  0.0000  0.0000
                                            0.0104 -0.0215 -0.0249  0.0000  0.0000
                                            0.9585 -0.2801 -0.0311  0.0264  0.0000
                                            0.0000  0.0000  0.0000
   138. (0.00020) RY*(11) H   4           s(  0.20%)p99.99( 34.51%)d99.99( 65.29%)
                                            0.0138  0.0275 -0.0267  0.0184 -0.0463
                                            0.0105 -0.1624 -0.0071 -0.1394 -0.5450
                                            0.0000  0.0000  0.0000 -0.3432 -0.0983
                                            0.0000  0.0000  0.0000  0.0000  0.6448
                                            0.1877 -0.0551  0.2671
   139. (0.00019) RY*(12) H   4           s(  2.90%)p 3.42(  9.91%)d30.08( 87.19%)
                                           -0.0083 -0.0275  0.1566 -0.0602 -0.0371
                                           -0.0763  0.0272  0.0093  0.1985  0.2274
                                           -0.0000 -0.0000 -0.0000 -0.1626  0.0857
                                           -0.0000 -0.0000 -0.0000 -0.0000  0.1010
                                           -0.2058 -0.8740  0.1470
   140. (0.00010) RY*(13) H   4           s( 60.45%)p 0.47( 28.27%)d 0.19( 11.29%)
   141. (0.00008) RY*(14) H   4           s( 72.61%)p 0.09(  6.52%)d 0.29( 20.87%)
   142. (0.00007) RY*(15) H   4           s(  0.00%)p 1.00( 16.74%)d 4.97( 83.26%)
   143. (0.00006) RY*(16) H   4           s(  8.72%)p 1.55( 13.51%)d 8.91( 77.77%)
   144. (0.00005) RY*(17) H   4           s(  6.63%)p 8.68( 57.50%)d 5.41( 35.87%)
   145. (0.00003) RY*(18) H   4           s(  0.65%)p99.99( 78.18%)d32.56( 21.17%)
   146. (0.00002) RY*(19) H   4           s(  0.00%)p 1.00(  1.24%)d79.58( 98.76%)
   147. (0.00003) RY*(20) H   4           s( 12.55%)p 0.33(  4.09%)d 6.64( 83.36%)
   148. (0.00003) RY*(21) H   4           s(  0.00%)p 1.00( 76.62%)d 0.31( 23.38%)
   149. (0.00002) RY*(22) H   4           s(  3.49%)p 0.59(  2.07%)d27.08( 94.44%)
   150. (0.02290) BD*( 1) O   1 - H   2  
                ( 27.74%)   0.5267* O   1 s( 21.56%)p 3.61( 77.94%)d 0.02(  0.48%)
                                                  f 0.00(  0.01%)
                                           -0.0003 -0.4642  0.0102  0.0036  0.0016
                                           -0.8815  0.0408  0.0096  0.0064 -0.0236
                                            0.0061 -0.0014  0.0026 -0.0000 -0.0000
                                           -0.0000 -0.0000  0.0140 -0.0039  0.0021
                                           -0.0000 -0.0000 -0.0000 -0.0000 -0.0000
                                           -0.0000 -0.0585  0.0058 -0.0042  0.0339
                                           -0.0010 -0.0001 -0.0000 -0.0000  0.0097
                                           -0.0005  0.0005 -0.0001 -0.0000 -0.0000
                                           -0.0000 -0.0000 -0.0054 -0.0034 -0.0006
                                            0.0004
                ( 72.26%)  -0.8501* H   2 s( 99.83%)p 0.00(  0.17%)d 0.00(  0.00%)
                                           -0.9991 -0.0050 -0.0001  0.0003 -0.0236
                                            0.0329  0.0039  0.0077 -0.0008  0.0000
                                           -0.0000 -0.0000 -0.0000 -0.0001 -0.0025
                                           -0.0000 -0.0000 -0.0000 -0.0000 -0.0020
                                           -0.0030  0.0026  0.0016
   151. (0.23631) BD*( 1) O   1 - H   4  
                ( 19.00%)   0.4359* O   1 s( 17.13%)p 4.82( 82.60%)d 0.02(  0.26%)
                                                  f 0.00(  0.01%)
                                            0.0002  0.4139  0.0075  0.0005  0.0014
                                           -0.1920  0.0130  0.0015  0.0023 -0.8882
                                           -0.0063  0.0023  0.0032 -0.0000 -0.0000
                                           -0.0000 -0.0000 -0.0157  0.0024 -0.0011
                                           -0.0000 -0.0000 -0.0000 -0.0000 -0.0000
                                           -0.0000 -0.0405  0.0058 -0.0001 -0.0251
                                            0.0037  0.0012 -0.0000 -0.0000  0.0014
                                            0.0001  0.0085 -0.0023 -0.0000 -0.0000
                                           -0.0000 -0.0000  0.0027 -0.0001  0.0013
                                           -0.0010
                ( 81.00%)  -0.9000* H   4 s( 99.84%)p 0.00(  0.15%)d 0.00(  0.01%)
                                            0.9986  0.0314 -0.0109 -0.0042  0.0216
                                            0.0048  0.0017 -0.0011  0.0307  0.0108
                                           -0.0000 -0.0000 -0.0000 -0.0012  0.0015
                                           -0.0000 -0.0000 -0.0000 -0.0000 -0.0031
                                           -0.0052 -0.0030 -0.0036


 NHO Directionality and "Bond Bending" (deviations from line of nuclear centers)

         [Thresholds for printing:  angular deviation  >  1.0 degree]
                                    hybrid p-character > 25.0%
                                    orbital occupancy  >  0.10e

                                Line of Centers        Hybrid 1              Hybrid 2
                                ---------------  -------------------   ------------------
                NBO               Theta   Phi    Theta   Phi    Dev    Theta   Phi    Dev
 ========================================================================================
     1. BD (   1) O   1 - H   2    90.0    0.0    90.0    1.1   1.1      --     --    --
    18. LP (   1) O   1             --     --     90.0  132.3   --       --     --    --
    19. LP (   2) O   1             --     --      0.0    0.0   --       --     --    --
    21. LP (   2)Br   3             --     --      0.0    0.0   --       --     --    --
    22. LP (   3)Br   3             --     --     90.0  168.2   --       --     --    --
    23. LP (   4)Br   3             --     --     90.0   78.1   --       --     --    --


 Natural Bond Orbitals (Summary):

           NBO                  Occupancy  
 -----------------------------------------------
 Molecular unit  1  (H2O)
     1. BD (   1) O   1 - H   2          1.96280
     2. BD (   1) O   1 - H   4          1.95356
     3. CR (   1) O   1                  1.99971
    18. LP (   1) O   1                  1.96828
    19. LP (   2) O   1                  1.95629
    24. RY*(   1) O   1                  0.02331
    25. RY*(   2) O   1                  0.01776
    26. RY*(   3) O   1                  0.00931
    27. RY*(   4) O   1                  0.00656
    28. RY*(   5) O   1                  0.00637
    29. RY*(   6) O   1                  0.00601
    30. RY*(   7) O   1                  0.00587
    31. RY*(   8) O   1                  0.00514
    32. RY*(   9) O   1                  0.00244
    33. RY*(  10) O   1                  0.00061
    34. RY*(  11) O   1                  0.00056
    35. RY*(  12) O   1                  0.00054
    36. RY*(  13) O   1                  0.00051
    37. RY*(  14) O   1                  0.00046
    38. RY*(  15) O   1                  0.00046
    39. RY*(  16) O   1                  0.00045
    40. RY*(  17) O   1                  0.00045
    41. RY*(  18) O   1                  0.00044
    42. RY*(  19) O   1                  0.00045
    43. RY*(  20) O   1                  0.00041
    44. RY*(  21) O   1                  0.00041
    45. RY*(  22) O   1                  0.00041
    46. RY*(  23) O   1                  0.00033
    47. RY*(  24) O   1                  0.00030
    48. RY*(  25) O   1                  0.00023
    49. RY*(  26) O   1                  0.00015
    50. RY*(  27) O   1                  0.00008
    51. RY*(  28) O   1                  0.00008
    52. RY*(  29) O   1                  0.00008
    53. RY*(  30) O   1                  0.00008
    54. RY*(  31) O   1                  0.00008
    55. RY*(  32) O   1                  0.00008
    56. RY*(  33) O   1                  0.00007
    57. RY*(  34) O   1                  0.00007
    58. RY*(  35) O   1                  0.00005
    59. RY*(  36) O   1                  0.00006
    60. RY*(  37) O   1                  0.00005
    61. RY*(  38) O   1                  0.00002
    62. RY*(  39) O   1                  0.00002
    63. RY*(  40) O   1                 -0.00001
    64. RY*(  41) O   1                 -0.00022
    65. RY*(   1) H   2                  0.00508
    66. RY*(   2) H   2                  0.00273
    67. RY*(   3) H   2                  0.00253
    68. RY*(   4) H   2                  0.00150
    69. RY*(   5) H   2                  0.00027
    70. RY*(   6) H   2                  0.00020
    71. RY*(   7) H   2                  0.00018
    72. RY*(   8) H   2                  0.00014
    73. RY*(   9) H   2                  0.00012
    74. RY*(  10) H   2                  0.00011
    75. RY*(  11) H   2                  0.00011
    76. RY*(  12) H   2                  0.00009
    77. RY*(  13) H   2                  0.00008
    78. RY*(  14) H   2                  0.00006
    79. RY*(  15) H   2                  0.00004
    80. RY*(  16) H   2                  0.00004
    81. RY*(  17) H   2                  0.00005
    82. RY*(  18) H   2                  0.00004
    83. RY*(  19) H   2                  0.00002
    84. RY*(  20) H   2                  0.00001
    85. RY*(  21) H   2                  0.00002
    86. RY*(  22) H   2                  0.00002
   128. RY*(   1) H   4                  0.00764
   129. RY*(   2) H   4                  0.00417
   130. RY*(   3) H   4                  0.00383
   131. RY*(   4) H   4                  0.00311
   132. RY*(   5) H   4                  0.00153
   133. RY*(   6) H   4                  0.00039
   134. RY*(   7) H   4                  0.00031
   135. RY*(   8) H   4                  0.00029
   136. RY*(   9) H   4                  0.00025
   137. RY*(  10) H   4                  0.00021
   138. RY*(  11) H   4                  0.00020
   139. RY*(  12) H   4                  0.00019
   140. RY*(  13) H   4                  0.00010
   141. RY*(  14) H   4                  0.00008
   142. RY*(  15) H   4                  0.00007
   143. RY*(  16) H   4                  0.00006
   144. RY*(  17) H   4                  0.00005
   145. RY*(  18) H   4                  0.00003
   146. RY*(  19) H   4                  0.00002
   147. RY*(  20) H   4                  0.00003
   148. RY*(  21) H   4                  0.00003
   149. RY*(  22) H   4                  0.00002
   150. BD*(   1) O   1 - H   2          0.02290
   151. BD*(   1) O   1 - H   4          0.23631
       -------------------------------
              Total Lewis    9.84064  ( 96.2275%)
        Valence non-Lewis    0.25921  (  2.5347%)
        Rydberg non-Lewis    0.12658  (  1.2378%)
       -------------------------------
            Total unit  1   10.22644  (100.0000%)
           Charge unit  1   -0.22644

 Molecular unit  2  (Br)
     4. CR (   1)Br   3                  2.00000
     5. CR (   2)Br   3                  2.00000
     6. CR (   3)Br   3                  1.99967
     7. CR (   4)Br   3                  2.00000
     8. CR (   5)Br   3                  1.99998
     9. CR (   6)Br   3                  2.00000
    10. CR (   7)Br   3                  1.99987
    11. CR (   8)Br   3                  2.00000
    12. CR (   9)Br   3                  1.99998
    13. CR (  10)Br   3                  1.99765
    14. CR (  11)Br   3                  1.99769
    15. CR (  12)Br   3                  1.99766
    16. CR (  13)Br   3                  1.99761
    17. CR (  14)Br   3                  1.99766
    20. LP (   1)Br   3                  1.97743
    21. LP (   2)Br   3                  1.95455
    22. LP (   3)Br   3                  1.95430
    23. LP (   4)Br   3                  1.75126
    87. RY*(   1)Br   3                  0.01841
    88. RY*(   2)Br   3                  0.01839
    89. RY*(   3)Br   3                  0.01837
    90. RY*(   4)Br   3                  0.01832
    91. RY*(   5)Br   3                  0.01801
    92. RY*(   6)Br   3                  0.01090
    93. RY*(   7)Br   3                  0.01087
    94. RY*(   8)Br   3                  0.00833
    95. RY*(   9)Br   3                  0.00204
    96. RY*(  10)Br   3                  0.00175
    97. RY*(  11)Br   3                  0.00173
    98. RY*(  12)Br   3                  0.00174
    99. RY*(  13)Br   3                  0.00173
   100. RY*(  14)Br   3                  0.00173
   101. RY*(  15)Br   3                  0.00174
   102. RY*(  16)Br   3                  0.00172
   103. RY*(  17)Br   3                  0.00172
   104. RY*(  18)Br   3                  0.00170
   105. RY*(  19)Br   3                  0.00134
   106. RY*(  20)Br   3                  0.00131
   107. RY*(  21)Br   3                  0.00112
   108. RY*(  22)Br   3                  0.00078
   109. RY*(  23)Br   3                  0.00078
   110. RY*(  24)Br   3                  0.00071
   111. RY*(  25)Br   3                  0.00034
   112. RY*(  26)Br   3                  0.00030
   113. RY*(  27)Br   3                  0.00024
   114. RY*(  28)Br   3                  0.00024
   115. RY*(  29)Br   3                  0.00024
   116. RY*(  30)Br   3                  0.00024
   117. RY*(  31)Br   3                  0.00023
   118. RY*(  32)Br   3                  0.00024
   119. RY*(  33)Br   3                  0.00019
   120. RY*(  34)Br   3                  0.00019
   121. RY*(  35)Br   3                  0.00012
   122. RY*(  36)Br   3                  0.00012
   123. RY*(  37)Br   3                  0.00012
   124. RY*(  38)Br   3                  0.00008
   125. RY*(  39)Br   3                  0.00005
   126. RY*(  40)Br   3                  0.00004
   127. RY*(  41)Br   3                  0.00002
       -------------------------------
              Total Lewis   35.62532  ( 99.5856%)
        Valence non-Lewis    0.00000  (  0.0000%)
        Rydberg non-Lewis    0.14824  (  0.4144%)
       -------------------------------
            Total unit  2   35.77356  (100.0000%)
           Charge unit  2   -0.77356
 Leave Link  607 at Tue Oct 12 14:18:03 2021, MaxMem=  1048576000 cpu:         8.8
 (Enter /usr/local/gaussian/g09/l9999.exe)
 1\1\GINC-KRYPTON\SP\RMP2-FC\Aug-CC-pVTZ\Br1H2O1(1-)\CGAVINH\12-Oct-202
 1\0\\#p pop=NBO SP NoSymm mp2/aug-cc-pvtz density=current\\title\\-1,1
 \O\X,1,10.\H,1,0.96078759,2,90.\Br,1,3.25661955,2,90.,3,101.73887131,0
 \H,1,1.3,2,90.,3,101.73887131,0\\Version=ES64L-G09RevE.01\HF=-2648.557
 9619\MP2=-2649.0937919\RMSD=3.262e-09\Dipole=0.347579,-0.7641615,0.\Qu
 adrupole=9.1896681,-17.5254174,8.3357493,-5.1348846,0.,0.\PG=CS [SG(Br
 1H2O1)]\\@


 LIFE CAN ONLY BE UNDERSTOOD BACKWARD, BUT MUST
 BE LIVED FORWARD. -- KIRKEGAARD
 Job cpu time:       0 days  0 hours  1 minutes 53.7 seconds.
 File lengths (MBytes):  RWF=     10 Int=      0 D2E=      0 Chk=      3 Scr=      1
 Normal termination of Gaussian 09 at Tue Oct 12 14:18:03 2021.
