 Entering Gaussian System, Link 0=g09
 Input=brhod_rOH_120_sp.gjf
 Output=brhod_rOH_120_sp.log
 Initial command:
 /usr/local/gaussian/g09/l1.exe "/scratch/Gau-14991.inp" -scrdir="/scratch/"
 Entering Link 1 = /usr/local/gaussian/g09/l1.exe PID=     14992.
  
 Copyright (c) 1988,1990,1992,1993,1995,1998,2003,2009,2015,
            Gaussian, Inc.  All Rights Reserved.
  
 This is part of the Gaussian(R) 09 program.  It is based on
 the Gaussian(R) 03 system (copyright 2003, Gaussian, Inc.),
 the Gaussian(R) 98 system (copyright 1998, Gaussian, Inc.),
 the Gaussian(R) 94 system (copyright 1995, Gaussian, Inc.),
 the Gaussian 92(TM) system (copyright 1992, Gaussian, Inc.),
 the Gaussian 90(TM) system (copyright 1990, Gaussian, Inc.),
 the Gaussian 88(TM) system (copyright 1988, Gaussian, Inc.),
 the Gaussian 86(TM) system (copyright 1986, Carnegie Mellon
 University), and the Gaussian 82(TM) system (copyright 1983,
 Carnegie Mellon University). Gaussian is a federally registered
 trademark of Gaussian, Inc.
  
 This software contains proprietary and confidential information,
 including trade secrets, belonging to Gaussian, Inc.
  
 This software is provided under written license and may be
 used, copied, transmitted, or stored only in accord with that
 written license.
  
 The following legend is applicable only to US Government
 contracts under FAR:
  
                    RESTRICTED RIGHTS LEGEND
  
 Use, reproduction and disclosure by the US Government is
 subject to restrictions as set forth in subparagraphs (a)
 and (c) of the Commercial Computer Software - Restricted
 Rights clause in FAR 52.227-19.
  
 Gaussian, Inc.
 340 Quinnipiac St., Bldg. 40, Wallingford CT 06492
  
  
 ---------------------------------------------------------------
 Warning -- This program may not be used in any manner that
 competes with the business of Gaussian, Inc. or will provide
 assistance to any competitor of Gaussian, Inc.  The licensee
 of this program is prohibited from giving any competitor of
 Gaussian, Inc. access to this program.  By using this program,
 the user acknowledges that Gaussian, Inc. is engaged in the
 business of creating and licensing software in the field of
 computational chemistry and represents and warrants to the
 licensee that it is not a competitor of Gaussian, Inc. and that
 it will not use this program in any manner prohibited above.
 ---------------------------------------------------------------
  

 Cite this work as:
 Gaussian 09, Revision E.01,
 M. J. Frisch, G. W. Trucks, H. B. Schlegel, G. E. Scuseria, 
 M. A. Robb, J. R. Cheeseman, G. Scalmani, V. Barone, B. Mennucci, 
 G. A. Petersson, H. Nakatsuji, M. Caricato, X. Li, H. P. Hratchian, 
 A. F. Izmaylov, J. Bloino, G. Zheng, J. L. Sonnenberg, M. Hada, 
 M. Ehara, K. Toyota, R. Fukuda, J. Hasegawa, M. Ishida, T. Nakajima, 
 Y. Honda, O. Kitao, H. Nakai, T. Vreven, J. A. Montgomery, Jr., 
 J. E. Peralta, F. Ogliaro, M. Bearpark, J. J. Heyd, E. Brothers, 
 K. N. Kudin, V. N. Staroverov, T. Keith, R. Kobayashi, J. Normand, 
 K. Raghavachari, A. Rendell, J. C. Burant, S. S. Iyengar, J. Tomasi, 
 M. Cossi, N. Rega, J. M. Millam, M. Klene, J. E. Knox, J. B. Cross, 
 V. Bakken, C. Adamo, J. Jaramillo, R. Gomperts, R. E. Stratmann, 
 O. Yazyev, A. J. Austin, R. Cammi, C. Pomelli, J. W. Ochterski, 
 R. L. Martin, K. Morokuma, V. G. Zakrzewski, G. A. Voth, 
 P. Salvador, J. J. Dannenberg, S. Dapprich, A. D. Daniels, 
 O. Farkas, J. B. Foresman, J. V. Ortiz, J. Cioslowski, 
 and D. J. Fox, Gaussian, Inc., Wallingford CT, 2013.
 
 ******************************************
 Gaussian 09:  ES64L-G09RevE.01 30-Nov-2015
                12-Oct-2021 
 ******************************************
 %nproc=12
 Will use up to   12 processors via shared memory.
 %mem=8000MB
 %chk=/home/netid.washington.edu/cgavinh/mccoy_hocl/rOH_s_oop_0/brhod/brhod_rOH_1
 20_sp.chk
 ----------------------------------------------------
 #p pop=NBO SP NoSymm mp2/aug-cc-pvtz density=current
 ----------------------------------------------------
 1/30=1,38=1/1;
 2/12=2,15=1,17=6,18=5,40=1/2;
 3/5=16,6=1,7=10,11=9,16=1,25=1,30=1,71=1/1,2,3;
 4//1;
 5/5=2,38=5/2;
 8/6=4,10=1/1;
 9/15=1,16=-3/6;
 10/5=1,13=10,31=1/2;
 6/7=2,8=2,9=2,10=2,22=-1,40=1/1,7;
 99/5=1,9=1/99;
 Leave Link    1 at Tue Oct 12 14:17:29 2021, MaxMem=  1048576000 cpu:         0.4
 (Enter /usr/local/gaussian/g09/l101.exe)
 -----
 title
 -----
 Symbolic Z-matrix:
 Charge = -1 Multiplicity = 1
 O
 X                    1     10. 
 H(iso=2)             1    r1       2     90. 
 Br                   1    r2       2     90.      3    a1       0
 H                    1    r3       2    oop      3    a1       0
       Variables:
  r1                    0.96079                  
  r2                    3.25662                  
  r3                    1.2                      
  a1                  101.73887                  
  OOP                  90.                       
 
 NAtoms=      4 NQM=        4 NQMF=       0 NMMI=      0 NMMIF=      0
                NMic=       0 NMicF=      0.
                    Isotopes and Nuclear Properties:
 (Nuclear quadrupole moments (NQMom) in fm**2, nuclear magnetic moments (NMagM)
  in nuclear magnetons)

  Atom         1           2           3           4
 IAtWgt=          16           2          79           1
 AtmWgt=  15.9949146   2.0141018  78.9183361   1.0078250
 NucSpn=           0           2           3           1
 AtZEff=   0.0000000   0.0000000   0.0000000   0.0000000
 NQMom=    0.0000000   0.2860000  31.3000000   0.0000000
 NMagM=    0.0000000   0.8574380   2.1063990   2.7928460
 AtZNuc=   8.0000000   1.0000000  35.0000000   1.0000000
 Leave Link  101 at Tue Oct 12 14:17:29 2021, MaxMem=  1048576000 cpu:         0.4
 (Enter /usr/local/gaussian/g09/l202.exe)
                          Input orientation:                          
 ---------------------------------------------------------------------
 Center     Atomic      Atomic             Coordinates (Angstroms)
 Number     Number       Type             X           Y           Z
 ---------------------------------------------------------------------
      1          8           0        0.000000    0.000000    0.000000
      2          1           0        0.960788    0.000000    0.000000
      3         35           0       -0.662564   -3.188507    0.000000
      4          1           0       -0.244142   -1.174902    0.000000
 ---------------------------------------------------------------------
                    Distance matrix (angstroms):
                    1          2          3          4
     1  O    0.000000
     2  H    0.960788   0.000000
     3  Br   3.256620   3.577967   0.000000
     4  H    1.200000   1.682929   2.056620   0.000000
 Symmetry turned off by external request.
 Stoichiometry    BrH2O(1-)
 Framework group  CS[SG(BrH2O)]
 Deg. of freedom     5
 Full point group                 CS      NOp   2
 Rotational constants (GHZ):    323.1017595      3.1597329      3.1291319
 Leave Link  202 at Tue Oct 12 14:17:29 2021, MaxMem=  1048576000 cpu:         0.0
 (Enter /usr/local/gaussian/g09/l301.exe)
 Standard basis: Aug-CC-pVTZ (5D, 7F)
 Ernie: Thresh=  0.10000D-02 Tol=  0.10000D-05 Strict=F.
 Ernie:  35 primitive shells out of 175 were deleted.
   151 basis functions,   343 primitive gaussians,   174 cartesian basis functions
    23 alpha electrons       23 beta electrons
       nuclear repulsion energy        67.9285760092 Hartrees.
 IExCor=    0 DFT=F Ex=HF Corr=None ExCW=0 ScaHFX=  1.000000
 ScaDFX=  1.000000  1.000000  1.000000  1.000000 ScalE2=  1.000000  1.000000
 IRadAn=      0 IRanWt=     -1 IRanGd=            0 ICorTp=0 IEmpDi=  4
 NAtoms=    4 NActive=    4 NUniq=    4 SFac= 1.00D+00 NAtFMM=   60 NAOKFM=F Big=F
 Integral buffers will be    131072 words long.
 Raffenetti 1 integral format.
 Two-electron integral symmetry is turned off.
 Leave Link  301 at Tue Oct 12 14:17:29 2021, MaxMem=  1048576000 cpu:         0.3
 (Enter /usr/local/gaussian/g09/l302.exe)
 NPDir=0 NMtPBC=     1 NCelOv=     1 NCel=       1 NClECP=     1 NCelD=      1
         NCelK=      1 NCelE2=     1 NClLst=     1 CellRange=     0.0.
 One-electron integrals computed using PRISM.
 NBasis=   151 RedAO= T EigKep=  3.48D-04  NBF=   151
 NBsUse=   151 1.00D-06 EigRej= -1.00D+00 NBFU=   151
 Leave Link  302 at Tue Oct 12 14:17:29 2021, MaxMem=  1048576000 cpu:         1.6
 (Enter /usr/local/gaussian/g09/l303.exe)
 DipDrv:  MaxL=1.
 Leave Link  303 at Tue Oct 12 14:17:29 2021, MaxMem=  1048576000 cpu:         0.2
 (Enter /usr/local/gaussian/g09/l401.exe)
 ExpMin= 2.53D-02 ExpMax= 1.06D+07 ExpMxC= 1.21D+04 IAcc=3 IRadAn=         5 AccDes= 0.00D+00
 Harris functional with IExCor=  205 and IRadAn=       5 diagonalized for initial guess.
 HarFok:  IExCor=  205 AccDes= 0.00D+00 IRadAn=         5 IDoV= 1 UseB2=F ITyADJ=14
 ICtDFT=  3500011 ScaDFX=  1.000000  1.000000  1.000000  1.000000
 FoFCou: FMM=F IPFlag=           0 FMFlag=      100000 FMFlg1=           0
         NFxFlg=           0 DoJE=T BraDBF=F KetDBF=T FulRan=T
         wScrn=  0.000000 ICntrl=     500 IOpCl=  0 I1Cent=   200000004 NGrid=           0
         NMat0=    1 NMatS0=      1 NMatT0=    0 NMatD0=    1 NMtDS0=    0 NMtDT0=    0
 Symmetry not used in FoFCou.
 Harris En= -2647.99031194024    
 JPrj=0 DoOrth=F DoCkMO=F.
 Leave Link  401 at Tue Oct 12 14:17:29 2021, MaxMem=  1048576000 cpu:         2.6
 (Enter /usr/local/gaussian/g09/l502.exe)
 Closed shell SCF:
 Using DIIS extrapolation, IDIIS=  1040.
 Two-electron integral symmetry not used.
 Keep R1 ints in memory in canonical form, NReq=69268980.
 IVT=      112518 IEndB=      112518 NGot=  1048576000 MDV=   982608457
 LenX=   982608457 LenY=   982577740
 Requested convergence on RMS density matrix=1.00D-08 within 128 cycles.
 Requested convergence on MAX density matrix=1.00D-06.
 Requested convergence on             energy=1.00D-06.
 No special actions if energy rises.
 FoFCou: FMM=F IPFlag=           0 FMFlag=           0 FMFlg1=           0
         NFxFlg=           0 DoJE=F BraDBF=F KetDBF=F FulRan=T
         wScrn=  0.000000 ICntrl=     600 IOpCl=  0 I1Cent=           0 NGrid=           0
         NMat0=    1 NMatS0=  11476 NMatT0=    0 NMatD0=    1 NMtDS0=    0 NMtDT0=    0
 Symmetry not used in FoFCou.

 Cycle   1  Pass 1  IDiag  1:
 E= -2648.41443407009    
 DIIS: error= 5.82D-02 at cycle   1 NSaved=   1.
 NSaved= 1 IEnMin= 1 EnMin= -2648.41443407009     IErMin= 1 ErrMin= 5.82D-02
 ErrMax= 5.82D-02  0.00D+00 EMaxC= 1.00D-01 BMatC= 5.51D-01 BMatP= 5.51D-01
 IDIUse=3 WtCom= 4.18D-01 WtEn= 5.82D-01
 Coeff-Com:  0.100D+01
 Coeff-En:   0.100D+01
 Coeff:      0.100D+01
 Gap=     0.480 Goal=   None    Shift=    0.000
 GapD=    0.480 DampG=2.000 DampE=0.500 DampFc=1.0000 IDamp=-1.
 RMSDP=3.26D-03 MaxDP=1.01D-01              OVMax= 1.31D-01

 Cycle   2  Pass 1  IDiag  1:
 E= -2648.53194182554     Delta-E=       -0.117507755451 Rises=F Damp=F
 DIIS: error= 2.27D-02 at cycle   2 NSaved=   2.
 NSaved= 2 IEnMin= 2 EnMin= -2648.53194182554     IErMin= 2 ErrMin= 2.27D-02
 ErrMax= 2.27D-02  0.00D+00 EMaxC= 1.00D-01 BMatC= 7.16D-02 BMatP= 5.51D-01
 IDIUse=3 WtCom= 7.73D-01 WtEn= 2.27D-01
 Coeff-Com:  0.212D+00 0.788D+00
 Coeff-En:   0.000D+00 0.100D+01
 Coeff:      0.164D+00 0.836D+00
 Gap=     0.326 Goal=   None    Shift=    0.000
 RMSDP=1.30D-03 MaxDP=4.42D-02 DE=-1.18D-01 OVMax= 8.32D-02

 Cycle   3  Pass 1  IDiag  1:
 E= -2648.56646089153     Delta-E=       -0.034519065985 Rises=F Damp=F
 DIIS: error= 1.12D-02 at cycle   3 NSaved=   3.
 NSaved= 3 IEnMin= 3 EnMin= -2648.56646089153     IErMin= 3 ErrMin= 1.12D-02
 ErrMax= 1.12D-02  0.00D+00 EMaxC= 1.00D-01 BMatC= 1.56D-02 BMatP= 7.16D-02
 IDIUse=3 WtCom= 8.88D-01 WtEn= 1.12D-01
 Coeff-Com:  0.105D-01 0.321D+00 0.668D+00
 Coeff-En:   0.000D+00 0.732D-01 0.927D+00
 Coeff:      0.930D-02 0.293D+00 0.697D+00
 Gap=     0.318 Goal=   None    Shift=    0.000
 RMSDP=3.90D-04 MaxDP=1.12D-02 DE=-3.45D-02 OVMax= 2.67D-02

 Cycle   4  Pass 1  IDiag  1:
 E= -2648.57621209456     Delta-E=       -0.009751203032 Rises=F Damp=F
 DIIS: error= 9.19D-04 at cycle   4 NSaved=   4.
 NSaved= 4 IEnMin= 4 EnMin= -2648.57621209456     IErMin= 4 ErrMin= 9.19D-04
 ErrMax= 9.19D-04  0.00D+00 EMaxC= 1.00D-01 BMatC= 1.08D-04 BMatP= 1.56D-02
 IDIUse=3 WtCom= 9.91D-01 WtEn= 9.19D-03
 Coeff-Com: -0.386D-02-0.242D-01 0.352D-01 0.993D+00
 Coeff-En:   0.000D+00 0.000D+00 0.000D+00 0.100D+01
 Coeff:     -0.382D-02-0.240D-01 0.348D-01 0.993D+00
 Gap=     0.316 Goal=   None    Shift=    0.000
 RMSDP=4.77D-05 MaxDP=1.25D-03 DE=-9.75D-03 OVMax= 3.29D-03

 Cycle   5  Pass 1  IDiag  1:
 E= -2648.57630685914     Delta-E=       -0.000094764579 Rises=F Damp=F
 DIIS: error= 1.19D-04 at cycle   5 NSaved=   5.
 NSaved= 5 IEnMin= 5 EnMin= -2648.57630685914     IErMin= 5 ErrMin= 1.19D-04
 ErrMax= 1.19D-04  0.00D+00 EMaxC= 1.00D-01 BMatC= 2.06D-06 BMatP= 1.08D-04
 IDIUse=3 WtCom= 9.99D-01 WtEn= 1.19D-03
 Coeff-Com:  0.117D-02-0.118D-02-0.302D-01-0.325D+00 0.136D+01
 Coeff-En:   0.000D+00 0.000D+00 0.000D+00 0.000D+00 0.100D+01
 Coeff:      0.117D-02-0.118D-02-0.301D-01-0.324D+00 0.135D+01
 Gap=     0.316 Goal=   None    Shift=    0.000
 RMSDP=2.18D-05 MaxDP=5.93D-04 DE=-9.48D-05 OVMax= 1.26D-03

 Cycle   6  Pass 1  IDiag  1:
 E= -2648.57631374162     Delta-E=       -0.000006882483 Rises=F Damp=F
 DIIS: error= 3.66D-05 at cycle   6 NSaved=   6.
 NSaved= 6 IEnMin= 6 EnMin= -2648.57631374162     IErMin= 6 ErrMin= 3.66D-05
 ErrMax= 3.66D-05  0.00D+00 EMaxC= 1.00D-01 BMatC= 1.31D-07 BMatP= 2.06D-06
 IDIUse=1 WtCom= 1.00D+00 WtEn= 0.00D+00
 Coeff-Com: -0.537D-04 0.211D-02 0.429D-02-0.470D-02-0.233D+00 0.123D+01
 Coeff:     -0.537D-04 0.211D-02 0.429D-02-0.470D-02-0.233D+00 0.123D+01
 Gap=     0.316 Goal=   None    Shift=    0.000
 RMSDP=4.75D-06 MaxDP=1.05D-04 DE=-6.88D-06 OVMax= 3.54D-04

 Cycle   7  Pass 1  IDiag  1:
 E= -2648.57631416905     Delta-E=       -0.000000427427 Rises=F Damp=F
 DIIS: error= 8.58D-06 at cycle   7 NSaved=   7.
 NSaved= 7 IEnMin= 7 EnMin= -2648.57631416905     IErMin= 7 ErrMin= 8.58D-06
 ErrMax= 8.58D-06  0.00D+00 EMaxC= 1.00D-01 BMatC= 1.31D-08 BMatP= 1.31D-07
 IDIUse=1 WtCom= 1.00D+00 WtEn= 0.00D+00
 Coeff-Com: -0.109D-03-0.136D-03 0.264D-02 0.361D-01-0.145D+00 0.760D-01
 Coeff-Com:  0.103D+01
 Coeff:     -0.109D-03-0.136D-03 0.264D-02 0.361D-01-0.145D+00 0.760D-01
 Coeff:      0.103D+01
 Gap=     0.316 Goal=   None    Shift=    0.000
 RMSDP=1.12D-06 MaxDP=2.61D-05 DE=-4.27D-07 OVMax= 8.04D-05

 Cycle   8  Pass 1  IDiag  1:
 E= -2648.57631419775     Delta-E=       -0.000000028694 Rises=F Damp=F
 DIIS: error= 2.69D-06 at cycle   8 NSaved=   8.
 NSaved= 8 IEnMin= 8 EnMin= -2648.57631419775     IErMin= 8 ErrMin= 2.69D-06
 ErrMax= 2.69D-06  0.00D+00 EMaxC= 1.00D-01 BMatC= 9.07D-10 BMatP= 1.31D-08
 IDIUse=1 WtCom= 1.00D+00 WtEn= 0.00D+00
 Coeff-Com:  0.999D-05-0.112D-03-0.498D-03-0.310D-02 0.326D-01-0.116D+00
 Coeff-Com: -0.503D-01 0.114D+01
 Coeff:      0.999D-05-0.112D-03-0.498D-03-0.310D-02 0.326D-01-0.116D+00
 Coeff:     -0.503D-01 0.114D+01
 Gap=     0.316 Goal=   None    Shift=    0.000
 RMSDP=3.10D-07 MaxDP=7.69D-06 DE=-2.87D-08 OVMax= 2.43D-05

 Cycle   9  Pass 1  IDiag  1:
 E= -2648.57631420007     Delta-E=       -0.000000002329 Rises=F Damp=F
 DIIS: error= 6.93D-07 at cycle   9 NSaved=   9.
 NSaved= 9 IEnMin= 9 EnMin= -2648.57631420007     IErMin= 9 ErrMin= 6.93D-07
 ErrMax= 6.93D-07  0.00D+00 EMaxC= 1.00D-01 BMatC= 7.36D-11 BMatP= 9.07D-10
 IDIUse=1 WtCom= 1.00D+00 WtEn= 0.00D+00
 Coeff-Com:  0.638D-05-0.147D-04-0.156D-03-0.173D-02 0.785D-02-0.447D-02
 Coeff-Com: -0.647D-01 0.108D-01 0.105D+01
 Coeff:      0.638D-05-0.147D-04-0.156D-03-0.173D-02 0.785D-02-0.447D-02
 Coeff:     -0.647D-01 0.108D-01 0.105D+01
 Gap=     0.316 Goal=   None    Shift=    0.000
 RMSDP=7.30D-08 MaxDP=1.76D-06 DE=-2.33D-09 OVMax= 6.34D-06

 Cycle  10  Pass 1  IDiag  1:
 E= -2648.57631420024     Delta-E=       -0.000000000165 Rises=F Damp=F
 DIIS: error= 2.07D-07 at cycle  10 NSaved=  10.
 NSaved=10 IEnMin=10 EnMin= -2648.57631420024     IErMin=10 ErrMin= 2.07D-07
 ErrMax= 2.07D-07  0.00D+00 EMaxC= 1.00D-01 BMatC= 7.60D-12 BMatP= 7.36D-11
 IDIUse=1 WtCom= 1.00D+00 WtEn= 0.00D+00
 Coeff-Com: -0.697D-06 0.194D-04 0.459D-04 0.417D-05-0.268D-02 0.132D-01
 Coeff-Com: -0.177D-02-0.124D+00-0.155D-02 0.112D+01
 Coeff:     -0.697D-06 0.194D-04 0.459D-04 0.417D-05-0.268D-02 0.132D-01
 Coeff:     -0.177D-02-0.124D+00-0.155D-02 0.112D+01
 Gap=     0.316 Goal=   None    Shift=    0.000
 RMSDP=3.45D-08 MaxDP=9.81D-07 DE=-1.65D-10 OVMax= 2.32D-06

 Cycle  11  Pass 1  IDiag  1:
 E= -2648.57631420027     Delta-E=       -0.000000000034 Rises=F Damp=F
 DIIS: error= 6.12D-08 at cycle  11 NSaved=  11.
 NSaved=11 IEnMin=11 EnMin= -2648.57631420027     IErMin=11 ErrMin= 6.12D-08
 ErrMax= 6.12D-08  0.00D+00 EMaxC= 1.00D-01 BMatC= 4.04D-13 BMatP= 7.60D-12
 IDIUse=1 WtCom= 1.00D+00 WtEn= 0.00D+00
 Coeff-Com: -0.182D-06-0.320D-05-0.213D-05 0.101D-03 0.113D-03-0.223D-02
 Coeff-Com:  0.414D-02 0.207D-01-0.668D-01-0.178D+00 0.122D+01
 Coeff:     -0.182D-06-0.320D-05-0.213D-05 0.101D-03 0.113D-03-0.223D-02
 Coeff:      0.414D-02 0.207D-01-0.668D-01-0.178D+00 0.122D+01
 Gap=     0.316 Goal=   None    Shift=    0.000
 RMSDP=1.15D-08 MaxDP=3.84D-07 DE=-3.37D-11 OVMax= 7.45D-07

 Cycle  12  Pass 1  IDiag  1:
 E= -2648.57631420027     Delta-E=        0.000000000002 Rises=F Damp=F
 DIIS: error= 2.01D-08 at cycle  12 NSaved=  12.
 NSaved=12 IEnMin=11 EnMin= -2648.57631420027     IErMin=12 ErrMin= 2.01D-08
 ErrMax= 2.01D-08  0.00D+00 EMaxC= 1.00D-01 BMatC= 2.63D-14 BMatP= 4.04D-13
 IDIUse=1 WtCom= 1.00D+00 WtEn= 0.00D+00
 Coeff-Com:  0.709D-07-0.103D-05-0.261D-05-0.114D-04 0.168D-03-0.757D-03
 Coeff-Com:  0.188D-04 0.630D-02 0.651D-02-0.595D-01-0.132D+00 0.118D+01
 Coeff:      0.709D-07-0.103D-05-0.261D-05-0.114D-04 0.168D-03-0.757D-03
 Coeff:      0.188D-04 0.630D-02 0.651D-02-0.595D-01-0.132D+00 0.118D+01
 Gap=     0.316 Goal=   None    Shift=    0.000
 RMSDP=2.60D-09 MaxDP=6.74D-08 DE= 1.82D-12 OVMax= 1.47D-07

 SCF Done:  E(RHF) =  -2648.57631420     A.U. after   12 cycles
            NFock= 12  Conv=0.26D-08     -V/T= 2.0001
 KE= 2.648288578170D+03 PE=-6.483352159138D+03 EE= 1.118558690758D+03
 Leave Link  502 at Tue Oct 12 14:17:31 2021, MaxMem=  1048576000 cpu:        12.8
 (Enter /usr/local/gaussian/g09/l801.exe)
 ExpMin= 2.53D-02 ExpMax= 1.06D+07 ExpMxC= 1.21D+04 IAcc=3 IRadAn=         5 AccDes= 0.00D+00
 HarFok:  IExCor=  205 AccDes= 0.00D+00 IRadAn=         5 IDoV=-2 UseB2=F ITyADJ=14
 ICtDFT= 12500011 ScaDFX=  1.000000  1.000000  1.000000  1.000000
 DSYEVD-2 returned Info=         119 IAlg= 4 N=    59 NDim=    59 NE2=    17771069 trying  DSYEV.
 Largest valence mixing into a core orbital is  1.30D-04
 Largest core mixing into a valence orbital is  3.61D-05
 Range of M.O.s used for correlation:    11   151
 NBasis=   151 NAE=    23 NBE=    23 NFC=    10 NFV=     0
 NROrb=    141 NOA=    13 NOB=    13 NVA=   128 NVB=   128

 **** Warning!!: The largest alpha MO coefficient is  0.15166805D+02

 Leave Link  801 at Tue Oct 12 14:17:31 2021, MaxMem=  1048576000 cpu:         0.7
 (Enter /usr/local/gaussian/g09/l906.exe)
 Frozen-core derivative calculation, NFC=  10 NFV=   0.
 FulOut=F Deriv=T AODrv=F NAtomX=     4
   MMem=         391  MDisk=          13 MDiskD=          13
  W3Min=      604302 MinDsk=     1007783 NBas6D=         174
 NBas2D=       15618    NTT=       15225    LW2=     9911920
    MDV=  1048225816 MDiskM=       30063 NBas2p=       15367
 Fully in-core method, ICMem=   275066562.
 IMap=   1   2   3   4   5   6   7   8   9  10  11  12  13  14  15  16  17  18  19  20
 IMap=  21  22  23
 JobTyp=1 Pass  1 fully in-core, NPsUse= 12.
 Compute canonical integrals.
 FoFCou: FMM=F IPFlag=           0 FMFlag=           0 FMFlg1=           0
         NFxFlg=           0 DoJE=F BraDBF=F KetDBF=F FulRan=T
         wScrn=  0.000000 ICntrl=     600 IOpCl=  1 I1Cent=           0 NGrid=           0
         NMat0=    1 NMatS0=  15618 NMatT0=    0 NMatD0=    1 NMtDS0=    0 NMtDT0=    0
 Symmetry not used in FoFCou.
 Spin components of T(2) and E(2):
     alpha-alpha T2 =       0.2180526533D-01 E2=     -0.7183564109D-01
     alpha-beta  T2 =       0.1151490687D+00 E2=     -0.3869562179D+00
     beta-beta   T2 =       0.2180526533D-01 E2=     -0.7183564109D-01
 The integrals were generated   1 times.
 ANorm=    0.1076456966D+01
 E2 =    -0.5306275001D+00 EUMP2 =    -0.26491069417004D+04
 Leave Link  906 at Tue Oct 12 14:17:37 2021, MaxMem=  1048576000 cpu:        71.6
 (Enter /usr/local/gaussian/g09/l1002.exe)
 Minotr:  Closed shell wavefunction.
          Computing MP2/KS-MP2 derivatives.
          Using Z-Vector for PSCF gradient.
          Skipping F1 and S1 gradient terms here.
          Frozen-core window.
          Direct CPHF calculation.
          Differentiating once with respect to electric field.
                with respect to dipole field.
          Electric field/nuclear overlap derivatives assumed to be zero.
          Requested convergence is 1.0D-10 RMS, and 1.0D-09 maximum.
          NewPWx=F KeepS1=T KeepF1=T KeepIn=T MapXYZ=F SortEE=F KeepMc=T.
          MDV=    1048575823 using IRadAn=       0.
 Keep R1 ints in memory in canonical form, NReq=69224442.
 FoFCou: FMM=F IPFlag=           0 FMFlag=           0 FMFlg1=           0
         NFxFlg=           0 DoJE=F BraDBF=F KetDBF=F FulRan=T
         wScrn=  0.000000 ICntrl=     600 IOpCl=  0 I1Cent=           0 NGrid=           0
         NMat0=    1 NMatS0=  11476 NMatT0=    0 NMatD0=    1 NMtDS0=    0 NMtDT0=    0
 Symmetry not used in FoFCou.
          Solving linear equations separately, MaxMat=       0.
          There are     1 degrees of freedom in the 1st order CPHF.  IDoFFX=0 NUNeed=     1.
 LinEq1:  Iter=  0 NonCon=     1 RMS=2.80D-03 Max=6.46D-02 NDo=     1
 AX will form     1 AO Fock derivatives at one time.
 LinEq1:  Iter=  1 NonCon=     1 RMS=4.77D-04 Max=6.46D-03 NDo=     1
 LinEq1:  Iter=  2 NonCon=     1 RMS=1.95D-04 Max=2.47D-03 NDo=     1
 LinEq1:  Iter=  3 NonCon=     1 RMS=6.37D-05 Max=1.38D-03 NDo=     1
 LinEq1:  Iter=  4 NonCon=     1 RMS=9.78D-06 Max=1.20D-04 NDo=     1
 LinEq1:  Iter=  5 NonCon=     1 RMS=2.15D-06 Max=4.85D-05 NDo=     1
 LinEq1:  Iter=  6 NonCon=     1 RMS=6.44D-07 Max=7.40D-06 NDo=     1
 LinEq1:  Iter=  7 NonCon=     1 RMS=2.23D-07 Max=2.72D-06 NDo=     1
 LinEq1:  Iter=  8 NonCon=     1 RMS=9.27D-08 Max=9.53D-07 NDo=     1
 LinEq1:  Iter=  9 NonCon=     1 RMS=1.29D-08 Max=2.14D-07 NDo=     1
 LinEq1:  Iter= 10 NonCon=     1 RMS=2.21D-09 Max=3.29D-08 NDo=     1
 LinEq1:  Iter= 11 NonCon=     1 RMS=6.18D-10 Max=1.02D-08 NDo=     1
 LinEq1:  Iter= 12 NonCon=     1 RMS=1.00D-10 Max=1.26D-09 NDo=     1
 LinEq1:  Iter= 13 NonCon=     0 RMS=1.71D-11 Max=2.01D-10 NDo=     1
 Linear equations converged to 1.000D-10 1.000D-09 after    13 iterations.
 End of Minotr F.D. properties file   721 does not exist.
 End of Minotr F.D. properties file   722 does not exist.
 End of Minotr F.D. properties file   788 does not exist.
 Leave Link 1002 at Tue Oct 12 14:17:39 2021, MaxMem=  1048576000 cpu:        11.9
 (Enter /usr/local/gaussian/g09/l601.exe)
 Copying SCF densities to generalized density rwf, IOpCl= 0 IROHF=0.

 **********************************************************************

            Population analysis using the MP2 density.

 **********************************************************************

 Alpha  occ. eigenvalues -- -489.75619 -64.89645 -58.25099 -58.25089 -58.25088
 Alpha  occ. eigenvalues --  -20.37074  -9.56890  -7.17681  -7.17607  -7.17603
 Alpha  occ. eigenvalues --   -2.91860  -2.91825  -2.91820  -2.91732  -2.91732
 Alpha  occ. eigenvalues --   -1.11090  -0.72976  -0.46408  -0.37389  -0.30126
 Alpha  occ. eigenvalues --   -0.17945  -0.17531  -0.17479
 Alpha virt. eigenvalues --    0.14090   0.17305   0.23154   0.23930   0.24449
 Alpha virt. eigenvalues --    0.28004   0.30581   0.30741   0.33322   0.35415
 Alpha virt. eigenvalues --    0.40479   0.41838   0.41953   0.46398   0.47281
 Alpha virt. eigenvalues --    0.47997   0.48565   0.53556   0.57762   0.60249
 Alpha virt. eigenvalues --    0.61885   0.62677   0.69716   0.72771   0.74153
 Alpha virt. eigenvalues --    0.75230   0.80947   0.87371   0.89808   0.90896
 Alpha virt. eigenvalues --    0.93550   0.96104   0.98077   1.00039   1.00312
 Alpha virt. eigenvalues --    1.00601   1.03282   1.04777   1.08498   1.09611
 Alpha virt. eigenvalues --    1.10625   1.11610   1.17576   1.17779   1.19099
 Alpha virt. eigenvalues --    1.19271   1.19934   1.23122   1.25340   1.26371
 Alpha virt. eigenvalues --    1.34432   1.38571   1.43940   1.46678   1.47287
 Alpha virt. eigenvalues --    1.53098   1.65541   1.66449   1.69962   1.71958
 Alpha virt. eigenvalues --    1.75796   1.79760   2.01772   2.07710   2.13879
 Alpha virt. eigenvalues --    2.33712   2.41730   2.43136   2.44050   2.46593
 Alpha virt. eigenvalues --    2.53463   2.53884   2.54024   2.54969   2.55028
 Alpha virt. eigenvalues --    2.55648   2.55866   2.58091   2.60597   2.64278
 Alpha virt. eigenvalues --    2.64855   2.65744   2.68749   2.71627   2.72851
 Alpha virt. eigenvalues --    2.73799   2.78101   2.96240   2.98399   3.07514
 Alpha virt. eigenvalues --    3.13972   3.15262   3.24172   3.87332   3.99186
 Alpha virt. eigenvalues --    4.17517   4.23884   4.29074   4.37714   4.42661
 Alpha virt. eigenvalues --    4.52901   4.55609   4.60596   4.62642   4.75709
 Alpha virt. eigenvalues --    4.89967   4.94181   5.03446   5.07096   5.30706
 Alpha virt. eigenvalues --    5.43702   5.56738   5.66672   6.34650   6.69503
 Alpha virt. eigenvalues --    6.90546   6.99785   7.09917   7.36721   7.42767
 Alpha virt. eigenvalues --    7.47239   7.55179   7.60951   7.69081   7.90888
 Alpha virt. eigenvalues --    8.16884   8.36249  14.47866
          Condensed to atoms (all electrons):
               1          2          3          4
     1  O    8.338362   0.181531  -0.079388   0.158722
     2  H    0.181531   0.616957  -0.001417   0.039132
     3  Br  -0.079388  -0.001417  35.874923   0.027747
     4  H    0.158722   0.039132   0.027747   0.517102
 Mulliken charges:
               1
     1  O   -0.599227
     2  H    0.163796
     3  Br  -0.821866
     4  H    0.257297
 Sum of Mulliken charges =  -1.00000
 Mulliken charges with hydrogens summed into heavy atoms:
               1
     1  O   -0.178134
     3  Br  -0.821866
 Electronic spatial extent (au):  <R**2>=           1431.8656
 Charge=             -1.0000 electrons
 Dipole moment (field-independent basis, Debye):
    X=              3.5124    Y=             10.9936    Z=              0.0000  Tot=             11.5411
 Quadrupole moment (field-independent basis, Debye-Ang):
   XX=            -30.6160   YY=            -69.3799   ZZ=            -31.6365
   XY=             -7.4788   XZ=             -0.0000   YZ=             -0.0000
 Traceless Quadrupole moment (field-independent basis, Debye-Ang):
   XX=             13.2615   YY=            -25.5024   ZZ=             12.2410
   XY=             -7.4788   XZ=             -0.0000   YZ=             -0.0000
 Octapole moment (field-independent basis, Debye-Ang**2):
  XXX=             46.6094  YYY=            345.4600  ZZZ=              0.0000  XYY=             39.4931
  XXY=             79.0847  XXZ=              0.0000  XZZ=             14.5696  YZZ=             73.9801
  YYZ=              0.0000  XYZ=              0.0000
 Hexadecapole moment (field-independent basis, Debye-Ang**3):
 XXXX=           -108.2795 YYYY=          -1836.2529 ZZZZ=            -48.8752 XXXY=           -148.3933
 XXXZ=             -0.0000 YYYX=           -222.1184 YYYZ=             -0.0000 ZZZX=             -0.0000
 ZZZY=             -0.0000 XXYY=           -276.4522 XXZZ=            -26.4341 YYZZ=           -250.7342
 XXYZ=             -0.0000 YYXZ=             -0.0000 ZZXY=            -48.4202
 N-N= 6.792857600915D+01 E-N=-6.481823081518D+03  KE= 2.648160945609D+03
 No NMR shielding tensors so no spin-rotation constants.
 Leave Link  601 at Tue Oct 12 14:17:40 2021, MaxMem=  1048576000 cpu:         2.2
 (Enter /usr/local/gaussian/g09/l607.exe)
 ******************************Gaussian NBO Version 3.1******************************
             N A T U R A L   A T O M I C   O R B I T A L   A N D
          N A T U R A L   B O N D   O R B I T A L   A N A L Y S I S
 ******************************Gaussian NBO Version 3.1******************************
       /RESON  / : Allow strongly delocalized NBO set

 Analyzing the MP2 density

 Job title: title                                                           

 Storage needed:     69217 in NPA,     91732 in NBO (1048575904 available)


 NATURAL POPULATIONS:  Natural atomic orbital occupancies 
                                                          
   NAO  Atom  No  lang   Type(AO)    Occupancy
 --------------------------------------------
     1    O    1  S      Cor( 1S)     1.99971
     2    O    1  S      Val( 2S)     1.78161
     3    O    1  S      Ryd( 3S)     0.00715
     4    O    1  S      Ryd( 4S)     0.00038
     5    O    1  S      Ryd( 5S)     0.00019
     6    O    1  px     Val( 2p)     1.52047
     7    O    1  px     Ryd( 3p)     0.01162
     8    O    1  px     Ryd( 4p)     0.00055
     9    O    1  px     Ryd( 5p)     0.00010
    10    O    1  py     Val( 2p)     1.68379
    11    O    1  py     Ryd( 3p)     0.01276
    12    O    1  py     Ryd( 4p)     0.00056
    13    O    1  py     Ryd( 5p)     0.00012
    14    O    1  pz     Val( 2p)     1.95276
    15    O    1  pz     Ryd( 3p)     0.02284
    16    O    1  pz     Ryd( 4p)     0.00058
    17    O    1  pz     Ryd( 5p)     0.00000
    18    O    1  dxy    Ryd( 3d)     0.00812
    19    O    1  dxy    Ryd( 4d)     0.00047
    20    O    1  dxy    Ryd( 5d)     0.00008
    21    O    1  dxz    Ryd( 3d)     0.00863
    22    O    1  dxz    Ryd( 4d)     0.00050
    23    O    1  dxz    Ryd( 5d)     0.00007
    24    O    1  dyz    Ryd( 3d)     0.00713
    25    O    1  dyz    Ryd( 4d)     0.00054
    26    O    1  dyz    Ryd( 5d)     0.00008
    27    O    1  dx2y2  Ryd( 3d)     0.01245
    28    O    1  dx2y2  Ryd( 4d)     0.00042
    29    O    1  dx2y2  Ryd( 5d)     0.00011
    30    O    1  dz2    Ryd( 3d)     0.00848
    31    O    1  dz2    Ryd( 4d)     0.00055
    32    O    1  dz2    Ryd( 5d)     0.00011
    33    O    1  f(0)   Ryd( 4f)     0.00062
    34    O    1  f(0)   Ryd( 5f)     0.00011
    35    O    1  f(C1)  Ryd( 4f)     0.00057
    36    O    1  f(C1)  Ryd( 5f)     0.00009
    37    O    1  f(S1)  Ryd( 4f)     0.00061
    38    O    1  f(S1)  Ryd( 5f)     0.00010
    39    O    1  f(C2)  Ryd( 4f)     0.00047
    40    O    1  f(C2)  Ryd( 5f)     0.00010
    41    O    1  f(S2)  Ryd( 4f)     0.00047
    42    O    1  f(S2)  Ryd( 5f)     0.00008
    43    O    1  f(C3)  Ryd( 4f)     0.00045
    44    O    1  f(C3)  Ryd( 5f)     0.00013
    45    O    1  f(S3)  Ryd( 4f)     0.00045
    46    O    1  f(S3)  Ryd( 5f)     0.00009

    47    H    2  S      Val( 1S)     0.55515
    48    H    2  S      Ryd( 2S)     0.00208
    49    H    2  S      Ryd( 3S)     0.00016
    50    H    2  S      Ryd( 4S)     0.00009
    51    H    2  px     Ryd( 2p)     0.00197
    52    H    2  px     Ryd( 3p)     0.00068
    53    H    2  px     Ryd( 4p)     0.00014
    54    H    2  py     Ryd( 2p)     0.00208
    55    H    2  py     Ryd( 3p)     0.00024
    56    H    2  py     Ryd( 4p)     0.00011
    57    H    2  pz     Ryd( 2p)     0.00480
    58    H    2  pz     Ryd( 3p)     0.00019
    59    H    2  pz     Ryd( 4p)     0.00006
    60    H    2  dxy    Ryd( 3d)     0.00007
    61    H    2  dxy    Ryd( 4d)     0.00005
    62    H    2  dxz    Ryd( 3d)     0.00008
    63    H    2  dxz    Ryd( 4d)     0.00006
    64    H    2  dyz    Ryd( 3d)     0.00012
    65    H    2  dyz    Ryd( 4d)     0.00004
    66    H    2  dx2y2  Ryd( 3d)     0.00010
    67    H    2  dx2y2  Ryd( 4d)     0.00005
    68    H    2  dz2    Ryd( 3d)     0.00012
    69    H    2  dz2    Ryd( 4d)     0.00007

    70   Br    3  S      Cor( 1S)     2.00000
    71   Br    3  S      Cor( 2S)     2.00000
    72   Br    3  S      Cor( 3S)     1.99980
    73   Br    3  S      Val( 4S)     1.96399
    74   Br    3  S      Ryd( 5S)     0.00190
    75   Br    3  S      Ryd( 6S)     0.00046
    76   Br    3  S      Ryd( 7S)     0.00009
    77   Br    3  px     Cor( 2p)     2.00000
    78   Br    3  px     Cor( 3p)     1.99999
    79   Br    3  px     Val( 4p)     1.94845
    80   Br    3  px     Ryd( 5p)     0.01114
    81   Br    3  px     Ryd( 6p)     0.00082
    82   Br    3  px     Ryd( 7p)     0.00005
    83   Br    3  py     Cor( 2p)     2.00000
    84   Br    3  py     Cor( 3p)     1.99990
    85   Br    3  py     Val( 4p)     1.83058
    86   Br    3  py     Ryd( 5p)     0.00929
    87   Br    3  py     Ryd( 6p)     0.00078
    88   Br    3  py     Ryd( 7p)     0.00016
    89   Br    3  pz     Cor( 2p)     2.00000
    90   Br    3  pz     Cor( 3p)     2.00000
    91   Br    3  pz     Val( 4p)     1.95423
    92   Br    3  pz     Ryd( 5p)     0.01120
    93   Br    3  pz     Ryd( 6p)     0.00082
    94   Br    3  pz     Ryd( 7p)     0.00003
    95   Br    3  dxy    Cor( 3d)     1.99765
    96   Br    3  dxy    Ryd( 4d)     0.01861
    97   Br    3  dxy    Ryd( 5d)     0.00140
    98   Br    3  dxy    Ryd( 6d)     0.00021
    99   Br    3  dxz    Cor( 3d)     1.99769
   100   Br    3  dxz    Ryd( 4d)     0.01852
   101   Br    3  dxz    Ryd( 5d)     0.00173
   102   Br    3  dxz    Ryd( 6d)     0.00021
   103   Br    3  dyz    Cor( 3d)     1.99766
   104   Br    3  dyz    Ryd( 4d)     0.01862
   105   Br    3  dyz    Ryd( 5d)     0.00141
   106   Br    3  dyz    Ryd( 6d)     0.00020
   107   Br    3  dx2y2  Cor( 3d)     1.99762
   108   Br    3  dx2y2  Ryd( 4d)     0.01852
   109   Br    3  dx2y2  Ryd( 5d)     0.00155
   110   Br    3  dx2y2  Ryd( 6d)     0.00022
   111   Br    3  dz2    Cor( 3d)     1.99766
   112   Br    3  dz2    Ryd( 4d)     0.01853
   113   Br    3  dz2    Ryd( 5d)     0.00168
   114   Br    3  dz2    Ryd( 6d)     0.00021
   115   Br    3  f(0)   Ryd( 4f)     0.00173
   116   Br    3  f(0)   Ryd( 5f)     0.00024
   117   Br    3  f(C1)  Ryd( 4f)     0.00175
   118   Br    3  f(C1)  Ryd( 5f)     0.00024
   119   Br    3  f(S1)  Ryd( 4f)     0.00176
   120   Br    3  f(S1)  Ryd( 5f)     0.00026
   121   Br    3  f(C2)  Ryd( 4f)     0.00171
   122   Br    3  f(C2)  Ryd( 5f)     0.00025
   123   Br    3  f(S2)  Ryd( 4f)     0.00175
   124   Br    3  f(S2)  Ryd( 5f)     0.00024
   125   Br    3  f(C3)  Ryd( 4f)     0.00170
   126   Br    3  f(C3)  Ryd( 5f)     0.00026
   127   Br    3  f(S3)  Ryd( 4f)     0.00174
   128   Br    3  f(S3)  Ryd( 5f)     0.00027

   129    H    4  S      Val( 1S)     0.52467
   130    H    4  S      Ryd( 2S)     0.00660
   131    H    4  S      Ryd( 3S)     0.00045
   132    H    4  S      Ryd( 4S)     0.00014
   133    H    4  px     Ryd( 2p)     0.00372
   134    H    4  px     Ryd( 3p)     0.00041
   135    H    4  px     Ryd( 4p)     0.00007
   136    H    4  py     Ryd( 2p)     0.00383
   137    H    4  py     Ryd( 3p)     0.00089
   138    H    4  py     Ryd( 4p)     0.00017
   139    H    4  pz     Ryd( 2p)     0.00388
   140    H    4  pz     Ryd( 3p)     0.00038
   141    H    4  pz     Ryd( 4p)     0.00006
   142    H    4  dxy    Ryd( 3d)     0.00026
   143    H    4  dxy    Ryd( 4d)     0.00008
   144    H    4  dxz    Ryd( 3d)     0.00019
   145    H    4  dxz    Ryd( 4d)     0.00004
   146    H    4  dyz    Ryd( 3d)     0.00027
   147    H    4  dyz    Ryd( 4d)     0.00010
   148    H    4  dx2y2  Ryd( 3d)     0.00019
   149    H    4  dx2y2  Ryd( 4d)     0.00009
   150    H    4  dz2    Ryd( 3d)     0.00020
   151    H    4  dz2    Ryd( 4d)     0.00006

 WARNING:  5 low occupancy (<1.9990e) core orbitals found on Br    3


 Summary of Natural Population Analysis:                  
                                                          
                                       Natural Population 
                Natural  -----------------------------------------------
    Atom  No    Charge         Core      Valence    Rydberg      Total
 -----------------------------------------------------------------------
      O    1   -1.04727      1.99971     6.93863    0.10893     9.04727
      H    2    0.43149      0.00000     0.55515    0.01336     0.56851
     Br    3   -0.83751     27.98799     7.69725    0.15227    35.83751
      H    4    0.45324      0.00000     0.52467    0.02209     0.54676
 =======================================================================
   * Total *   -1.00005     29.98770    15.71570    0.29665    46.00005

                                 Natural Population      
 --------------------------------------------------------
   Core                      29.98770 ( 99.9590% of  30)
   Valence                   15.71570 ( 98.2231% of  16)
   Natural Minimal Basis     45.70340 ( 99.3552% of  46)
   Natural Rydberg Basis      0.29665 (  0.6449% of  46)
 --------------------------------------------------------

    Atom  No          Natural Electron Configuration
 ----------------------------------------------------------------------------
      O    1      [core]2S( 1.78)2p( 5.16)3S( 0.01)3p( 0.05)3d( 0.04)
      H    2            1S( 0.56)2p( 0.01)
     Br    3      [core]4S( 1.96)4p( 5.73)4d( 0.09)5p( 0.03)4f( 0.01)5d( 0.01)
      H    4            1S( 0.52)2S( 0.01)2p( 0.01)


 NATURAL BOND ORBITAL ANALYSIS:
 Warning:  a bond orbital has occupanc of -0.00014

                       Occupancies       Lewis Structure    Low   High
           Occ.    -------------------  -----------------   occ   occ
  Cycle   Thresh.   Lewis   Non-Lewis     CR  BD  3C  LP    (L)   (NL)   Dev
 =============================================================================
   1(1)    1.90    45.53467   0.46533     15   2   0   6     1      1    0.21
 Warning:  a bond orbital has occupanc of -0.00014
   2(2)    1.90    45.32320   0.67680     15   2   0   6     1      1    0.51
 Warning:  a bond orbital has occupanc of -0.00014
   3(3)    1.90    45.53467   0.46533     15   2   0   6     1      1    0.21
 Warning:  a bond orbital has occupanc of -0.00014
   4(1)    1.80    45.53467   0.46533     15   2   0   6     0      1    0.21
 Warning:  a bond orbital has occupanc of -0.00014
   5(2)    1.80    45.53467   0.46533     15   2   0   6     0      1    0.21
 Warning:  a bond orbital has occupanc of -0.00014
   6(1)    1.70    45.53467   0.46533     15   2   0   6     0      1    0.21
 Warning:  a bond orbital has occupanc of -0.00014
   7(2)    1.70    45.53467   0.46533     15   2   0   6     0      1    0.21
 Warning:  a bond orbital has occupanc of -0.00014
   8(1)    1.60    45.18118   0.81882     15   1   0   7     0      1    0.51
 Warning:  a bond orbital has occupanc of -0.00014
   9(2)    1.60    45.18118   0.81882     15   1   0   7     0      1    0.51
 Warning:  a bond orbital has occupanc of -0.00014
  10(1)    1.50    45.18118   0.81882     15   1   0   7     0      1    0.51
 Warning:  a bond orbital has occupanc of -0.00014
  11(2)    1.50    45.18118   0.81882     15   1   0   7     0      1    0.51
 Warning:  a bond orbital has occupanc of -0.00014
  12(1)    1.90    45.53467   0.46533     15   2   0   6     1      1    0.21
 -----------------------------------------------------------------------------

 Structure accepted: RESONANCE keyword permits strongly delocalized structure

 WARNING:  5 low occupancy (<1.9990e) core orbitals found on Br    3

 --------------------------------------------------------
   Core                     29.98769 ( 99.959% of  30)
   Valence Lewis            15.54698 ( 97.169% of  16)
  ==================       ============================
   Total Lewis              45.53467 ( 98.988% of  46)
  -----------------------------------------------------
   Valence non-Lewis         0.19301 (  0.420% of  46)
   Rydberg non-Lewis         0.27232 (  0.592% of  46)
  ==================       ============================
   Total non-Lewis           0.46533 (  1.012% of  46)
 --------------------------------------------------------


       (Occupancy)   Bond orbital/ Coefficients/ Hybrids
 ---------------------------------------------------------------------------------
     1. (1.96363) BD ( 1) O   1 - H   2  
                ( 72.51%)   0.8515* O   1 s( 21.39%)p 3.65( 78.10%)d 0.02(  0.49%)
                                                  f 0.00(  0.01%)
                                            0.0002  0.4624 -0.0094 -0.0037 -0.0019
                                            0.8822 -0.0378  0.0093 -0.0051  0.0327
                                           -0.0080 -0.0007 -0.0030  0.0000  0.0000
                                            0.0000  0.0000 -0.0159  0.0038 -0.0017
                                            0.0000  0.0000  0.0000  0.0000  0.0000
                                            0.0000  0.0583 -0.0054  0.0045 -0.0342
                                            0.0011  0.0002  0.0000  0.0000 -0.0099
                                            0.0006 -0.0005  0.0001  0.0000  0.0000
                                            0.0000  0.0000  0.0048  0.0036  0.0011
                                           -0.0006
                ( 27.49%)   0.5243* H   2 s( 99.84%)p 0.00(  0.16%)d 0.00(  0.00%)
                                            0.9992  0.0045  0.0000 -0.0002  0.0222
                                           -0.0314 -0.0042 -0.0088  0.0018 -0.0007
                                            0.0000  0.0000  0.0000 -0.0000  0.0027
                                            0.0000  0.0000  0.0000  0.0000  0.0013
                                            0.0028 -0.0024 -0.0018
     2. (1.95797) BD ( 1) O   1 - H   4  
                ( 80.22%)   0.8957* O   1 s( 19.79%)p 4.04( 79.88%)d 0.02(  0.32%)
                                                  f 0.00(  0.01%)
                                           -0.0003 -0.4448 -0.0056  0.0003 -0.0009
                                            0.1984 -0.0145  0.0018 -0.0021  0.8713
                                            0.0025  0.0039 -0.0033  0.0000  0.0000
                                            0.0000  0.0000  0.0112 -0.0022  0.0012
                                            0.0000  0.0000  0.0000  0.0000  0.0000
                                            0.0000  0.0465 -0.0059  0.0001  0.0298
                                           -0.0037 -0.0014  0.0000  0.0000 -0.0017
                                           -0.0001 -0.0091  0.0019  0.0000  0.0000
                                            0.0000  0.0000 -0.0030 -0.0004 -0.0020
                                            0.0003
                ( 19.78%)   0.4447* H   4 s( 99.86%)p 0.00(  0.14%)d 0.00(  0.00%)
                                           -0.9986  0.0373 -0.0068  0.0034 -0.0195
                                           -0.0044 -0.0016  0.0026 -0.0295 -0.0107
                                            0.0000  0.0000  0.0000  0.0017  0.0004
                                            0.0000  0.0000  0.0000  0.0000  0.0008
                                            0.0027  0.0021  0.0019
     3. (1.99971) CR ( 1) O   1           s(100.00%)
                                            1.0000 -0.0004  0.0000  0.0000  0.0000
                                           -0.0001  0.0000 -0.0000  0.0000  0.0001
                                            0.0000  0.0000 -0.0000  0.0000  0.0000
                                            0.0000  0.0000  0.0000 -0.0000  0.0000
                                            0.0000  0.0000  0.0000  0.0000  0.0000
                                            0.0000 -0.0000 -0.0000 -0.0000  0.0000
                                           -0.0000 -0.0000  0.0000  0.0000  0.0000
                                            0.0000 -0.0000  0.0000  0.0000  0.0000
                                            0.0000  0.0000 -0.0000 -0.0000 -0.0000
                                            0.0000
     4. (2.00000) CR ( 1)Br   3           s(100.00%)
                                            1.0000  0.0000  0.0000  0.0000 -0.0000
                                            0.0000 -0.0000  0.0000 -0.0000 -0.0000
                                            0.0000 -0.0000  0.0000  0.0000 -0.0000
                                           -0.0000  0.0000 -0.0000 -0.0000  0.0000
                                            0.0000  0.0000  0.0000  0.0000  0.0000
                                           -0.0000 -0.0000 -0.0000 -0.0000  0.0000
                                            0.0000  0.0000  0.0000  0.0000  0.0000
                                            0.0000  0.0000  0.0000  0.0000  0.0000
                                            0.0000  0.0000  0.0000  0.0000  0.0000
                                            0.0000  0.0000 -0.0000 -0.0000 -0.0000
                                           -0.0000  0.0000  0.0000  0.0000  0.0000
                                           -0.0000 -0.0000 -0.0000 -0.0000
     5. (2.00000) CR ( 2)Br   3           s(100.00%)
                                            0.0000  1.0000 -0.0000 -0.0000  0.0000
                                           -0.0000  0.0000 -0.0000  0.0000  0.0000
                                           -0.0000 -0.0000  0.0000 -0.0000  0.0000
                                            0.0000 -0.0000  0.0000  0.0000  0.0000
                                            0.0000  0.0000  0.0000  0.0000  0.0000
                                            0.0000  0.0000  0.0000  0.0000  0.0000
                                            0.0000  0.0000  0.0000  0.0000  0.0000
                                            0.0000  0.0000 -0.0000 -0.0000 -0.0000
                                           -0.0000 -0.0000 -0.0000 -0.0000 -0.0000
                                            0.0000  0.0000  0.0000  0.0000  0.0000
                                            0.0000  0.0000  0.0000  0.0000  0.0000
                                            0.0000  0.0000 -0.0000  0.0000
     6. (1.99980) CR ( 3)Br   3           s(100.00%)
                                            0.0000 -0.0000  1.0000 -0.0003  0.0000
                                           -0.0000  0.0000 -0.0000  0.0000  0.0000
                                           -0.0000  0.0000 -0.0000 -0.0000  0.0000
                                            0.0001 -0.0000  0.0000 -0.0000  0.0000
                                            0.0000  0.0000  0.0000  0.0000  0.0000
                                            0.0000  0.0000  0.0000  0.0000  0.0000
                                            0.0000  0.0000  0.0000  0.0000  0.0000
                                            0.0000  0.0000 -0.0000 -0.0000 -0.0000
                                           -0.0000 -0.0000 -0.0000 -0.0000 -0.0000
                                            0.0000  0.0000  0.0000  0.0000  0.0000
                                            0.0000  0.0000  0.0000  0.0000  0.0000
                                            0.0000  0.0000  0.0000  0.0000
     7. (2.00000) CR ( 4)Br   3           s(  0.00%)p 1.00(100.00%)
                                            0.0000 -0.0000 -0.0000 -0.0000  0.0000
                                            0.0000 -0.0000  1.0000  0.0000  0.0000
                                            0.0000  0.0000 -0.0000  0.0000 -0.0000
                                           -0.0000 -0.0000  0.0000 -0.0000  0.0000
                                            0.0000  0.0000  0.0000  0.0000  0.0000
                                           -0.0000  0.0000 -0.0000 -0.0000  0.0000
                                            0.0000  0.0000  0.0000  0.0000  0.0000
                                            0.0000  0.0000 -0.0000  0.0000 -0.0000
                                            0.0000 -0.0000 -0.0000  0.0000 -0.0000
                                            0.0000  0.0000 -0.0000 -0.0000  0.0000
                                            0.0000  0.0000  0.0000  0.0000  0.0000
                                           -0.0000 -0.0000  0.0000  0.0000
     8. (1.99999) CR ( 5)Br   3           s(  0.00%)p 1.00(100.00%)
                                           -0.0000  0.0000  0.0000  0.0000 -0.0000
                                           -0.0000  0.0000  0.0000  1.0000 -0.0003
                                           -0.0000 -0.0000  0.0000 -0.0000  0.0000
                                            0.0000  0.0000 -0.0000  0.0000  0.0000
                                            0.0000  0.0000  0.0000  0.0000  0.0000
                                            0.0000 -0.0000  0.0000  0.0000  0.0000
                                            0.0000  0.0000  0.0000  0.0000  0.0000
                                            0.0000  0.0000  0.0000 -0.0000  0.0000
                                           -0.0000  0.0000  0.0000 -0.0000  0.0000
                                            0.0000  0.0000  0.0000  0.0000 -0.0000
                                           -0.0000  0.0000  0.0000  0.0000  0.0000
                                            0.0000  0.0000 -0.0000 -0.0000
     9. (2.00000) CR ( 6)Br   3           s(  0.00%)p 1.00(100.00%)
                                            0.0000 -0.0000 -0.0000 -0.0000  0.0000
                                           -0.0000  0.0000  0.0000 -0.0000 -0.0000
                                           -0.0000 -0.0000  0.0000  1.0000  0.0000
                                            0.0000 -0.0000  0.0000  0.0000  0.0000
                                            0.0000  0.0000  0.0000  0.0000  0.0000
                                            0.0000 -0.0000  0.0000  0.0000  0.0000
                                            0.0000  0.0000  0.0000  0.0000  0.0000
                                            0.0000  0.0000 -0.0000 -0.0000  0.0000
                                           -0.0000 -0.0000 -0.0000 -0.0000  0.0000
                                            0.0000  0.0000  0.0000  0.0000  0.0000
                                            0.0000  0.0000  0.0000  0.0000  0.0000
                                            0.0000  0.0000 -0.0000 -0.0000
    10. (1.99990) CR ( 7)Br   3           s(  0.00%)p 1.00(100.00%)
                                           -0.0000  0.0000  0.0000  0.0001 -0.0000
                                            0.0000 -0.0000 -0.0000  0.0000  0.0000
                                            0.0000  0.0000 -0.0000  0.0000  1.0000
                                           -0.0001  0.0000 -0.0000 -0.0000  0.0000
                                            0.0000  0.0000  0.0000  0.0000  0.0000
                                           -0.0000  0.0000 -0.0000 -0.0000  0.0000
                                            0.0000  0.0000  0.0000  0.0000  0.0000
                                            0.0000  0.0000  0.0000  0.0000 -0.0000
                                            0.0000  0.0000  0.0000  0.0000 -0.0000
                                            0.0000  0.0000 -0.0000 -0.0000 -0.0000
                                           -0.0000  0.0000  0.0000  0.0000  0.0000
                                           -0.0000 -0.0000  0.0000  0.0000
    11. (2.00000) CR ( 8)Br   3           s(  0.00%)p 1.00(100.00%)
                                            0.0000  0.0000  0.0000  0.0000  0.0000
                                            0.0000  0.0000  0.0000  0.0000  0.0000
                                            0.0000  0.0000  0.0000  0.0000  0.0000
                                            0.0000  0.0000  0.0000  0.0000  1.0000
                                            0.0000  0.0000  0.0000  0.0000 -0.0000
                                            0.0000  0.0000  0.0000  0.0000 -0.0000
                                            0.0000 -0.0000  0.0000 -0.0000  0.0000
                                           -0.0000 -0.0000  0.0000  0.0000  0.0000
                                            0.0000  0.0000  0.0000  0.0000  0.0000
                                           -0.0000 -0.0000  0.0000  0.0000  0.0000
                                            0.0000 -0.0000 -0.0000  0.0000  0.0000
                                            0.0000  0.0000  0.0000  0.0000
    12. (2.00000) CR ( 9)Br   3           s(  0.00%)p 1.00(100.00%)
                                            0.0000  0.0000  0.0000  0.0000  0.0000
                                            0.0000  0.0000  0.0000  0.0000  0.0000
                                            0.0000  0.0000  0.0000  0.0000  0.0000
                                            0.0000  0.0000  0.0000  0.0000  0.0000
                                            1.0000 -0.0003 -0.0000 -0.0000  0.0000
                                            0.0000  0.0000  0.0000  0.0000  0.0000
                                           -0.0000  0.0000 -0.0000  0.0000 -0.0000
                                            0.0000  0.0000  0.0000  0.0000  0.0000
                                            0.0000  0.0000  0.0000  0.0000  0.0000
                                            0.0000  0.0000  0.0000  0.0000  0.0000
                                            0.0000  0.0000  0.0000 -0.0000 -0.0000
                                            0.0000  0.0000  0.0000  0.0000
    13. (1.99765) CR (10)Br   3           s(  0.00%)p 0.00(  0.00%)d 1.00(100.00%)
                                           -0.0000  0.0000  0.0000  0.0000 -0.0000
                                            0.0000 -0.0000 -0.0000  0.0000  0.0000
                                            0.0000  0.0000 -0.0000  0.0000 -0.0000
                                           -0.0000  0.0000 -0.0000 -0.0000  0.0000
                                            0.0000  0.0000  0.0000  0.0000  0.0000
                                            1.0000  0.0000 -0.0000 -0.0000  0.0000
                                            0.0000  0.0000  0.0000  0.0000  0.0000
                                            0.0000  0.0000  0.0000  0.0000 -0.0000
                                            0.0000  0.0000  0.0000  0.0000 -0.0000
                                            0.0000  0.0000 -0.0000 -0.0000  0.0000
                                           -0.0000  0.0000  0.0000  0.0000  0.0000
                                           -0.0000 -0.0000  0.0000  0.0000
    14. (1.99769) CR (11)Br   3           s(  0.00%)p 0.00(  0.00%)d 1.00(100.00%)
                                            0.0000  0.0000  0.0000  0.0000  0.0000
                                            0.0000  0.0000  0.0000  0.0000  0.0000
                                            0.0000  0.0000  0.0000  0.0000  0.0000
                                            0.0000  0.0000  0.0000  0.0000 -0.0000
                                            0.0000  0.0000  0.0000  0.0000 -0.0000
                                            0.0000  0.0000  0.0000  0.0000  1.0000
                                            0.0000 -0.0000  0.0000 -0.0000  0.0000
                                           -0.0000 -0.0000  0.0000  0.0000  0.0000
                                            0.0000  0.0000  0.0000  0.0000  0.0000
                                           -0.0000 -0.0000  0.0000  0.0000  0.0000
                                            0.0000 -0.0000 -0.0000  0.0000  0.0000
                                            0.0000  0.0000  0.0000  0.0000
    15. (1.99766) CR (12)Br   3           s(  0.00%)p 0.00(  0.00%)d 1.00(100.00%)
                                            0.0000  0.0000  0.0000  0.0000  0.0000
                                            0.0000  0.0000  0.0000  0.0000  0.0000
                                            0.0000  0.0000  0.0000  0.0000  0.0000
                                            0.0000  0.0000  0.0000  0.0000 -0.0000
                                            0.0000  0.0000  0.0000  0.0000 -0.0000
                                            0.0000  0.0000  0.0000  0.0000 -0.0000
                                            0.0000 -0.0000  0.0000  1.0000  0.0000
                                           -0.0000 -0.0000  0.0000  0.0000  0.0000
                                            0.0000  0.0000  0.0000  0.0000  0.0000
                                           -0.0000 -0.0000  0.0000  0.0000  0.0000
                                            0.0000 -0.0000 -0.0000  0.0000  0.0000
                                            0.0000  0.0000  0.0000  0.0000
    16. (1.99762) CR (13)Br   3           s(  0.00%)p 0.00(  0.00%)d 1.00(100.00%)
                                            0.0000 -0.0000 -0.0000 -0.0000  0.0000
                                           -0.0000  0.0000 -0.0000  0.0000  0.0000
                                            0.0000  0.0000 -0.0000 -0.0000  0.0000
                                            0.0000 -0.0000  0.0000 -0.0000  0.0000
                                            0.0000  0.0000  0.0000  0.0000  0.0000
                                            0.0000  0.0000 -0.0000 -0.0000  0.0000
                                            0.0000  0.0000  0.0000  0.0000  0.0000
                                            0.0000  0.0000  1.0000 -0.0000 -0.0000
                                           -0.0000 -0.0000 -0.0000 -0.0000 -0.0000
                                            0.0000  0.0000 -0.0000 -0.0000  0.0000
                                            0.0000  0.0000  0.0000  0.0000  0.0000
                                           -0.0000  0.0000  0.0000  0.0000
    17. (1.99766) CR (14)Br   3           s(  0.00%)p 0.00(  0.00%)d 1.00(100.00%)
                                            0.0000 -0.0000 -0.0000 -0.0000  0.0000
                                           -0.0000  0.0000 -0.0000  0.0000  0.0000
                                           -0.0000 -0.0000  0.0000 -0.0000  0.0000
                                            0.0000 -0.0000  0.0000  0.0000  0.0000
                                            0.0000  0.0000  0.0000  0.0000  0.0000
                                            0.0000  0.0000  0.0000  0.0000  0.0000
                                            0.0000  0.0000  0.0000  0.0000  0.0000
                                            0.0000  0.0000 -0.0000 -0.0000 -0.0000
                                           -0.0000  1.0000 -0.0000 -0.0000 -0.0000
                                            0.0000  0.0000  0.0000  0.0000  0.0000
                                            0.0000  0.0000  0.0000  0.0000  0.0000
                                            0.0000  0.0000  0.0000  0.0000
    18. (1.96871) LP ( 1) O   1           s( 58.76%)p 0.70( 41.16%)d 0.00(  0.08%)
                                                  f 0.00(  0.00%)
                                            0.0002  0.7665  0.0003  0.0017 -0.0000
                                           -0.4188 -0.0015  0.0024  0.0008  0.4860
                                            0.0058 -0.0038  0.0014  0.0000  0.0000
                                            0.0000  0.0000  0.0261 -0.0037 -0.0010
                                            0.0000  0.0000  0.0000  0.0000  0.0000
                                            0.0000 -0.0008  0.0004 -0.0008  0.0119
                                           -0.0021  0.0016  0.0000  0.0000  0.0029
                                           -0.0009 -0.0020  0.0006  0.0000  0.0000
                                            0.0000  0.0000  0.0007 -0.0016  0.0016
                                           -0.0000
    19. (1.95761) LP ( 2) O   1           s(  0.00%)p 1.00( 99.81%)d 0.00(  0.18%)
                                                  f 0.00(  0.01%)
                                            0.0000  0.0000  0.0000  0.0000  0.0000
                                            0.0000  0.0000  0.0000  0.0000  0.0000
                                            0.0000  0.0000  0.0000  0.9988  0.0234
                                           -0.0059  0.0052  0.0000  0.0000  0.0000
                                            0.0360 -0.0034 -0.0015 -0.0217  0.0026
                                            0.0023  0.0000  0.0000  0.0000  0.0000
                                            0.0000  0.0000 -0.0089  0.0030  0.0000
                                            0.0000  0.0000  0.0000  0.0005  0.0015
                                            0.0018 -0.0006  0.0000  0.0000  0.0000
                                            0.0000
    20. (1.97820) LP ( 1)Br   3           s( 91.49%)p 0.09(  8.51%)d 0.00(  0.00%)
                                                  f 0.00(  0.00%)
                                           -0.0000  0.0000  0.0003  0.9565 -0.0003
                                            0.0005 -0.0004  0.0000 -0.0000 -0.0593
                                            0.0005 -0.0001  0.0000  0.0000 -0.0001
                                           -0.2857  0.0019 -0.0005  0.0000  0.0000
                                            0.0000  0.0000  0.0000  0.0000  0.0000
                                           -0.0000 -0.0006 -0.0001 -0.0002  0.0000
                                            0.0000  0.0000  0.0000  0.0000  0.0000
                                            0.0000  0.0000  0.0000  0.0011  0.0001
                                            0.0004  0.0000  0.0007  0.0001  0.0003
                                            0.0000  0.0000 -0.0000 -0.0000 -0.0001
                                           -0.0002  0.0000  0.0000  0.0000  0.0000
                                           -0.0001 -0.0002 -0.0001 -0.0002
    21. (1.95440) LP ( 2)Br   3           s(  0.00%)p 1.00( 99.99%)d 0.00(  0.01%)
                                                  f 0.00(  0.00%)
                                            0.0000  0.0000  0.0000  0.0000  0.0000
                                            0.0000  0.0000  0.0000  0.0000  0.0000
                                            0.0000  0.0000  0.0000  0.0000  0.0000
                                            0.0000  0.0000  0.0000  0.0000 -0.0000
                                            0.0003  1.0000  0.0027  0.0016 -0.0002
                                            0.0000  0.0000  0.0000  0.0000 -0.0000
                                            0.0025 -0.0009  0.0006 -0.0000  0.0065
                                           -0.0009 -0.0024  0.0000  0.0000  0.0000
                                            0.0000  0.0000  0.0000  0.0000  0.0000
                                           -0.0024 -0.0013  0.0000  0.0000  0.0000
                                            0.0000 -0.0025 -0.0012  0.0013  0.0008
                                            0.0000  0.0000  0.0000  0.0000
    22. (1.95415) LP ( 3)Br   3           s(  0.00%)p 1.00( 99.99%)d 0.00(  0.01%)
                                                  f 0.00(  0.00%)
                                            0.0000 -0.0000  0.0000  0.0010 -0.0000
                                           -0.0011  0.0017  0.0000 -0.0003 -0.9784
                                           -0.0037 -0.0019  0.0008 -0.0000  0.0001
                                            0.2064  0.0003 -0.0000  0.0006 -0.0000
                                           -0.0000 -0.0000 -0.0000 -0.0000 -0.0000
                                            0.0000 -0.0066  0.0008  0.0021 -0.0000
                                           -0.0000 -0.0000 -0.0000 -0.0000 -0.0000
                                           -0.0000 -0.0000  0.0000 -0.0047  0.0012
                                           -0.0001 -0.0000  0.0005 -0.0004  0.0007
                                           -0.0000 -0.0000  0.0011  0.0006 -0.0002
                                            0.0000 -0.0000 -0.0000 -0.0000 -0.0000
                                            0.0026  0.0011 -0.0022 -0.0012
    23. (1.81230) LP ( 4)Br   3           s(  8.51%)p10.74( 91.42%)d 0.01(  0.06%)
                                                  f 0.00(  0.01%)
                                           -0.0000 -0.0000 -0.0000  0.2917  0.0011
                                           -0.0019  0.0014  0.0000 -0.0000  0.1977
                                           -0.0011 -0.0009  0.0004 -0.0000  0.0000
                                            0.9354 -0.0065 -0.0040  0.0009  0.0000
                                            0.0000  0.0000  0.0000  0.0000  0.0000
                                            0.0000  0.0092 -0.0015 -0.0003  0.0000
                                            0.0000  0.0000  0.0000  0.0000  0.0000
                                            0.0000  0.0000 -0.0000 -0.0191  0.0033
                                            0.0013 -0.0000 -0.0128  0.0025  0.0001
                                            0.0000  0.0000 -0.0011 -0.0004 -0.0051
                                           -0.0021  0.0000  0.0000  0.0000  0.0000
                                           -0.0036 -0.0011 -0.0051 -0.0017
    24. (0.02203) RY*( 1) O   1           s(  0.00%)p 1.00( 98.65%)d 0.01(  1.32%)
                                                  f 0.00(  0.03%)
                                            0.0000  0.0000  0.0000  0.0000  0.0000
                                            0.0000  0.0000  0.0000  0.0000  0.0000
                                            0.0000  0.0000  0.0000 -0.0279  0.9923
                                            0.0239 -0.0191  0.0000  0.0000  0.0000
                                            0.0903 -0.0157  0.0056 -0.0666  0.0167
                                           -0.0091  0.0000  0.0000  0.0000  0.0000
                                            0.0000  0.0000 -0.0113  0.0120  0.0000
                                            0.0000  0.0000  0.0000 -0.0049  0.0032
                                           -0.0001 -0.0016  0.0000  0.0000  0.0000
                                            0.0000
    25. (0.01688) RY*( 2) O   1           s( 19.34%)p 4.04( 78.07%)d 0.13(  2.50%)
                                                  f 0.00(  0.08%)
                                           -0.0000 -0.0056  0.4396  0.0072 -0.0096
                                           -0.0019 -0.4849 -0.0071  0.0117 -0.0125
                                            0.7382  0.0067 -0.0130  0.0000  0.0000
                                            0.0000  0.0000  0.1537 -0.0222  0.0072
                                            0.0000  0.0000  0.0000  0.0000  0.0000
                                            0.0000 -0.0023  0.0031  0.0007  0.0251
                                           -0.0124  0.0065  0.0000  0.0000  0.0032
                                           -0.0029  0.0027  0.0019  0.0000  0.0000
                                            0.0000  0.0000  0.0216 -0.0129  0.0116
                                           -0.0042
    26. (0.00846) RY*( 3) O   1           s(  7.15%)p11.47( 81.99%)d 1.49( 10.66%)
                                                  f 0.03(  0.19%)
                                            0.0000 -0.0074  0.2641 -0.0281  0.0300
                                           -0.0458 -0.6920 -0.0267  0.0258 -0.0150
                                           -0.5802 -0.0037 -0.0247 -0.0000 -0.0000
                                           -0.0000 -0.0000 -0.1658 -0.0146  0.0050
                                           -0.0000 -0.0000 -0.0000 -0.0000 -0.0000
                                           -0.0000  0.2685  0.0542 -0.0260  0.0524
                                            0.0190 -0.0107 -0.0000 -0.0000 -0.0155
                                            0.0092  0.0014 -0.0032 -0.0000 -0.0000
                                           -0.0000 -0.0000  0.0293 -0.0208 -0.0156
                                            0.0069
    27. (0.00649) RY*( 4) O   1           s( 19.29%)p 0.24(  4.60%)d 3.90( 75.27%)
                                                  f 0.04(  0.84%)
                                            0.0000  0.0155  0.4389  0.0046  0.0022
                                            0.0208  0.2078  0.0052 -0.0062  0.0300
                                            0.0318  0.0070 -0.0202 -0.0000 -0.0000
                                           -0.0000 -0.0000 -0.7736 -0.0219 -0.0034
                                           -0.0000 -0.0000 -0.0000 -0.0000 -0.0000
                                           -0.0000 -0.3336 -0.0062 -0.0021  0.2033
                                            0.0298 -0.0125 -0.0000 -0.0000  0.0018
                                            0.0069  0.0294 -0.0190 -0.0000 -0.0000
                                           -0.0000 -0.0000 -0.0734  0.0341 -0.0238
                                            0.0007
    28. (0.00634) RY*( 5) O   1           s(  0.00%)p 0.00(  0.01%)d 1.00( 98.82%)
                                                  f 0.01(  1.17%)
                                            0.0000  0.0000  0.0000  0.0000  0.0000
                                            0.0000  0.0000  0.0000  0.0000  0.0000
                                            0.0000  0.0000  0.0000 -0.0027  0.0032
                                            0.0063 -0.0011  0.0000  0.0000  0.0000
                                            0.5703  0.0392 -0.0102  0.8118  0.0488
                                           -0.0017  0.0000  0.0000  0.0000  0.0000
                                            0.0000  0.0000  0.0136 -0.0131  0.0000
                                            0.0000  0.0000  0.0000  0.0921 -0.0537
                                            0.0002  0.0048  0.0000  0.0000  0.0000
                                            0.0000
    29. (0.00597) RY*( 6) O   1           s(  0.00%)p 1.00(  1.40%)d69.62( 97.65%)
                                                  f 0.68(  0.95%)
                                            0.0000  0.0000  0.0000  0.0000  0.0000
                                            0.0000  0.0000  0.0000  0.0000  0.0000
                                            0.0000  0.0000  0.0000 -0.0392 -0.1106
                                           -0.0150  0.0050  0.0000  0.0000  0.0000
                                            0.8035  0.0759 -0.0258 -0.5674 -0.0499
                                            0.0083  0.0000  0.0000  0.0000  0.0000
                                            0.0000  0.0000 -0.0721  0.0391  0.0000
                                            0.0000  0.0000  0.0000  0.0298 -0.0120
                                           -0.0377  0.0172  0.0000  0.0000  0.0000
                                            0.0000
    30. (0.00582) RY*( 7) O   1           s(  5.31%)p 1.01(  5.34%)d16.71( 88.66%)
                                                  f 0.13(  0.69%)
                                           -0.0000  0.0165  0.2295 -0.0106  0.0019
                                            0.0363  0.1942  0.0191 -0.0040 -0.0336
                                           -0.1123 -0.0105 -0.0123  0.0000  0.0000
                                            0.0000  0.0000  0.3642  0.0218 -0.0019
                                            0.0000  0.0000  0.0000  0.0000  0.0000
                                            0.0000  0.0896  0.0124 -0.0002  0.8581
                                            0.0923 -0.0197  0.0000  0.0000  0.0548
                                           -0.0278 -0.0470  0.0264  0.0000  0.0000
                                            0.0000  0.0000  0.0088 -0.0040  0.0110
                                           -0.0012
    31. (0.00469) RY*( 8) O   1           s( 16.65%)p 0.63( 10.55%)d 4.25( 70.71%)
                                                  f 0.13(  2.09%)
                                            0.0000 -0.0045  0.4080  0.0043  0.0003
                                            0.0447  0.0283  0.0150 -0.0013  0.0311
                                           -0.3117 -0.0039 -0.0659 -0.0000 -0.0000
                                           -0.0000 -0.0000  0.4399  0.0228  0.0069
                                           -0.0000 -0.0000 -0.0000 -0.0000 -0.0000
                                           -0.0000 -0.6611 -0.0161 -0.0154 -0.2741
                                           -0.0191 -0.0013 -0.0000 -0.0000  0.0293
                                           -0.0170  0.0554 -0.0381 -0.0000 -0.0000
                                           -0.0000 -0.0000  0.0115 -0.0184  0.1067
                                           -0.0585
    32. (0.00239) RY*( 9) O   1           s( 30.63%)p 0.65( 19.95%)d 1.58( 48.53%)
                                                  f 0.03(  0.89%)
                                            0.0000 -0.0048  0.5513 -0.0351 -0.0336
                                           -0.0228  0.4410  0.0072 -0.0030 -0.0059
                                           -0.0466 -0.0256 -0.0391  0.0000  0.0000
                                            0.0000  0.0000  0.0811  0.0164 -0.0160
                                            0.0000  0.0000  0.0000  0.0000  0.0000
                                            0.0000  0.5749  0.1363  0.0612 -0.3359
                                           -0.1101 -0.0174  0.0000  0.0000 -0.0280
                                            0.0459  0.0107 -0.0064  0.0000  0.0000
                                            0.0000  0.0000  0.0506 -0.0567 -0.0108
                                           -0.0003
    33. (0.00063) RY*(10) O   1           s( 30.57%)p 1.95( 59.62%)d 0.27(  8.36%)
                                                  f 0.05(  1.45%)
                                            0.0000 -0.0050 -0.0079  0.5429 -0.1040
                                           -0.0013 -0.0315  0.1536 -0.0888 -0.0005
                                           -0.0081 -0.7494 -0.0462 -0.0000 -0.0000
                                           -0.0000 -0.0000 -0.0228  0.1723 -0.1064
                                           -0.0000 -0.0000 -0.0000 -0.0000 -0.0000
                                           -0.0000  0.0141 -0.0436  0.0744  0.0248
                                           -0.1219  0.1376 -0.0000 -0.0000  0.0333
                                           -0.0014  0.0971 -0.0080 -0.0000 -0.0000
                                           -0.0000 -0.0000  0.0038  0.0133  0.0597
                                            0.0110
    34. (0.00056) RY*(11) O   1           s(  0.00%)p 1.00( 47.85%)d 1.00( 48.07%)
                                                  f 0.09(  4.07%)
                                            0.0000  0.0000  0.0000  0.0000  0.0000
                                            0.0000  0.0000  0.0000  0.0000  0.0000
                                            0.0000  0.0000  0.0000 -0.0008 -0.0395
                                            0.6882  0.0583  0.0000  0.0000  0.0000
                                            0.0373 -0.3049  0.0402 -0.0370  0.6168
                                           -0.0540  0.0000  0.0000  0.0000  0.0000
                                            0.0000  0.0000 -0.1186  0.0244  0.0000
                                            0.0000  0.0000  0.0000 -0.1170  0.0097
                                           -0.1107 -0.0033  0.0000  0.0000  0.0000
                                            0.0000
    35. (0.00052) RY*(12) O   1           s(  4.05%)p 2.13(  8.64%)d18.46( 74.82%)
                                                  f 3.08( 12.49%)
                                           -0.0000  0.0030 -0.0108  0.1989  0.0290
                                            0.0036  0.0000 -0.1289 -0.0300 -0.0075
                                           -0.0289  0.2534 -0.0613 -0.0000 -0.0000
                                           -0.0000 -0.0000 -0.0305 -0.2964 -0.0449
                                           -0.0000 -0.0000 -0.0000 -0.0000 -0.0000
                                           -0.0000  0.0062 -0.2642  0.0396  0.0982
                                           -0.7464  0.1389 -0.0000 -0.0000  0.1544
                                           -0.0042  0.0090  0.0050 -0.0000 -0.0000
                                           -0.0000 -0.0000  0.2638 -0.0077  0.1768
                                           -0.0036
    36. (0.00049) RY*(13) O   1           s(  0.00%)p 1.00( 46.95%)d 0.71( 33.55%)
                                                  f 0.42( 19.50%)
                                            0.0000  0.0000  0.0000  0.0000  0.0000
                                            0.0000  0.0000  0.0000  0.0000  0.0000
                                            0.0000  0.0000  0.0000 -0.0056 -0.0034
                                           -0.6625 -0.1748  0.0000  0.0000  0.0000
                                            0.0143 -0.2313  0.0083 -0.0110  0.5305
                                            0.0138  0.0000  0.0000  0.0000  0.0000
                                            0.0000  0.0000 -0.0631 -0.0017  0.0000
                                            0.0000  0.0000  0.0000 -0.1146  0.0095
                                           -0.4216 -0.0050  0.0000  0.0000  0.0000
                                            0.0000
    37. (0.00046) RY*(14) O   1           s(  0.00%)p 1.00(  0.19%)d23.57(  4.55%)
                                                  f99.99( 95.25%)
                                            0.0000  0.0000  0.0000  0.0000  0.0000
                                            0.0000  0.0000  0.0000  0.0000  0.0000
                                            0.0000  0.0000  0.0000  0.0043 -0.0000
                                            0.0372  0.0231  0.0000  0.0000  0.0000
                                            0.0100 -0.1487 -0.0121 -0.0798  0.1050
                                           -0.0761  0.0000  0.0000  0.0000  0.0000
                                            0.0000  0.0000  0.8002  0.0358  0.0000
                                            0.0000  0.0000  0.0000  0.5437  0.0211
                                           -0.1219 -0.0010  0.0000  0.0000  0.0000
                                            0.0000
    38. (0.00045) RY*(15) O   1           s(  0.05%)p63.07(  3.39%)d71.32(  3.83%)
                                                  f99.99( 92.72%)
                                            0.0000 -0.0001 -0.0137  0.0181 -0.0046
                                           -0.0049 -0.0116  0.0689 -0.0234 -0.0009
                                           -0.0027  0.1679 -0.0157  0.0000  0.0000
                                            0.0000  0.0000  0.0376  0.0692  0.0284
                                            0.0000  0.0000  0.0000  0.0000  0.0000
                                            0.0000  0.0524 -0.0648  0.0493  0.0681
                                           -0.1233  0.0461  0.0000  0.0000 -0.4573
                                           -0.0215  0.7361  0.0512  0.0000  0.0000
                                            0.0000  0.0000 -0.3895 -0.0012  0.1462
                                            0.0119
    39. (0.00045) RY*(16) O   1           s(  0.00%)p 1.00(  4.62%)d 5.27( 24.33%)
                                                  f15.39( 71.05%)
                                            0.0000  0.0000  0.0000  0.0000  0.0000
                                            0.0000  0.0000  0.0000  0.0000  0.0000
[...]
                                                  f 3.10(  0.31%)
   127. (0.00003) RY*(41)Br   3           s(  0.00%)p 1.00( 99.82%)d 0.00(  0.11%)
                                                  f 0.00(  0.08%)
   128. (0.00861) RY*( 1) H   4           s( 79.41%)p 0.25( 20.01%)d 0.01(  0.58%)
                                            0.0413  0.8898 -0.0008  0.0261 -0.2810
                                            0.0036 -0.0114 -0.3298 -0.1050 -0.0343
                                            0.0000  0.0000  0.0000  0.0420  0.0114
                                            0.0000  0.0000  0.0000  0.0000 -0.0504
                                           -0.0244 -0.0251 -0.0126
   129. (0.00399) RY*( 2) H   4           s(  0.00%)p 1.00( 98.74%)d 0.01(  1.26%)
                                            0.0000  0.0000  0.0000  0.0000  0.0000
                                            0.0000  0.0000  0.0000  0.0000  0.0000
                                            0.9854  0.1263 -0.0219  0.0000  0.0000
                                           -0.0068  0.0150 -0.0775  0.0796  0.0000
                                            0.0000  0.0000  0.0000
   130. (0.00376) RY*( 3) H   4           s(  3.47%)p27.56( 95.59%)d 0.27(  0.95%)
                                           -0.0201 -0.0685  0.1433  0.0951  0.6250
                                            0.0108 -0.0312 -0.7437  0.1000 -0.0314
                                           -0.0000 -0.0000 -0.0000 -0.0787  0.0282
                                           -0.0000 -0.0000 -0.0000 -0.0000 -0.0241
                                            0.0140 -0.0397  0.0112
   131. (0.00296) RY*( 4) H   4           s( 17.62%)p 4.62( 81.43%)d 0.05(  0.96%)
                                            0.0100  0.3777 -0.1717 -0.0624  0.7078
                                           -0.0387  0.0017  0.4939 -0.2601  0.0089
                                            0.0000  0.0000  0.0000 -0.0735  0.0463
                                            0.0000  0.0000  0.0000  0.0000 -0.0202
                                           -0.0281 -0.0290 -0.0023
   132. (0.00101) RY*( 5) H   4           s( 32.39%)p 1.83( 59.29%)d 0.26(  8.32%)
                                           -0.0169  0.2197  0.4894 -0.1895  0.0938
                                            0.2980 -0.0364  0.2274  0.6643 -0.0322
                                            0.0000  0.0000  0.0000 -0.1162 -0.0426
                                            0.0000  0.0000  0.0000  0.0000  0.1532
                                            0.1321  0.1452  0.0763
   133. (0.00040) RY*( 6) H   4           s(  1.29%)p71.95( 92.48%)d 4.85(  6.23%)
                                            0.0022 -0.0687  0.0890  0.0148 -0.0241
                                            0.8815 -0.0679 -0.0227 -0.3539  0.1300
                                            0.0000  0.0000  0.0000  0.0442  0.1912
                                            0.0000  0.0000  0.0000  0.0000 -0.0144
                                           -0.0423 -0.1458 -0.0238
   134. (0.00034) RY*( 7) H   4           s(  0.00%)p 1.00( 79.94%)d 0.25( 20.06%)
                                            0.0000  0.0000  0.0000  0.0000  0.0000
                                            0.0000  0.0000  0.0000  0.0000  0.0000
                                           -0.0929  0.8847  0.0899  0.0000  0.0000
                                            0.0319  0.0682  0.4110  0.1613  0.0000
                                            0.0000  0.0000  0.0000
   135. (0.00026) RY*( 8) H   4           s(  0.00%)p 1.00( 26.23%)d 2.81( 73.77%)
                                            0.0000  0.0000  0.0000  0.0000  0.0000
                                            0.0000  0.0000  0.0000  0.0000  0.0000
                                            0.1301 -0.4055  0.2845  0.0000  0.0000
                                            0.0229  0.0293  0.8561 -0.0581  0.0000
                                            0.0000  0.0000  0.0000
   136. (0.00024) RY*( 9) H   4           s(  0.25%)p41.15( 10.49%)d99.99( 89.26%)
                                           -0.0001  0.0155  0.0371 -0.0305  0.1097
                                           -0.0032  0.2829 -0.0089  0.0242 -0.1100
                                            0.0000  0.0000  0.0000  0.8537  0.0402
                                            0.0000  0.0000  0.0000  0.0000  0.3998
                                            0.0125 -0.0458  0.0091
   137. (0.00020) RY*(10) H   4           s(  1.76%)p25.68( 45.10%)d30.25( 53.14%)
                                            0.0147 -0.0212 -0.0871  0.0966 -0.0477
                                            0.0580 -0.1683 -0.0231 -0.2098 -0.6103
                                            0.0000  0.0000  0.0000 -0.2791 -0.1027
                                            0.0000  0.0000  0.0000  0.0000  0.5870
                                            0.2153 -0.0046  0.2279
   138. (0.00019) RY*(11) H   4           s(  0.00%)p 1.00(  0.08%)d99.99( 99.92%)
                                            0.0000  0.0000  0.0000  0.0000  0.0000
                                            0.0000  0.0000  0.0000  0.0000  0.0000
                                            0.0089 -0.0094 -0.0260  0.0000  0.0000
                                            0.9785 -0.2036 -0.0160  0.0047  0.0000
                                            0.0000  0.0000  0.0000
   139. (0.00018) RY*(12) H   4           s(  2.05%)p 4.57(  9.35%)d43.29( 88.60%)
                                            0.0085 -0.0248  0.1251  0.0642  0.0319
                                            0.0640 -0.0215 -0.0181 -0.2403 -0.1729
                                            0.0000  0.0000  0.0000  0.1325 -0.0559
                                            0.0000  0.0000  0.0000  0.0000 -0.2092
                                            0.1322  0.8880 -0.1247
   140. (0.00010) RY*(13) H   4           s( 48.44%)p 0.59( 28.75%)d 0.47( 22.80%)
   141. (0.00008) RY*(14) H   4           s(  0.00%)p 1.00( 24.10%)d 3.15( 75.90%)
   142. (0.00006) RY*(15) H   4           s( 11.77%)p 1.32( 15.47%)d 6.18( 72.76%)
   143. (0.00007) RY*(16) H   4           s( 61.93%)p 0.25( 15.31%)d 0.37( 22.76%)
   144. (0.00005) RY*(17) H   4           s( 15.38%)p 2.90( 44.56%)d 2.60( 40.06%)
   145. (0.00003) RY*(18) H   4           s(  5.58%)p12.46( 69.44%)d 4.48( 24.98%)
   146. (0.00003) RY*(19) H   4           s(  0.00%)p 1.00(  1.31%)d75.47( 98.69%)
   147. (0.00003) RY*(20) H   4           s( 15.68%)p 0.61(  9.50%)d 4.77( 74.82%)
   148. (0.00003) RY*(21) H   4           s(  0.00%)p 1.00( 69.61%)d 0.44( 30.39%)
   149. (0.00003) RY*(22) H   4           s(  3.12%)p 0.99(  3.09%)d30.05( 93.79%)
   150. (0.02239) BD*( 1) O   1 - H   2  
                ( 27.49%)   0.5243* O   1 s( 21.39%)p 3.65( 78.10%)d 0.02(  0.49%)
                                                  f 0.00(  0.01%)
                                           -0.0002 -0.4624  0.0094  0.0037  0.0019
                                           -0.8822  0.0378 -0.0093  0.0051 -0.0327
                                            0.0080  0.0007  0.0030 -0.0000 -0.0000
                                           -0.0000 -0.0000  0.0159 -0.0038  0.0017
                                           -0.0000 -0.0000 -0.0000 -0.0000 -0.0000
                                           -0.0000 -0.0583  0.0054 -0.0045  0.0342
                                           -0.0011 -0.0002 -0.0000 -0.0000  0.0099
                                           -0.0006  0.0005 -0.0001 -0.0000 -0.0000
                                           -0.0000 -0.0000 -0.0048 -0.0036 -0.0011
                                            0.0006
                ( 72.51%)  -0.8515* H   2 s( 99.84%)p 0.00(  0.16%)d 0.00(  0.00%)
                                           -0.9992 -0.0045 -0.0000  0.0002 -0.0222
                                            0.0314  0.0042  0.0088 -0.0018  0.0007
                                           -0.0000 -0.0000 -0.0000  0.0000 -0.0027
                                           -0.0000 -0.0000 -0.0000 -0.0000 -0.0013
                                           -0.0028  0.0024  0.0018
   151. (0.17061) BD*( 1) O   1 - H   4  
                ( 19.78%)   0.4447* O   1 s( 19.79%)p 4.04( 79.88%)d 0.02(  0.32%)
                                                  f 0.00(  0.01%)
                                            0.0003  0.4448  0.0056 -0.0003  0.0009
                                           -0.1984  0.0145 -0.0018  0.0021 -0.8713
                                           -0.0025 -0.0039  0.0033 -0.0000 -0.0000
                                           -0.0000 -0.0000 -0.0112  0.0022 -0.0012
                                           -0.0000 -0.0000 -0.0000 -0.0000 -0.0000
                                           -0.0000 -0.0465  0.0059 -0.0001 -0.0298
                                            0.0037  0.0014 -0.0000 -0.0000  0.0017
                                            0.0001  0.0091 -0.0019 -0.0000 -0.0000
                                           -0.0000 -0.0000  0.0030  0.0004  0.0020
                                           -0.0003
                ( 80.22%)  -0.8957* H   4 s( 99.86%)p 0.00(  0.14%)d 0.00(  0.00%)
                                            0.9986 -0.0373  0.0068 -0.0034  0.0195
                                            0.0044  0.0016 -0.0026  0.0295  0.0107
                                           -0.0000 -0.0000 -0.0000 -0.0017 -0.0004
                                           -0.0000 -0.0000 -0.0000 -0.0000 -0.0008
                                           -0.0027 -0.0021 -0.0019


 NHO Directionality and "Bond Bending" (deviations from line of nuclear centers)

         [Thresholds for printing:  angular deviation  >  1.0 degree]
                                    hybrid p-character > 25.0%
                                    orbital occupancy  >  0.10e

                                Line of Centers        Hybrid 1              Hybrid 2
                                ---------------  -------------------   ------------------
                NBO               Theta   Phi    Theta   Phi    Dev    Theta   Phi    Dev
 ========================================================================================
     1. BD (   1) O   1 - H   2    90.0    0.0    90.0    1.4   1.4      --     --    --
    18. LP (   1) O   1             --     --     90.0  130.5   --       --     --    --
    19. LP (   2) O   1             --     --      0.0    0.0   --       --     --    --
    21. LP (   2)Br   3             --     --      0.0    0.0   --       --     --    --
    22. LP (   3)Br   3             --     --     90.0  168.1   --       --     --    --
    23. LP (   4)Br   3             --     --     90.0   78.0   --       --     --    --


 Natural Bond Orbitals (Summary):

           NBO                  Occupancy  
 -----------------------------------------------
 Molecular unit  1  (H2O)
     1. BD (   1) O   1 - H   2          1.96363
     2. BD (   1) O   1 - H   4          1.95797
     3. CR (   1) O   1                  1.99971
    18. LP (   1) O   1                  1.96871
    19. LP (   2) O   1                  1.95761
    24. RY*(   1) O   1                  0.02203
    25. RY*(   2) O   1                  0.01688
    26. RY*(   3) O   1                  0.00846
    27. RY*(   4) O   1                  0.00649
    28. RY*(   5) O   1                  0.00634
    29. RY*(   6) O   1                  0.00597
    30. RY*(   7) O   1                  0.00582
    31. RY*(   8) O   1                  0.00469
    32. RY*(   9) O   1                  0.00239
    33. RY*(  10) O   1                  0.00063
    34. RY*(  11) O   1                  0.00056
    35. RY*(  12) O   1                  0.00052
    36. RY*(  13) O   1                  0.00049
    37. RY*(  14) O   1                  0.00046
    38. RY*(  15) O   1                  0.00045
    39. RY*(  16) O   1                  0.00045
    40. RY*(  17) O   1                  0.00043
    41. RY*(  18) O   1                  0.00044
    42. RY*(  19) O   1                  0.00043
    43. RY*(  20) O   1                  0.00040
    44. RY*(  21) O   1                  0.00040
    45. RY*(  22) O   1                  0.00039
    46. RY*(  23) O   1                  0.00032
    47. RY*(  24) O   1                  0.00030
    48. RY*(  25) O   1                  0.00024
    49. RY*(  26) O   1                  0.00015
    50. RY*(  27) O   1                  0.00008
    51. RY*(  28) O   1                  0.00008
    52. RY*(  29) O   1                  0.00007
    53. RY*(  30) O   1                  0.00007
    54. RY*(  31) O   1                  0.00008
    55. RY*(  32) O   1                  0.00008
    56. RY*(  33) O   1                  0.00007
    57. RY*(  34) O   1                  0.00006
    58. RY*(  35) O   1                  0.00004
    59. RY*(  36) O   1                  0.00005
    60. RY*(  37) O   1                  0.00005
    61. RY*(  38) O   1                  0.00002
    62. RY*(  39) O   1                  0.00001
    63. RY*(  40) O   1                  0.00001
    64. RY*(  41) O   1                 -0.00014
    65. RY*(   1) H   2                  0.00487
    66. RY*(   2) H   2                  0.00245
    67. RY*(   3) H   2                  0.00228
    68. RY*(   4) H   2                  0.00129
    69. RY*(   5) H   2                  0.00027
    70. RY*(   6) H   2                  0.00020
    71. RY*(   7) H   2                  0.00019
    72. RY*(   8) H   2                  0.00013
    73. RY*(   9) H   2                  0.00011
    74. RY*(  10) H   2                  0.00012
    75. RY*(  11) H   2                  0.00011
    76. RY*(  12) H   2                  0.00008
    77. RY*(  13) H   2                  0.00007
    78. RY*(  14) H   2                  0.00006
    79. RY*(  15) H   2                  0.00004
    80. RY*(  16) H   2                  0.00004
    81. RY*(  17) H   2                  0.00004
    82. RY*(  18) H   2                  0.00004
    83. RY*(  19) H   2                  0.00002
    84. RY*(  20) H   2                  0.00002
    85. RY*(  21) H   2                  0.00002
    86. RY*(  22) H   2                  0.00001
   128. RY*(   1) H   4                  0.00861
   129. RY*(   2) H   4                  0.00399
   130. RY*(   3) H   4                  0.00376
   131. RY*(   4) H   4                  0.00296
   132. RY*(   5) H   4                  0.00101
   133. RY*(   6) H   4                  0.00040
   134. RY*(   7) H   4                  0.00034
   135. RY*(   8) H   4                  0.00026
   136. RY*(   9) H   4                  0.00024
   137. RY*(  10) H   4                  0.00020
   138. RY*(  11) H   4                  0.00019
   139. RY*(  12) H   4                  0.00018
   140. RY*(  13) H   4                  0.00010
   141. RY*(  14) H   4                  0.00008
   142. RY*(  15) H   4                  0.00006
   143. RY*(  16) H   4                  0.00007
   144. RY*(  17) H   4                  0.00005
   145. RY*(  18) H   4                  0.00003
   146. RY*(  19) H   4                  0.00003
   147. RY*(  20) H   4                  0.00003
   148. RY*(  21) H   4                  0.00003
   149. RY*(  22) H   4                  0.00003
   150. BD*(   1) O   1 - H   2          0.02239
   151. BD*(   1) O   1 - H   4          0.17061
       -------------------------------
              Total Lewis    9.84764  ( 96.9018%)
        Valence non-Lewis    0.19301  (  1.8992%)
        Rydberg non-Lewis    0.12184  (  1.1990%)
       -------------------------------
            Total unit  1   10.16249  (100.0000%)
           Charge unit  1   -0.16249

 Molecular unit  2  (Br)
     4. CR (   1)Br   3                  2.00000
     5. CR (   2)Br   3                  2.00000
     6. CR (   3)Br   3                  1.99980
     7. CR (   4)Br   3                  2.00000
     8. CR (   5)Br   3                  1.99999
     9. CR (   6)Br   3                  2.00000
    10. CR (   7)Br   3                  1.99990
    11. CR (   8)Br   3                  2.00000
    12. CR (   9)Br   3                  2.00000
    13. CR (  10)Br   3                  1.99765
    14. CR (  11)Br   3                  1.99769
    15. CR (  12)Br   3                  1.99766
    16. CR (  13)Br   3                  1.99762
    17. CR (  14)Br   3                  1.99766
    20. LP (   1)Br   3                  1.97820
    21. LP (   2)Br   3                  1.95440
    22. LP (   3)Br   3                  1.95415
    23. LP (   4)Br   3                  1.81230
    87. RY*(   1)Br   3                  0.01857
    88. RY*(   2)Br   3                  0.01852
    89. RY*(   3)Br   3                  0.01849
    90. RY*(   4)Br   3                  0.01848
    91. RY*(   5)Br   3                  0.01801
    92. RY*(   6)Br   3                  0.01121
    93. RY*(   7)Br   3                  0.01118
    94. RY*(   8)Br   3                  0.00875
    95. RY*(   9)Br   3                  0.00227
    96. RY*(  10)Br   3                  0.00176
    97. RY*(  11)Br   3                  0.00175
    98. RY*(  12)Br   3                  0.00174
    99. RY*(  13)Br   3                  0.00175
   100. RY*(  14)Br   3                  0.00175
   101. RY*(  15)Br   3                  0.00175
   102. RY*(  16)Br   3                  0.00174
   103. RY*(  17)Br   3                  0.00174
   104. RY*(  18)Br   3                  0.00174
   105. RY*(  19)Br   3                  0.00138
   106. RY*(  20)Br   3                  0.00135
   107. RY*(  21)Br   3                  0.00115
   108. RY*(  22)Br   3                  0.00080
   109. RY*(  23)Br   3                  0.00080
   110. RY*(  24)Br   3                  0.00074
   111. RY*(  25)Br   3                  0.00037
   112. RY*(  26)Br   3                  0.00028
   113. RY*(  27)Br   3                  0.00024
   114. RY*(  28)Br   3                  0.00024
   115. RY*(  29)Br   3                  0.00024
   116. RY*(  30)Br   3                  0.00024
   117. RY*(  31)Br   3                  0.00024
   118. RY*(  32)Br   3                  0.00024
   119. RY*(  33)Br   3                  0.00020
   120. RY*(  34)Br   3                  0.00020
   121. RY*(  35)Br   3                  0.00012
   122. RY*(  36)Br   3                  0.00013
   123. RY*(  37)Br   3                  0.00013
   124. RY*(  38)Br   3                  0.00005
   125. RY*(  39)Br   3                  0.00005
   126. RY*(  40)Br   3                  0.00005
   127. RY*(  41)Br   3                  0.00003
       -------------------------------
              Total Lewis   35.68703  ( 99.5801%)
        Valence non-Lewis    0.00000  (  0.0000%)
        Rydberg non-Lewis    0.15048  (  0.4199%)
       -------------------------------
            Total unit  2   35.83751  (100.0000%)
           Charge unit  2   -0.83751
 Leave Link  607 at Tue Oct 12 14:17:40 2021, MaxMem=  1048576000 cpu:         8.5
 (Enter /usr/local/gaussian/g09/l9999.exe)
 1\1\GINC-KRYPTON\SP\RMP2-FC\Aug-CC-pVTZ\Br1H2O1(1-)\CGAVINH\12-Oct-202
 1\0\\#p pop=NBO SP NoSymm mp2/aug-cc-pvtz density=current\\title\\-1,1
 \O\X,1,10.\H,1,0.96078759,2,90.\Br,1,3.25661955,2,90.,3,101.73887131,0
 \H,1,1.2,2,90.,3,101.73887131,0\\Version=ES64L-G09RevE.01\HF=-2648.576
 3142\MP2=-2649.1069417\RMSD=2.600e-09\Dipole=0.4381367,-0.4105487,0.\Q
 uadrupole=9.8595921,-18.9604421,9.10085,-5.5602979,0.,0.\PG=CS [SG(Br1
 H2O1)]\\@


 A FOOL CAN ASK MORE QUESTIONS THAN
 A WISE MAN CAN ANSWER.
 Job cpu time:       0 days  0 hours  1 minutes 53.4 seconds.
 File lengths (MBytes):  RWF=     10 Int=      0 D2E=      0 Chk=      3 Scr=      1
 Normal termination of Gaussian 09 at Tue Oct 12 14:17:40 2021.
