 Entering Gaussian System, Link 0=g09
 Input=brhod_rOH_140_sp.gjf
 Output=brhod_rOH_140_sp.log
 Initial command:
 /usr/local/gaussian/g09/l1.exe "/scratch/Gau-15660.inp" -scrdir="/scratch/"
 Entering Link 1 = /usr/local/gaussian/g09/l1.exe PID=     15661.
  
 Copyright (c) 1988,1990,1992,1993,1995,1998,2003,2009,2015,
            Gaussian, Inc.  All Rights Reserved.
  
 This is part of the Gaussian(R) 09 program.  It is based on
 the Gaussian(R) 03 system (copyright 2003, Gaussian, Inc.),
 the Gaussian(R) 98 system (copyright 1998, Gaussian, Inc.),
 the Gaussian(R) 94 system (copyright 1995, Gaussian, Inc.),
 the Gaussian 92(TM) system (copyright 1992, Gaussian, Inc.),
 the Gaussian 90(TM) system (copyright 1990, Gaussian, Inc.),
 the Gaussian 88(TM) system (copyright 1988, Gaussian, Inc.),
 the Gaussian 86(TM) system (copyright 1986, Carnegie Mellon
 University), and the Gaussian 82(TM) system (copyright 1983,
 Carnegie Mellon University). Gaussian is a federally registered
 trademark of Gaussian, Inc.
  
 This software contains proprietary and confidential information,
 including trade secrets, belonging to Gaussian, Inc.
  
 This software is provided under written license and may be
 used, copied, transmitted, or stored only in accord with that
 written license.
  
 The following legend is applicable only to US Government
 contracts under FAR:
  
                    RESTRICTED RIGHTS LEGEND
  
 Use, reproduction and disclosure by the US Government is
 subject to restrictions as set forth in subparagraphs (a)
 and (c) of the Commercial Computer Software - Restricted
 Rights clause in FAR 52.227-19.
  
 Gaussian, Inc.
 340 Quinnipiac St., Bldg. 40, Wallingford CT 06492
  
  
 ---------------------------------------------------------------
 Warning -- This program may not be used in any manner that
 competes with the business of Gaussian, Inc. or will provide
 assistance to any competitor of Gaussian, Inc.  The licensee
 of this program is prohibited from giving any competitor of
 Gaussian, Inc. access to this program.  By using this program,
 the user acknowledges that Gaussian, Inc. is engaged in the
 business of creating and licensing software in the field of
 computational chemistry and represents and warrants to the
 licensee that it is not a competitor of Gaussian, Inc. and that
 it will not use this program in any manner prohibited above.
 ---------------------------------------------------------------
  

 Cite this work as:
 Gaussian 09, Revision E.01,
 M. J. Frisch, G. W. Trucks, H. B. Schlegel, G. E. Scuseria, 
 M. A. Robb, J. R. Cheeseman, G. Scalmani, V. Barone, B. Mennucci, 
 G. A. Petersson, H. Nakatsuji, M. Caricato, X. Li, H. P. Hratchian, 
 A. F. Izmaylov, J. Bloino, G. Zheng, J. L. Sonnenberg, M. Hada, 
 M. Ehara, K. Toyota, R. Fukuda, J. Hasegawa, M. Ishida, T. Nakajima, 
 Y. Honda, O. Kitao, H. Nakai, T. Vreven, J. A. Montgomery, Jr., 
 J. E. Peralta, F. Ogliaro, M. Bearpark, J. J. Heyd, E. Brothers, 
 K. N. Kudin, V. N. Staroverov, T. Keith, R. Kobayashi, J. Normand, 
 K. Raghavachari, A. Rendell, J. C. Burant, S. S. Iyengar, J. Tomasi, 
 M. Cossi, N. Rega, J. M. Millam, M. Klene, J. E. Knox, J. B. Cross, 
 V. Bakken, C. Adamo, J. Jaramillo, R. Gomperts, R. E. Stratmann, 
 O. Yazyev, A. J. Austin, R. Cammi, C. Pomelli, J. W. Ochterski, 
 R. L. Martin, K. Morokuma, V. G. Zakrzewski, G. A. Voth, 
 P. Salvador, J. J. Dannenberg, S. Dapprich, A. D. Daniels, 
 O. Farkas, J. B. Foresman, J. V. Ortiz, J. Cioslowski, 
 and D. J. Fox, Gaussian, Inc., Wallingford CT, 2013.
 
 ******************************************
 Gaussian 09:  ES64L-G09RevE.01 30-Nov-2015
                12-Oct-2021 
 ******************************************
 %nproc=12
 Will use up to   12 processors via shared memory.
 %mem=8000MB
 %chk=/home/netid.washington.edu/cgavinh/mccoy_hocl/rOH_s_oop_0/brhod/brhod_rOH_1
 40_sp.chk
 ----------------------------------------------------
 #p pop=NBO SP NoSymm mp2/aug-cc-pvtz density=current
 ----------------------------------------------------
 1/30=1,38=1/1;
 2/12=2,15=1,17=6,18=5,40=1/2;
 3/5=16,6=1,7=10,11=9,16=1,25=1,30=1,71=1/1,2,3;
 4//1;
 5/5=2,38=5/2;
 8/6=4,10=1/1;
 9/15=1,16=-3/6;
 10/5=1,13=10,31=1/2;
 6/7=2,8=2,9=2,10=2,22=-1,40=1/1,7;
 99/5=1,9=1/99;
 Leave Link    1 at Tue Oct 12 14:18:15 2021, MaxMem=  1048576000 cpu:         0.2
 (Enter /usr/local/gaussian/g09/l101.exe)
 -----
 title
 -----
 Symbolic Z-matrix:
 Charge = -1 Multiplicity = 1
 O
 X                    1     10. 
 H(iso=2)             1    r1       2     90. 
 Br                   1    r2       2     90.      3    a1       0
 H                    1    r3       2    oop      3    a1       0
       Variables:
  r1                    0.96079                  
  r2                    3.25662                  
  r3                    1.4                      
  a1                  101.73887                  
  OOP                  90.                       
 
 NAtoms=      4 NQM=        4 NQMF=       0 NMMI=      0 NMMIF=      0
                NMic=       0 NMicF=      0.
                    Isotopes and Nuclear Properties:
 (Nuclear quadrupole moments (NQMom) in fm**2, nuclear magnetic moments (NMagM)
  in nuclear magnetons)

  Atom         1           2           3           4
 IAtWgt=          16           2          79           1
 AtmWgt=  15.9949146   2.0141018  78.9183361   1.0078250
 NucSpn=           0           2           3           1
 AtZEff=   0.0000000   0.0000000   0.0000000   0.0000000
 NQMom=    0.0000000   0.2860000  31.3000000   0.0000000
 NMagM=    0.0000000   0.8574380   2.1063990   2.7928460
 AtZNuc=   8.0000000   1.0000000  35.0000000   1.0000000
 Leave Link  101 at Tue Oct 12 14:18:15 2021, MaxMem=  1048576000 cpu:         0.4
 (Enter /usr/local/gaussian/g09/l202.exe)
                          Input orientation:                          
 ---------------------------------------------------------------------
 Center     Atomic      Atomic             Coordinates (Angstroms)
 Number     Number       Type             X           Y           Z
 ---------------------------------------------------------------------
      1          8           0        0.000000    0.000000    0.000000
      2          1           0        0.960788    0.000000    0.000000
      3         35           0       -0.662564   -3.188507    0.000000
      4          1           0       -0.284832   -1.370719    0.000000
 ---------------------------------------------------------------------
                    Distance matrix (angstroms):
                    1          2          3          4
     1  O    0.000000
     2  H    0.960788   0.000000
     3  Br   3.256620   3.577967   0.000000
     4  H    1.400000   1.852145   1.856620   0.000000
 Symmetry turned off by external request.
 Stoichiometry    BrH2O(1-)
 Framework group  CS[SG(BrH2O)]
 Deg. of freedom     5
 Full point group                 CS      NOp   2
 Rotational constants (GHZ):    323.2842572      3.1703720      3.1395828
 Leave Link  202 at Tue Oct 12 14:18:15 2021, MaxMem=  1048576000 cpu:         0.0
 (Enter /usr/local/gaussian/g09/l301.exe)
 Standard basis: Aug-CC-pVTZ (5D, 7F)
 Ernie: Thresh=  0.10000D-02 Tol=  0.10000D-05 Strict=F.
 Ernie:  35 primitive shells out of 175 were deleted.
   151 basis functions,   343 primitive gaussians,   174 cartesian basis functions
    23 alpha electrons       23 beta electrons
       nuclear repulsion energy        68.3659829449 Hartrees.
 IExCor=    0 DFT=F Ex=HF Corr=None ExCW=0 ScaHFX=  1.000000
 ScaDFX=  1.000000  1.000000  1.000000  1.000000 ScalE2=  1.000000  1.000000
 IRadAn=      0 IRanWt=     -1 IRanGd=            0 ICorTp=0 IEmpDi=  4
 NAtoms=    4 NActive=    4 NUniq=    4 SFac= 1.00D+00 NAtFMM=   60 NAOKFM=F Big=F
 Integral buffers will be    131072 words long.
 Raffenetti 1 integral format.
 Two-electron integral symmetry is turned off.
 Leave Link  301 at Tue Oct 12 14:18:15 2021, MaxMem=  1048576000 cpu:         0.3
 (Enter /usr/local/gaussian/g09/l302.exe)
 NPDir=0 NMtPBC=     1 NCelOv=     1 NCel=       1 NClECP=     1 NCelD=      1
         NCelK=      1 NCelE2=     1 NClLst=     1 CellRange=     0.0.
 One-electron integrals computed using PRISM.
 NBasis=   151 RedAO= T EigKep=  3.33D-04  NBF=   151
 NBsUse=   151 1.00D-06 EigRej= -1.00D+00 NBFU=   151
 Leave Link  302 at Tue Oct 12 14:18:15 2021, MaxMem=  1048576000 cpu:         1.5
 (Enter /usr/local/gaussian/g09/l303.exe)
 DipDrv:  MaxL=1.
 Leave Link  303 at Tue Oct 12 14:18:15 2021, MaxMem=  1048576000 cpu:         0.2
 (Enter /usr/local/gaussian/g09/l401.exe)
 ExpMin= 2.53D-02 ExpMax= 1.06D+07 ExpMxC= 1.21D+04 IAcc=3 IRadAn=         5 AccDes= 0.00D+00
 Harris functional with IExCor=  205 and IRadAn=       5 diagonalized for initial guess.
 HarFok:  IExCor=  205 AccDes= 0.00D+00 IRadAn=         5 IDoV= 1 UseB2=F ITyADJ=14
 ICtDFT=  3500011 ScaDFX=  1.000000  1.000000  1.000000  1.000000
 FoFCou: FMM=F IPFlag=           0 FMFlag=      100000 FMFlg1=           0
         NFxFlg=           0 DoJE=T BraDBF=F KetDBF=T FulRan=T
         wScrn=  0.000000 ICntrl=     500 IOpCl=  0 I1Cent=   200000004 NGrid=           0
         NMat0=    1 NMatS0=      1 NMatT0=    0 NMatD0=    1 NMtDS0=    0 NMtDT0=    0
 Symmetry not used in FoFCou.
 Harris En= -2647.96449120933    
 JPrj=0 DoOrth=F DoCkMO=F.
 Leave Link  401 at Tue Oct 12 14:18:15 2021, MaxMem=  1048576000 cpu:         2.6
 (Enter /usr/local/gaussian/g09/l502.exe)
 Closed shell SCF:
 Using DIIS extrapolation, IDIIS=  1040.
 Two-electron integral symmetry not used.
 Keep R1 ints in memory in canonical form, NReq=69268896.
 IVT=      112518 IEndB=      112518 NGot=  1048576000 MDV=   982608457
 LenX=   982608457 LenY=   982577740
 Requested convergence on RMS density matrix=1.00D-08 within 128 cycles.
 Requested convergence on MAX density matrix=1.00D-06.
 Requested convergence on             energy=1.00D-06.
 No special actions if energy rises.
 FoFCou: FMM=F IPFlag=           0 FMFlag=           0 FMFlg1=           0
         NFxFlg=           0 DoJE=F BraDBF=F KetDBF=F FulRan=T
         wScrn=  0.000000 ICntrl=     600 IOpCl=  0 I1Cent=           0 NGrid=           0
         NMat0=    1 NMatS0=  11476 NMatT0=    0 NMatD0=    1 NMtDS0=    0 NMtDT0=    0
 Symmetry not used in FoFCou.

 Cycle   1  Pass 1  IDiag  1:
 E= -2648.36787976565    
 DIIS: error= 7.31D-02 at cycle   1 NSaved=   1.
 NSaved= 1 IEnMin= 1 EnMin= -2648.36787976565     IErMin= 1 ErrMin= 7.31D-02
 ErrMax= 7.31D-02  0.00D+00 EMaxC= 1.00D-01 BMatC= 5.85D-01 BMatP= 5.85D-01
 IDIUse=3 WtCom= 2.69D-01 WtEn= 7.31D-01
 Coeff-Com:  0.100D+01
 Coeff-En:   0.100D+01
 Coeff:      0.100D+01
 Gap=     0.556 Goal=   None    Shift=    0.000
 GapD=    0.556 DampG=2.000 DampE=0.500 DampFc=1.0000 IDamp=-1.
 RMSDP=3.49D-03 MaxDP=1.07D-01              OVMax= 1.60D-01

 Cycle   2  Pass 1  IDiag  1:
 E= -2648.47255825043     Delta-E=       -0.104678484785 Rises=F Damp=F
 DIIS: error= 2.85D-02 at cycle   2 NSaved=   2.
 NSaved= 2 IEnMin= 2 EnMin= -2648.47255825043     IErMin= 2 ErrMin= 2.85D-02
 ErrMax= 2.85D-02  0.00D+00 EMaxC= 1.00D-01 BMatC= 1.06D-01 BMatP= 5.85D-01
 IDIUse=3 WtCom= 7.15D-01 WtEn= 2.85D-01
 Coeff-Com:  0.253D+00 0.747D+00
 Coeff-En:   0.146D+00 0.854D+00
 Coeff:      0.223D+00 0.777D+00
 Gap=     0.385 Goal=   None    Shift=    0.000
 RMSDP=1.49D-03 MaxDP=4.51D-02 DE=-1.05D-01 OVMax= 1.03D-01

 Cycle   3  Pass 1  IDiag  1:
 E= -2648.52887076556     Delta-E=       -0.056312515123 Rises=F Damp=F
 DIIS: error= 1.26D-02 at cycle   3 NSaved=   3.
 NSaved= 3 IEnMin= 3 EnMin= -2648.52887076556     IErMin= 3 ErrMin= 1.26D-02
 ErrMax= 1.26D-02  0.00D+00 EMaxC= 1.00D-01 BMatC= 1.99D-02 BMatP= 1.06D-01
 IDIUse=3 WtCom= 8.74D-01 WtEn= 1.26D-01
 Coeff-Com:  0.111D-01 0.305D+00 0.684D+00
 Coeff-En:   0.000D+00 0.610D-01 0.939D+00
 Coeff:      0.970D-02 0.274D+00 0.716D+00
 Gap=     0.346 Goal=   None    Shift=    0.000
 RMSDP=4.53D-04 MaxDP=1.14D-02 DE=-5.63D-02 OVMax= 3.31D-02

 Cycle   4  Pass 1  IDiag  1:
 E= -2648.54183708456     Delta-E=       -0.012966319001 Rises=F Damp=F
 DIIS: error= 1.23D-03 at cycle   4 NSaved=   4.
 NSaved= 4 IEnMin= 4 EnMin= -2648.54183708456     IErMin= 4 ErrMin= 1.23D-03
 ErrMax= 1.23D-03  0.00D+00 EMaxC= 1.00D-01 BMatC= 1.74D-04 BMatP= 1.99D-02
 IDIUse=3 WtCom= 9.88D-01 WtEn= 1.23D-02
 Coeff-Com: -0.464D-02-0.208D-01 0.494D-01 0.976D+00
 Coeff-En:   0.000D+00 0.000D+00 0.000D+00 0.100D+01
 Coeff:     -0.459D-02-0.206D-01 0.487D-01 0.976D+00
 Gap=     0.338 Goal=   None    Shift=    0.000
 RMSDP=5.54D-05 MaxDP=1.40D-03 DE=-1.30D-02 OVMax= 4.12D-03

 Cycle   5  Pass 1  IDiag  1:
 E= -2648.54198031626     Delta-E=       -0.000143231703 Rises=F Damp=F
 DIIS: error= 1.11D-04 at cycle   5 NSaved=   5.
 NSaved= 5 IEnMin= 5 EnMin= -2648.54198031626     IErMin= 5 ErrMin= 1.11D-04
 ErrMax= 1.11D-04  0.00D+00 EMaxC= 1.00D-01 BMatC= 3.04D-06 BMatP= 1.74D-04
 IDIUse=3 WtCom= 9.99D-01 WtEn= 1.11D-03
 Coeff-Com:  0.927D-03-0.641D-02-0.310D-01-0.165D+00 0.120D+01
 Coeff-En:   0.000D+00 0.000D+00 0.000D+00 0.000D+00 0.100D+01
 Coeff:      0.926D-03-0.640D-02-0.310D-01-0.164D+00 0.120D+01
 Gap=     0.338 Goal=   None    Shift=    0.000
 RMSDP=2.36D-05 MaxDP=7.02D-04 DE=-1.43D-04 OVMax= 1.13D-03

 Cycle   6  Pass 1  IDiag  1:
 E= -2648.54198872208     Delta-E=       -0.000008405816 Rises=F Damp=F
 DIIS: error= 5.06D-05 at cycle   6 NSaved=   6.
 NSaved= 6 IEnMin= 6 EnMin= -2648.54198872208     IErMin= 6 ErrMin= 5.06D-05
 ErrMax= 5.06D-05  0.00D+00 EMaxC= 1.00D-01 BMatC= 4.08D-07 BMatP= 3.04D-06
 IDIUse=1 WtCom= 1.00D+00 WtEn= 0.00D+00
 Coeff-Com:  0.307D-03 0.277D-02-0.375D-02-0.109D+00 0.858D-01 0.102D+01
 Coeff:      0.307D-03 0.277D-02-0.375D-02-0.109D+00 0.858D-01 0.102D+01
 Gap=     0.339 Goal=   None    Shift=    0.000
 RMSDP=6.93D-06 MaxDP=1.96D-04 DE=-8.41D-06 OVMax= 4.80D-04

 Cycle   7  Pass 1  IDiag  1:
 E= -2648.54198967136     Delta-E=       -0.000000949284 Rises=F Damp=F
 DIIS: error= 1.58D-05 at cycle   7 NSaved=   7.
 NSaved= 7 IEnMin= 7 EnMin= -2648.54198967136     IErMin= 7 ErrMin= 1.58D-05
 ErrMax= 1.58D-05  0.00D+00 EMaxC= 1.00D-01 BMatC= 3.85D-08 BMatP= 4.08D-07
 IDIUse=1 WtCom= 1.00D+00 WtEn= 0.00D+00
 Coeff-Com: -0.160D-03-0.174D-03 0.363D-02 0.453D-01-0.168D+00-0.151D+00
 Coeff-Com:  0.127D+01
 Coeff:     -0.160D-03-0.174D-03 0.363D-02 0.453D-01-0.168D+00-0.151D+00
 Coeff:      0.127D+01
 Gap=     0.339 Goal=   None    Shift=    0.000
 RMSDP=2.57D-06 MaxDP=5.75D-05 DE=-9.49D-07 OVMax= 1.89D-04

 Cycle   8  Pass 1  IDiag  1:
 E= -2648.54198979248     Delta-E=       -0.000000121125 Rises=F Damp=F
 DIIS: error= 5.55D-06 at cycle   8 NSaved=   8.
 NSaved= 8 IEnMin= 8 EnMin= -2648.54198979248     IErMin= 8 ErrMin= 5.55D-06
 ErrMax= 5.55D-06  0.00D+00 EMaxC= 1.00D-01 BMatC= 1.91D-09 BMatP= 3.85D-08
 IDIUse=1 WtCom= 1.00D+00 WtEn= 0.00D+00
 Coeff-Com:  0.213D-04-0.124D-03-0.637D-03-0.526D-02 0.413D-01-0.312D-01
 Coeff-Com: -0.318D+00 0.131D+01
 Coeff:      0.213D-04-0.124D-03-0.637D-03-0.526D-02 0.413D-01-0.312D-01
 Coeff:     -0.318D+00 0.131D+01
 Gap=     0.339 Goal=   None    Shift=    0.000
 RMSDP=5.46D-07 MaxDP=1.49D-05 DE=-1.21D-07 OVMax= 4.84D-05

 Cycle   9  Pass 1  IDiag  1:
 E= -2648.54198979943     Delta-E=       -0.000000006947 Rises=F Damp=F
 DIIS: error= 1.16D-06 at cycle   9 NSaved=   9.
 NSaved= 9 IEnMin= 9 EnMin= -2648.54198979943     IErMin= 9 ErrMin= 1.16D-06
 ErrMax= 1.16D-06  0.00D+00 EMaxC= 1.00D-01 BMatC= 1.42D-10 BMatP= 1.91D-09
 IDIUse=1 WtCom= 1.00D+00 WtEn= 0.00D+00
 Coeff-Com:  0.351D-05 0.314D-04-0.458D-04-0.143D-02-0.233D-03 0.178D-01
 Coeff-Com: -0.396D-02-0.312D+00 0.130D+01
 Coeff:      0.351D-05 0.314D-04-0.458D-04-0.143D-02-0.233D-03 0.178D-01
 Coeff:     -0.396D-02-0.312D+00 0.130D+01
 Gap=     0.339 Goal=   None    Shift=    0.000
 RMSDP=1.50D-07 MaxDP=3.58D-06 DE=-6.95D-09 OVMax= 1.40D-05

 Cycle  10  Pass 1  IDiag  1:
 E= -2648.54198979992     Delta-E=       -0.000000000491 Rises=F Damp=F
 DIIS: error= 2.70D-07 at cycle  10 NSaved=  10.
 NSaved=10 IEnMin=10 EnMin= -2648.54198979992     IErMin=10 ErrMin= 2.70D-07
 ErrMax= 2.70D-07  0.00D+00 EMaxC= 1.00D-01 BMatC= 1.06D-11 BMatP= 1.42D-10
 IDIUse=1 WtCom= 1.00D+00 WtEn= 0.00D+00
 Coeff-Com: -0.169D-05 0.102D-04 0.434D-04 0.354D-03-0.296D-02 0.304D-02
 Coeff-Com:  0.226D-01-0.944D-01-0.670D-01 0.114D+01
 Coeff:     -0.169D-05 0.102D-04 0.434D-04 0.354D-03-0.296D-02 0.304D-02
 Coeff:      0.226D-01-0.944D-01-0.670D-01 0.114D+01
 Gap=     0.339 Goal=   None    Shift=    0.000
 RMSDP=4.56D-08 MaxDP=1.28D-06 DE=-4.91D-10 OVMax= 3.90D-06

 Cycle  11  Pass 1  IDiag  1:
 E= -2648.54198979996     Delta-E=       -0.000000000038 Rises=F Damp=F
 DIIS: error= 1.03D-07 at cycle  11 NSaved=  11.
 NSaved=11 IEnMin=11 EnMin= -2648.54198979996     IErMin=11 ErrMin= 1.03D-07
 ErrMax= 1.03D-07  0.00D+00 EMaxC= 1.00D-01 BMatC= 9.66D-13 BMatP= 1.06D-11
 IDIUse=1 WtCom= 1.00D+00 WtEn= 0.00D+00
 Coeff-Com: -0.253D-07-0.420D-05-0.259D-05 0.795D-04 0.485D-03-0.208D-02
 Coeff-Com: -0.280D-02 0.417D-01-0.110D+00-0.121D+00 0.119D+01
 Coeff:     -0.253D-07-0.420D-05-0.259D-05 0.795D-04 0.485D-03-0.208D-02
 Coeff:     -0.280D-02 0.417D-01-0.110D+00-0.121D+00 0.119D+01
 Gap=     0.339 Goal=   None    Shift=    0.000
 RMSDP=1.30D-08 MaxDP=2.99D-07 DE=-3.77D-11 OVMax= 1.18D-06

 Cycle  12  Pass 1  IDiag  1:
 E= -2648.54198979996     Delta-E=        0.000000000004 Rises=F Damp=F
 DIIS: error= 3.14D-08 at cycle  12 NSaved=  12.
 NSaved=12 IEnMin=11 EnMin= -2648.54198979996     IErMin=12 ErrMin= 3.14D-08
 ErrMax= 3.14D-08  0.00D+00 EMaxC= 1.00D-01 BMatC= 7.96D-14 BMatP= 9.66D-13
 IDIUse=1 WtCom= 1.00D+00 WtEn= 0.00D+00
 Coeff-Com:  0.119D-06-0.684D-06-0.223D-05-0.289D-04 0.195D-03-0.227D-03
 Coeff-Com: -0.153D-02 0.586D-02 0.808D-02-0.856D-01-0.912D-01 0.116D+01
 Coeff:      0.119D-06-0.684D-06-0.223D-05-0.289D-04 0.195D-03-0.227D-03
 Coeff:     -0.153D-02 0.586D-02 0.808D-02-0.856D-01-0.912D-01 0.116D+01
 Gap=     0.339 Goal=   None    Shift=    0.000
 RMSDP=3.86D-09 MaxDP=7.54D-08 DE= 3.64D-12 OVMax= 2.93D-07

 SCF Done:  E(RHF) =  -2648.54198980     A.U. after   12 cycles
            NFock= 12  Conv=0.39D-08     -V/T= 2.0001
 KE= 2.648221124145D+03 PE=-6.483686559612D+03 EE= 1.118557462722D+03
 Leave Link  502 at Tue Oct 12 14:18:17 2021, MaxMem=  1048576000 cpu:        12.8
 (Enter /usr/local/gaussian/g09/l801.exe)
 ExpMin= 2.53D-02 ExpMax= 1.06D+07 ExpMxC= 1.21D+04 IAcc=3 IRadAn=         5 AccDes= 0.00D+00
 HarFok:  IExCor=  205 AccDes= 0.00D+00 IRadAn=         5 IDoV=-2 UseB2=F ITyADJ=14
 ICtDFT= 12500011 ScaDFX=  1.000000  1.000000  1.000000  1.000000
 Largest valence mixing into a core orbital is  1.31D-04
 Largest core mixing into a valence orbital is  3.58D-05
 Range of M.O.s used for correlation:    11   151
 NBasis=   151 NAE=    23 NBE=    23 NFC=    10 NFV=     0
 NROrb=    141 NOA=    13 NOB=    13 NVA=   128 NVB=   128

 **** Warning!!: The largest alpha MO coefficient is  0.15329296D+02

 Leave Link  801 at Tue Oct 12 14:18:17 2021, MaxMem=  1048576000 cpu:         0.7
 (Enter /usr/local/gaussian/g09/l906.exe)
 Frozen-core derivative calculation, NFC=  10 NFV=   0.
 FulOut=F Deriv=T AODrv=F NAtomX=     4
   MMem=         391  MDisk=          13 MDiskD=          13
  W3Min=      604302 MinDsk=     1007783 NBas6D=         174
 NBas2D=       15618    NTT=       15225    LW2=     9911920
    MDV=  1048225830 MDiskM=       30063 NBas2p=       15367
 Fully in-core method, ICMem=   275066562.
 IMap=   1   2   3   4   5   6   7   8   9  10  11  12  13  14  15  16  17  18  19  20
 IMap=  21  22  23
 JobTyp=1 Pass  1 fully in-core, NPsUse= 12.
 Compute canonical integrals.
 FoFCou: FMM=F IPFlag=           0 FMFlag=           0 FMFlg1=           0
         NFxFlg=           0 DoJE=F BraDBF=F KetDBF=F FulRan=T
         wScrn=  0.000000 ICntrl=     600 IOpCl=  1 I1Cent=           0 NGrid=           0
         NMat0=    1 NMatS0=  15618 NMatT0=    0 NMatD0=    1 NMtDS0=    0 NMtDT0=    0
 Symmetry not used in FoFCou.
 Spin components of T(2) and E(2):
     alpha-alpha T2 =       0.2284269952D-01 E2=     -0.7341108417D-01
     alpha-beta  T2 =       0.1203536053D+00 E2=     -0.3933094963D+00
     beta-beta   T2 =       0.2284269952D-01 E2=     -0.7341108417D-01
 The integrals were generated   1 times.
 ANorm=    0.1079832859D+01
 E2 =    -0.5401316646D+00 EUMP2 =    -0.26490821214646D+04
 Leave Link  906 at Tue Oct 12 14:18:23 2021, MaxMem=  1048576000 cpu:        71.5
 (Enter /usr/local/gaussian/g09/l1002.exe)
 Minotr:  Closed shell wavefunction.
          Computing MP2/KS-MP2 derivatives.
          Using Z-Vector for PSCF gradient.
          Skipping F1 and S1 gradient terms here.
          Frozen-core window.
          Direct CPHF calculation.
          Differentiating once with respect to electric field.
                with respect to dipole field.
          Electric field/nuclear overlap derivatives assumed to be zero.
          Requested convergence is 1.0D-10 RMS, and 1.0D-09 maximum.
          NewPWx=F KeepS1=T KeepF1=T KeepIn=T MapXYZ=F SortEE=F KeepMc=T.
          MDV=    1048575823 using IRadAn=       0.
 Keep R1 ints in memory in canonical form, NReq=69224442.
 FoFCou: FMM=F IPFlag=           0 FMFlag=           0 FMFlg1=           0
         NFxFlg=           0 DoJE=F BraDBF=F KetDBF=F FulRan=T
         wScrn=  0.000000 ICntrl=     600 IOpCl=  0 I1Cent=           0 NGrid=           0
         NMat0=    1 NMatS0=  11476 NMatT0=    0 NMatD0=    1 NMtDS0=    0 NMtDT0=    0
 Symmetry not used in FoFCou.
          Solving linear equations separately, MaxMat=       0.
          There are     1 degrees of freedom in the 1st order CPHF.  IDoFFX=0 NUNeed=     1.
 LinEq1:  Iter=  0 NonCon=     1 RMS=3.30D-03 Max=8.12D-02 NDo=     1
 AX will form     1 AO Fock derivatives at one time.
 LinEq1:  Iter=  1 NonCon=     1 RMS=5.81D-04 Max=9.31D-03 NDo=     1
 LinEq1:  Iter=  2 NonCon=     1 RMS=2.27D-04 Max=3.69D-03 NDo=     1
 LinEq1:  Iter=  3 NonCon=     1 RMS=8.67D-05 Max=1.03D-03 NDo=     1
 LinEq1:  Iter=  4 NonCon=     1 RMS=4.57D-05 Max=7.69D-04 NDo=     1
 LinEq1:  Iter=  5 NonCon=     1 RMS=1.04D-05 Max=1.47D-04 NDo=     1
 LinEq1:  Iter=  6 NonCon=     1 RMS=2.25D-06 Max=3.32D-05 NDo=     1
 LinEq1:  Iter=  7 NonCon=     1 RMS=4.87D-07 Max=6.62D-06 NDo=     1
 LinEq1:  Iter=  8 NonCon=     1 RMS=1.36D-07 Max=1.52D-06 NDo=     1
 LinEq1:  Iter=  9 NonCon=     1 RMS=2.45D-08 Max=3.24D-07 NDo=     1
 LinEq1:  Iter= 10 NonCon=     1 RMS=3.98D-09 Max=5.66D-08 NDo=     1
 LinEq1:  Iter= 11 NonCon=     1 RMS=9.21D-10 Max=1.11D-08 NDo=     1
 LinEq1:  Iter= 12 NonCon=     1 RMS=1.90D-10 Max=2.47D-09 NDo=     1
 LinEq1:  Iter= 13 NonCon=     0 RMS=4.50D-11 Max=4.83D-10 NDo=     1
 Linear equations converged to 1.000D-10 1.000D-09 after    13 iterations.
 End of Minotr F.D. properties file   721 does not exist.
 End of Minotr F.D. properties file   722 does not exist.
 End of Minotr F.D. properties file   788 does not exist.
 Leave Link 1002 at Tue Oct 12 14:18:25 2021, MaxMem=  1048576000 cpu:        11.9
 (Enter /usr/local/gaussian/g09/l601.exe)
 Copying SCF densities to generalized density rwf, IOpCl= 0 IROHF=0.

 **********************************************************************

            Population analysis using the MP2 density.

 **********************************************************************

 Alpha  occ. eigenvalues -- -489.78082 -64.92102 -58.27568 -58.27540 -58.27539
 Alpha  occ. eigenvalues --  -20.33242  -9.59347  -7.20195  -7.20032  -7.20028
 Alpha  occ. eigenvalues --   -2.94401  -2.94318  -2.94313  -2.94109  -2.94109
 Alpha  occ. eigenvalues --   -1.05838  -0.75675  -0.41216  -0.33613  -0.25950
 Alpha  occ. eigenvalues --   -0.19668  -0.19575  -0.19064
 Alpha virt. eigenvalues --    0.14800   0.16953   0.22786   0.23488   0.23847
 Alpha virt. eigenvalues --    0.28586   0.31492   0.32026   0.32773   0.36171
 Alpha virt. eigenvalues --    0.40996   0.41666   0.42647   0.45473   0.46197
 Alpha virt. eigenvalues --    0.47379   0.47775   0.53550   0.57381   0.60258
 Alpha virt. eigenvalues --    0.62577   0.63112   0.67142   0.71287   0.72689
 Alpha virt. eigenvalues --    0.73556   0.81134   0.89233   0.91462   0.94103
 Alpha virt. eigenvalues --    0.95622   0.97572   0.97844   0.98355   0.98551
 Alpha virt. eigenvalues --    1.01058   1.03841   1.04875   1.09631   1.12005
 Alpha virt. eigenvalues --    1.12055   1.14178   1.16324   1.16377   1.19766
 Alpha virt. eigenvalues --    1.21677   1.22470   1.24804   1.25573   1.28055
 Alpha virt. eigenvalues --    1.34333   1.38500   1.45557   1.47624   1.48320
 Alpha virt. eigenvalues --    1.52076   1.66282   1.68308   1.73048   1.75357
 Alpha virt. eigenvalues --    1.75505   1.81753   1.97993   2.00253   2.13875
 Alpha virt. eigenvalues --    2.32878   2.41396   2.42184   2.44128   2.49404
 Alpha virt. eigenvalues --    2.51671   2.52089   2.52987   2.53034   2.54561
 Alpha virt. eigenvalues --    2.55107   2.55527   2.55560   2.60906   2.63080
 Alpha virt. eigenvalues --    2.64693   2.64972   2.68342   2.71627   2.73350
 Alpha virt. eigenvalues --    2.74373   2.79393   2.98886   3.01164   3.05641
 Alpha virt. eigenvalues --    3.15290   3.16696   3.46020   3.89775   3.94735
 Alpha virt. eigenvalues --    4.15556   4.17403   4.31149   4.33154   4.41233
 Alpha virt. eigenvalues --    4.47469   4.50317   4.54403   4.59594   4.64436
 Alpha virt. eigenvalues --    4.77920   4.82577   5.01226   5.16835   5.23869
 Alpha virt. eigenvalues --    5.44139   5.55997   5.59150   6.14237   6.54230
 Alpha virt. eigenvalues --    6.93344   7.02178   7.09429   7.20472   7.45831
 Alpha virt. eigenvalues --    7.49005   7.56345   7.57189   7.58320   7.77340
 Alpha virt. eigenvalues --    7.94288   8.48209  14.51710
          Condensed to atoms (all electrons):
               1          2          3          4
     1  O    8.390663   0.194058  -0.102413   0.187750
     2  H    0.194058   0.633536  -0.005482   0.032480
     3  Br  -0.102413  -0.005482  35.752562   0.031401
     4  H    0.187750   0.032480   0.031401   0.547650
 Mulliken charges:
               1
     1  O   -0.670058
     2  H    0.145407
     3  Br  -0.676069
     4  H    0.200719
 Sum of Mulliken charges =  -1.00000
 Mulliken charges with hydrogens summed into heavy atoms:
               1
     1  O   -0.323931
     3  Br  -0.676069
 Electronic spatial extent (au):  <R**2>=           1428.4881
 Charge=             -1.0000 electrons
 Dipole moment (field-independent basis, Debye):
    X=              3.0286    Y=              9.1009    Z=             -0.0000  Tot=              9.5916
 Quadrupole moment (field-independent basis, Debye-Ang):
   XX=            -30.1755   YY=            -62.9427   ZZ=            -31.4737
   XY=             -6.2626   XZ=             -0.0000   YZ=             -0.0000
 Traceless Quadrupole moment (field-independent basis, Debye-Ang):
   XX=             11.3551   YY=            -21.4121   ZZ=             10.0569
   XY=             -6.2626   XZ=             -0.0000   YZ=             -0.0000
 Octapole moment (field-independent basis, Debye-Ang**2):
  XXX=             44.8956  YYY=            318.2984  ZZZ=             -0.0000  XYY=             34.8585
  XXY=             76.1472  XXZ=             -0.0000  XZZ=             14.0805  YZZ=             71.8766
  YYZ=              0.0000  XYZ=              0.0000
 Hexadecapole moment (field-independent basis, Debye-Ang**3):
 XXXX=           -104.7104 YYYY=          -1721.4528 ZZZZ=            -47.3705 XXXY=           -143.8741
 XXXZ=             -0.0000 YYYX=           -203.6331 YYYZ=             -0.0000 ZZZX=             -0.0000
 ZZZY=             -0.0000 XXYY=           -265.9811 XXZZ=            -25.5951 YYZZ=           -243.4871
 XXYZ=             -0.0000 YYXZ=             -0.0000 ZZXY=            -47.1004
 N-N= 6.836598294489D+01 E-N=-6.482186368831D+03  KE= 2.648110953205D+03
 No NMR shielding tensors so no spin-rotation constants.
 Leave Link  601 at Tue Oct 12 14:18:25 2021, MaxMem=  1048576000 cpu:         2.2
 (Enter /usr/local/gaussian/g09/l607.exe)
 ******************************Gaussian NBO Version 3.1******************************
             N A T U R A L   A T O M I C   O R B I T A L   A N D
          N A T U R A L   B O N D   O R B I T A L   A N A L Y S I S
 ******************************Gaussian NBO Version 3.1******************************
       /RESON  / : Allow strongly delocalized NBO set

 Analyzing the MP2 density

 Job title: title                                                           

 Storage needed:     69217 in NPA,     91732 in NBO (1048575904 available)


 NATURAL POPULATIONS:  Natural atomic orbital occupancies 
                                                          
   NAO  Atom  No  lang   Type(AO)    Occupancy
 --------------------------------------------
     1    O    1  S      Cor( 1S)     1.99972
     2    O    1  S      Val( 2S)     1.80360
     3    O    1  S      Ryd( 3S)     0.00777
     4    O    1  S      Ryd( 4S)     0.00033
     5    O    1  S      Ryd( 5S)     0.00019
     6    O    1  px     Val( 2p)     1.51531
     7    O    1  px     Ryd( 3p)     0.01356
     8    O    1  px     Ryd( 4p)     0.00059
     9    O    1  px     Ryd( 5p)     0.00016
    10    O    1  py     Val( 2p)     1.70482
    11    O    1  py     Ryd( 3p)     0.01535
    12    O    1  py     Ryd( 4p)     0.00057
    13    O    1  py     Ryd( 5p)     0.00005
    14    O    1  pz     Val( 2p)     1.95028
    15    O    1  pz     Ryd( 3p)     0.02541
    16    O    1  pz     Ryd( 4p)     0.00058
    17    O    1  pz     Ryd( 5p)     0.00000
    18    O    1  dxy    Ryd( 3d)     0.00819
    19    O    1  dxy    Ryd( 4d)     0.00049
    20    O    1  dxy    Ryd( 5d)     0.00008
    21    O    1  dxz    Ryd( 3d)     0.00879
    22    O    1  dxz    Ryd( 4d)     0.00052
    23    O    1  dxz    Ryd( 5d)     0.00008
    24    O    1  dyz    Ryd( 3d)     0.00674
    25    O    1  dyz    Ryd( 4d)     0.00057
    26    O    1  dyz    Ryd( 5d)     0.00008
    27    O    1  dx2y2  Ryd( 3d)     0.01114
    28    O    1  dx2y2  Ryd( 4d)     0.00049
    29    O    1  dx2y2  Ryd( 5d)     0.00010
    30    O    1  dz2    Ryd( 3d)     0.00772
    31    O    1  dz2    Ryd( 4d)     0.00059
    32    O    1  dz2    Ryd( 5d)     0.00011
    33    O    1  f(0)   Ryd( 4f)     0.00060
    34    O    1  f(0)   Ryd( 5f)     0.00011
    35    O    1  f(C1)  Ryd( 4f)     0.00056
    36    O    1  f(C1)  Ryd( 5f)     0.00009
    37    O    1  f(S1)  Ryd( 4f)     0.00060
    38    O    1  f(S1)  Ryd( 5f)     0.00012
    39    O    1  f(C2)  Ryd( 4f)     0.00049
    40    O    1  f(C2)  Ryd( 5f)     0.00010
    41    O    1  f(S2)  Ryd( 4f)     0.00048
    42    O    1  f(S2)  Ryd( 5f)     0.00008
    43    O    1  f(C3)  Ryd( 4f)     0.00047
    44    O    1  f(C3)  Ryd( 5f)     0.00013
    45    O    1  f(S3)  Ryd( 4f)     0.00047
    46    O    1  f(S3)  Ryd( 5f)     0.00011

    47    H    2  S      Val( 1S)     0.56514
    48    H    2  S      Ryd( 2S)     0.00249
    49    H    2  S      Ryd( 3S)     0.00016
    50    H    2  S      Ryd( 4S)     0.00009
    51    H    2  px     Ryd( 2p)     0.00242
    52    H    2  px     Ryd( 3p)     0.00079
    53    H    2  px     Ryd( 4p)     0.00013
    54    H    2  py     Ryd( 2p)     0.00288
    55    H    2  py     Ryd( 3p)     0.00024
    56    H    2  py     Ryd( 4p)     0.00012
    57    H    2  pz     Ryd( 2p)     0.00542
    58    H    2  pz     Ryd( 3p)     0.00020
    59    H    2  pz     Ryd( 4p)     0.00006
    60    H    2  dxy    Ryd( 3d)     0.00007
    61    H    2  dxy    Ryd( 4d)     0.00005
    62    H    2  dxz    Ryd( 3d)     0.00008
    63    H    2  dxz    Ryd( 4d)     0.00007
    64    H    2  dyz    Ryd( 3d)     0.00013
    65    H    2  dyz    Ryd( 4d)     0.00005
    66    H    2  dx2y2  Ryd( 3d)     0.00011
    67    H    2  dx2y2  Ryd( 4d)     0.00006
    68    H    2  dz2    Ryd( 3d)     0.00013
    69    H    2  dz2    Ryd( 4d)     0.00007

    70   Br    3  S      Cor( 1S)     2.00000
    71   Br    3  S      Cor( 2S)     2.00000
    72   Br    3  S      Cor( 3S)     1.99955
    73   Br    3  S      Val( 4S)     1.94374
    74   Br    3  S      Ryd( 5S)     0.00152
    75   Br    3  S      Ryd( 6S)     0.00038
    76   Br    3  S      Ryd( 7S)     0.00011
    77   Br    3  px     Cor( 2p)     2.00000
    78   Br    3  px     Cor( 3p)     1.99997
    79   Br    3  px     Val( 4p)     1.94430
    80   Br    3  px     Ryd( 5p)     0.01046
    81   Br    3  px     Ryd( 6p)     0.00080
    82   Br    3  px     Ryd( 7p)     0.00005
    83   Br    3  py     Cor( 2p)     2.00000
    84   Br    3  py     Cor( 3p)     1.99984
    85   Br    3  py     Val( 4p)     1.72486
    86   Br    3  py     Ryd( 5p)     0.00866
    87   Br    3  py     Ryd( 6p)     0.00076
    88   Br    3  py     Ryd( 7p)     0.00019
    89   Br    3  pz     Cor( 2p)     2.00000
    90   Br    3  pz     Cor( 3p)     1.99997
    91   Br    3  pz     Val( 4p)     1.95456
    92   Br    3  pz     Ryd( 5p)     0.01052
    93   Br    3  pz     Ryd( 6p)     0.00079
    94   Br    3  pz     Ryd( 7p)     0.00002
    95   Br    3  dxy    Cor( 3d)     1.99764
    96   Br    3  dxy    Ryd( 4d)     0.01837
    97   Br    3  dxy    Ryd( 5d)     0.00131
    98   Br    3  dxy    Ryd( 6d)     0.00023
    99   Br    3  dxz    Cor( 3d)     1.99769
   100   Br    3  dxz    Ryd( 4d)     0.01825
   101   Br    3  dxz    Ryd( 5d)     0.00167
   102   Br    3  dxz    Ryd( 6d)     0.00020
   103   Br    3  dyz    Cor( 3d)     1.99766
   104   Br    3  dyz    Ryd( 4d)     0.01823
   105   Br    3  dyz    Ryd( 5d)     0.00132
   106   Br    3  dyz    Ryd( 6d)     0.00023
   107   Br    3  dx2y2  Cor( 3d)     1.99759
   108   Br    3  dx2y2  Ryd( 4d)     0.01900
   109   Br    3  dx2y2  Ryd( 5d)     0.00147
   110   Br    3  dx2y2  Ryd( 6d)     0.00022
   111   Br    3  dz2    Cor( 3d)     1.99766
   112   Br    3  dz2    Ryd( 4d)     0.01859
   113   Br    3  dz2    Ryd( 5d)     0.00162
   114   Br    3  dz2    Ryd( 6d)     0.00020
   115   Br    3  f(0)   Ryd( 4f)     0.00171
   116   Br    3  f(0)   Ryd( 5f)     0.00024
   117   Br    3  f(C1)  Ryd( 4f)     0.00173
   118   Br    3  f(C1)  Ryd( 5f)     0.00023
   119   Br    3  f(S1)  Ryd( 4f)     0.00177
   120   Br    3  f(S1)  Ryd( 5f)     0.00026
   121   Br    3  f(C2)  Ryd( 4f)     0.00169
   122   Br    3  f(C2)  Ryd( 5f)     0.00024
   123   Br    3  f(S2)  Ryd( 4f)     0.00172
   124   Br    3  f(S2)  Ryd( 5f)     0.00023
   125   Br    3  f(C3)  Ryd( 4f)     0.00170
   126   Br    3  f(C3)  Ryd( 5f)     0.00025
   127   Br    3  f(S3)  Ryd( 4f)     0.00176
   128   Br    3  f(S3)  Ryd( 5f)     0.00026

   129    H    4  S      Val( 1S)     0.60490
   130    H    4  S      Ryd( 2S)     0.00532
   131    H    4  S      Ryd( 3S)     0.00042
   132    H    4  S      Ryd( 4S)     0.00016
   133    H    4  px     Ryd( 2p)     0.00413
   134    H    4  px     Ryd( 3p)     0.00039
   135    H    4  px     Ryd( 4p)     0.00007
   136    H    4  py     Ryd( 2p)     0.00379
   137    H    4  py     Ryd( 3p)     0.00118
   138    H    4  py     Ryd( 4p)     0.00013
   139    H    4  pz     Ryd( 2p)     0.00433
   140    H    4  pz     Ryd( 3p)     0.00031
   141    H    4  pz     Ryd( 4p)     0.00006
   142    H    4  dxy    Ryd( 3d)     0.00029
   143    H    4  dxy    Ryd( 4d)     0.00007
   144    H    4  dxz    Ryd( 3d)     0.00021
   145    H    4  dxz    Ryd( 4d)     0.00005
   146    H    4  dyz    Ryd( 3d)     0.00030
   147    H    4  dyz    Ryd( 4d)     0.00007
   148    H    4  dx2y2  Ryd( 3d)     0.00020
   149    H    4  dx2y2  Ryd( 4d)     0.00012
   150    H    4  dz2    Ryd( 3d)     0.00020
   151    H    4  dz2    Ryd( 4d)     0.00008

 WARNING:  5 low occupancy (<1.9990e) core orbitals found on Br    3


 Summary of Natural Population Analysis:                  
                                                          
                                       Natural Population 
                Natural  -----------------------------------------------
    Atom  No    Charge         Core      Valence    Rydberg      Total
 -----------------------------------------------------------------------
      O    1   -1.08842      1.99972     6.97402    0.11469     9.08842
      H    2    0.41903      0.00000     0.56514    0.01583     0.58097
     Br    3   -0.70400     27.98758     7.56746    0.14897    35.70400
      H    4    0.37322      0.00000     0.60490    0.02188     0.62678
 =======================================================================
   * Total *   -1.00017     29.98729    15.71151    0.30137    46.00017

                                 Natural Population      
 --------------------------------------------------------
   Core                      29.98729 ( 99.9576% of  30)
   Valence                   15.71151 ( 98.1969% of  16)
   Natural Minimal Basis     45.69880 ( 99.3452% of  46)
   Natural Rydberg Basis      0.30137 (  0.6551% of  46)
 --------------------------------------------------------

    Atom  No          Natural Electron Configuration
 ----------------------------------------------------------------------------
      O    1      [core]2S( 1.80)2p( 5.17)3S( 0.01)3p( 0.05)3d( 0.04)
      H    2            1S( 0.57)2p( 0.01)
     Br    3      [core]4S( 1.94)4p( 5.62)4d( 0.09)5p( 0.03)4f( 0.01)5d( 0.01)
      H    4            1S( 0.60)2S( 0.01)2p( 0.01)


 NATURAL BOND ORBITAL ANALYSIS:
 Warning:  a bond orbital has occupanc of -0.00003
 Warning:  a bond orbital has occupanc of -0.00031

                       Occupancies       Lewis Structure    Low   High
           Occ.    -------------------  -----------------   occ   occ
  Cycle   Thresh.   Lewis   Non-Lewis     CR  BD  3C  LP    (L)   (NL)   Dev
 =============================================================================
   1(1)    1.90    45.39315   0.60685     15   2   0   6     1      1    0.37
 Warning:  a bond orbital has occupanc of -0.00003
 Warning:  a bond orbital has occupanc of -0.00031
   2(2)    1.90    45.36454   0.63546     15   2   0   6     1      1    0.41
 Warning:  a bond orbital has occupanc of -0.00003
 Warning:  a bond orbital has occupanc of -0.00031
   3(3)    1.90    45.39315   0.60685     15   2   0   6     1      1    0.37
 Warning:  a bond orbital has occupanc of -0.00003
 Warning:  a bond orbital has occupanc of -0.00031
   4(1)    1.80    45.39315   0.60685     15   2   0   6     1      1    0.37
 Warning:  a bond orbital has occupanc of -0.00003
 Warning:  a bond orbital has occupanc of -0.00031
   5(2)    1.80    45.36454   0.63546     15   2   0   6     1      1    0.41
 Warning:  a bond orbital has occupanc of -0.00003
 Warning:  a bond orbital has occupanc of -0.00031
   6(3)    1.80    45.39315   0.60685     15   2   0   6     1      1    0.37
 Warning:  a bond orbital has occupanc of -0.00003
 Warning:  a bond orbital has occupanc of -0.00031
   7(1)    1.70    45.39315   0.60685     15   2   0   6     1      1    0.37
 Warning:  a bond orbital has occupanc of -0.00003
 Warning:  a bond orbital has occupanc of -0.00031
   8(2)    1.70    45.36454   0.63546     15   2   0   6     1      1    0.41
 Warning:  a bond orbital has occupanc of -0.00003
 Warning:  a bond orbital has occupanc of -0.00031
   9(3)    1.70    45.39315   0.60685     15   2   0   6     1      1    0.37
 Warning:  a bond orbital has occupanc of -0.00003
 Warning:  a bond orbital has occupanc of -0.00031
  10(1)    1.60    45.09508   0.90492     15   1   0   7     0      1    0.41
 Warning:  a bond orbital has occupanc of -0.00003
 Warning:  a bond orbital has occupanc of -0.00031
  11(2)    1.60    45.09508   0.90492     15   1   0   7     0      1    0.41
 Warning:  a bond orbital has occupanc of -0.00003
 Warning:  a bond orbital has occupanc of -0.00031
  12(1)    1.50    45.09508   0.90492     15   1   0   7     0      1    0.41
 Warning:  a bond orbital has occupanc of -0.00003
 Warning:  a bond orbital has occupanc of -0.00031
  13(2)    1.50    45.09508   0.90492     15   1   0   7     0      1    0.41
 Warning:  a bond orbital has occupanc of -0.00003
 Warning:  a bond orbital has occupanc of -0.00031
  14(1)    1.90    45.39315   0.60685     15   2   0   6     1      1    0.37
 -----------------------------------------------------------------------------

 Structure accepted: RESONANCE keyword permits strongly delocalized structure

 WARNING:  5 low occupancy (<1.9990e) core orbitals found on Br    3

 --------------------------------------------------------
   Core                     29.98729 ( 99.958% of  30)
   Valence Lewis            15.40586 ( 96.287% of  16)
  ==================       ============================
   Total Lewis              45.39315 ( 98.681% of  46)
  -----------------------------------------------------
   Valence non-Lewis         0.32961 (  0.717% of  46)
   Rydberg non-Lewis         0.27724 (  0.603% of  46)
  ==================       ============================
   Total non-Lewis           0.60685 (  1.319% of  46)
 --------------------------------------------------------


       (Occupancy)   Bond orbital/ Coefficients/ Hybrids
 ---------------------------------------------------------------------------------
     1. (1.96216) BD ( 1) O   1 - H   2  
                ( 72.00%)   0.8485* O   1 s( 21.74%)p 3.58( 77.78%)d 0.02(  0.47%)
                                                  f 0.00(  0.01%)
                                            0.0003  0.4661 -0.0106 -0.0031 -0.0017
                                            0.8806 -0.0441 -0.0099 -0.0078  0.0145
                                           -0.0048  0.0019 -0.0023  0.0000  0.0000
                                            0.0000  0.0000 -0.0121  0.0039 -0.0022
                                            0.0000  0.0000  0.0000  0.0000  0.0000
                                            0.0000  0.0580 -0.0059  0.0038 -0.0334
                                            0.0008  0.0003  0.0000  0.0000 -0.0094
                                            0.0003 -0.0006  0.0002  0.0000  0.0000
                                            0.0000  0.0000  0.0060  0.0032  0.0003
                                           -0.0002
                ( 28.00%)   0.5291* H   2 s( 99.82%)p 0.00(  0.18%)d 0.00(  0.00%)
                                            0.9991  0.0054  0.0001 -0.0003  0.0246
                                           -0.0339 -0.0037 -0.0074  0.0003  0.0004
                                            0.0000  0.0000  0.0000  0.0002  0.0024
                                            0.0000  0.0000  0.0000  0.0000  0.0023
                                            0.0027 -0.0024 -0.0010
     2. (1.95012) BD ( 1) O   1 - H   4  
                ( 81.87%)   0.9048* O   1 s( 14.82%)p 5.73( 84.98%)d 0.01(  0.20%)
                                                  f 0.00(  0.01%)
                                           -0.0002 -0.3848 -0.0085 -0.0012 -0.0014
                                            0.1869 -0.0118 -0.0012 -0.0024  0.9026
                                            0.0086 -0.0011 -0.0027  0.0000  0.0000
                                            0.0000  0.0000  0.0199 -0.0027  0.0008
                                            0.0000  0.0000  0.0000  0.0000  0.0000
                                            0.0000  0.0340 -0.0054  0.0004  0.0201
                                           -0.0035 -0.0008  0.0000  0.0000 -0.0011
                                           -0.0002 -0.0075  0.0024  0.0000  0.0000
                                            0.0000  0.0000 -0.0022  0.0004 -0.0001
                                            0.0011
                ( 18.13%)   0.4258* H   4 s( 99.83%)p 0.00(  0.15%)d 0.00(  0.01%)
                                           -0.9989 -0.0184  0.0127  0.0046 -0.0241
                                           -0.0043 -0.0016 -0.0001 -0.0289 -0.0105
                                            0.0000  0.0000  0.0000  0.0003 -0.0033
                                            0.0000  0.0000  0.0000  0.0000  0.0051
                                            0.0076  0.0039  0.0052
     3. (1.99972) CR ( 1) O   1           s(100.00%)
                                            1.0000 -0.0004  0.0000  0.0000  0.0000
                                           -0.0001  0.0000  0.0000  0.0000  0.0001
                                            0.0000 -0.0000 -0.0000  0.0000  0.0000
                                            0.0000  0.0000  0.0000 -0.0000  0.0000
                                            0.0000  0.0000  0.0000  0.0000  0.0000
                                            0.0000 -0.0000  0.0000 -0.0000  0.0000
                                           -0.0000 -0.0000  0.0000  0.0000  0.0000
                                            0.0000 -0.0000  0.0000  0.0000  0.0000
                                            0.0000  0.0000 -0.0000 -0.0000 -0.0000
                                            0.0000
     4. (2.00000) CR ( 1)Br   3           s(100.00%)
                                            1.0000  0.0000  0.0000  0.0000  0.0000
                                            0.0000 -0.0000  0.0000 -0.0000 -0.0000
                                            0.0000  0.0000 -0.0000  0.0000 -0.0000
                                           -0.0000  0.0000 -0.0000 -0.0000  0.0000
                                            0.0000  0.0000  0.0000  0.0000  0.0000
                                           -0.0000 -0.0000 -0.0000 -0.0000  0.0000
                                            0.0000  0.0000  0.0000  0.0000  0.0000
                                            0.0000  0.0000  0.0000  0.0000 -0.0000
                                            0.0000  0.0000  0.0000 -0.0000  0.0000
                                            0.0000  0.0000  0.0000  0.0000  0.0000
                                            0.0000  0.0000  0.0000  0.0000  0.0000
                                            0.0000  0.0000  0.0000  0.0000
     5. (2.00000) CR ( 2)Br   3           s(100.00%)
                                            0.0000  1.0000 -0.0000 -0.0000 -0.0000
                                           -0.0000  0.0000 -0.0000  0.0000  0.0000
                                           -0.0000 -0.0000  0.0000 -0.0000  0.0000
                                            0.0000 -0.0000  0.0000  0.0000  0.0000
                                            0.0000  0.0000  0.0000  0.0000  0.0000
                                            0.0000  0.0000  0.0000  0.0000  0.0000
                                            0.0000  0.0000  0.0000  0.0000  0.0000
                                            0.0000  0.0000 -0.0000 -0.0000  0.0000
                                           -0.0000 -0.0000 -0.0000 -0.0000 -0.0000
                                            0.0000  0.0000  0.0000 -0.0000 -0.0000
                                           -0.0000  0.0000  0.0000  0.0000  0.0000
                                           -0.0000 -0.0000 -0.0000 -0.0000
     6. (1.99955) CR ( 3)Br   3           s(100.00%)p 0.00(  0.00%)
                                            0.0000 -0.0000  1.0000 -0.0004 -0.0000
                                           -0.0000  0.0000 -0.0000  0.0000  0.0000
                                           -0.0000 -0.0000  0.0000 -0.0000  0.0000
                                            0.0001 -0.0000  0.0000  0.0000  0.0000
                                            0.0000  0.0000  0.0000  0.0000  0.0000
                                            0.0000  0.0000  0.0000  0.0000  0.0000
                                            0.0000  0.0000  0.0000  0.0000  0.0000
                                            0.0000  0.0000 -0.0000 -0.0000  0.0000
                                           -0.0000 -0.0000 -0.0000  0.0000 -0.0000
                                            0.0000  0.0000 -0.0000 -0.0000 -0.0000
                                           -0.0000  0.0000  0.0000  0.0000  0.0000
                                           -0.0000 -0.0000 -0.0000 -0.0000
     7. (2.00000) CR ( 4)Br   3           s(  0.00%)p 1.00(100.00%)
                                            0.0000 -0.0000 -0.0000 -0.0000  0.0000
                                            0.0000 -0.0000  1.0000  0.0000  0.0000
                                            0.0000  0.0000 -0.0000  0.0000 -0.0000
                                           -0.0000 -0.0000 -0.0000 -0.0000  0.0000
                                            0.0000  0.0000  0.0000  0.0000  0.0000
                                           -0.0000  0.0000 -0.0000 -0.0000  0.0000
                                            0.0000  0.0000  0.0000  0.0000  0.0000
                                            0.0000  0.0000 -0.0000  0.0000 -0.0000
                                           -0.0000 -0.0000 -0.0000  0.0000 -0.0000
                                            0.0000  0.0000 -0.0000  0.0000  0.0000
                                           -0.0000  0.0000  0.0000  0.0000  0.0000
                                           -0.0000  0.0000  0.0000 -0.0000
     8. (1.99996) CR ( 5)Br   3           s(  0.00%)p 1.00(100.00%)
                                           -0.0000  0.0000  0.0000  0.0000 -0.0000
                                           -0.0000  0.0000  0.0000  1.0000 -0.0004
                                           -0.0000 -0.0000  0.0000 -0.0000  0.0000
                                            0.0001  0.0000  0.0000  0.0000  0.0000
                                            0.0000  0.0000  0.0000  0.0000  0.0000
                                            0.0000 -0.0000  0.0000  0.0000  0.0000
                                            0.0000  0.0000  0.0000  0.0000  0.0000
                                            0.0000  0.0000  0.0000 -0.0000  0.0000
                                            0.0000  0.0000  0.0000 -0.0000  0.0000
                                            0.0000  0.0000  0.0000 -0.0000 -0.0000
                                            0.0000  0.0000  0.0000  0.0000  0.0000
                                            0.0000 -0.0000 -0.0000  0.0000
     9. (2.00000) CR ( 6)Br   3           s(  0.00%)p 1.00(100.00%)
                                            0.0000 -0.0000 -0.0000 -0.0000 -0.0000
                                           -0.0000  0.0000  0.0000 -0.0000 -0.0000
                                           -0.0000 -0.0000  0.0000  1.0000  0.0000
                                            0.0000 -0.0000  0.0000  0.0000  0.0000
                                            0.0000  0.0000  0.0000  0.0000  0.0000
                                            0.0000 -0.0000  0.0000  0.0000  0.0000
                                            0.0000  0.0000  0.0000  0.0000  0.0000
                                            0.0000  0.0000 -0.0000 -0.0000  0.0000
                                            0.0000 -0.0000 -0.0000 -0.0000  0.0000
                                            0.0000  0.0000  0.0000 -0.0000 -0.0000
                                           -0.0000  0.0000  0.0000  0.0000  0.0000
                                            0.0000 -0.0000 -0.0000  0.0000
    10. (1.99984) CR ( 7)Br   3           s(  0.00%)p 1.00(100.00%)
                                           -0.0000  0.0000  0.0000  0.0002  0.0000
                                            0.0000 -0.0000 -0.0000  0.0000  0.0001
                                            0.0000  0.0000 -0.0000  0.0000  1.0000
                                           -0.0001  0.0000 -0.0000 -0.0000  0.0000
                                            0.0000  0.0000  0.0000  0.0000  0.0000
                                           -0.0000  0.0000 -0.0000 -0.0000  0.0000
                                            0.0000  0.0000  0.0000  0.0000  0.0000
                                            0.0000  0.0000  0.0000  0.0000 -0.0000
                                            0.0000  0.0000  0.0000  0.0000  0.0000
                                            0.0000  0.0000 -0.0000  0.0000  0.0000
                                            0.0000  0.0000  0.0000  0.0000  0.0000
                                           -0.0000  0.0000  0.0000 -0.0000
    11. (2.00000) CR ( 8)Br   3           s(  0.00%)p 1.00(100.00%)
                                            0.0000  0.0000  0.0000  0.0000  0.0000
                                            0.0000  0.0000  0.0000  0.0000  0.0000
                                            0.0000  0.0000  0.0000  0.0000  0.0000
                                            0.0000  0.0000  0.0000  0.0000  1.0000
                                            0.0000  0.0000  0.0000  0.0000 -0.0000
                                            0.0000  0.0000  0.0000  0.0000 -0.0000
                                            0.0000 -0.0000  0.0000 -0.0000  0.0000
                                           -0.0000 -0.0000  0.0000  0.0000  0.0000
                                            0.0000  0.0000  0.0000  0.0000  0.0000
                                           -0.0000  0.0000  0.0000  0.0000  0.0000
                                            0.0000 -0.0000  0.0000  0.0000 -0.0000
                                            0.0000  0.0000  0.0000  0.0000
    12. (1.99997) CR ( 9)Br   3           s(  0.00%)p 1.00(100.00%)
                                            0.0000  0.0000  0.0000  0.0000  0.0000
                                            0.0000  0.0000  0.0000  0.0000  0.0000
                                            0.0000  0.0000  0.0000  0.0000  0.0000
                                            0.0000  0.0000  0.0000  0.0000  0.0000
                                            1.0000 -0.0004 -0.0000 -0.0000  0.0000
                                            0.0000  0.0000  0.0000  0.0000  0.0000
                                           -0.0000  0.0000 -0.0000  0.0000 -0.0000
                                            0.0000  0.0000  0.0000  0.0000  0.0000
                                            0.0000  0.0000  0.0000  0.0000  0.0000
                                            0.0000 -0.0000  0.0000  0.0000  0.0000
                                            0.0000  0.0000 -0.0000 -0.0000  0.0000
                                            0.0000  0.0000  0.0000  0.0000
    13. (1.99764) CR (10)Br   3           s(  0.00%)p 0.00(  0.00%)d 1.00(100.00%)
                                           -0.0000  0.0000  0.0000  0.0000  0.0000
                                            0.0000 -0.0000 -0.0000  0.0000  0.0000
                                            0.0000  0.0000 -0.0000  0.0000 -0.0000
                                           -0.0000  0.0000 -0.0000 -0.0000  0.0000
                                            0.0000  0.0000  0.0000  0.0000  0.0000
                                            1.0000  0.0000 -0.0000 -0.0000  0.0000
                                            0.0000  0.0000  0.0000  0.0000  0.0000
                                            0.0000  0.0000  0.0000  0.0000 -0.0000
                                           -0.0000  0.0000  0.0000  0.0000 -0.0000
                                            0.0000  0.0000 -0.0000  0.0000  0.0000
                                            0.0000  0.0000  0.0000  0.0000  0.0000
                                           -0.0000  0.0000  0.0000 -0.0000
    14. (1.99769) CR (11)Br   3           s(  0.00%)p 0.00(  0.00%)d 1.00(100.00%)
                                            0.0000  0.0000  0.0000  0.0000  0.0000
                                            0.0000  0.0000  0.0000  0.0000  0.0000
                                            0.0000  0.0000  0.0000  0.0000  0.0000
                                            0.0000  0.0000  0.0000  0.0000 -0.0000
                                            0.0000  0.0000  0.0000  0.0000 -0.0000
                                            0.0000  0.0000  0.0000  0.0000  1.0000
                                            0.0000 -0.0000  0.0000 -0.0000  0.0000
                                           -0.0000 -0.0000  0.0000  0.0000  0.0000
                                            0.0000  0.0000  0.0000  0.0000  0.0000
                                           -0.0000  0.0000  0.0000  0.0000  0.0000
                                            0.0000 -0.0000  0.0000  0.0000 -0.0000
                                            0.0000  0.0000  0.0000  0.0000
    15. (1.99766) CR (12)Br   3           s(  0.00%)p 0.00(  0.00%)d 1.00(100.00%)
                                            0.0000  0.0000  0.0000  0.0000  0.0000
                                            0.0000  0.0000  0.0000  0.0000  0.0000
                                            0.0000  0.0000  0.0000  0.0000  0.0000
                                            0.0000  0.0000  0.0000  0.0000 -0.0000
                                            0.0000  0.0000  0.0000  0.0000 -0.0000
                                            0.0000  0.0000  0.0000  0.0000 -0.0000
                                            0.0000 -0.0000  0.0000  1.0000  0.0000
                                           -0.0000 -0.0000  0.0000  0.0000  0.0000
                                            0.0000  0.0000  0.0000  0.0000  0.0000
                                           -0.0000  0.0000  0.0000  0.0000  0.0000
                                            0.0000 -0.0000  0.0000  0.0000 -0.0000
                                            0.0000  0.0000  0.0000  0.0000
    16. (1.99759) CR (13)Br   3           s(  0.00%)p 0.00(  0.00%)d 1.00(100.00%)
                                            0.0000 -0.0000 -0.0000 -0.0001 -0.0000
                                           -0.0000  0.0000 -0.0000  0.0000  0.0000
                                           -0.0000  0.0000 -0.0000 -0.0000  0.0000
                                            0.0000 -0.0000  0.0000  0.0000  0.0000
                                            0.0000  0.0000  0.0000  0.0000  0.0000
                                            0.0000  0.0000  0.0000 -0.0000  0.0000
                                            0.0000  0.0000  0.0000  0.0000  0.0000
                                            0.0000  0.0000  1.0000 -0.0000 -0.0000
                                           -0.0000 -0.0000 -0.0000  0.0000 -0.0000
                                            0.0000  0.0000 -0.0000  0.0000 -0.0000
                                           -0.0000  0.0000  0.0000  0.0000  0.0000
                                           -0.0000  0.0000  0.0000 -0.0000
    17. (1.99766) CR (14)Br   3           s(  0.00%)p 0.00(  0.00%)d 1.00(100.00%)
                                            0.0000 -0.0000 -0.0000 -0.0000 -0.0000
                                           -0.0000  0.0000 -0.0000  0.0000  0.0000
                                           -0.0000 -0.0000  0.0000 -0.0000  0.0000
                                            0.0000 -0.0000  0.0000  0.0000  0.0000
                                            0.0000  0.0000  0.0000  0.0000  0.0000
                                            0.0000  0.0000  0.0000  0.0000  0.0000
                                            0.0000  0.0000  0.0000  0.0000  0.0000
                                            0.0000  0.0000 -0.0000 -0.0000  0.0000
                                           -0.0000  1.0000 -0.0000  0.0000 -0.0000
                                            0.0000  0.0000 -0.0000 -0.0000 -0.0000
                                           -0.0000  0.0000  0.0000  0.0000  0.0000
                                           -0.0000 -0.0000 -0.0000 -0.0000
    18. (1.96799) LP ( 1) O   1           s( 63.40%)p 0.58( 36.54%)d 0.00(  0.06%)
                                                  f 0.00(  0.00%)
                                            0.0003  0.7962 -0.0001  0.0007 -0.0002
                                           -0.4273  0.0010 -0.0022  0.0021  0.4274
                                            0.0051  0.0028  0.0021  0.0000  0.0000
                                            0.0000  0.0000  0.0224 -0.0033 -0.0006
                                            0.0000  0.0000  0.0000  0.0000  0.0000
                                            0.0000 -0.0054  0.0012 -0.0007  0.0095
                                           -0.0020  0.0016  0.0000  0.0000  0.0027
                                           -0.0009 -0.0013  0.0002  0.0000  0.0000
                                            0.0000  0.0000  0.0001 -0.0013  0.0020
                                           -0.0002
    19. (1.95473) LP ( 2) O   1           s(  0.00%)p 1.00( 99.83%)d 0.00(  0.16%)
                                                  f 0.00(  0.01%)
                                            0.0000  0.0000  0.0000  0.0000  0.0000
                                            0.0000  0.0000  0.0000  0.0000  0.0000
                                            0.0000  0.0000  0.0000  0.9989  0.0230
                                            0.0048  0.0068  0.0000  0.0000  0.0000
                                            0.0367 -0.0032 -0.0018 -0.0156  0.0021
                                            0.0015  0.0000  0.0000  0.0000  0.0000
                                            0.0000  0.0000 -0.0079  0.0026  0.0000
                                            0.0000  0.0000  0.0000  0.0020  0.0008
                                            0.0013 -0.0005  0.0000  0.0000  0.0000
                                            0.0000
    20. (1.97658) LP ( 1)Br   3           s( 88.79%)p 0.13( 11.21%)d 0.00(  0.00%)
                                                  f 0.00(  0.00%)
                                           -0.0000  0.0000  0.0004  0.9423  0.0007
                                            0.0006 -0.0008  0.0000 -0.0000 -0.0691
                                            0.0009  0.0001 -0.0001  0.0000 -0.0002
                                           -0.3275  0.0038 -0.0001 -0.0002 -0.0000
                                           -0.0000 -0.0000 -0.0000 -0.0000 -0.0000
                                           -0.0000 -0.0015 -0.0001 -0.0002 -0.0000
                                           -0.0000 -0.0000 -0.0000 -0.0000 -0.0000
                                           -0.0000 -0.0000  0.0001  0.0033 -0.0001
                                            0.0005  0.0000  0.0021 -0.0000  0.0004
                                           -0.0000 -0.0000  0.0000  0.0000  0.0002
                                            0.0002 -0.0000 -0.0000 -0.0000 -0.0000
                                            0.0002  0.0002  0.0002  0.0002
    21. (1.95481) LP ( 2)Br   3           s(  0.00%)p 1.00( 99.99%)d 0.00(  0.01%)
                                                  f 0.00(  0.00%)
                                            0.0000  0.0000  0.0000  0.0000  0.0000
                                            0.0000  0.0000  0.0000  0.0000  0.0000
                                            0.0000  0.0000  0.0000  0.0000  0.0000
                                            0.0000  0.0000  0.0000  0.0000 -0.0000
                                            0.0004  0.9999  0.0039  0.0021 -0.0003
                                            0.0000  0.0000  0.0000  0.0000 -0.0000
                                            0.0025 -0.0006  0.0001 -0.0000  0.0071
                                           -0.0001 -0.0043  0.0000  0.0000  0.0000
                                            0.0000  0.0000  0.0000  0.0000  0.0000
                                           -0.0033  0.0016  0.0000  0.0000  0.0000
                                            0.0000 -0.0036  0.0015  0.0017 -0.0009
                                            0.0000  0.0000  0.0000  0.0000
    22. (1.95457) LP ( 3)Br   3           s(  0.00%)p 1.00( 99.99%)d 0.00(  0.01%)
                                                  f 0.00(  0.00%)
                                            0.0000 -0.0000  0.0000 -0.0006 -0.0002
                                           -0.0008  0.0012  0.0000 -0.0004 -0.9788
                                           -0.0048 -0.0025  0.0010 -0.0000  0.0001
                                            0.2046  0.0006  0.0001  0.0004 -0.0000
                                           -0.0000 -0.0000 -0.0000 -0.0000 -0.0000
                                            0.0000 -0.0072  0.0001  0.0040 -0.0000
                                           -0.0000 -0.0000 -0.0000 -0.0000 -0.0000
                                           -0.0000 -0.0000  0.0000 -0.0047  0.0007
                                            0.0008 -0.0000  0.0004 -0.0004  0.0006
                                           -0.0000 -0.0000  0.0014 -0.0007 -0.0003
                                            0.0000 -0.0000 -0.0000 -0.0000 -0.0000
                                            0.0039 -0.0015 -0.0030  0.0013
    23. (1.68490) LP ( 4)Br   3           s( 11.20%)p 7.91( 88.65%)d 0.01(  0.14%)
                                                  f 0.00(  0.01%)
                                            0.0000  0.0000 -0.0000  0.3346 -0.0024
                                           -0.0020  0.0027  0.0000  0.0000  0.1925
                                           -0.0021 -0.0013  0.0008  0.0000 -0.0000
                                            0.9216 -0.0090 -0.0055  0.0012  0.0000
                                            0.0000  0.0000  0.0000  0.0000  0.0000
                                           -0.0000  0.0128 -0.0016 -0.0005  0.0000
                                            0.0000  0.0000  0.0000  0.0000  0.0000
                                            0.0000  0.0000  0.0000 -0.0290  0.0038
                                            0.0012 -0.0000 -0.0188  0.0026  0.0004
                                            0.0000  0.0000 -0.0015  0.0003 -0.0074
                                            0.0013  0.0000  0.0000  0.0000  0.0000
                                           -0.0053  0.0006 -0.0077  0.0009
    24. (0.02462) RY*( 1) O   1           s(  0.00%)p 1.00( 98.98%)d 0.01(  0.99%)
                                                  f 0.00(  0.02%)
                                            0.0000  0.0000  0.0000  0.0000  0.0000
                                            0.0000  0.0000  0.0000  0.0000  0.0000
                                            0.0000  0.0000  0.0000 -0.0265  0.9940
                                           -0.0246 -0.0240  0.0000  0.0000  0.0000
                                            0.0807 -0.0170  0.0065 -0.0519  0.0171
                                           -0.0096  0.0000  0.0000  0.0000  0.0000
                                            0.0000  0.0000 -0.0100  0.0110  0.0000
                                            0.0000  0.0000  0.0000 -0.0028  0.0015
                                            0.0001 -0.0016  0.0000  0.0000  0.0000
                                            0.0000
    25. (0.01870) RY*( 2) O   1           s( 15.73%)p 5.22( 82.15%)d 0.13(  2.07%)
                                                  f 0.00(  0.04%)
                                           -0.0000 -0.0053  0.3964  0.0041 -0.0139
                                           -0.0070 -0.4537  0.0055  0.0165 -0.0134
                                            0.7842 -0.0091 -0.0077  0.0000  0.0000
                                            0.0000  0.0000  0.1394 -0.0241  0.0090
                                            0.0000  0.0000  0.0000  0.0000  0.0000
                                            0.0000 -0.0148  0.0007  0.0023  0.0142
                                           -0.0127  0.0063  0.0000  0.0000  0.0017
                                           -0.0019  0.0001  0.0037  0.0000  0.0000
                                            0.0000  0.0000  0.0153 -0.0089  0.0090
                                           -0.0029
    26. (0.01025) RY*( 3) O   1           s( 11.57%)p 7.30( 84.39%)d 0.33(  3.80%)
                                                  f 0.02(  0.24%)
                                            0.0000 -0.0117  0.3383 -0.0169  0.0280
                                           -0.0383 -0.7202  0.0194  0.0312 -0.0004
                                           -0.5671 -0.0067 -0.0298 -0.0000 -0.0000
                                           -0.0000 -0.0000 -0.1135 -0.0139  0.0051
                                           -0.0000 -0.0000 -0.0000 -0.0000 -0.0000
                                           -0.0000  0.1411  0.0585 -0.0264  0.0169
                                            0.0214 -0.0109 -0.0000 -0.0000 -0.0072
                                            0.0035  0.0168 -0.0167 -0.0000 -0.0000
                                           -0.0000 -0.0000  0.0316 -0.0261  0.0042
                                           -0.0078
    27. (0.00661) RY*( 4) O   1           s( 22.76%)p 0.27(  6.18%)d 3.09( 70.33%)
                                                  f 0.03(  0.74%)
                                           -0.0000  0.0143  0.4768  0.0055 -0.0047
                                            0.0328  0.2421 -0.0055 -0.0076  0.0351
                                            0.0187 -0.0121 -0.0179 -0.0000 -0.0000
                                           -0.0000 -0.0000 -0.7159 -0.0172 -0.0011
                                           -0.0000 -0.0000 -0.0000 -0.0000 -0.0000
                                           -0.0000 -0.4114  0.0006 -0.0059  0.1418
                                            0.0290 -0.0137 -0.0000 -0.0000  0.0082
                                            0.0025  0.0379 -0.0263 -0.0000 -0.0000
                                           -0.0000 -0.0000 -0.0622  0.0288 -0.0209
                                           -0.0044
    28. (0.00638) RY*( 5) O   1           s(  0.00%)p 1.00(  0.02%)d99.99( 98.97%)
                                                  f56.07(  1.01%)
                                            0.0000  0.0000  0.0000  0.0000  0.0000
                                            0.0000  0.0000  0.0000  0.0000  0.0000
                                            0.0000  0.0000  0.0000 -0.0067 -0.0003
                                           -0.0113 -0.0026  0.0000  0.0000  0.0000
                                            0.5376  0.0341 -0.0101  0.8350  0.0477
                                           -0.0026  0.0000  0.0000  0.0000  0.0000
                                            0.0000  0.0000  0.0072 -0.0119  0.0000
                                            0.0000  0.0000  0.0000  0.0843 -0.0519
                                            0.0091  0.0017  0.0000  0.0000  0.0000
                                            0.0000
    29. (0.00606) RY*( 6) O   1           s(  0.00%)p 1.00(  1.05%)d93.06( 97.97%)
                                                  f 0.92(  0.97%)
                                            0.0000  0.0000  0.0000  0.0000  0.0000
                                            0.0000  0.0000  0.0000  0.0000  0.0000
                                            0.0000  0.0000  0.0000 -0.0371 -0.0943
                                            0.0147  0.0069  0.0000  0.0000  0.0000
                                            0.8267  0.0730 -0.0289 -0.5366 -0.0454
                                            0.0090  0.0000  0.0000  0.0000  0.0000
                                            0.0000  0.0000 -0.0699  0.0383  0.0000
                                            0.0000  0.0000  0.0000  0.0401 -0.0162
                                           -0.0354  0.0160  0.0000  0.0000  0.0000
                                            0.0000
    30. (0.00593) RY*( 7) O   1           s(  5.55%)p 0.72(  4.01%)d16.19( 89.83%)
                                                  f 0.11(  0.61%)
                                           -0.0000  0.0141  0.2347 -0.0139 -0.0016
                                            0.0317  0.1774 -0.0172 -0.0028 -0.0273
                                           -0.0804  0.0084 -0.0077  0.0000  0.0000
                                            0.0000  0.0000  0.2999  0.0176 -0.0024
                                            0.0000  0.0000  0.0000  0.0000  0.0000
                                            0.0000  0.1554  0.0155 -0.0027  0.8805
                                            0.0878 -0.0240  0.0000  0.0000  0.0520
                                           -0.0262 -0.0442  0.0260  0.0000  0.0000
                                            0.0000  0.0000  0.0056 -0.0018  0.0046
                                            0.0029
    31. (0.00551) RY*( 8) O   1           s( 13.13%)p 0.54(  7.06%)d 5.91( 77.60%)
                                                  f 0.17(  2.21%)
                                           -0.0000  0.0015  0.3623  0.0072 -0.0035
                                            0.0480  0.1298 -0.0204 -0.0007  0.0139
                                           -0.2209 -0.0065 -0.0447 -0.0000 -0.0000
                                           -0.0000 -0.0000  0.5873  0.0177  0.0042
                                           -0.0000 -0.0000 -0.0000 -0.0000 -0.0000
                                           -0.0000 -0.6118  0.0097 -0.0097 -0.2370
                                           -0.0018 -0.0031 -0.0000 -0.0000  0.0335
                                           -0.0223  0.0470 -0.0397 -0.0000 -0.0000
                                           -0.0000 -0.0000  0.0146 -0.0244  0.1086
                                           -0.0641
    32. (0.00249) RY*( 9) O   1           s( 29.54%)p 0.55( 16.39%)d 1.79( 53.00%)
                                                  f 0.04(  1.07%)
                                            0.0000 -0.0050  0.5412 -0.0459 -0.0201
                                           -0.0237  0.4004  0.0170 -0.0133 -0.0027
                                           -0.0379  0.0194 -0.0262  0.0000  0.0000
                                            0.0000  0.0000  0.0620  0.0129 -0.0132
                                            0.0000  0.0000  0.0000  0.0000  0.0000
                                            0.0000  0.6130  0.1326  0.0463 -0.3472
                                           -0.0979 -0.0173  0.0000  0.0000 -0.0350
                                            0.0477  0.0098 -0.0073  0.0000  0.0000
                                            0.0000  0.0000  0.0560 -0.0611 -0.0128
                                            0.0012
    33. (0.00061) RY*(10) O   1           s( 17.66%)p 4.16( 73.48%)d 0.45(  7.93%)
                                                  f 0.05(  0.93%)
                                            0.0000 -0.0043  0.0138  0.3864 -0.1645
                                           -0.0026 -0.0266 -0.1582 -0.0368  0.0004
                                           -0.0079  0.8411  0.0163  0.0000  0.0000
                                            0.0000  0.0000 -0.0135  0.2353 -0.0543
                                            0.0000  0.0000  0.0000  0.0000  0.0000
                                            0.0000  0.0011 -0.0473  0.0120  0.0129
                                           -0.1202  0.0617  0.0000  0.0000  0.0277
                                            0.0024  0.0894 -0.0058  0.0000  0.0000
                                            0.0000  0.0000 -0.0038  0.0060  0.0076
                                            0.0194
    34. (0.00057) RY*(11) O   1           s(  0.00%)p 1.00( 52.33%)d 0.85( 44.41%)
                                                  f 0.06(  3.26%)
                                            0.0000  0.0000  0.0000  0.0000  0.0000
                                            0.0000  0.0000  0.0000  0.0000  0.0000
                                            0.0000  0.0000  0.0000  0.0008  0.0369
                                            0.7133 -0.1150  0.0000  0.0000  0.0000
                                           -0.0365  0.3031 -0.0246  0.0395 -0.5898
                                            0.0299  0.0000  0.0000  0.0000  0.0000
                                            0.0000  0.0000  0.0711 -0.0156  0.0000
                                            0.0000  0.0000  0.0000  0.1208 -0.0029
                                            0.1126 -0.0008  0.0000  0.0000  0.0000
                                            0.0000
    35. (0.00057) RY*(12) O   1           s(  2.75%)p 1.57(  4.31%)d32.76( 89.99%)
                                                  f 1.08(  2.96%)
                                           -0.0000  0.0020  0.0264  0.1391 -0.0861
                                            0.0015 -0.0094  0.0480 -0.0144 -0.0066
                                           -0.0432 -0.1963  0.0042 -0.0000 -0.0000
                                           -0.0000 -0.0000 -0.0118 -0.0959 -0.0144
                                           -0.0000 -0.0000 -0.0000 -0.0000 -0.0000
                                           -0.0000 -0.0042 -0.4056  0.0096  0.0874
                                           -0.8425  0.0909 -0.0000 -0.0000  0.0717
                                            0.0032 -0.0509  0.0160 -0.0000 -0.0000
                                           -0.0000 -0.0000  0.1197  0.0009  0.0850
                                           -0.0003
    36. (0.00053) RY*(13) O   1           s(  0.00%)p 1.00( 43.12%)d 1.15( 49.50%)
                                                  f 0.17(  7.38%)
                                            0.0000  0.0000  0.0000  0.0000  0.0000
                                            0.0000  0.0000  0.0000  0.0000  0.0000
                                            0.0000  0.0000  0.0000 -0.0040 -0.0037
                                            0.6399 -0.1473  0.0000  0.0000  0.0000
                                            0.0109 -0.1179  0.0034 -0.0300  0.6928
                                            0.0081  0.0000  0.0000  0.0000  0.0000
                                            0.0000  0.0000  0.0433 -0.0010  0.0000
                                            0.0000  0.0000  0.0000 -0.0028  0.0117
                                           -0.2680 -0.0004  0.0000  0.0000  0.0000
                                            0.0000
    37. (0.00047) RY*(14) O   1           s(  0.00%)p 1.00(  1.72%)d 1.98(  3.41%)
                                                  f55.02( 94.87%)
                                            0.0000  0.0000  0.0000  0.0000  0.0000
                                            0.0000  0.0000  0.0000  0.0000  0.0000
                                            0.0000  0.0000  0.0000  0.0040  0.0036
                                           -0.1209  0.0509  0.0000  0.0000  0.0000
                                           -0.0139  0.1017 -0.0122 -0.0727  0.1201
                                           -0.0606  0.0000  0.0000  0.0000  0.0000
                                            0.0000  0.0000  0.7347  0.0352  0.0000
                                            0.0000  0.0000  0.0000  0.6343  0.0285
                                            0.0675  0.0034  0.0000  0.0000  0.0000
                                            0.0000
    38. (0.00046) RY*(15) O   1           s(  0.74%)p95.65( 70.43%)d 4.21(  3.10%)
                                                  f34.94( 25.73%)
                                            0.0000 -0.0046 -0.0010  0.0821  0.0244
                                           -0.0104 -0.0163 -0.8056  0.0280 -0.0028
                                            0.0051 -0.2256 -0.0567 -0.0000 -0.0000
[...]
                                            0.0015 -0.0006  0.0064
   129. (0.00439) RY*( 2) H   4           s(  0.00%)p 1.00( 98.99%)d 0.01(  1.01%)
                                            0.0000  0.0000  0.0000  0.0000  0.0000
                                            0.0000  0.0000  0.0000  0.0000  0.0000
                                            0.9923  0.0642 -0.0342  0.0000  0.0000
                                           -0.0105  0.0112 -0.0827  0.0546  0.0000
                                            0.0000  0.0000  0.0000
   130. (0.00385) RY*( 3) H   4           s(  3.38%)p28.35( 95.75%)d 0.26(  0.88%)
                                            0.0156  0.0840  0.1297 -0.0982 -0.5471
                                           -0.0166  0.0399  0.8038 -0.0951  0.0329
                                            0.0000  0.0000  0.0000  0.0723 -0.0157
                                            0.0000  0.0000  0.0000  0.0000  0.0430
                                           -0.0011  0.0365 -0.0097
   131. (0.00351) RY*( 4) H   4           s( 30.21%)p 2.28( 68.75%)d 0.03(  1.04%)
                                            0.0072  0.5421  0.0060  0.0902 -0.6571
                                           -0.0260  0.0043 -0.5025 -0.0236 -0.0446
                                           -0.0000 -0.0000 -0.0000  0.0904 -0.0027
                                           -0.0000 -0.0000 -0.0000 -0.0000 -0.0203
                                           -0.0268 -0.0163 -0.0281
   132. (0.00197) RY*( 5) H   4           s( 19.32%)p 4.08( 78.80%)d 0.10(  1.88%)
                                            0.0251  0.0787  0.4221  0.0907  0.1685
                                           -0.1716 -0.0284 -0.0435 -0.8460 -0.1082
                                           -0.0000 -0.0000 -0.0000  0.0079  0.0552
                                           -0.0000 -0.0000 -0.0000 -0.0000 -0.0581
                                           -0.0855 -0.0550 -0.0439
   133. (0.00039) RY*( 6) H   4           s(  2.01%)p46.38( 93.30%)d 2.33(  4.69%)
                                            0.0006 -0.0411  0.1259 -0.0507  0.0307
                                           -0.9069  0.2072 -0.0225  0.2343 -0.1060
                                            0.0000  0.0000  0.0000  0.1698 -0.0473
                                            0.0000  0.0000  0.0000  0.0000  0.0729
                                            0.0493  0.0899 -0.0036
   134. (0.00032) RY*( 7) H   4           s(  0.00%)p 1.00( 57.32%)d 0.74( 42.68%)
                                            0.0000  0.0000  0.0000  0.0000  0.0000
                                            0.0000  0.0000  0.0000  0.0000  0.0000
                                           -0.1058  0.7017 -0.2638  0.0000  0.0000
                                           -0.0332 -0.0500 -0.6488 -0.0468  0.0000
                                            0.0000  0.0000  0.0000
   135. (0.00027) RY*( 8) H   4           s(  0.00%)p 1.00( 48.52%)d 1.06( 51.48%)
                                            0.0000  0.0000  0.0000  0.0000  0.0000
                                            0.0000  0.0000  0.0000  0.0000  0.0000
                                            0.0119  0.6926  0.0730  0.0000  0.0000
                                            0.1108  0.0530  0.7014  0.0885  0.0000
                                            0.0000  0.0000  0.0000
   136. (0.00026) RY*( 9) H   4           s(  1.14%)p 5.19(  5.92%)d81.53( 92.94%)
                                           -0.0000  0.0108  0.0962 -0.0450 -0.0933
                                           -0.1597 -0.1387  0.0043  0.0623  0.0429
                                           -0.0000 -0.0000 -0.0000 -0.7721 -0.1092
                                           -0.0000 -0.0000 -0.0000 -0.0000 -0.4938
                                            0.0164  0.2636 -0.0884
   137. (0.00023) RY*(10) H   4           s(  0.00%)p 1.00(  0.35%)d99.99( 99.65%)
                                            0.0000  0.0000  0.0000  0.0000  0.0000
                                            0.0000  0.0000  0.0000  0.0000  0.0000
                                            0.0081 -0.0528 -0.0261  0.0000  0.0000
                                            0.9350 -0.3397 -0.0722  0.0395  0.0000
                                            0.0000  0.0000  0.0000
   138. (0.00022) RY*(11) H   4           s(  1.92%)p 1.93(  3.71%)d49.02( 94.36%)
                                            0.0018 -0.0015  0.1217 -0.0666 -0.0673
                                           -0.0966 -0.0730 -0.0002  0.0864 -0.1022
                                           -0.0000 -0.0000 -0.0000 -0.4534  0.0141
                                           -0.0000 -0.0000 -0.0000 -0.0000  0.3662
                                           -0.0940 -0.7076  0.3070
   139. (0.00018) RY*(12) H   4           s(  6.42%)p 4.72( 30.28%)d 9.86( 63.30%)
                                           -0.0145 -0.0351  0.2296  0.1002  0.0131
                                           -0.0260  0.1314  0.0105  0.1731  0.5045
                                           -0.0000 -0.0000 -0.0000  0.2059  0.1438
                                           -0.0000 -0.0000 -0.0000 -0.0000 -0.5075
                                           -0.2967 -0.4497 -0.1487
   140. (0.00010) RY*(13) H   4           s( 65.74%)p 0.35( 23.30%)d 0.17( 10.96%)
                                            0.0017  0.0115  0.7968 -0.1494  0.0535
                                            0.2561 -0.1363 -0.0772  0.3339 -0.1688
                                            0.0000  0.0000  0.0000  0.1434 -0.2405
                                            0.0000  0.0000  0.0000  0.0000  0.0289
                                            0.0878  0.1299  0.0760
   141. (0.00009) RY*(14) H   4           s( 81.78%)p 0.05(  3.75%)d 0.18( 14.47%)
   142. (0.00007) RY*(15) H   4           s(  0.00%)p 1.00( 11.76%)d 7.50( 88.24%)
   143. (0.00006) RY*(16) H   4           s(  2.64%)p25.51( 67.29%)d11.40( 30.07%)
   144. (0.00005) RY*(17) H   4           s(  4.59%)p 1.76(  8.11%)d19.00( 87.30%)
   145. (0.00003) RY*(18) H   4           s(  0.31%)p99.99( 87.74%)d38.36( 11.95%)
   146. (0.00002) RY*(19) H   4           s(  0.00%)p 1.00(  1.06%)d93.65( 98.94%)
   147. (0.00002) RY*(20) H   4           s(  8.70%)p 0.15(  1.34%)d10.34( 89.96%)
   148. (0.00003) RY*(21) H   4           s(  0.00%)p 1.00( 81.99%)d 0.22( 18.01%)
   149. (0.00002) RY*(22) H   4           s(  2.67%)p 0.53(  1.43%)d35.88( 95.90%)
   150. (0.02339) BD*( 1) O   1 - H   2  
                ( 28.00%)   0.5291* O   1 s( 21.74%)p 3.58( 77.78%)d 0.02(  0.47%)
                                                  f 0.00(  0.01%)
                                           -0.0003 -0.4661  0.0106  0.0031  0.0017
                                           -0.8806  0.0441  0.0099  0.0078 -0.0145
                                            0.0048 -0.0019  0.0023 -0.0000 -0.0000
                                           -0.0000 -0.0000  0.0121 -0.0039  0.0022
                                           -0.0000 -0.0000 -0.0000 -0.0000 -0.0000
                                           -0.0000 -0.0580  0.0059 -0.0038  0.0334
                                           -0.0008 -0.0003 -0.0000 -0.0000  0.0094
                                           -0.0003  0.0006 -0.0002 -0.0000 -0.0000
                                           -0.0000 -0.0000 -0.0060 -0.0032 -0.0003
                                            0.0002
                ( 72.00%)  -0.8485* H   2 s( 99.82%)p 0.00(  0.18%)d 0.00(  0.00%)
                                           -0.9991 -0.0054 -0.0001  0.0003 -0.0246
                                            0.0339  0.0037  0.0074 -0.0003 -0.0004
                                           -0.0000 -0.0000 -0.0000 -0.0002 -0.0024
                                           -0.0000 -0.0000 -0.0000 -0.0000 -0.0023
                                           -0.0027  0.0024  0.0010
   151. (0.30621) BD*( 1) O   1 - H   4  
                ( 18.13%)   0.4258* O   1 s( 14.82%)p 5.73( 84.98%)d 0.01(  0.20%)
                                                  f 0.00(  0.01%)
                                            0.0002  0.3848  0.0085  0.0012  0.0014
                                           -0.1869  0.0118  0.0012  0.0024 -0.9026
                                           -0.0086  0.0011  0.0027 -0.0000 -0.0000
                                           -0.0000 -0.0000 -0.0199  0.0027 -0.0008
                                           -0.0000 -0.0000 -0.0000 -0.0000 -0.0000
                                           -0.0000 -0.0340  0.0054 -0.0004 -0.0201
                                            0.0035  0.0008 -0.0000 -0.0000  0.0011
                                            0.0002  0.0075 -0.0024 -0.0000 -0.0000
                                           -0.0000 -0.0000  0.0022 -0.0004  0.0001
                                           -0.0011
                ( 81.87%)  -0.9048* H   4 s( 99.83%)p 0.00(  0.15%)d 0.00(  0.01%)
                                            0.9989  0.0184 -0.0127 -0.0046  0.0241
                                            0.0043  0.0016  0.0001  0.0289  0.0105
                                           -0.0000 -0.0000 -0.0000 -0.0003  0.0033
                                           -0.0000 -0.0000 -0.0000 -0.0000 -0.0051
                                           -0.0076 -0.0039 -0.0052


 NHO Directionality and "Bond Bending" (deviations from line of nuclear centers)

         [Thresholds for printing:  angular deviation  >  1.0 degree]
                                    hybrid p-character > 25.0%
                                    orbital occupancy  >  0.10e

                                Line of Centers        Hybrid 1              Hybrid 2
                                ---------------  -------------------   ------------------
                NBO               Theta   Phi    Theta   Phi    Dev    Theta   Phi    Dev
 ========================================================================================
     2. BD (   1) O   1 - H   4    90.0  258.3    90.0  259.3   1.0      --     --    --
    18. LP (   1) O   1             --     --     90.0  134.3   --       --     --    --
    19. LP (   2) O   1             --     --      0.0    0.0   --       --     --    --
    21. LP (   2)Br   3             --     --      0.0    0.0   --       --     --    --
    22. LP (   3)Br   3             --     --     90.0  168.2   --       --     --    --
    23. LP (   4)Br   3             --     --     90.0   78.2   --       --     --    --
   151. BD*(   1) O   1 - H   4    90.0  258.3    90.0  259.3   1.0      --     --    --


 Natural Bond Orbitals (Summary):

           NBO                  Occupancy  
 -----------------------------------------------
 Molecular unit  1  (H2O)
     1. BD (   1) O   1 - H   2          1.96216
     2. BD (   1) O   1 - H   4          1.95012
     3. CR (   1) O   1                  1.99972
    18. LP (   1) O   1                  1.96799
    19. LP (   2) O   1                  1.95473
    24. RY*(   1) O   1                  0.02462
    25. RY*(   2) O   1                  0.01870
    26. RY*(   3) O   1                  0.01025
    27. RY*(   4) O   1                  0.00661
    28. RY*(   5) O   1                  0.00638
    29. RY*(   6) O   1                  0.00606
    30. RY*(   7) O   1                  0.00593
    31. RY*(   8) O   1                  0.00551
    32. RY*(   9) O   1                  0.00249
    33. RY*(  10) O   1                  0.00061
    34. RY*(  11) O   1                  0.00057
    35. RY*(  12) O   1                  0.00057
    36. RY*(  13) O   1                  0.00053
    37. RY*(  14) O   1                  0.00047
    38. RY*(  15) O   1                  0.00046
    39. RY*(  16) O   1                  0.00046
    40. RY*(  17) O   1                  0.00047
    41. RY*(  18) O   1                  0.00045
    42. RY*(  19) O   1                  0.00046
    43. RY*(  20) O   1                  0.00041
    44. RY*(  21) O   1                  0.00042
    45. RY*(  22) O   1                  0.00041
    46. RY*(  23) O   1                  0.00035
    47. RY*(  24) O   1                  0.00031
    48. RY*(  25) O   1                  0.00023
    49. RY*(  26) O   1                  0.00015
    50. RY*(  27) O   1                  0.00008
    51. RY*(  28) O   1                  0.00008
    52. RY*(  29) O   1                  0.00008
    53. RY*(  30) O   1                  0.00009
    54. RY*(  31) O   1                  0.00008
    55. RY*(  32) O   1                  0.00008
    56. RY*(  33) O   1                  0.00007
    57. RY*(  34) O   1                  0.00007
    58. RY*(  35) O   1                  0.00007
    59. RY*(  36) O   1                  0.00005
    60. RY*(  37) O   1                  0.00005
    61. RY*(  38) O   1                  0.00002
    62. RY*(  39) O   1                  0.00002
    63. RY*(  40) O   1                 -0.00003
    64. RY*(  41) O   1                 -0.00031
    65. RY*(   1) H   2                  0.00549
    66. RY*(   2) H   2                  0.00316
    67. RY*(   3) H   2                  0.00279
    68. RY*(   4) H   2                  0.00167
    69. RY*(   5) H   2                  0.00027
    70. RY*(   6) H   2                  0.00020
    71. RY*(   7) H   2                  0.00018
    72. RY*(   8) H   2                  0.00015
    73. RY*(   9) H   2                  0.00013
    74. RY*(  10) H   2                  0.00012
    75. RY*(  11) H   2                  0.00011
    76. RY*(  12) H   2                  0.00010
    77. RY*(  13) H   2                  0.00008
    78. RY*(  14) H   2                  0.00006
    79. RY*(  15) H   2                  0.00005
    80. RY*(  16) H   2                  0.00004
    81. RY*(  17) H   2                  0.00005
    82. RY*(  18) H   2                  0.00004
    83. RY*(  19) H   2                  0.00002
    84. RY*(  20) H   2                  0.00001
    85. RY*(  21) H   2                  0.00002
    86. RY*(  22) H   2                  0.00002
   128. RY*(   1) H   4                  0.00646
   129. RY*(   2) H   4                  0.00439
   130. RY*(   3) H   4                  0.00385
   131. RY*(   4) H   4                  0.00351
   132. RY*(   5) H   4                  0.00197
   133. RY*(   6) H   4                  0.00039
   134. RY*(   7) H   4                  0.00032
   135. RY*(   8) H   4                  0.00027
   136. RY*(   9) H   4                  0.00026
   137. RY*(  10) H   4                  0.00023
   138. RY*(  11) H   4                  0.00022
   139. RY*(  12) H   4                  0.00018
   140. RY*(  13) H   4                  0.00010
   141. RY*(  14) H   4                  0.00009
   142. RY*(  15) H   4                  0.00007
   143. RY*(  16) H   4                  0.00006
   144. RY*(  17) H   4                  0.00005
   145. RY*(  18) H   4                  0.00003
   146. RY*(  19) H   4                  0.00002
   147. RY*(  20) H   4                  0.00002
   148. RY*(  21) H   4                  0.00003
   149. RY*(  22) H   4                  0.00002
   150. BD*(   1) O   1 - H   2          0.02339
   151. BD*(   1) O   1 - H   4          0.30621
       -------------------------------
              Total Lewis    9.83472  ( 95.5198%)
        Valence non-Lewis    0.32961  (  3.2013%)
        Rydberg non-Lewis    0.13168  (  1.2789%)
       -------------------------------
            Total unit  1   10.29600  (100.0000%)
           Charge unit  1   -0.29600

 Molecular unit  2  (Br)
     4. CR (   1)Br   3                  2.00000
     5. CR (   2)Br   3                  2.00000
     6. CR (   3)Br   3                  1.99955
     7. CR (   4)Br   3                  2.00000
     8. CR (   5)Br   3                  1.99996
     9. CR (   6)Br   3                  2.00000
    10. CR (   7)Br   3                  1.99984
    11. CR (   8)Br   3                  2.00000
    12. CR (   9)Br   3                  1.99997
    13. CR (  10)Br   3                  1.99764
    14. CR (  11)Br   3                  1.99769
    15. CR (  12)Br   3                  1.99766
    16. CR (  13)Br   3                  1.99759
    17. CR (  14)Br   3                  1.99766
    20. LP (   1)Br   3                  1.97658
    21. LP (   2)Br   3                  1.95481
    22. LP (   3)Br   3                  1.95457
    23. LP (   4)Br   3                  1.68490
    87. RY*(   1)Br   3                  0.01824
    88. RY*(   2)Br   3                  0.01824
    89. RY*(   3)Br   3                  0.01816
    90. RY*(   4)Br   3                  0.01811
    91. RY*(   5)Br   3                  0.01786
    92. RY*(   6)Br   3                  0.01052
    93. RY*(   7)Br   3                  0.01049
    94. RY*(   8)Br   3                  0.00796
    95. RY*(   9)Br   3                  0.00185
    96. RY*(  10)Br   3                  0.00174
    97. RY*(  11)Br   3                  0.00174
    98. RY*(  12)Br   3                  0.00172
    99. RY*(  13)Br   3                  0.00172
   100. RY*(  14)Br   3                  0.00169
   101. RY*(  15)Br   3                  0.00170
   102. RY*(  16)Br   3                  0.00169
   103. RY*(  17)Br   3                  0.00170
   104. RY*(  18)Br   3                  0.00166
   105. RY*(  19)Br   3                  0.00130
   106. RY*(  20)Br   3                  0.00127
   107. RY*(  21)Br   3                  0.00110
   108. RY*(  22)Br   3                  0.00076
   109. RY*(  23)Br   3                  0.00077
   110. RY*(  24)Br   3                  0.00068
   111. RY*(  25)Br   3                  0.00034
   112. RY*(  26)Br   3                  0.00028
   113. RY*(  27)Br   3                  0.00023
   114. RY*(  28)Br   3                  0.00023
   115. RY*(  29)Br   3                  0.00023
   116. RY*(  30)Br   3                  0.00023
   117. RY*(  31)Br   3                  0.00023
   118. RY*(  32)Br   3                  0.00023
   119. RY*(  33)Br   3                  0.00018
   120. RY*(  34)Br   3                  0.00018
   121. RY*(  35)Br   3                  0.00012
   122. RY*(  36)Br   3                  0.00011
   123. RY*(  37)Br   3                  0.00011
   124. RY*(  38)Br   3                  0.00009
   125. RY*(  39)Br   3                  0.00004
   126. RY*(  40)Br   3                  0.00004
   127. RY*(  41)Br   3                  0.00002
       -------------------------------
              Total Lewis   35.55844  ( 99.5923%)
        Valence non-Lewis    0.00000  (  0.0000%)
        Rydberg non-Lewis    0.14557  (  0.4077%)
       -------------------------------
            Total unit  2   35.70400  (100.0000%)
           Charge unit  2   -0.70400
 Leave Link  607 at Tue Oct 12 14:18:26 2021, MaxMem=  1048576000 cpu:         9.1
 (Enter /usr/local/gaussian/g09/l9999.exe)
 1\1\GINC-KRYPTON\SP\RMP2-FC\Aug-CC-pVTZ\Br1H2O1(1-)\CGAVINH\12-Oct-202
 1\0\\#p pop=NBO SP NoSymm mp2/aug-cc-pvtz density=current\\title\\-1,1
 \O\X,1,10.\H,1,0.96078759,2,90.\Br,1,3.25661955,2,90.,3,101.73887131,0
 \H,1,1.4,2,90.,3,101.73887131,0\\Version=ES64L-G09RevE.01\HF=-2648.541
 9898\MP2=-2649.0821215\RMSD=3.864e-09\Dipole=0.246089,-1.1634336,0.\Qu
 adrupole=8.4422552,-15.9193474,7.4770922,-4.656058,0.,0.\PG=CS [SG(Br1
 H2O1)]\\@


 TOM, TOM, THE BURGLAR'S SON
 STOLE A MACHINE AND AWAY HE RUN
 THE JOB WAS NEAT, BUT TOM GOT BEAT
 BY THE TIME HE GOT HOME IT WAS OBSOLETE.
 Job cpu time:       0 days  0 hours  1 minutes 53.7 seconds.
 File lengths (MBytes):  RWF=     10 Int=      0 D2E=      0 Chk=      3 Scr=      1
 Normal termination of Gaussian 09 at Tue Oct 12 14:18:26 2021.
