 Entering Gaussian System, Link 0=g09
 Input=brhod_rOH_085_sp.gjf
 Output=brhod_rOH_085_sp.log
 Initial command:
 /usr/local/gaussian/g09/l1.exe "/scratch/Gau-13825.inp" -scrdir="/scratch/"
 Entering Link 1 = /usr/local/gaussian/g09/l1.exe PID=     13826.
  
 Copyright (c) 1988,1990,1992,1993,1995,1998,2003,2009,2015,
            Gaussian, Inc.  All Rights Reserved.
  
 This is part of the Gaussian(R) 09 program.  It is based on
 the Gaussian(R) 03 system (copyright 2003, Gaussian, Inc.),
 the Gaussian(R) 98 system (copyright 1998, Gaussian, Inc.),
 the Gaussian(R) 94 system (copyright 1995, Gaussian, Inc.),
 the Gaussian 92(TM) system (copyright 1992, Gaussian, Inc.),
 the Gaussian 90(TM) system (copyright 1990, Gaussian, Inc.),
 the Gaussian 88(TM) system (copyright 1988, Gaussian, Inc.),
 the Gaussian 86(TM) system (copyright 1986, Carnegie Mellon
 University), and the Gaussian 82(TM) system (copyright 1983,
 Carnegie Mellon University). Gaussian is a federally registered
 trademark of Gaussian, Inc.
  
 This software contains proprietary and confidential information,
 including trade secrets, belonging to Gaussian, Inc.
  
 This software is provided under written license and may be
 used, copied, transmitted, or stored only in accord with that
 written license.
  
 The following legend is applicable only to US Government
 contracts under FAR:
  
                    RESTRICTED RIGHTS LEGEND
  
 Use, reproduction and disclosure by the US Government is
 subject to restrictions as set forth in subparagraphs (a)
 and (c) of the Commercial Computer Software - Restricted
 Rights clause in FAR 52.227-19.
  
 Gaussian, Inc.
 340 Quinnipiac St., Bldg. 40, Wallingford CT 06492
  
  
 ---------------------------------------------------------------
 Warning -- This program may not be used in any manner that
 competes with the business of Gaussian, Inc. or will provide
 assistance to any competitor of Gaussian, Inc.  The licensee
 of this program is prohibited from giving any competitor of
 Gaussian, Inc. access to this program.  By using this program,
 the user acknowledges that Gaussian, Inc. is engaged in the
 business of creating and licensing software in the field of
 computational chemistry and represents and warrants to the
 licensee that it is not a competitor of Gaussian, Inc. and that
 it will not use this program in any manner prohibited above.
 ---------------------------------------------------------------
  

 Cite this work as:
 Gaussian 09, Revision E.01,
 M. J. Frisch, G. W. Trucks, H. B. Schlegel, G. E. Scuseria, 
 M. A. Robb, J. R. Cheeseman, G. Scalmani, V. Barone, B. Mennucci, 
 G. A. Petersson, H. Nakatsuji, M. Caricato, X. Li, H. P. Hratchian, 
 A. F. Izmaylov, J. Bloino, G. Zheng, J. L. Sonnenberg, M. Hada, 
 M. Ehara, K. Toyota, R. Fukuda, J. Hasegawa, M. Ishida, T. Nakajima, 
 Y. Honda, O. Kitao, H. Nakai, T. Vreven, J. A. Montgomery, Jr., 
 J. E. Peralta, F. Ogliaro, M. Bearpark, J. J. Heyd, E. Brothers, 
 K. N. Kudin, V. N. Staroverov, T. Keith, R. Kobayashi, J. Normand, 
 K. Raghavachari, A. Rendell, J. C. Burant, S. S. Iyengar, J. Tomasi, 
 M. Cossi, N. Rega, J. M. Millam, M. Klene, J. E. Knox, J. B. Cross, 
 V. Bakken, C. Adamo, J. Jaramillo, R. Gomperts, R. E. Stratmann, 
 O. Yazyev, A. J. Austin, R. Cammi, C. Pomelli, J. W. Ochterski, 
 R. L. Martin, K. Morokuma, V. G. Zakrzewski, G. A. Voth, 
 P. Salvador, J. J. Dannenberg, S. Dapprich, A. D. Daniels, 
 O. Farkas, J. B. Foresman, J. V. Ortiz, J. Cioslowski, 
 and D. J. Fox, Gaussian, Inc., Wallingford CT, 2013.
 
 ******************************************
 Gaussian 09:  ES64L-G09RevE.01 30-Nov-2015
                12-Oct-2021 
 ******************************************
 %nproc=12
 Will use up to   12 processors via shared memory.
 %mem=8000MB
 %chk=/home/netid.washington.edu/cgavinh/mccoy_hocl/rOH_s_oop_0/brhod/brhod_rOH_0
 85_sp.chk
 ----------------------------------------------------
 #p pop=NBO SP NoSymm mp2/aug-cc-pvtz density=current
 ----------------------------------------------------
 1/30=1,38=1/1;
 2/12=2,15=1,17=6,18=5,40=1/2;
 3/5=16,6=1,7=10,11=9,16=1,25=1,30=1,71=1/1,2,3;
 4//1;
 5/5=2,38=5/2;
 8/6=4,10=1/1;
 9/15=1,16=-3/6;
 10/5=1,13=10,31=1/2;
 6/7=2,8=2,9=2,10=2,22=-1,40=1/1,7;
 99/5=1,9=1/99;
 Leave Link    1 at Tue Oct 12 14:16:11 2021, MaxMem=  1048576000 cpu:         0.2
 (Enter /usr/local/gaussian/g09/l101.exe)
 -----
 title
 -----
 Symbolic Z-matrix:
 Charge = -1 Multiplicity = 1
 O
 X                    1     10. 
 H(iso=2)             1    r1       2     90. 
 Br                   1    r2       2     90.      3    a1       0
 H                    1    r3       2    oop      3    a1       0
       Variables:
  r1                    0.96079                  
  r2                    3.25662                  
  r3                    0.85                     
  a1                  101.73887                  
  OOP                  90.                       
 
 NAtoms=      4 NQM=        4 NQMF=       0 NMMI=      0 NMMIF=      0
                NMic=       0 NMicF=      0.
                    Isotopes and Nuclear Properties:
 (Nuclear quadrupole moments (NQMom) in fm**2, nuclear magnetic moments (NMagM)
  in nuclear magnetons)

  Atom         1           2           3           4
 IAtWgt=          16           2          79           1
 AtmWgt=  15.9949146   2.0141018  78.9183361   1.0078250
 NucSpn=           0           2           3           1
 AtZEff=   0.0000000   0.0000000   0.0000000   0.0000000
 NQMom=    0.0000000   0.2860000  31.3000000   0.0000000
 NMagM=    0.0000000   0.8574380   2.1063990   2.7928460
 AtZNuc=   8.0000000   1.0000000  35.0000000   1.0000000
 Leave Link  101 at Tue Oct 12 14:16:11 2021, MaxMem=  1048576000 cpu:         0.4
 (Enter /usr/local/gaussian/g09/l202.exe)
                          Input orientation:                          
 ---------------------------------------------------------------------
 Center     Atomic      Atomic             Coordinates (Angstroms)
 Number     Number       Type             X           Y           Z
 ---------------------------------------------------------------------
      1          8           0        0.000000    0.000000    0.000000
      2          1           0        0.960788    0.000000    0.000000
      3         35           0       -0.662564   -3.188507    0.000000
      4          1           0       -0.172934   -0.832222    0.000000
 ---------------------------------------------------------------------
                    Distance matrix (angstroms):
                    1          2          3          4
     1  O    0.000000
     2  H    0.960788   0.000000
     3  Br   3.256620   3.577967   0.000000
     4  H    0.850000   1.406385   2.406620   0.000000
 Symmetry turned off by external request.
 Stoichiometry    BrH2O(1-)
 Framework group  CS[SG(BrH2O)]
 Deg. of freedom     5
 Full point group                 CS      NOp   2
 Rotational constants (GHZ):    322.7412773      3.1375446      3.1073365
 Leave Link  202 at Tue Oct 12 14:16:11 2021, MaxMem=  1048576000 cpu:         0.0
 (Enter /usr/local/gaussian/g09/l301.exe)
 Standard basis: Aug-CC-pVTZ (5D, 7F)
 Ernie: Thresh=  0.10000D-02 Tol=  0.10000D-05 Strict=F.
 Ernie:  35 primitive shells out of 175 were deleted.
   151 basis functions,   343 primitive gaussians,   174 cartesian basis functions
    23 alpha electrons       23 beta electrons
       nuclear repulsion energy        68.1333367777 Hartrees.
 IExCor=    0 DFT=F Ex=HF Corr=None ExCW=0 ScaHFX=  1.000000
 ScaDFX=  1.000000  1.000000  1.000000  1.000000 ScalE2=  1.000000  1.000000
 IRadAn=      0 IRanWt=     -1 IRanGd=            0 ICorTp=0 IEmpDi=  4
 NAtoms=    4 NActive=    4 NUniq=    4 SFac= 1.00D+00 NAtFMM=   60 NAOKFM=F Big=F
 Integral buffers will be    131072 words long.
 Raffenetti 1 integral format.
 Two-electron integral symmetry is turned off.
 Leave Link  301 at Tue Oct 12 14:16:11 2021, MaxMem=  1048576000 cpu:         0.3
 (Enter /usr/local/gaussian/g09/l302.exe)
 NPDir=0 NMtPBC=     1 NCelOv=     1 NCel=       1 NClECP=     1 NCelD=      1
         NCelK=      1 NCelE2=     1 NClLst=     1 CellRange=     0.0.
 One-electron integrals computed using PRISM.
 NBasis=   151 RedAO= T EigKep=  2.28D-04  NBF=   151
 NBsUse=   151 1.00D-06 EigRej= -1.00D+00 NBFU=   151
 Leave Link  302 at Tue Oct 12 14:16:11 2021, MaxMem=  1048576000 cpu:         1.6
 (Enter /usr/local/gaussian/g09/l303.exe)
 DipDrv:  MaxL=1.
 Leave Link  303 at Tue Oct 12 14:16:11 2021, MaxMem=  1048576000 cpu:         0.2
 (Enter /usr/local/gaussian/g09/l401.exe)
 ExpMin= 2.53D-02 ExpMax= 1.06D+07 ExpMxC= 1.21D+04 IAcc=3 IRadAn=         5 AccDes= 0.00D+00
 Harris functional with IExCor=  205 and IRadAn=       5 diagonalized for initial guess.
 HarFok:  IExCor=  205 AccDes= 0.00D+00 IRadAn=         5 IDoV= 1 UseB2=F ITyADJ=14
 ICtDFT=  3500011 ScaDFX=  1.000000  1.000000  1.000000  1.000000
 FoFCou: FMM=F IPFlag=           0 FMFlag=      100000 FMFlg1=           0
         NFxFlg=           0 DoJE=T BraDBF=F KetDBF=T FulRan=T
         wScrn=  0.000000 ICntrl=     500 IOpCl=  0 I1Cent=   200000004 NGrid=           0
         NMat0=    1 NMatS0=      1 NMatT0=    0 NMatD0=    1 NMtDS0=    0 NMtDT0=    0
 Symmetry not used in FoFCou.
 Harris En= -2648.00899965846    
 JPrj=0 DoOrth=F DoCkMO=F.
 Leave Link  401 at Tue Oct 12 14:16:11 2021, MaxMem=  1048576000 cpu:         2.7
 (Enter /usr/local/gaussian/g09/l502.exe)
 Closed shell SCF:
 Using DIIS extrapolation, IDIIS=  1040.
 Two-electron integral symmetry not used.
 Keep R1 ints in memory in canonical form, NReq=69268742.
 IVT=      112518 IEndB=      112518 NGot=  1048576000 MDV=   982608457
 LenX=   982608457 LenY=   982577740
 Requested convergence on RMS density matrix=1.00D-08 within 128 cycles.
 Requested convergence on MAX density matrix=1.00D-06.
 Requested convergence on             energy=1.00D-06.
 No special actions if energy rises.
 FoFCou: FMM=F IPFlag=           0 FMFlag=           0 FMFlg1=           0
         NFxFlg=           0 DoJE=F BraDBF=F KetDBF=F FulRan=T
         wScrn=  0.000000 ICntrl=     600 IOpCl=  0 I1Cent=           0 NGrid=           0
         NMat0=    1 NMatS0=  11476 NMatT0=    0 NMatD0=    1 NMtDS0=    0 NMtDT0=    0
 Symmetry not used in FoFCou.

 Cycle   1  Pass 1  IDiag  1:
 E= -2648.41198466567    
 DIIS: error= 7.29D-02 at cycle   1 NSaved=   1.
 NSaved= 1 IEnMin= 1 EnMin= -2648.41198466567     IErMin= 1 ErrMin= 7.29D-02
 ErrMax= 7.29D-02  0.00D+00 EMaxC= 1.00D-01 BMatC= 5.64D-01 BMatP= 5.64D-01
 IDIUse=3 WtCom= 2.71D-01 WtEn= 7.29D-01
 Coeff-Com:  0.100D+01
 Coeff-En:   0.100D+01
 Coeff:      0.100D+01
 Gap=     0.363 Goal=   None    Shift=    0.000
 GapD=    0.363 DampG=1.000 DampE=0.500 DampFc=0.5000 IDamp=-1.
 Damping current iteration by 5.00D-01
 RMSDP=3.21D-03 MaxDP=9.34D-02              OVMax= 1.33D-01

 Cycle   2  Pass 1  IDiag  1:
 E= -2648.50789978172     Delta-E=       -0.095915116055 Rises=F Damp=T
 DIIS: error= 3.42D-02 at cycle   2 NSaved=   2.
 NSaved= 2 IEnMin= 2 EnMin= -2648.50789978172     IErMin= 2 ErrMin= 3.42D-02
 ErrMax= 3.42D-02  0.00D+00 EMaxC= 1.00D-01 BMatC= 1.03D-01 BMatP= 5.64D-01
 IDIUse=3 WtCom= 6.58D-01 WtEn= 3.42D-01
 Coeff-Com: -0.587D+00 0.159D+01
 Coeff-En:   0.000D+00 0.100D+01
 Coeff:     -0.387D+00 0.139D+01
 Gap=     0.271 Goal=   None    Shift=    0.000
 RMSDP=1.27D-03 MaxDP=3.39D-02 DE=-9.59D-02 OVMax= 6.12D-02

 Cycle   3  Pass 1  IDiag  1:
 E= -2648.59287889865     Delta-E=       -0.084979116928 Rises=F Damp=F
 DIIS: error= 3.58D-03 at cycle   3 NSaved=   3.
 NSaved= 3 IEnMin= 3 EnMin= -2648.59287889865     IErMin= 3 ErrMin= 3.58D-03
 ErrMax= 3.58D-03  0.00D+00 EMaxC= 1.00D-01 BMatC= 1.54D-03 BMatP= 1.03D-01
 IDIUse=3 WtCom= 9.64D-01 WtEn= 3.58D-02
 Coeff-Com: -0.115D+00 0.252D+00 0.864D+00
 Coeff-En:   0.000D+00 0.000D+00 0.100D+01
 Coeff:     -0.111D+00 0.243D+00 0.869D+00
 Gap=     0.290 Goal=   None    Shift=    0.000
 RMSDP=2.46D-04 MaxDP=7.11D-03 DE=-8.50D-02 OVMax= 8.82D-03

 Cycle   4  Pass 1  IDiag  1:
 E= -2648.59386957509     Delta-E=       -0.000990676444 Rises=F Damp=F
 DIIS: error= 4.22D-04 at cycle   4 NSaved=   4.
 NSaved= 4 IEnMin= 4 EnMin= -2648.59386957509     IErMin= 4 ErrMin= 4.22D-04
 ErrMax= 4.22D-04  0.00D+00 EMaxC= 1.00D-01 BMatC= 2.73D-05 BMatP= 1.54D-03
 IDIUse=3 WtCom= 9.96D-01 WtEn= 4.22D-03
 Coeff-Com:  0.164D-01-0.390D-01-0.494D-02 0.103D+01
 Coeff-En:   0.000D+00 0.000D+00 0.000D+00 0.100D+01
 Coeff:      0.163D-01-0.388D-01-0.492D-02 0.103D+01
 Gap=     0.289 Goal=   None    Shift=    0.000
 RMSDP=4.34D-05 MaxDP=1.24D-03 DE=-9.91D-04 OVMax= 1.87D-03

 Cycle   5  Pass 1  IDiag  1:
 E= -2648.59390673773     Delta-E=       -0.000037162640 Rises=F Damp=F
 DIIS: error= 1.53D-04 at cycle   5 NSaved=   5.
 NSaved= 5 IEnMin= 5 EnMin= -2648.59390673773     IErMin= 5 ErrMin= 1.53D-04
 ErrMax= 1.53D-04  0.00D+00 EMaxC= 1.00D-01 BMatC= 1.60D-06 BMatP= 2.73D-05
 IDIUse=3 WtCom= 9.98D-01 WtEn= 1.53D-03
 Coeff-Com: -0.233D-02 0.661D-02-0.241D-01-0.383D+00 0.140D+01
 Coeff-En:   0.000D+00 0.000D+00 0.000D+00 0.000D+00 0.100D+01
 Coeff:     -0.232D-02 0.660D-02-0.240D-01-0.383D+00 0.140D+01
 Gap=     0.289 Goal=   None    Shift=    0.000
 RMSDP=1.91D-05 MaxDP=4.84D-04 DE=-3.72D-05 OVMax= 1.05D-03

 Cycle   6  Pass 1  IDiag  1:
 E= -2648.59391138209     Delta-E=       -0.000004644356 Rises=F Damp=F
 DIIS: error= 3.15D-05 at cycle   6 NSaved=   6.
 NSaved= 6 IEnMin= 6 EnMin= -2648.59391138209     IErMin= 6 ErrMin= 3.15D-05
 ErrMax= 3.15D-05  0.00D+00 EMaxC= 1.00D-01 BMatC= 5.72D-08 BMatP= 1.60D-06
 IDIUse=1 WtCom= 1.00D+00 WtEn= 0.00D+00
 Coeff-Com: -0.285D-03 0.548D-03 0.284D-02 0.138D-01-0.185D+00 0.117D+01
 Coeff:     -0.285D-03 0.548D-03 0.284D-02 0.138D-01-0.185D+00 0.117D+01
 Gap=     0.289 Goal=   None    Shift=    0.000
 RMSDP=3.10D-06 MaxDP=7.77D-05 DE=-4.64D-06 OVMax= 2.20D-04

 Cycle   7  Pass 1  IDiag  1:
 E= -2648.59391154456     Delta-E=       -0.000000162474 Rises=F Damp=F
 DIIS: error= 7.53D-06 at cycle   7 NSaved=   7.
 NSaved= 7 IEnMin= 7 EnMin= -2648.59391154456     IErMin= 7 ErrMin= 7.53D-06
 ErrMax= 7.53D-06  0.00D+00 EMaxC= 1.00D-01 BMatC= 6.83D-09 BMatP= 5.72D-08
 IDIUse=1 WtCom= 1.00D+00 WtEn= 0.00D+00
 Coeff-Com: -0.576D-04-0.391D-04 0.279D-02 0.241D-01-0.126D+00 0.171D+00
 Coeff-Com:  0.928D+00
 Coeff:     -0.576D-04-0.391D-04 0.279D-02 0.241D-01-0.126D+00 0.171D+00
 Coeff:      0.928D+00
 Gap=     0.289 Goal=   None    Shift=    0.000
 RMSDP=7.43D-07 MaxDP=1.95D-05 DE=-1.62D-07 OVMax= 5.24D-05

 Cycle   8  Pass 1  IDiag  1:
 E= -2648.59391155656     Delta-E=       -0.000000012002 Rises=F Damp=F
 DIIS: error= 1.91D-06 at cycle   8 NSaved=   8.
 NSaved= 8 IEnMin= 8 EnMin= -2648.59391155656     IErMin= 8 ErrMin= 1.91D-06
 ErrMax= 1.91D-06  0.00D+00 EMaxC= 1.00D-01 BMatC= 4.46D-10 BMatP= 6.83D-09
 IDIUse=1 WtCom= 1.00D+00 WtEn= 0.00D+00
 Coeff-Com:  0.810D-04-0.155D-03-0.516D-03 0.533D-03 0.160D-01-0.103D+00
 Coeff-Com: -0.662D-01 0.115D+01
 Coeff:      0.810D-04-0.155D-03-0.516D-03 0.533D-03 0.160D-01-0.103D+00
 Coeff:     -0.662D-01 0.115D+01
 Gap=     0.289 Goal=   None    Shift=    0.000
 RMSDP=3.27D-07 MaxDP=9.16D-06 DE=-1.20D-08 OVMax= 1.60D-05

 Cycle   9  Pass 1  IDiag  1:
 E= -2648.59391155755     Delta-E=       -0.000000000985 Rises=F Damp=F
 DIIS: error= 3.92D-07 at cycle   9 NSaved=   9.
 NSaved= 9 IEnMin= 9 EnMin= -2648.59391155755     IErMin= 9 ErrMin= 3.92D-07
 ErrMax= 3.92D-07  0.00D+00 EMaxC= 1.00D-01 BMatC= 2.45D-11 BMatP= 4.46D-10
 IDIUse=1 WtCom= 1.00D+00 WtEn= 0.00D+00
 Coeff-Com: -0.880D-05 0.266D-04-0.131D-03-0.180D-02 0.754D-02-0.663D-02
 Coeff-Com: -0.519D-01 0.788D-02 0.105D+01
 Coeff:     -0.880D-05 0.266D-04-0.131D-03-0.180D-02 0.754D-02-0.663D-02
 Coeff:     -0.519D-01 0.788D-02 0.105D+01
 Gap=     0.289 Goal=   None    Shift=    0.000
 RMSDP=6.82D-08 MaxDP=2.06D-06 DE=-9.85D-10 OVMax= 3.05D-06

 Cycle  10  Pass 1  IDiag  1:
 E= -2648.59391155759     Delta-E=       -0.000000000044 Rises=F Damp=F
 DIIS: error= 1.25D-07 at cycle  10 NSaved=  10.
 NSaved=10 IEnMin=10 EnMin= -2648.59391155759     IErMin=10 ErrMin= 1.25D-07
 ErrMax= 1.25D-07  0.00D+00 EMaxC= 1.00D-01 BMatC= 2.21D-12 BMatP= 2.45D-11
 IDIUse=1 WtCom= 1.00D+00 WtEn= 0.00D+00
 Coeff-Com: -0.540D-05 0.989D-05 0.440D-04 0.642D-04-0.163D-02 0.889D-02
 Coeff-Com:  0.828D-02-0.111D+00 0.974D-02 0.109D+01
 Coeff:     -0.540D-05 0.989D-05 0.440D-04 0.642D-04-0.163D-02 0.889D-02
 Coeff:      0.828D-02-0.111D+00 0.974D-02 0.109D+01
 Gap=     0.289 Goal=   None    Shift=    0.000
 RMSDP=1.64D-08 MaxDP=2.96D-07 DE=-4.41D-11 OVMax= 1.10D-06

 Cycle  11  Pass 1  IDiag  1:
 E= -2648.59391155760     Delta-E=       -0.000000000004 Rises=F Damp=F
 DIIS: error= 2.33D-08 at cycle  11 NSaved=  11.
 NSaved=11 IEnMin=11 EnMin= -2648.59391155760     IErMin=11 ErrMin= 2.33D-08
 ErrMax= 2.33D-08  0.00D+00 EMaxC= 1.00D-01 BMatC= 7.97D-14 BMatP= 2.21D-12
 IDIUse=1 WtCom= 1.00D+00 WtEn= 0.00D+00
 Coeff-Com:  0.104D-05-0.237D-05 0.105D-05 0.646D-04-0.117D-03-0.840D-03
 Coeff-Com:  0.117D-02 0.131D-01-0.559D-01-0.129D+00 0.117D+01
 Coeff:      0.104D-05-0.237D-05 0.105D-05 0.646D-04-0.117D-03-0.840D-03
 Coeff:      0.117D-02 0.131D-01-0.559D-01-0.129D+00 0.117D+01
 Gap=     0.289 Goal=   None    Shift=    0.000
 RMSDP=5.70D-09 MaxDP=1.87D-07 DE=-3.64D-12 OVMax= 2.39D-07

 SCF Done:  E(RHF) =  -2648.59391156     A.U. after   11 cycles
            NFock= 11  Conv=0.57D-08     -V/T= 1.9999
 KE= 2.648815976999D+03 PE=-6.484402024771D+03 EE= 1.118858799437D+03
 Leave Link  502 at Tue Oct 12 14:16:13 2021, MaxMem=  1048576000 cpu:        12.5
 (Enter /usr/local/gaussian/g09/l801.exe)
 ExpMin= 2.53D-02 ExpMax= 1.06D+07 ExpMxC= 1.21D+04 IAcc=3 IRadAn=         5 AccDes= 0.00D+00
 HarFok:  IExCor=  205 AccDes= 0.00D+00 IRadAn=         5 IDoV=-2 UseB2=F ITyADJ=14
 ICtDFT= 12500011 ScaDFX=  1.000000  1.000000  1.000000  1.000000
 Largest valence mixing into a core orbital is  1.23D-04
 Largest core mixing into a valence orbital is  3.63D-05
 Range of M.O.s used for correlation:    11   151
 NBasis=   151 NAE=    23 NBE=    23 NFC=    10 NFV=     0
 NROrb=    141 NOA=    13 NOB=    13 NVA=   128 NVB=   128

 **** Warning!!: The largest alpha MO coefficient is  0.19736396D+02

 Leave Link  801 at Tue Oct 12 14:16:13 2021, MaxMem=  1048576000 cpu:         0.7
 (Enter /usr/local/gaussian/g09/l906.exe)
 Frozen-core derivative calculation, NFC=  10 NFV=   0.
 FulOut=F Deriv=T AODrv=F NAtomX=     4
   MMem=         391  MDisk=          13 MDiskD=          13
  W3Min=      604302 MinDsk=     1007783 NBas6D=         174
 NBas2D=       15618    NTT=       15225    LW2=     9911920
    MDV=  1048226236 MDiskM=       30063 NBas2p=       15367
 Fully in-core method, ICMem=   275066562.
 IMap=   1   2   3   4   5   6   7   8   9  10  11  12  13  14  15  16  17  18  19  20
 IMap=  21  22  23
 JobTyp=1 Pass  1 fully in-core, NPsUse= 12.
 Compute canonical integrals.
 FoFCou: FMM=F IPFlag=           0 FMFlag=           0 FMFlg1=           0
         NFxFlg=           0 DoJE=F BraDBF=F KetDBF=F FulRan=T
         wScrn=  0.000000 ICntrl=     600 IOpCl=  1 I1Cent=           0 NGrid=           0
         NMat0=    1 NMatS0=  15618 NMatT0=    0 NMatD0=    1 NMtDS0=    0 NMtDT0=    0
 Symmetry not used in FoFCou.
 Spin components of T(2) and E(2):
     alpha-alpha T2 =       0.1986045286D-01 E2=     -0.6886902177D-01
     alpha-beta  T2 =       0.1054822004D+00 E2=     -0.3742723454D+00
     beta-beta   T2 =       0.1986045286D-01 E2=     -0.6886902177D-01
 The integrals were generated   1 times.
 ANorm=    0.1070141629D+01
 E2 =    -0.5120103890D+00 EUMP2 =    -0.26491059219466D+04
 Leave Link  906 at Tue Oct 12 14:16:19 2021, MaxMem=  1048576000 cpu:        71.4
 (Enter /usr/local/gaussian/g09/l1002.exe)
 Minotr:  Closed shell wavefunction.
          Computing MP2/KS-MP2 derivatives.
          Using Z-Vector for PSCF gradient.
          Skipping F1 and S1 gradient terms here.
          Frozen-core window.
          Direct CPHF calculation.
          Differentiating once with respect to electric field.
                with respect to dipole field.
          Electric field/nuclear overlap derivatives assumed to be zero.
          Requested convergence is 1.0D-10 RMS, and 1.0D-09 maximum.
          NewPWx=F KeepS1=T KeepF1=T KeepIn=T MapXYZ=F SortEE=F KeepMc=T.
          MDV=    1048575823 using IRadAn=       0.
 Keep R1 ints in memory in canonical form, NReq=69224328.
 FoFCou: FMM=F IPFlag=           0 FMFlag=           0 FMFlg1=           0
         NFxFlg=           0 DoJE=F BraDBF=F KetDBF=F FulRan=T
         wScrn=  0.000000 ICntrl=     600 IOpCl=  0 I1Cent=           0 NGrid=           0
         NMat0=    1 NMatS0=  11476 NMatT0=    0 NMatD0=    1 NMtDS0=    0 NMtDT0=    0
 Symmetry not used in FoFCou.
          Solving linear equations separately, MaxMat=       0.
          There are     1 degrees of freedom in the 1st order CPHF.  IDoFFX=0 NUNeed=     1.
 LinEq1:  Iter=  0 NonCon=     1 RMS=2.21D-03 Max=4.09D-02 NDo=     1
 AX will form     1 AO Fock derivatives at one time.
 LinEq1:  Iter=  1 NonCon=     1 RMS=3.66D-04 Max=4.17D-03 NDo=     1
 LinEq1:  Iter=  2 NonCon=     1 RMS=1.79D-04 Max=2.20D-03 NDo=     1
 LinEq1:  Iter=  3 NonCon=     1 RMS=4.52D-05 Max=7.84D-04 NDo=     1
 LinEq1:  Iter=  4 NonCon=     1 RMS=8.09D-06 Max=9.27D-05 NDo=     1
 LinEq1:  Iter=  5 NonCon=     1 RMS=3.61D-06 Max=4.94D-05 NDo=     1
 LinEq1:  Iter=  6 NonCon=     1 RMS=7.21D-07 Max=1.00D-05 NDo=     1
 LinEq1:  Iter=  7 NonCon=     1 RMS=1.43D-07 Max=1.94D-06 NDo=     1
 LinEq1:  Iter=  8 NonCon=     1 RMS=4.23D-08 Max=5.46D-07 NDo=     1
 LinEq1:  Iter=  9 NonCon=     1 RMS=5.78D-09 Max=9.99D-08 NDo=     1
 LinEq1:  Iter= 10 NonCon=     1 RMS=6.37D-10 Max=7.46D-09 NDo=     1
 LinEq1:  Iter= 11 NonCon=     1 RMS=1.62D-10 Max=3.35D-09 NDo=     1
 LinEq1:  Iter= 12 NonCon=     0 RMS=3.68D-11 Max=4.82D-10 NDo=     1
 Linear equations converged to 1.000D-10 1.000D-09 after    12 iterations.
 End of Minotr F.D. properties file   721 does not exist.
 End of Minotr F.D. properties file   722 does not exist.
 End of Minotr F.D. properties file   788 does not exist.
 Leave Link 1002 at Tue Oct 12 14:16:21 2021, MaxMem=  1048576000 cpu:        11.8
 (Enter /usr/local/gaussian/g09/l601.exe)
 Copying SCF densities to generalized density rwf, IOpCl= 0 IROHF=0.

 **********************************************************************

            Population analysis using the MP2 density.

 **********************************************************************

 Alpha  occ. eigenvalues -- -489.73492 -64.87514 -58.22963 -58.22962 -58.22960
 Alpha  occ. eigenvalues --  -20.38735  -9.54757  -7.15505  -7.15495  -7.15493
 Alpha  occ. eigenvalues --   -2.89669  -2.89666  -2.89665  -2.89653  -2.89653
 Alpha  occ. eigenvalues --   -1.21774  -0.70534  -0.57351  -0.43562  -0.34887
 Alpha  occ. eigenvalues --   -0.16046  -0.15562  -0.15524
 Alpha virt. eigenvalues --    0.13382   0.17342   0.23482   0.24240   0.25007
 Alpha virt. eigenvalues --    0.27270   0.28969   0.29379   0.34063   0.34906
 Alpha virt. eigenvalues --    0.39608   0.40711   0.41440   0.46471   0.48341
 Alpha virt. eigenvalues --    0.48801   0.53435   0.53474   0.56906   0.59469
 Alpha virt. eigenvalues --    0.61434   0.63753   0.70297   0.74962   0.75423
 Alpha virt. eigenvalues --    0.75545   0.81952   0.87689   0.88011   0.89268
 Alpha virt. eigenvalues --    0.89271   0.96374   1.00264   1.01828   1.01938
 Alpha virt. eigenvalues --    1.03050   1.03328   1.04052   1.07443   1.09203
 Alpha virt. eigenvalues --    1.09757   1.13842   1.16210   1.16624   1.17758
 Alpha virt. eigenvalues --    1.19564   1.19893   1.21944   1.23817   1.24779
 Alpha virt. eigenvalues --    1.33231   1.35955   1.39947   1.43518   1.46553
 Alpha virt. eigenvalues --    1.52049   1.61479   1.63840   1.68317   1.68799
 Alpha virt. eigenvalues --    1.77379   1.86998   2.02853   2.10593   2.18080
 Alpha virt. eigenvalues --    2.40581   2.40691   2.42273   2.43991   2.52248
 Alpha virt. eigenvalues --    2.53111   2.55091   2.55709   2.56090   2.56515
 Alpha virt. eigenvalues --    2.56881   2.57228   2.58509   2.61260   2.63991
 Alpha virt. eigenvalues --    2.66048   2.67215   2.69213   2.74646   2.74793
 Alpha virt. eigenvalues --    2.78653   2.85902   2.90245   2.93877   3.01979
 Alpha virt. eigenvalues --    3.11196   3.14776   3.23711   3.87825   4.14963
 Alpha virt. eigenvalues --    4.26250   4.35403   4.42137   4.46375   4.53448
 Alpha virt. eigenvalues --    4.57853   4.60866   4.62844   4.69264   4.79682
 Alpha virt. eigenvalues --    5.01696   5.21964   5.39017   5.42115   5.55851
 Alpha virt. eigenvalues --    5.89227   5.93424   6.11107   6.54043   6.70656
 Alpha virt. eigenvalues --    6.92504   7.28785   7.31329   7.43764   7.49199
 Alpha virt. eigenvalues --    7.53075   7.69455   7.83965   8.04838   8.15651
 Alpha virt. eigenvalues --    8.63998   9.24616  19.30730
          Condensed to atoms (all electrons):
               1          2          3          4
     1  O    8.063560   0.239755  -0.050680   0.161966
     2  H    0.239755   0.604641   0.006987  -0.024745
     3  Br  -0.050680   0.006987  35.984399   0.018117
     4  H    0.161966  -0.024745   0.018117   0.644601
 Mulliken charges:
               1
     1  O   -0.414600
     2  H    0.173362
     3  Br  -0.958823
     4  H    0.200061
 Sum of Mulliken charges =  -1.00000
 Mulliken charges with hydrogens summed into heavy atoms:
               1
     1  O   -0.041177
     3  Br  -0.958823
 Electronic spatial extent (au):  <R**2>=           1434.3313
 Charge=             -1.0000 electrons
 Dipole moment (field-independent basis, Debye):
    X=              4.0431    Y=             12.9527    Z=              0.0000  Tot=             13.5691
 Quadrupole moment (field-independent basis, Debye-Ang):
   XX=            -30.8827   YY=            -75.8756   ZZ=            -31.6368
   XY=             -8.7142   XZ=             -0.0000   YZ=             -0.0000
 Traceless Quadrupole moment (field-independent basis, Debye-Ang):
   XX=             15.2490   YY=            -29.7439   ZZ=             14.4949
   XY=             -8.7142   XZ=             -0.0000   YZ=             -0.0000
 Octapole moment (field-independent basis, Debye-Ang**2):
  XXX=             48.3191  YYY=            372.4128  ZZZ=              0.0000  XYY=             44.0332
  XXY=             81.9241  XXZ=              0.0000  XZZ=             15.0506  YZZ=             76.0203
  YYZ=              0.0000  XYZ=              0.0000
 Hexadecapole moment (field-independent basis, Debye-Ang**3):
 XXXX=           -112.1133 YYYY=          -1953.9151 ZZZZ=            -50.7288 XXXY=           -152.9921
 XXXZ=             -0.0000 YYYX=           -240.5135 YYYZ=             -0.0000 ZZZX=             -0.0000
 ZZZY=             -0.0000 XXYY=           -287.2913 XXZZ=            -27.3835 YYZZ=           -258.4402
 XXYZ=             -0.0000 YYXZ=             -0.0000 ZZXY=            -49.7763
 N-N= 6.813333677772D+01 E-N=-6.482867444593D+03  KE= 2.648646030059D+03
 No NMR shielding tensors so no spin-rotation constants.
 Leave Link  601 at Tue Oct 12 14:16:21 2021, MaxMem=  1048576000 cpu:         2.1
 (Enter /usr/local/gaussian/g09/l607.exe)
 ******************************Gaussian NBO Version 3.1******************************
             N A T U R A L   A T O M I C   O R B I T A L   A N D
          N A T U R A L   B O N D   O R B I T A L   A N A L Y S I S
 ******************************Gaussian NBO Version 3.1******************************
       /RESON  / : Allow strongly delocalized NBO set

 Analyzing the MP2 density

 Job title: title                                                           

 Storage needed:     69217 in NPA,     91732 in NBO (1048575896 available)


 NATURAL POPULATIONS:  Natural atomic orbital occupancies 
                                                          
   NAO  Atom  No  lang   Type(AO)    Occupancy
 --------------------------------------------
     1    O    1  S      Cor( 1S)     1.99961
     2    O    1  S      Val( 2S)     1.69712
     3    O    1  S      Ryd( 3S)     0.00573
     4    O    1  S      Ryd( 4S)     0.00047
     5    O    1  S      Ryd( 5S)     0.00020
     6    O    1  px     Val( 2p)     1.52116
     7    O    1  px     Ryd( 3p)     0.00894
     8    O    1  px     Ryd( 4p)     0.00052
     9    O    1  px     Ryd( 5p)     0.00006
    10    O    1  py     Val( 2p)     1.65636
    11    O    1  py     Ryd( 3p)     0.01169
    12    O    1  py     Ryd( 4p)     0.00059
    13    O    1  py     Ryd( 5p)     0.00006
    14    O    1  pz     Val( 2p)     1.95423
    15    O    1  pz     Ryd( 3p)     0.01990
    16    O    1  pz     Ryd( 4p)     0.00059
    17    O    1  pz     Ryd( 5p)     0.00002
    18    O    1  dxy    Ryd( 3d)     0.00819
    19    O    1  dxy    Ryd( 4d)     0.00039
    20    O    1  dxy    Ryd( 5d)     0.00006
    21    O    1  dxz    Ryd( 3d)     0.00781
    22    O    1  dxz    Ryd( 4d)     0.00041
    23    O    1  dxz    Ryd( 5d)     0.00006
    24    O    1  dyz    Ryd( 3d)     0.00793
    25    O    1  dyz    Ryd( 4d)     0.00042
    26    O    1  dyz    Ryd( 5d)     0.00011
    27    O    1  dx2y2  Ryd( 3d)     0.01152
    28    O    1  dx2y2  Ryd( 4d)     0.00024
    29    O    1  dx2y2  Ryd( 5d)     0.00007
    30    O    1  dz2    Ryd( 3d)     0.00900
    31    O    1  dz2    Ryd( 4d)     0.00038
    32    O    1  dz2    Ryd( 5d)     0.00008
    33    O    1  f(0)   Ryd( 4f)     0.00064
    34    O    1  f(0)   Ryd( 5f)     0.00009
    35    O    1  f(C1)  Ryd( 4f)     0.00055
    36    O    1  f(C1)  Ryd( 5f)     0.00007
    37    O    1  f(S1)  Ryd( 4f)     0.00052
    38    O    1  f(S1)  Ryd( 5f)     0.00008
    39    O    1  f(C2)  Ryd( 4f)     0.00044
    40    O    1  f(C2)  Ryd( 5f)     0.00008
    41    O    1  f(S2)  Ryd( 4f)     0.00045
    42    O    1  f(S2)  Ryd( 5f)     0.00007
    43    O    1  f(C3)  Ryd( 4f)     0.00039
    44    O    1  f(C3)  Ryd( 5f)     0.00011
    45    O    1  f(S3)  Ryd( 4f)     0.00037
    46    O    1  f(S3)  Ryd( 5f)     0.00010

    47    H    2  S      Val( 1S)     0.54989
    48    H    2  S      Ryd( 2S)     0.00146
    49    H    2  S      Ryd( 3S)     0.00017
    50    H    2  S      Ryd( 4S)     0.00005
    51    H    2  px     Ryd( 2p)     0.00134
    52    H    2  px     Ryd( 3p)     0.00045
    53    H    2  px     Ryd( 4p)     0.00013
    54    H    2  py     Ryd( 2p)     0.00184
    55    H    2  py     Ryd( 3p)     0.00022
    56    H    2  py     Ryd( 4p)     0.00008
    57    H    2  pz     Ryd( 2p)     0.00525
    58    H    2  pz     Ryd( 3p)     0.00018
    59    H    2  pz     Ryd( 4p)     0.00005
    60    H    2  dxy    Ryd( 3d)     0.00006
    61    H    2  dxy    Ryd( 4d)     0.00005
    62    H    2  dxz    Ryd( 3d)     0.00007
    63    H    2  dxz    Ryd( 4d)     0.00006
    64    H    2  dyz    Ryd( 3d)     0.00011
    65    H    2  dyz    Ryd( 4d)     0.00004
    66    H    2  dx2y2  Ryd( 3d)     0.00009
    67    H    2  dx2y2  Ryd( 4d)     0.00004
    68    H    2  dz2    Ryd( 3d)     0.00011
    69    H    2  dz2    Ryd( 4d)     0.00005

    70   Br    3  S      Cor( 1S)     2.00003
    71   Br    3  S      Cor( 2S)     2.00000
    72   Br    3  S      Cor( 3S)     2.00000
    73   Br    3  S      Val( 4S)     1.98034
    74   Br    3  S      Ryd( 5S)     0.00291
    75   Br    3  S      Ryd( 6S)     0.00054
    76   Br    3  S      Ryd( 7S)     0.00011
    77   Br    3  px     Cor( 2p)     2.00002
    78   Br    3  px     Cor( 3p)     2.00000
    79   Br    3  px     Val( 4p)     1.95323
    80   Br    3  px     Ryd( 5p)     0.01191
    81   Br    3  px     Ryd( 6p)     0.00083
    82   Br    3  px     Ryd( 7p)     0.00005
    83   Br    3  py     Cor( 2p)     2.00002
    84   Br    3  py     Cor( 3p)     2.00000
    85   Br    3  py     Val( 4p)     1.93894
    86   Br    3  py     Ryd( 5p)     0.01076
    87   Br    3  py     Ryd( 6p)     0.00080
    88   Br    3  py     Ryd( 7p)     0.00011
    89   Br    3  pz     Cor( 2p)     2.00002
    90   Br    3  pz     Cor( 3p)     2.00000
    91   Br    3  pz     Val( 4p)     1.95422
    92   Br    3  pz     Ryd( 5p)     0.01192
    93   Br    3  pz     Ryd( 6p)     0.00084
    94   Br    3  pz     Ryd( 7p)     0.00004
    95   Br    3  dxy    Cor( 3d)     1.99767
    96   Br    3  dxy    Ryd( 4d)     0.01881
    97   Br    3  dxy    Ryd( 5d)     0.00155
    98   Br    3  dxy    Ryd( 6d)     0.00021
    99   Br    3  dxz    Cor( 3d)     1.99769
   100   Br    3  dxz    Ryd( 4d)     0.01870
   101   Br    3  dxz    Ryd( 5d)     0.00179
   102   Br    3  dxz    Ryd( 6d)     0.00022
   103   Br    3  dyz    Cor( 3d)     1.99768
   104   Br    3  dyz    Ryd( 4d)     0.01880
   105   Br    3  dyz    Ryd( 5d)     0.00156
   106   Br    3  dyz    Ryd( 6d)     0.00020
   107   Br    3  dx2y2  Cor( 3d)     1.99766
   108   Br    3  dx2y2  Ryd( 4d)     0.01859
   109   Br    3  dx2y2  Ryd( 5d)     0.00169
   110   Br    3  dx2y2  Ryd( 6d)     0.00026
   111   Br    3  dz2    Cor( 3d)     1.99768
   112   Br    3  dz2    Ryd( 4d)     0.01866
   113   Br    3  dz2    Ryd( 5d)     0.00176
   114   Br    3  dz2    Ryd( 6d)     0.00023
   115   Br    3  f(0)   Ryd( 4f)     0.00174
   116   Br    3  f(0)   Ryd( 5f)     0.00025
   117   Br    3  f(C1)  Ryd( 4f)     0.00176
   118   Br    3  f(C1)  Ryd( 5f)     0.00024
   119   Br    3  f(S1)  Ryd( 4f)     0.00175
   120   Br    3  f(S1)  Ryd( 5f)     0.00025
   121   Br    3  f(C2)  Ryd( 4f)     0.00174
   122   Br    3  f(C2)  Ryd( 5f)     0.00025
   123   Br    3  f(S2)  Ryd( 4f)     0.00177
   124   Br    3  f(S2)  Ryd( 5f)     0.00025
   125   Br    3  f(C3)  Ryd( 4f)     0.00172
   126   Br    3  f(C3)  Ryd( 5f)     0.00025
   127   Br    3  f(S3)  Ryd( 4f)     0.00173
   128   Br    3  f(S3)  Ryd( 5f)     0.00026

   129    H    4  S      Val( 1S)     0.51645
   130    H    4  S      Ryd( 2S)     0.00623
   131    H    4  S      Ryd( 3S)     0.00028
   132    H    4  S      Ryd( 4S)     0.00012
   133    H    4  px     Ryd( 2p)     0.00326
   134    H    4  px     Ryd( 3p)     0.00035
   135    H    4  px     Ryd( 4p)     0.00011
   136    H    4  py     Ryd( 2p)     0.00410
   137    H    4  py     Ryd( 3p)     0.00053
   138    H    4  py     Ryd( 4p)     0.00024
   139    H    4  pz     Ryd( 2p)     0.00388
   140    H    4  pz     Ryd( 3p)     0.00041
   141    H    4  pz     Ryd( 4p)     0.00010
   142    H    4  dxy    Ryd( 3d)     0.00016
   143    H    4  dxy    Ryd( 4d)     0.00008
   144    H    4  dxz    Ryd( 3d)     0.00013
   145    H    4  dxz    Ryd( 4d)     0.00008
   146    H    4  dyz    Ryd( 3d)     0.00017
   147    H    4  dyz    Ryd( 4d)     0.00008
   148    H    4  dx2y2  Ryd( 3d)     0.00016
   149    H    4  dx2y2  Ryd( 4d)     0.00011
   150    H    4  dz2    Ryd( 3d)     0.00015
   151    H    4  dz2    Ryd( 4d)     0.00011

 WARNING:  5 low occupancy (<1.9990e) core orbitals found on Br    3


 Summary of Natural Population Analysis:                  
                                                          
                                       Natural Population 
                Natural  -----------------------------------------------
    Atom  No    Charge         Core      Valence    Rydberg      Total
 -----------------------------------------------------------------------
      O    1   -0.92789      1.99961     6.82887    0.09942     8.92789
      H    2    0.43819      0.00000     0.54989    0.01192     0.56181
     Br    3   -0.97302     27.98847     7.82673    0.15781    35.97302
      H    4    0.46272      0.00000     0.51645    0.02084     0.53728
 =======================================================================
   * Total *   -1.00000     29.98808    15.72193    0.28999    46.00000

                                 Natural Population      
 --------------------------------------------------------
   Core                      29.98808 ( 99.9603% of  30)
   Valence                   15.72193 ( 98.2621% of  16)
   Natural Minimal Basis     45.71001 ( 99.3696% of  46)
   Natural Rydberg Basis      0.28999 (  0.6304% of  46)
 --------------------------------------------------------

    Atom  No          Natural Electron Configuration
 ----------------------------------------------------------------------------
      O    1      [core]2S( 1.70)2p( 5.13)3S( 0.01)3p( 0.04)3d( 0.04)
      H    2            1S( 0.55)2p( 0.01)
     Br    3      [core]4S( 1.98)4p( 5.85)4d( 0.09)5p( 0.03)4f( 0.01)5d( 0.01)
      H    4            1S( 0.52)2S( 0.01)2p( 0.01)


 NATURAL BOND ORBITAL ANALYSIS:
 Warning:  a bond orbital has occupanc of -0.00001

                       Occupancies       Lewis Structure    Low   High
           Occ.    -------------------  -----------------   occ   occ
  Cycle   Thresh.   Lewis   Non-Lewis     CR  BD  3C  LP    (L)   (NL)   Dev
 =============================================================================
   1(1)    1.90    45.68717   0.31283     15   2   0   6     0      0    0.02
 -----------------------------------------------------------------------------

 Structure accepted: No low occupancy Lewis orbitals

 WARNING:  5 low occupancy (<1.9990e) core orbitals found on Br    3

 --------------------------------------------------------
   Core                     29.98808 ( 99.960% of  30)
   Valence Lewis            15.69909 ( 98.119% of  16)
  ==================       ============================
   Total Lewis              45.68717 ( 99.320% of  46)
  -----------------------------------------------------
   Valence non-Lewis         0.05062 (  0.110% of  46)
   Rydberg non-Lewis         0.26220 (  0.570% of  46)
  ==================       ============================
   Total non-Lewis           0.31283 (  0.680% of  46)
 --------------------------------------------------------


       (Occupancy)   Bond orbital/ Coefficients/ Hybrids
 ---------------------------------------------------------------------------------
     1. (1.96703) BD ( 1) O   1 - H   2  
                ( 72.80%)   0.8532* O   1 s( 20.62%)p 3.83( 78.95%)d 0.02(  0.42%)
                                                  f 0.00(  0.01%)
                                            0.0002  0.4541 -0.0022 -0.0013 -0.0019
                                            0.8847 -0.0283  0.0097 -0.0024  0.0742
                                           -0.0175  0.0010 -0.0025  0.0000  0.0000
                                            0.0000  0.0000 -0.0217  0.0028  0.0003
                                            0.0000  0.0000  0.0000  0.0000  0.0000
                                            0.0000  0.0501 -0.0032 -0.0033 -0.0347
                                            0.0029  0.0002  0.0000  0.0000 -0.0098
                                            0.0000  0.0001 -0.0003  0.0000  0.0000
                                            0.0000  0.0000  0.0029  0.0032  0.0025
                                           -0.0005
                ( 27.20%)   0.5216* H   2 s( 99.90%)p 0.00(  0.09%)d 0.00(  0.00%)
                                            0.9995  0.0029 -0.0002  0.0002  0.0141
                                            0.0247 -0.0054 -0.0091 -0.0043 -0.0026
                                            0.0000  0.0000  0.0000 -0.0008 -0.0018
                                            0.0000  0.0000  0.0000  0.0000 -0.0029
                                           -0.0008 -0.0003  0.0007
     2. (1.97377) BD ( 1) O   1 - H   4  
                ( 74.94%)   0.8657* O   1 s( 32.29%)p 2.08( 67.29%)d 0.01(  0.41%)
                                                  f 0.00(  0.01%)
                                           -0.0003 -0.5681  0.0112  0.0026  0.0027
                                            0.2226 -0.0214  0.0013 -0.0010  0.7886
                                           -0.0306  0.0061 -0.0010  0.0000  0.0000
                                            0.0000  0.0000 -0.0007 -0.0036 -0.0014
                                            0.0000  0.0000  0.0000  0.0000  0.0000
                                            0.0000  0.0523 -0.0007 -0.0013  0.0363
                                           -0.0001  0.0014  0.0000  0.0000 -0.0018
                                           -0.0002 -0.0081 -0.0010  0.0000  0.0000
                                            0.0000  0.0000 -0.0028 -0.0026 -0.0016
                                           -0.0035
                ( 25.06%)   0.5006* H   4 s( 99.91%)p 0.00(  0.09%)d 0.00(  0.01%)
                                           -0.9994 -0.0148 -0.0002 -0.0005 -0.0143
                                           -0.0022 -0.0012 -0.0070 -0.0226 -0.0094
                                            0.0000  0.0000  0.0000  0.0020 -0.0000
                                            0.0000  0.0000  0.0000  0.0000 -0.0047
                                            0.0034 -0.0017  0.0039
     3. (1.99961) CR ( 1) O   1           s(100.00%)
                                            1.0000 -0.0004  0.0000  0.0000  0.0000
                                           -0.0000  0.0000 -0.0000  0.0000  0.0001
                                           -0.0000  0.0000  0.0000  0.0000  0.0000
                                            0.0000  0.0000 -0.0000 -0.0000 -0.0000
                                            0.0000  0.0000  0.0000  0.0000  0.0000
                                            0.0000  0.0000  0.0000  0.0000  0.0000
                                           -0.0000  0.0000  0.0000  0.0000  0.0000
                                            0.0000 -0.0000 -0.0000  0.0000  0.0000
                                            0.0000  0.0000 -0.0000 -0.0000 -0.0000
                                           -0.0000
     4. (2.00003) CR ( 1)Br   3           s(100.00%)
                                            1.0000  0.0000  0.0000 -0.0000  0.0000
                                            0.0000  0.0000 -0.0000  0.0000 -0.0000
                                            0.0000 -0.0000  0.0000 -0.0000  0.0000
                                            0.0000 -0.0000 -0.0000  0.0000  0.0000
                                            0.0000  0.0000  0.0000  0.0000  0.0000
                                           -0.0000  0.0000 -0.0000  0.0000  0.0000
                                            0.0000  0.0000  0.0000  0.0000  0.0000
                                            0.0000  0.0000  0.0000 -0.0000  0.0000
                                            0.0000  0.0000 -0.0000  0.0000 -0.0000
                                            0.0000  0.0000 -0.0000 -0.0000 -0.0000
                                           -0.0000  0.0000  0.0000  0.0000  0.0000
                                           -0.0000 -0.0000 -0.0000 -0.0000
     5. (2.00000) CR ( 2)Br   3           s(100.00%)
                                            0.0000  1.0000 -0.0000  0.0000 -0.0000
                                           -0.0000 -0.0000  0.0000 -0.0000 -0.0000
                                           -0.0000  0.0000  0.0000  0.0000 -0.0000
                                           -0.0000  0.0000  0.0000 -0.0000  0.0000
                                            0.0000  0.0000  0.0000  0.0000  0.0000
                                            0.0000 -0.0000  0.0000 -0.0000  0.0000
                                            0.0000  0.0000  0.0000  0.0000  0.0000
                                            0.0000  0.0000 -0.0000  0.0000 -0.0000
                                           -0.0000 -0.0000  0.0000 -0.0000  0.0000
                                            0.0000  0.0000  0.0000  0.0000  0.0000
                                            0.0000  0.0000  0.0000  0.0000  0.0000
                                            0.0000  0.0000  0.0000  0.0000
     6. (2.00000) CR ( 3)Br   3           s(100.00%)
                                            0.0000 -0.0000  1.0000 -0.0000 -0.0000
                                           -0.0000 -0.0000  0.0000 -0.0000 -0.0000
                                           -0.0000  0.0000  0.0000  0.0000 -0.0000
                                           -0.0000  0.0000  0.0000 -0.0000  0.0000
                                            0.0000  0.0000  0.0000  0.0000  0.0000
                                            0.0000 -0.0000  0.0000 -0.0000  0.0000
                                            0.0000  0.0000  0.0000  0.0000  0.0000
                                            0.0000  0.0000 -0.0000  0.0000 -0.0000
                                           -0.0000 -0.0000  0.0000 -0.0000  0.0000
                                            0.0000  0.0000  0.0000  0.0000  0.0000
                                            0.0000  0.0000  0.0000  0.0000  0.0000
                                            0.0000  0.0000  0.0000  0.0000
     7. (2.00002) CR ( 4)Br   3           s(  0.00%)p 1.00(100.00%)
                                           -0.0000  0.0000  0.0000  0.0000  0.0000
                                           -0.0000  0.0000  1.0000  0.0000 -0.0000
                                           -0.0000 -0.0000  0.0000 -0.0000  0.0000
                                            0.0000 -0.0000 -0.0000  0.0000  0.0000
                                            0.0000  0.0000  0.0000  0.0000  0.0000
                                           -0.0000 -0.0000  0.0000  0.0000  0.0000
                                            0.0000  0.0000  0.0000  0.0000  0.0000
                                            0.0000  0.0000  0.0000 -0.0000  0.0000
                                           -0.0000  0.0000 -0.0000  0.0000  0.0000
                                            0.0000  0.0000  0.0000  0.0000 -0.0000
                                           -0.0000  0.0000  0.0000  0.0000  0.0000
                                            0.0000  0.0000 -0.0000 -0.0000
     8. (2.00000) CR ( 5)Br   3           s(  0.00%)p 1.00(100.00%)
                                            0.0000 -0.0000 -0.0000  0.0000  0.0000
                                            0.0000 -0.0000  0.0000  1.0000  0.0000
                                            0.0000  0.0000 -0.0000 -0.0000 -0.0000
                                           -0.0000  0.0000 -0.0000 -0.0000  0.0000
                                            0.0000  0.0000  0.0000  0.0000  0.0000
                                           -0.0000  0.0000 -0.0000 -0.0000  0.0000
                                            0.0000  0.0000  0.0000  0.0000  0.0000
                                            0.0000  0.0000  0.0000  0.0000 -0.0000
                                            0.0000  0.0000 -0.0000  0.0000 -0.0000
                                            0.0000  0.0000 -0.0000 -0.0000 -0.0000
                                           -0.0000  0.0000  0.0000  0.0000  0.0000
                                           -0.0000 -0.0000  0.0000  0.0000
     9. (2.00002) CR ( 6)Br   3           s(  0.00%)p 1.00(100.00%)
                                           -0.0000  0.0000  0.0000  0.0000  0.0000
                                            0.0000 -0.0000 -0.0000 -0.0000  0.0000
                                            0.0000 -0.0000 -0.0000  1.0000  0.0000
                                            0.0001 -0.0000 -0.0000  0.0000  0.0000
                                            0.0000  0.0000  0.0000  0.0000  0.0000
                                           -0.0000  0.0000 -0.0000  0.0000  0.0000
                                            0.0000  0.0000  0.0000  0.0000  0.0000
                                            0.0000  0.0000  0.0000 -0.0000  0.0000
                                            0.0000  0.0000 -0.0000  0.0000 -0.0000
                                            0.0000  0.0000 -0.0000 -0.0000 -0.0000
                                           -0.0000  0.0000  0.0000  0.0000  0.0000
                                           -0.0000 -0.0000 -0.0000 -0.0000
    10. (2.00000) CR ( 7)Br   3           s(  0.00%)p 1.00(100.00%)
                                            0.0000 -0.0000 -0.0000  0.0000 -0.0000
                                            0.0000 -0.0000  0.0000 -0.0000  0.0000
                                            0.0000  0.0000  0.0000  0.0000  1.0000
                                           -0.0000  0.0000 -0.0000 -0.0000  0.0000
                                            0.0000  0.0000  0.0000  0.0000  0.0000
                                            0.0000 -0.0000  0.0000 -0.0000  0.0000
                                            0.0000  0.0000  0.0000  0.0000  0.0000
                                            0.0000  0.0000 -0.0000  0.0000 -0.0000
                                            0.0000 -0.0000  0.0000 -0.0000  0.0000
                                            0.0000  0.0000 -0.0000 -0.0000  0.0000
                                            0.0000  0.0000  0.0000  0.0000  0.0000
                                           -0.0000 -0.0000  0.0000  0.0000
    11. (2.00002) CR ( 8)Br   3           s(  0.00%)p 1.00(100.00%)
                                            0.0000  0.0000  0.0000  0.0000  0.0000
                                            0.0000  0.0000  0.0000  0.0000  0.0000
                                            0.0000  0.0000  0.0000  0.0000  0.0000
                                            0.0000  0.0000  0.0000  0.0000  1.0000
                                           -0.0000 -0.0000  0.0000 -0.0000 -0.0000
                                            0.0000  0.0000  0.0000  0.0000  0.0000
                                           -0.0000  0.0000 -0.0000  0.0000 -0.0000
                                            0.0000  0.0000  0.0000  0.0000  0.0000
                                            0.0000  0.0000  0.0000  0.0000  0.0000
                                            0.0000  0.0000  0.0000  0.0000  0.0000
                                            0.0000  0.0000  0.0000 -0.0000 -0.0000
                                            0.0000  0.0000  0.0000  0.0000
    12. (2.00000) CR ( 9)Br   3           s(  0.00%)p 1.00(100.00%)
                                            0.0000  0.0000  0.0000  0.0000  0.0000
                                            0.0000  0.0000  0.0000  0.0000  0.0000
                                            0.0000  0.0000  0.0000  0.0000  0.0000
                                            0.0000  0.0000  0.0000  0.0000 -0.0000
                                            1.0000 -0.0000  0.0000 -0.0000 -0.0000
                                            0.0000  0.0000  0.0000  0.0000  0.0000
                                           -0.0000  0.0000 -0.0000  0.0000 -0.0000
                                            0.0000  0.0000  0.0000  0.0000  0.0000
                                            0.0000  0.0000  0.0000  0.0000  0.0000
                                            0.0000  0.0000  0.0000  0.0000  0.0000
                                            0.0000  0.0000  0.0000 -0.0000 -0.0000
                                            0.0000  0.0000  0.0000  0.0000
    13. (1.99767) CR (10)Br   3           s(  0.00%)p 0.00(  0.00%)d 1.00(100.00%)
                                           -0.0000  0.0000  0.0000  0.0000  0.0000
                                            0.0000 -0.0000 -0.0000 -0.0000  0.0000
                                            0.0000 -0.0000 -0.0000 -0.0000  0.0000
                                            0.0000 -0.0000 -0.0000  0.0000  0.0000
                                            0.0000  0.0000  0.0000  0.0000  0.0000
                                            1.0000  0.0000 -0.0000  0.0000  0.0000
                                            0.0000  0.0000  0.0000  0.0000  0.0000
                                            0.0000  0.0000  0.0000 -0.0000  0.0000
                                            0.0000  0.0000 -0.0000  0.0000 -0.0000
                                            0.0000  0.0000 -0.0000 -0.0000 -0.0000
                                           -0.0000  0.0000  0.0000  0.0000  0.0000
                                           -0.0000 -0.0000 -0.0000 -0.0000
    14. (1.99769) CR (11)Br   3           s(  0.00%)p 0.00(  0.00%)d 1.00(100.00%)
                                            0.0000  0.0000  0.0000  0.0000  0.0000
                                            0.0000  0.0000  0.0000  0.0000  0.0000
                                            0.0000  0.0000  0.0000  0.0000  0.0000
                                            0.0000  0.0000  0.0000  0.0000  0.0000
                                            0.0000  0.0000 -0.0000  0.0000  0.0000
                                            0.0000  0.0000  0.0000  0.0000  1.0000
                                            0.0000 -0.0000  0.0000 -0.0000  0.0000
                                           -0.0000 -0.0000  0.0000  0.0000  0.0000
                                            0.0000  0.0000  0.0000  0.0000  0.0000
                                           -0.0000 -0.0000  0.0000  0.0000  0.0000
                                            0.0000 -0.0000 -0.0000  0.0000  0.0000
                                            0.0000  0.0000  0.0000  0.0000
    15. (1.99768) CR (12)Br   3           s(  0.00%)p 0.00(  0.00%)d 1.00(100.00%)
                                            0.0000  0.0000  0.0000  0.0000  0.0000
                                            0.0000  0.0000  0.0000  0.0000  0.0000
                                            0.0000  0.0000  0.0000  0.0000  0.0000
                                            0.0000  0.0000  0.0000  0.0000  0.0000
                                            0.0000  0.0000 -0.0000  0.0000  0.0000
                                            0.0000  0.0000  0.0000  0.0000 -0.0000
                                            0.0000 -0.0000  0.0000  1.0000  0.0000
                                           -0.0000 -0.0000  0.0000  0.0000  0.0000
                                            0.0000  0.0000  0.0000  0.0000  0.0000
                                           -0.0000 -0.0000  0.0000  0.0000  0.0000
                                            0.0000 -0.0000 -0.0000  0.0000  0.0000
                                            0.0000  0.0000  0.0000  0.0000
    16. (1.99766) CR (13)Br   3           s(  0.00%)p 0.00(  0.00%)d 1.00(100.00%)
                                            0.0000 -0.0000 -0.0000 -0.0000 -0.0000
                                           -0.0000 -0.0000  0.0000  0.0000 -0.0000
                                           -0.0000  0.0000  0.0000  0.0000 -0.0000
                                           -0.0001  0.0000  0.0000 -0.0000  0.0000
                                            0.0000  0.0000  0.0000  0.0000  0.0000
                                            0.0000 -0.0000  0.0000 -0.0000  0.0000
                                            0.0000  0.0000  0.0000  0.0000  0.0000
                                            0.0000  0.0000  1.0000  0.0000 -0.0000
                                           -0.0000 -0.0000  0.0000 -0.0000  0.0000
                                            0.0000  0.0000  0.0000  0.0000  0.0000
                                            0.0000  0.0000  0.0000  0.0000  0.0000
                                            0.0000  0.0000  0.0000  0.0000
    17. (1.99768) CR (14)Br   3           s(  0.00%)p 0.00(  0.00%)d 1.00(100.00%)
                                            0.0000 -0.0000 -0.0000 -0.0000 -0.0000
                                           -0.0000 -0.0000  0.0000  0.0000 -0.0000
                                           -0.0000  0.0000  0.0000  0.0000 -0.0000
                                           -0.0000  0.0000  0.0000 -0.0000  0.0000
                                            0.0000  0.0000  0.0000  0.0000  0.0000
                                            0.0000 -0.0000  0.0000 -0.0000  0.0000
                                            0.0000  0.0000  0.0000  0.0000  0.0000
                                            0.0000  0.0000 -0.0000  0.0000 -0.0000
                                           -0.0000  1.0000  0.0000 -0.0000  0.0000
                                            0.0000  0.0000  0.0000  0.0000  0.0000
                                            0.0000  0.0000  0.0000  0.0000  0.0000
                                            0.0000  0.0000  0.0000  0.0000
    18. (1.97015) LP ( 1) O   1           s( 46.99%)p 1.13( 52.87%)d 0.00(  0.13%)
                                                  f 0.00(  0.00%)
                                            0.0002  0.6855  0.0079  0.0022  0.0023
                                           -0.4018 -0.0080  0.0020 -0.0003  0.6059
                                            0.0108 -0.0044  0.0004  0.0000  0.0000
                                            0.0000  0.0000  0.0302 -0.0043  0.0014
                                            0.0000  0.0000  0.0000  0.0000  0.0000
                                            0.0000  0.0100 -0.0001  0.0017  0.0165
                                           -0.0018 -0.0009  0.0000  0.0000  0.0026
                                           -0.0005 -0.0036  0.0010  0.0000  0.0000
                                            0.0000  0.0000  0.0012 -0.0013  0.0008
                                           -0.0011
    19. (1.96077) LP ( 2) O   1           s(  0.00%)p 1.00( 99.79%)d 0.00(  0.20%)
                                                  f 0.00(  0.01%)
                                            0.0000  0.0000  0.0000  0.0000  0.0000
                                            0.0000  0.0000  0.0000  0.0000  0.0000
                                            0.0000  0.0000  0.0000  0.9983  0.0341
                                           -0.0066  0.0021  0.0000  0.0000  0.0000
                                            0.0309 -0.0041 -0.0001 -0.0322  0.0025
                                           -0.0045  0.0000  0.0000  0.0000  0.0000
                                            0.0000  0.0000 -0.0099  0.0023  0.0000
                                            0.0000  0.0000  0.0000 -0.0013  0.0007
                                            0.0024 -0.0002  0.0000  0.0000  0.0000
                                            0.0000
    20. (1.98072) LP ( 1)Br   3           s( 99.17%)p 0.01(  0.83%)d 0.00(  0.00%)
                                                  f 0.00(  0.00%)
                                            0.0000 -0.0000 -0.0000  0.9958 -0.0002
                                           -0.0000 -0.0000 -0.0000 -0.0000 -0.0170
                                            0.0004 -0.0001  0.0001 -0.0000 -0.0000
                                           -0.0896  0.0006 -0.0006  0.0000  0.0000
                                            0.0000  0.0000  0.0000  0.0000  0.0000
                                           -0.0000  0.0009 -0.0003 -0.0001  0.0000
                                            0.0000  0.0000  0.0000  0.0000  0.0000
                                            0.0000  0.0000  0.0000 -0.0015  0.0004
                                            0.0002  0.0000 -0.0012  0.0004  0.0001
                                            0.0000  0.0000 -0.0001 -0.0001 -0.0005
                                           -0.0003  0.0000  0.0000  0.0000  0.0000
                                           -0.0004 -0.0002 -0.0004 -0.0002
    21. (1.95430) LP ( 2)Br   3           s(  0.00%)p 1.00(100.00%)d 0.00(  0.00%)
                                                  f 0.00(  0.00%)
                                            0.0000  0.0000  0.0000  0.0000  0.0000
                                            0.0000  0.0000  0.0000  0.0000  0.0000
                                            0.0000  0.0000  0.0000  0.0000  0.0000
                                            0.0000  0.0000  0.0000  0.0000  0.0000
                                            0.0000  1.0000 -0.0001  0.0007  0.0001
                                            0.0000  0.0000  0.0000  0.0000 -0.0000
                                            0.0024 -0.0012  0.0012 -0.0000  0.0048
                                           -0.0015 -0.0004  0.0000  0.0000  0.0000
                                            0.0000  0.0000  0.0000  0.0000  0.0000
                                           -0.0014 -0.0010  0.0000  0.0000  0.0000
                                            0.0000 -0.0012 -0.0008  0.0009  0.0007
                                            0.0000  0.0000  0.0000  0.0000
    22. (1.95409) LP ( 3)Br   3           s(  0.00%)p 1.00( 99.99%)d 0.00(  0.00%)
                                                  f 0.00(  0.00%)
                                           -0.0000 -0.0000 -0.0000  0.0027 -0.0006
                                           -0.0016  0.0023 -0.0000  0.0000 -0.9766
                                           -0.0012 -0.0010  0.0005  0.0000  0.0000
                                            0.2150 -0.0008 -0.0002  0.0007 -0.0000
                                           -0.0000 -0.0000 -0.0000 -0.0000 -0.0000
                                            0.0000 -0.0051  0.0014  0.0002 -0.0000
                                           -0.0000 -0.0000 -0.0000 -0.0000 -0.0000
                                           -0.0000 -0.0000  0.0000 -0.0039  0.0017
                                           -0.0011 -0.0000  0.0008 -0.0005  0.0008
                                           -0.0000 -0.0000  0.0007  0.0005 -0.0001
                                            0.0000 -0.0000 -0.0000 -0.0000 -0.0000
                                            0.0012  0.0006 -0.0014 -0.0010
    23. (1.93826) LP ( 4)Br   3           s(  0.83%)p99.99( 99.15%)d 0.02(  0.02%)
                                                  f 0.00(  0.00%)
                                           -0.0000  0.0000  0.0000  0.0911  0.0018
                                            0.0005  0.0001 -0.0000 -0.0000  0.2143
                                            0.0008 -0.0002 -0.0001 -0.0001  0.0000
                                            0.9724 -0.0011 -0.0018  0.0003  0.0000
                                            0.0000  0.0000  0.0000  0.0000  0.0000
                                           -0.0000  0.0063 -0.0017  0.0007  0.0000
                                            0.0000  0.0000  0.0000  0.0000  0.0000
                                            0.0000  0.0000  0.0001 -0.0096  0.0021
                                            0.0003  0.0000 -0.0072  0.0019 -0.0006
                                            0.0000  0.0000 -0.0006 -0.0003 -0.0023
                                           -0.0013  0.0000  0.0000  0.0000  0.0000
                                           -0.0017 -0.0006 -0.0019 -0.0007
    24. (0.01785) RY*( 1) O   1           s(  0.00%)p 1.00( 98.58%)d 0.01(  1.41%)
                                                  f 0.00(  0.01%)
                                            0.0000  0.0000  0.0000  0.0000  0.0000
                                            0.0000  0.0000  0.0000  0.0000  0.0000
                                            0.0000  0.0000  0.0000 -0.0387  0.9914
                                            0.0348 -0.0130  0.0000  0.0000  0.0000
                                            0.1056 -0.0153 -0.0072 -0.0508  0.0113
                                           -0.0004  0.0000  0.0000  0.0000  0.0000
                                            0.0000  0.0000 -0.0051  0.0078  0.0000
                                            0.0000  0.0000  0.0000 -0.0002  0.0010
                                           -0.0030 -0.0002  0.0000  0.0000  0.0000
                                            0.0000
    25. (0.01414) RY*( 2) O   1           s( 22.30%)p 3.38( 75.39%)d 0.10(  2.25%)
                                                  f 0.00(  0.07%)
                                            0.0000 -0.0153  0.4719 -0.0044  0.0027
                                            0.0148 -0.4575 -0.0173  0.0022 -0.0059
                                            0.7373  0.0175 -0.0097  0.0000  0.0000
                                            0.0000  0.0000  0.1466 -0.0149  0.0007
                                            0.0000  0.0000  0.0000  0.0000  0.0000
                                            0.0000 -0.0118  0.0017  0.0072  0.0208
                                           -0.0103 -0.0006  0.0000  0.0000  0.0021
                                           -0.0005  0.0049  0.0017  0.0000  0.0000
                                            0.0000  0.0000  0.0183 -0.0107  0.0140
                                           -0.0040
    26. (0.00636) RY*( 3) O   1           s(  0.62%)p99.99( 65.34%)d53.61( 33.43%)
                                                  f 0.96(  0.60%)
                                           -0.0000  0.0041  0.0655 -0.0435  0.0062
                                           -0.0662 -0.6926 -0.0482  0.0206 -0.0432
                                           -0.4047 -0.0306  0.0102 -0.0000 -0.0000
                                           -0.0000 -0.0000 -0.2808 -0.0063  0.0006
                                           -0.0000 -0.0000 -0.0000 -0.0000 -0.0000
                                           -0.0000  0.4978  0.0303  0.0171 -0.0801
                                           -0.0041  0.0008 -0.0000 -0.0000 -0.0408
                                            0.0194 -0.0215  0.0062 -0.0000 -0.0000
                                           -0.0000 -0.0000  0.0086 -0.0120 -0.0524
                                            0.0218
    27. (0.00597) RY*( 4) O   1           s(  0.00%)p 1.00(  0.05%)d99.99( 99.01%)
                                                  f20.15(  0.94%)
                                            0.0000  0.0000  0.0000  0.0000  0.0000
                                            0.0000  0.0000  0.0000  0.0000  0.0000
                                            0.0000  0.0000  0.0000  0.0103 -0.0159
                                           -0.0104 -0.0002  0.0000  0.0000  0.0000
                                            0.5550  0.0230  0.0074  0.8246  0.0394
                                            0.0040  0.0000  0.0000  0.0000  0.0000
                                            0.0000  0.0000  0.0214 -0.0081  0.0000
                                            0.0000  0.0000  0.0000  0.0854 -0.0399
                                           -0.0057  0.0008  0.0000  0.0000  0.0000
                                            0.0000
    28. (0.00590) RY*( 5) O   1           s(  8.40%)p 0.22(  1.88%)d10.56( 88.70%)
                                                  f 0.12(  1.02%)
                                            0.0000  0.0115  0.2896  0.0027  0.0012
                                           -0.0047  0.1181  0.0085 -0.0073  0.0290
                                            0.0617 -0.0077 -0.0012 -0.0000 -0.0000
                                           -0.0000 -0.0000 -0.8863 -0.0188  0.0034
                                           -0.0000 -0.0000 -0.0000 -0.0000 -0.0000
                                           -0.0000 -0.3141 -0.0085  0.0002  0.0460
                                            0.0084  0.0109 -0.0000 -0.0000 -0.0113
                                            0.0102  0.0291 -0.0177 -0.0000 -0.0000
                                           -0.0000 -0.0000 -0.0841  0.0286 -0.0260
                                            0.0149
    29. (0.00582) RY*( 6) O   1           s(  0.00%)p 1.00(  1.53%)d64.03( 97.69%)
                                                  f 0.51(  0.78%)
                                            0.0000  0.0000  0.0000  0.0000  0.0000
                                            0.0000  0.0000  0.0000  0.0000  0.0000
                                            0.0000  0.0000  0.0000 -0.0395 -0.1167
                                           -0.0044 -0.0078  0.0000  0.0000  0.0000
                                            0.8179  0.0392  0.0075 -0.5528 -0.0277
                                            0.0038  0.0000  0.0000  0.0000  0.0000
                                            0.0000  0.0000 -0.0666  0.0338  0.0000
                                            0.0000  0.0000  0.0000  0.0181 -0.0126
                                           -0.0382  0.0177  0.0000  0.0000  0.0000
                                            0.0000
    30. (0.00557) RY*( 7) O   1           s( 10.88%)p 0.51(  5.50%)d 7.64( 83.10%)
                                                  f 0.05(  0.52%)
                                           -0.0000  0.0260  0.3285 -0.0137  0.0035
                                            0.0234  0.0612 -0.0021 -0.0033 -0.0455
                                           -0.2185 -0.0283 -0.0065  0.0000  0.0000
                                            0.0000  0.0000  0.1188  0.0100  0.0025
                                            0.0000  0.0000  0.0000  0.0000  0.0000
                                            0.0000  0.0724  0.0081 -0.0023  0.8989
                                            0.0583  0.0012  0.0000  0.0000  0.0404
                                           -0.0187 -0.0509  0.0216  0.0000  0.0000
                                            0.0000  0.0000 -0.0080  0.0001 -0.0109
                                            0.0041
    31. (0.00246) RY*( 8) O   1           s(  0.26%)p99.99( 32.47%)d99.99( 66.73%)
                                                  f 2.09(  0.54%)
                                           -0.0000 -0.0002  0.0447 -0.0226 -0.0079
                                           -0.0263  0.4712  0.0381  0.0174 -0.0204
                                            0.3133  0.0358  0.0207  0.0000  0.0000
                                            0.0000  0.0000 -0.1823 -0.0271  0.0110
                                            0.0000  0.0000  0.0000  0.0000  0.0000
                                            0.0000  0.7834  0.1137 -0.0800 -0.0112
                                           -0.0009  0.0047  0.0000  0.0000 -0.0123
                                            0.0244 -0.0023  0.0128  0.0000  0.0000
                                            0.0000  0.0000  0.0364 -0.0140 -0.0530
                                            0.0116
    32. (0.00207) RY*( 9) O   1           s( 55.90%)p 0.37( 20.71%)d 0.41( 23.15%)
                                                  f 0.00(  0.23%)
                                            0.0000 -0.0045  0.7436  0.0105 -0.0772
                                           -0.0058  0.2423  0.0226 -0.0293 -0.0000
                                           -0.3570 -0.1305 -0.0502  0.0000  0.0000
                                            0.0000  0.0000  0.2256  0.0576  0.0191
                                            0.0000  0.0000  0.0000  0.0000  0.0000
                                            0.0000  0.0061  0.0133  0.0067 -0.4008
                                           -0.1219  0.0343  0.0000  0.0000 -0.0032
                                            0.0257  0.0018 -0.0147  0.0000  0.0000
                                            0.0000  0.0000  0.0085 -0.0364 -0.0009
                                           -0.0050
    33. (0.00073) RY*(10) O   1           s( 47.66%)p 0.98( 46.56%)d 0.09(  4.13%)
                                                  f 0.03(  1.65%)
                                            0.0000 -0.0051 -0.0790  0.6768 -0.1107
                                            0.0014 -0.0313  0.0722 -0.1140 -0.0006
                                            0.0605 -0.6653 -0.0113 -0.0000 -0.0000
                                           -0.0000 -0.0000 -0.0283  0.0798  0.1347
                                           -0.0000 -0.0000 -0.0000 -0.0000 -0.0000
                                           -0.0000  0.0369  0.0212 -0.0122  0.0347
                                            0.0011 -0.1130 -0.0000 -0.0000  0.0150
                                           -0.0054  0.0386  0.0428 -0.0000 -0.0000
                                           -0.0000 -0.0000  0.0170  0.0617 -0.0040
                                            0.0940
    34. (0.00055) RY*(11) O   1           s(  0.00%)p 1.00( 67.97%)d 0.44( 29.71%)
                                                  f 0.03(  2.32%)
                                            0.0000  0.0000  0.0000  0.0000  0.0000
                                            0.0000  0.0000  0.0000  0.0000  0.0000
                                            0.0000  0.0000  0.0000  0.0034 -0.0407
                                            0.8228 -0.0305  0.0000  0.0000  0.0000
                                            0.0083 -0.2223 -0.0746 -0.0054  0.4749
                                            0.1284  0.0000  0.0000  0.0000  0.0000
                                            0.0000  0.0000 -0.1418  0.0409  0.0000
                                            0.0000  0.0000  0.0000 -0.0299  0.0008
                                           -0.0221 -0.0073  0.0000  0.0000  0.0000
                                            0.0000
    35. (0.00045) RY*(12) O   1           s(  6.40%)p 3.84( 24.58%)d 6.69( 42.78%)
                                                  f 4.10( 26.25%)
                                           -0.0000  0.0040  0.0069  0.2351  0.0928
                                            0.0075  0.0235 -0.4512 -0.0279 -0.0018
                                           -0.0218  0.2008  0.0074 -0.0000 -0.0000
                                           -0.0000 -0.0000 -0.0464 -0.2677  0.0328
                                           -0.0000 -0.0000 -0.0000 -0.0000 -0.0000
                                           -0.0000  0.0002 -0.1038  0.0205  0.0381
                                           -0.5582 -0.1693 -0.0000 -0.0000  0.2452
                                           -0.0188  0.0061  0.0160 -0.0000 -0.0000
                                           -0.0000 -0.0000  0.4444  0.0110  0.0582
                                            0.0253
    36. (0.00043) RY*(13) O   1           s(  0.00%)p 1.00(  0.65%)d21.45( 13.89%)
                                                  f99.99( 85.46%)
                                            0.0000  0.0000  0.0000  0.0000  0.0000
                                            0.0000  0.0000  0.0000  0.0000  0.0000
                                            0.0000  0.0000  0.0000  0.0044 -0.0045
                                           -0.0801 -0.0046  0.0000  0.0000  0.0000
                                            0.0165 -0.1286 -0.0265 -0.0866  0.3136
                                            0.1247  0.0000  0.0000  0.0000  0.0000
                                            0.0000  0.0000  0.8351 -0.0135  0.0000
                                            0.0000  0.0000  0.0000  0.3960  0.0063
                                           -0.0115 -0.0037  0.0000  0.0000  0.0000
                                            0.0000
    37. (0.00043) RY*(14) O   1           s(  0.61%)p 2.64(  1.60%)d14.86(  9.02%)
                                                  f99.99( 88.77%)
                                           -0.0000  0.0012  0.0018  0.0751  0.0205
                                           -0.0010  0.0051 -0.0943 -0.0186 -0.0001
                                           -0.0135  0.0809  0.0064  0.0000  0.0000
                                            0.0000  0.0000  0.0532 -0.0880 -0.0608
                                            0.0000  0.0000  0.0000  0.0000  0.0000
                                            0.0000  0.0197 -0.0284 -0.0190  0.0701
                                           -0.2505 -0.0816  0.0000  0.0000 -0.5596
                                            0.0125  0.7038 -0.0035  0.0000  0.0000
                                            0.0000  0.0000 -0.2704  0.0101 -0.0758
                                            0.0131
    38. (0.00044) RY*(15) O   1           s(  0.00%)p 1.00(  3.80%)d 1.36(  5.17%)
                                                  f23.98( 91.04%)
                                            0.0000  0.0000  0.0000  0.0000  0.0000
                                            0.0000  0.0000  0.0000  0.0000  0.0000
                                            0.0000  0.0000  0.0000 -0.0005 -0.0039
                                            0.1905  0.0408  0.0000  0.0000  0.0000
                                            0.0386  0.0687 -0.0160 -0.0110 -0.2108
                                           -0.0254  0.0000  0.0000  0.0000  0.0000
                                            0.0000  0.0000  0.1283 -0.0015  0.0000
                                            0.0000  0.0000  0.0000 -0.0121 -0.0052
                                            0.9451 -0.0238  0.0000  0.0000  0.0000
                                            0.0000
    39. (0.00041) RY*(16) O   1           s(  0.00%)p 1.00(  0.94%)d16.96( 15.92%)
                                                  f88.58( 83.15%)
                                            0.0000  0.0000  0.0000  0.0000  0.0000
                                            0.0000  0.0000  0.0000  0.0000  0.0000
                                            0.0000  0.0000  0.0000  0.0013  0.0096
                                            0.0946  0.0187  0.0000  0.0000  0.0000
                                           -0.0833  0.3504  0.1603 -0.0307 -0.0291
                                            0.0440  0.0000  0.0000  0.0000  0.0000
                                            0.0000  0.0000 -0.3315  0.0076  0.0000
                                            0.0000  0.0000  0.0000  0.8491  0.0207
                                            0.0110 -0.0039  0.0000  0.0000  0.0000
                                            0.0000
    40. (0.00040) RY*(17) O   1           s(  2.35%)p14.05( 33.02%)d 5.69( 13.38%)
                                                  f21.81( 51.25%)
                                            0.0000 -0.0014  0.0135  0.1265  0.0855
                                           -0.0083 -0.0470  0.5262  0.0076 -0.0050
                                           -0.0302  0.2226  0.0225  0.0000  0.0000
                                            0.0000  0.0000 -0.0270  0.1676  0.0404
                                            0.0000  0.0000  0.0000  0.0000  0.0000
                                            0.0000  0.0808 -0.2630 -0.0433  0.0117
                                           -0.1599 -0.0120  0.0000  0.0000  0.4424
                                            0.0364  0.3308  0.0260  0.0000  0.0000
                                            0.0000  0.0000 -0.1266 -0.0207  0.4339
                                            0.0238
    41. (0.00038) RY*(18) O   1           s(  0.00%)p 1.00( 26.22%)d 1.88( 49.20%)
                                                  f 0.94( 24.57%)
                                            0.0000  0.0000  0.0000  0.0000  0.0000
                                            0.0000  0.0000  0.0000  0.0000  0.0000
                                            0.0000  0.0000  0.0000 -0.0109 -0.0016
                                           -0.4768 -0.1865  0.0000  0.0000  0.0000
                                            0.0041 -0.4950  0.0109 -0.0201  0.4964
                                            0.0076  0.0000  0.0000  0.0000  0.0000
                                            0.0000  0.0000 -0.3692 -0.0299  0.0000
[...]
                                           -0.0000 -0.0000 -0.0000 -0.0457  0.0035
                                           -0.0000 -0.0000 -0.0000 -0.0000  0.0291
                                            0.0276 -0.0443  0.0037
   131. (0.00255) RY*( 4) H   4           s( 22.56%)p 3.40( 76.76%)d 0.03(  0.67%)
                                            0.0032  0.4312  0.1989  0.0112 -0.7225
                                            0.0395 -0.0186 -0.4599  0.1794  0.0099
                                           -0.0000 -0.0000 -0.0000  0.0565 -0.0339
                                           -0.0000 -0.0000 -0.0000 -0.0000  0.0106
                                            0.0311  0.0274  0.0239
   132. (0.00042) RY*( 5) H   4           s( 10.55%)p 7.90( 83.30%)d 0.58(  6.15%)
                                           -0.0018 -0.0104  0.0094  0.3245  0.0115
                                           -0.8212  0.1476  0.0229  0.2904 -0.2277
                                           -0.0000 -0.0000 -0.0000 -0.0433 -0.0410
                                           -0.0000 -0.0000 -0.0000 -0.0000 -0.1900
                                            0.1370  0.0363  0.0417
   133. (0.00033) RY*( 6) H   4           s(  0.00%)p 1.00( 95.51%)d 0.05(  4.49%)
                                            0.0000  0.0000  0.0000  0.0000  0.0000
                                            0.0000  0.0000  0.0000  0.0000  0.0000
                                           -0.1537  0.9629 -0.0662  0.0000  0.0000
                                            0.0229 -0.0106  0.2100  0.0119  0.0000
                                            0.0000  0.0000  0.0000
   134. (0.00031) RY*( 7) H   4           s(  4.56%)p13.12( 59.86%)d 7.80( 35.58%)
                                            0.0083  0.0014 -0.0518  0.2071 -0.0006
                                            0.2291 -0.2140  0.0230 -0.0808 -0.7023
                                           -0.0000 -0.0000 -0.0000 -0.0862 -0.2159
                                           -0.0000 -0.0000 -0.0000 -0.0000  0.3118
                                            0.3486  0.1062  0.2678
   135. (0.00019) RY*( 8) H   4           s(  9.48%)p 5.54( 52.49%)d 4.01( 38.02%)
                                           -0.0129 -0.0390  0.2264  0.2047  0.0707
                                            0.3604 -0.1146  0.2045  0.5749  0.0676
                                            0.0000  0.0000  0.0000 -0.0039 -0.0609
                                            0.0000  0.0000  0.0000  0.0000 -0.3498
                                            0.2320 -0.4447  0.0508
   136. (0.00017) RY*( 9) H   4           s( 20.63%)p 0.61( 12.63%)d 3.23( 66.74%)
                                           -0.0015 -0.0439  0.4489 -0.0542 -0.0123
                                           -0.0628 -0.3197  0.0812 -0.0308  0.1116
                                           -0.0000 -0.0000 -0.0000 -0.7690  0.0737
                                           -0.0000 -0.0000 -0.0000 -0.0000 -0.0400
                                           -0.0529  0.2555  0.0299
   137. (0.00017) RY*(10) H   4           s(  0.00%)p 1.00(  6.77%)d13.77( 93.23%)
                                            0.0000  0.0000  0.0000  0.0000  0.0000
                                            0.0000  0.0000  0.0000  0.0000  0.0000
                                            0.0571 -0.1744  0.1845  0.0000  0.0000
                                           -0.1815 -0.1368  0.9223 -0.1733  0.0000
                                            0.0000  0.0000  0.0000
   138. (0.00014) RY*(11) H   4           s(  0.00%)p 1.00(  5.24%)d18.09( 94.76%)
                                            0.0000  0.0000  0.0000  0.0000  0.0000
                                            0.0000  0.0000  0.0000  0.0000  0.0000
                                           -0.0056 -0.0694 -0.2180  0.0000  0.0000
                                            0.8394  0.3365  0.1883 -0.3071  0.0000
                                            0.0000  0.0000  0.0000
   139. (0.00014) RY*(12) H   4           s( 16.91%)p 0.62( 10.40%)d 4.30( 72.68%)
                                           -0.0057 -0.0607  0.3944 -0.0993  0.1130
                                            0.1039  0.1244  0.1206  0.2246 -0.0047
                                            0.0000  0.0000  0.0000  0.4247  0.0907
                                            0.0000  0.0000  0.0000  0.0000 -0.0890
                                           -0.0576  0.6389  0.3447
   140. (0.00013) RY*(13) H   4           s(  0.00%)p 1.00( 55.76%)d 0.79( 44.24%)
                                            0.0000  0.0000  0.0000  0.0000  0.0000
                                            0.0000  0.0000  0.0000  0.0000  0.0000
                                            0.0176  0.0353  0.7457  0.0000  0.0000
                                            0.2286  0.3575  0.0503  0.5097  0.0000
                                            0.0000  0.0000  0.0000
   141. (0.00012) RY*(14) H   4           s(  8.18%)p 5.28( 43.15%)d 5.95( 48.67%)
                                            0.0069  0.0166  0.1161  0.2607 -0.0365
                                            0.2068  0.5541 -0.0286 -0.2414 -0.1461
                                            0.0000  0.0000  0.0000 -0.1675  0.6058
                                            0.0000  0.0000  0.0000  0.0000 -0.1445
                                            0.2502  0.0013 -0.0905
   142. (0.00010) RY*(15) H   4           s( 21.42%)p 0.63( 13.48%)d 3.04( 65.10%)
                                           -0.0088 -0.0885  0.3806 -0.2479  0.0156
                                           -0.1238  0.1955  0.1322  0.2515 -0.0157
                                            0.0000  0.0000  0.0000  0.0612  0.0698
                                            0.0000  0.0000  0.0000  0.0000  0.6922
                                            0.1648 -0.1824 -0.3207
   143. (0.00008) RY*(16) H   4           s( 46.84%)p 0.49( 22.97%)d 0.64( 30.19%)
   144. (0.00006) RY*(17) H   4           s(  0.00%)p 1.00(  0.12%)d99.99( 99.88%)
   145. (0.00005) RY*(18) H   4           s( 26.97%)p 0.26(  6.91%)d 2.45( 66.13%)
   146. (0.00005) RY*(19) H   4           s( 14.21%)p 1.46( 20.80%)d 4.57( 64.99%)
   147. (0.00003) RY*(20) H   4           s(  0.00%)p 1.00( 36.68%)d 1.73( 63.32%)
   148. (0.00002) RY*(21) H   4           s( 11.58%)p 3.30( 38.23%)d 4.33( 50.18%)
   149. (0.00003) RY*(22) H   4           s(  4.61%)p 9.04( 41.63%)d11.67( 53.76%)
   150. (0.02109) BD*( 1) O   1 - H   2  
                ( 27.20%)   0.5216* O   1 s( 20.62%)p 3.83( 78.95%)d 0.02(  0.42%)
                                                  f 0.00(  0.01%)
                                           -0.0002 -0.4541  0.0022  0.0013  0.0019
                                           -0.8847  0.0283 -0.0097  0.0024 -0.0742
                                            0.0175 -0.0010  0.0025 -0.0000 -0.0000
                                           -0.0000 -0.0000  0.0217 -0.0028 -0.0003
                                           -0.0000 -0.0000 -0.0000 -0.0000 -0.0000
                                           -0.0000 -0.0501  0.0032  0.0033  0.0347
                                           -0.0029 -0.0002 -0.0000 -0.0000  0.0098
                                           -0.0000 -0.0001  0.0003 -0.0000 -0.0000
                                           -0.0000 -0.0000 -0.0029 -0.0032 -0.0025
                                            0.0005
                ( 72.80%)  -0.8532* H   2 s( 99.90%)p 0.00(  0.09%)d 0.00(  0.00%)
                                           -0.9995 -0.0029  0.0002 -0.0002 -0.0141
                                           -0.0247  0.0054  0.0091  0.0043  0.0026
                                           -0.0000 -0.0000 -0.0000  0.0008  0.0018
                                           -0.0000 -0.0000 -0.0000 -0.0000  0.0029
                                            0.0008  0.0003 -0.0007
   151. (0.02953) BD*( 1) O   1 - H   4  
                ( 25.06%)   0.5006* O   1 s( 32.29%)p 2.08( 67.29%)d 0.01(  0.41%)
                                                  f 0.00(  0.01%)
                                            0.0003  0.5681 -0.0112 -0.0026 -0.0027
                                           -0.2226  0.0214 -0.0013  0.0010 -0.7886
                                            0.0306 -0.0061  0.0010 -0.0000 -0.0000
                                           -0.0000 -0.0000  0.0007  0.0036  0.0014
                                           -0.0000 -0.0000 -0.0000 -0.0000 -0.0000
                                           -0.0000 -0.0523  0.0007  0.0013 -0.0363
                                            0.0001 -0.0014 -0.0000 -0.0000  0.0018
                                            0.0002  0.0081  0.0010 -0.0000 -0.0000
                                           -0.0000 -0.0000  0.0028  0.0026  0.0016
                                            0.0035
                ( 74.94%)  -0.8657* H   4 s( 99.91%)p 0.00(  0.09%)d 0.00(  0.01%)
                                            0.9994  0.0148  0.0002  0.0005  0.0143
                                            0.0022  0.0012  0.0070  0.0226  0.0094
                                           -0.0000 -0.0000 -0.0000 -0.0020  0.0000
                                           -0.0000 -0.0000 -0.0000 -0.0000  0.0047
                                           -0.0034  0.0017 -0.0039


 NHO Directionality and "Bond Bending" (deviations from line of nuclear centers)

         [Thresholds for printing:  angular deviation  >  1.0 degree]
                                    hybrid p-character > 25.0%
                                    orbital occupancy  >  0.10e

                                Line of Centers        Hybrid 1              Hybrid 2
                                ---------------  -------------------   ------------------
                NBO               Theta   Phi    Theta   Phi    Dev    Theta   Phi    Dev
 ========================================================================================
     1. BD (   1) O   1 - H   2    90.0    0.0    90.0    3.7   3.7      --     --    --
     2. BD (   1) O   1 - H   4    90.0  258.3    90.0  255.2   3.0      --     --    --
    18. LP (   1) O   1             --     --     90.0  123.7   --       --     --    --
    19. LP (   2) O   1             --     --      0.0    0.0   --       --     --    --
    21. LP (   2)Br   3             --     --      0.0    0.0   --       --     --    --
    22. LP (   3)Br   3             --     --     90.0  167.6   --       --     --    --
    23. LP (   4)Br   3             --     --     90.0   77.5   --       --     --    --


 Natural Bond Orbitals (Summary):

           NBO                  Occupancy  
 -----------------------------------------------
 Molecular unit  1  (H2O)
     1. BD (   1) O   1 - H   2          1.96703
     2. BD (   1) O   1 - H   4          1.97377
     3. CR (   1) O   1                  1.99961
    18. LP (   1) O   1                  1.97015
    19. LP (   2) O   1                  1.96077
    24. RY*(   1) O   1                  0.01785
    25. RY*(   2) O   1                  0.01414
    26. RY*(   3) O   1                  0.00636
    27. RY*(   4) O   1                  0.00597
    28. RY*(   5) O   1                  0.00590
    29. RY*(   6) O   1                  0.00582
    30. RY*(   7) O   1                  0.00557
    31. RY*(   8) O   1                  0.00246
    32. RY*(   9) O   1                  0.00207
    33. RY*(  10) O   1                  0.00073
    34. RY*(  11) O   1                  0.00055
    35. RY*(  12) O   1                  0.00045
    36. RY*(  13) O   1                  0.00043
    37. RY*(  14) O   1                  0.00043
    38. RY*(  15) O   1                  0.00044
    39. RY*(  16) O   1                  0.00041
    40. RY*(  17) O   1                  0.00040
    41. RY*(  18) O   1                  0.00038
    42. RY*(  19) O   1                  0.00038
    43. RY*(  20) O   1                  0.00033
    44. RY*(  21) O   1                  0.00032
    45. RY*(  22) O   1                  0.00030
    46. RY*(  23) O   1                  0.00026
    47. RY*(  24) O   1                  0.00021
    48. RY*(  25) O   1                  0.00018
    49. RY*(  26) O   1                  0.00013
    50. RY*(  27) O   1                  0.00007
    51. RY*(  28) O   1                  0.00007
    52. RY*(  29) O   1                  0.00007
    53. RY*(  30) O   1                  0.00007
    54. RY*(  31) O   1                  0.00006
    55. RY*(  32) O   1                  0.00006
    56. RY*(  33) O   1                  0.00006
    57. RY*(  34) O   1                  0.00005
    58. RY*(  35) O   1                  0.00004
    59. RY*(  36) O   1                  0.00004
    60. RY*(  37) O   1                  0.00003
    61. RY*(  38) O   1                  0.00001
    62. RY*(  39) O   1                  0.00001
    63. RY*(  40) O   1                  0.00001
    64. RY*(  41) O   1                 -0.00001
    65. RY*(   1) H   2                  0.00530
    66. RY*(   2) H   2                  0.00228
    67. RY*(   3) H   2                  0.00170
    68. RY*(   4) H   2                  0.00070
    69. RY*(   5) H   2                  0.00030
    70. RY*(   6) H   2                  0.00021
    71. RY*(   7) H   2                  0.00016
    72. RY*(   8) H   2                  0.00010
    73. RY*(   9) H   2                  0.00011
    74. RY*(  10) H   2                  0.00010
    75. RY*(  11) H   2                  0.00007
    76. RY*(  12) H   2                  0.00008
    77. RY*(  13) H   2                  0.00007
    78. RY*(  14) H   2                  0.00004
    79. RY*(  15) H   2                  0.00003
    80. RY*(  16) H   2                  0.00004
    81. RY*(  17) H   2                  0.00003
    82. RY*(  18) H   2                  0.00001
    83. RY*(  19) H   2                  0.00002
    84. RY*(  20) H   2                  0.00001
    85. RY*(  21) H   2                  0.00002
    86. RY*(  22) H   2                  0.00002
   128. RY*(   1) H   4                  0.00771
   129. RY*(   2) H   4                  0.00398
   130. RY*(   3) H   4                  0.00375
   131. RY*(   4) H   4                  0.00255
   132. RY*(   5) H   4                  0.00042
   133. RY*(   6) H   4                  0.00033
   134. RY*(   7) H   4                  0.00031
   135. RY*(   8) H   4                  0.00019
   136. RY*(   9) H   4                  0.00017
   137. RY*(  10) H   4                  0.00017
   138. RY*(  11) H   4                  0.00014
   139. RY*(  12) H   4                  0.00014
   140. RY*(  13) H   4                  0.00013
   141. RY*(  14) H   4                  0.00012
   142. RY*(  15) H   4                  0.00010
   143. RY*(  16) H   4                  0.00008
   144. RY*(  17) H   4                  0.00006
   145. RY*(  18) H   4                  0.00005
   146. RY*(  19) H   4                  0.00005
   147. RY*(  20) H   4                  0.00003
   148. RY*(  21) H   4                  0.00002
   149. RY*(  22) H   4                  0.00003
   150. BD*(   1) O   1 - H   2          0.02109
   151. BD*(   1) O   1 - H   4          0.02953
       -------------------------------
              Total Lewis    9.87132  ( 98.4476%)
        Valence non-Lewis    0.05062  (  0.5049%)
        Rydberg non-Lewis    0.10504  (  1.0475%)
       -------------------------------
            Total unit  1   10.02698  (100.0000%)
           Charge unit  1   -0.02698

 Molecular unit  2  (Br)
     4. CR (   1)Br   3                  2.00003
     5. CR (   2)Br   3                  2.00000
     6. CR (   3)Br   3                  2.00000
     7. CR (   4)Br   3                  2.00002
     8. CR (   5)Br   3                  2.00000
     9. CR (   6)Br   3                  2.00002
    10. CR (   7)Br   3                  2.00000
    11. CR (   8)Br   3                  2.00002
    12. CR (   9)Br   3                  2.00000
    13. CR (  10)Br   3                  1.99767
    14. CR (  11)Br   3                  1.99769
    15. CR (  12)Br   3                  1.99768
    16. CR (  13)Br   3                  1.99766
    17. CR (  14)Br   3                  1.99768
    20. LP (   1)Br   3                  1.98072
    21. LP (   2)Br   3                  1.95430
    22. LP (   3)Br   3                  1.95409
    23. LP (   4)Br   3                  1.93826
    87. RY*(   1)Br   3                  0.01877
    88. RY*(   2)Br   3                  0.01876
    89. RY*(   3)Br   3                  0.01868
    90. RY*(   4)Br   3                  0.01868
    91. RY*(   5)Br   3                  0.01835
    92. RY*(   6)Br   3                  0.01195
    93. RY*(   7)Br   3                  0.01192
    94. RY*(   8)Br   3                  0.01063
    95. RY*(   9)Br   3                  0.00326
    96. RY*(  10)Br   3                  0.00181
    97. RY*(  11)Br   3                  0.00180
    98. RY*(  12)Br   3                  0.00176
    99. RY*(  13)Br   3                  0.00177
   100. RY*(  14)Br   3                  0.00176
   101. RY*(  15)Br   3                  0.00177
   102. RY*(  16)Br   3                  0.00177
   103. RY*(  17)Br   3                  0.00176
   104. RY*(  18)Br   3                  0.00176
   105. RY*(  19)Br   3                  0.00153
   106. RY*(  20)Br   3                  0.00150
   107. RY*(  21)Br   3                  0.00140
   108. RY*(  22)Br   3                  0.00082
   109. RY*(  23)Br   3                  0.00082
   110. RY*(  24)Br   3                  0.00079
   111. RY*(  25)Br   3                  0.00048
   112. RY*(  26)Br   3                  0.00025
   113. RY*(  27)Br   3                  0.00024
   114. RY*(  28)Br   3                  0.00025
   115. RY*(  29)Br   3                  0.00025
   116. RY*(  30)Br   3                  0.00025
   117. RY*(  31)Br   3                  0.00024
   118. RY*(  32)Br   3                  0.00025
   119. RY*(  33)Br   3                  0.00021
   120. RY*(  34)Br   3                  0.00021
   121. RY*(  35)Br   3                  0.00018
   122. RY*(  36)Br   3                  0.00016
   123. RY*(  37)Br   3                  0.00017
   124. RY*(  38)Br   3                  0.00008
   125. RY*(  39)Br   3                  0.00004
   126. RY*(  40)Br   3                  0.00005
   127. RY*(  41)Br   3                  0.00005
       -------------------------------
              Total Lewis   35.81585  ( 99.5631%)
        Valence non-Lewis    0.00000  (  0.0000%)
        Rydberg non-Lewis    0.15717  (  0.4369%)
       -------------------------------
            Total unit  2   35.97302  (100.0000%)
           Charge unit  2   -0.97302
 Leave Link  607 at Tue Oct 12 14:16:22 2021, MaxMem=  1048576000 cpu:         5.5
 (Enter /usr/local/gaussian/g09/l9999.exe)
 1\1\GINC-KRYPTON\SP\RMP2-FC\Aug-CC-pVTZ\Br1H2O1(1-)\CGAVINH\12-Oct-202
 1\0\\#p pop=NBO SP NoSymm mp2/aug-cc-pvtz density=current\\title\\-1,1
 \O\X,1,10.\H,1,0.96078759,2,90.\Br,1,3.25661955,2,90.,3,101.73887131,0
 \H,1,0.85,2,90.,3,101.73887131,0\\Version=ES64L-G09RevE.01\HF=-2648.59
 39116\MP2=-2649.1059219\RMSD=5.702e-09\Dipole=0.6499222,0.3746162,0.\Q
 uadrupole=11.3372559,-22.1138812,10.7766253,-6.4787874,0.,0.\PG=CS [SG
 (Br1H2O1)]\\@


 REFRAIN FROM ILLUSIONS, INSIST ON WORK AND NOT WORDS,
 PATIENTLY SEEK DIVINE AND SCIENTIFIC TRUTH.
 LAST WORDS OF MARIA MENDELEEVA TO HER SON DMITRI, C. 1850
 Job cpu time:       0 days  0 hours  1 minutes 49.7 seconds.
 File lengths (MBytes):  RWF=     10 Int=      0 D2E=      0 Chk=      3 Scr=      1
 Normal termination of Gaussian 09 at Tue Oct 12 14:16:22 2021.
