 Entering Gaussian System, Link 0=g09
 Input=brhod_rOH_135_sp.gjf
 Output=brhod_rOH_135_sp.log
 Initial command:
 /usr/local/gaussian/g09/l1.exe "/scratch/Gau-15495.inp" -scrdir="/scratch/"
 Entering Link 1 = /usr/local/gaussian/g09/l1.exe PID=     15496.
  
 Copyright (c) 1988,1990,1992,1993,1995,1998,2003,2009,2015,
            Gaussian, Inc.  All Rights Reserved.
  
 This is part of the Gaussian(R) 09 program.  It is based on
 the Gaussian(R) 03 system (copyright 2003, Gaussian, Inc.),
 the Gaussian(R) 98 system (copyright 1998, Gaussian, Inc.),
 the Gaussian(R) 94 system (copyright 1995, Gaussian, Inc.),
 the Gaussian 92(TM) system (copyright 1992, Gaussian, Inc.),
 the Gaussian 90(TM) system (copyright 1990, Gaussian, Inc.),
 the Gaussian 88(TM) system (copyright 1988, Gaussian, Inc.),
 the Gaussian 86(TM) system (copyright 1986, Carnegie Mellon
 University), and the Gaussian 82(TM) system (copyright 1983,
 Carnegie Mellon University). Gaussian is a federally registered
 trademark of Gaussian, Inc.
  
 This software contains proprietary and confidential information,
 including trade secrets, belonging to Gaussian, Inc.
  
 This software is provided under written license and may be
 used, copied, transmitted, or stored only in accord with that
 written license.
  
 The following legend is applicable only to US Government
 contracts under FAR:
  
                    RESTRICTED RIGHTS LEGEND
  
 Use, reproduction and disclosure by the US Government is
 subject to restrictions as set forth in subparagraphs (a)
 and (c) of the Commercial Computer Software - Restricted
 Rights clause in FAR 52.227-19.
  
 Gaussian, Inc.
 340 Quinnipiac St., Bldg. 40, Wallingford CT 06492
  
  
 ---------------------------------------------------------------
 Warning -- This program may not be used in any manner that
 competes with the business of Gaussian, Inc. or will provide
 assistance to any competitor of Gaussian, Inc.  The licensee
 of this program is prohibited from giving any competitor of
 Gaussian, Inc. access to this program.  By using this program,
 the user acknowledges that Gaussian, Inc. is engaged in the
 business of creating and licensing software in the field of
 computational chemistry and represents and warrants to the
 licensee that it is not a competitor of Gaussian, Inc. and that
 it will not use this program in any manner prohibited above.
 ---------------------------------------------------------------
  

 Cite this work as:
 Gaussian 09, Revision E.01,
 M. J. Frisch, G. W. Trucks, H. B. Schlegel, G. E. Scuseria, 
 M. A. Robb, J. R. Cheeseman, G. Scalmani, V. Barone, B. Mennucci, 
 G. A. Petersson, H. Nakatsuji, M. Caricato, X. Li, H. P. Hratchian, 
 A. F. Izmaylov, J. Bloino, G. Zheng, J. L. Sonnenberg, M. Hada, 
 M. Ehara, K. Toyota, R. Fukuda, J. Hasegawa, M. Ishida, T. Nakajima, 
 Y. Honda, O. Kitao, H. Nakai, T. Vreven, J. A. Montgomery, Jr., 
 J. E. Peralta, F. Ogliaro, M. Bearpark, J. J. Heyd, E. Brothers, 
 K. N. Kudin, V. N. Staroverov, T. Keith, R. Kobayashi, J. Normand, 
 K. Raghavachari, A. Rendell, J. C. Burant, S. S. Iyengar, J. Tomasi, 
 M. Cossi, N. Rega, J. M. Millam, M. Klene, J. E. Knox, J. B. Cross, 
 V. Bakken, C. Adamo, J. Jaramillo, R. Gomperts, R. E. Stratmann, 
 O. Yazyev, A. J. Austin, R. Cammi, C. Pomelli, J. W. Ochterski, 
 R. L. Martin, K. Morokuma, V. G. Zakrzewski, G. A. Voth, 
 P. Salvador, J. J. Dannenberg, S. Dapprich, A. D. Daniels, 
 O. Farkas, J. B. Foresman, J. V. Ortiz, J. Cioslowski, 
 and D. J. Fox, Gaussian, Inc., Wallingford CT, 2013.
 
 ******************************************
 Gaussian 09:  ES64L-G09RevE.01 30-Nov-2015
                12-Oct-2021 
 ******************************************
 %nproc=12
 Will use up to   12 processors via shared memory.
 %mem=8000MB
 %chk=/home/netid.washington.edu/cgavinh/mccoy_hocl/rOH_s_oop_0/brhod/brhod_rOH_1
 35_sp.chk
 ----------------------------------------------------
 #p pop=NBO SP NoSymm mp2/aug-cc-pvtz density=current
 ----------------------------------------------------
 1/30=1,38=1/1;
 2/12=2,15=1,17=6,18=5,40=1/2;
 3/5=16,6=1,7=10,11=9,16=1,25=1,30=1,71=1/1,2,3;
 4//1;
 5/5=2,38=5/2;
 8/6=4,10=1/1;
 9/15=1,16=-3/6;
 10/5=1,13=10,31=1/2;
 6/7=2,8=2,9=2,10=2,22=-1,40=1/1,7;
 99/5=1,9=1/99;
 Leave Link    1 at Tue Oct 12 14:18:03 2021, MaxMem=  1048576000 cpu:         0.2
 (Enter /usr/local/gaussian/g09/l101.exe)
 -----
 title
 -----
 Symbolic Z-matrix:
 Charge = -1 Multiplicity = 1
 O
 X                    1     10. 
 H(iso=2)             1    r1       2     90. 
 Br                   1    r2       2     90.      3    a1       0
 H                    1    r3       2    oop      3    a1       0
       Variables:
  r1                    0.96079                  
  r2                    3.25662                  
  r3                    1.35                     
  a1                  101.73887                  
  OOP                  90.                       
 
 NAtoms=      4 NQM=        4 NQMF=       0 NMMI=      0 NMMIF=      0
                NMic=       0 NMicF=      0.
                    Isotopes and Nuclear Properties:
 (Nuclear quadrupole moments (NQMom) in fm**2, nuclear magnetic moments (NMagM)
  in nuclear magnetons)

  Atom         1           2           3           4
 IAtWgt=          16           2          79           1
 AtmWgt=  15.9949146   2.0141018  78.9183361   1.0078250
 NucSpn=           0           2           3           1
 AtZEff=   0.0000000   0.0000000   0.0000000   0.0000000
 NQMom=    0.0000000   0.2860000  31.3000000   0.0000000
 NMagM=    0.0000000   0.8574380   2.1063990   2.7928460
 AtZNuc=   8.0000000   1.0000000  35.0000000   1.0000000
 Leave Link  101 at Tue Oct 12 14:18:03 2021, MaxMem=  1048576000 cpu:         0.4
 (Enter /usr/local/gaussian/g09/l202.exe)
                          Input orientation:                          
 ---------------------------------------------------------------------
 Center     Atomic      Atomic             Coordinates (Angstroms)
 Number     Number       Type             X           Y           Z
 ---------------------------------------------------------------------
      1          8           0        0.000000    0.000000    0.000000
      2          1           0        0.960788    0.000000    0.000000
      3         35           0       -0.662564   -3.188507    0.000000
      4          1           0       -0.274660   -1.321765    0.000000
 ---------------------------------------------------------------------
                    Distance matrix (angstroms):
                    1          2          3          4
     1  O    0.000000
     2  H    0.960788   0.000000
     3  Br   3.256620   3.577967   0.000000
     4  H    1.350000   1.809252   1.906620   0.000000
 Symmetry turned off by external request.
 Stoichiometry    BrH2O(1-)
 Framework group  CS[SG(BrH2O)]
 Deg. of freedom     5
 Full point group                 CS      NOp   2
 Rotational constants (GHZ):    323.2402767      3.1678539      3.1371093
 Leave Link  202 at Tue Oct 12 14:18:03 2021, MaxMem=  1048576000 cpu:         0.0
 (Enter /usr/local/gaussian/g09/l301.exe)
 Standard basis: Aug-CC-pVTZ (5D, 7F)
 Ernie: Thresh=  0.10000D-02 Tol=  0.10000D-05 Strict=F.
 Ernie:  35 primitive shells out of 175 were deleted.
   151 basis functions,   343 primitive gaussians,   174 cartesian basis functions
    23 alpha electrons       23 beta electrons
       nuclear repulsion energy        68.2231428695 Hartrees.
 IExCor=    0 DFT=F Ex=HF Corr=None ExCW=0 ScaHFX=  1.000000
 ScaDFX=  1.000000  1.000000  1.000000  1.000000 ScalE2=  1.000000  1.000000
 IRadAn=      0 IRanWt=     -1 IRanGd=            0 ICorTp=0 IEmpDi=  4
 NAtoms=    4 NActive=    4 NUniq=    4 SFac= 1.00D+00 NAtFMM=   60 NAOKFM=F Big=F
 Integral buffers will be    131072 words long.
 Raffenetti 1 integral format.
 Two-electron integral symmetry is turned off.
 Leave Link  301 at Tue Oct 12 14:18:03 2021, MaxMem=  1048576000 cpu:         0.3
 (Enter /usr/local/gaussian/g09/l302.exe)
 NPDir=0 NMtPBC=     1 NCelOv=     1 NCel=       1 NClECP=     1 NCelD=      1
         NCelK=      1 NCelE2=     1 NClLst=     1 CellRange=     0.0.
 One-electron integrals computed using PRISM.
 NBasis=   151 RedAO= T EigKep=  3.41D-04  NBF=   151
 NBsUse=   151 1.00D-06 EigRej= -1.00D+00 NBFU=   151
 Leave Link  302 at Tue Oct 12 14:18:04 2021, MaxMem=  1048576000 cpu:         1.5
 (Enter /usr/local/gaussian/g09/l303.exe)
 DipDrv:  MaxL=1.
 Leave Link  303 at Tue Oct 12 14:18:04 2021, MaxMem=  1048576000 cpu:         0.2
 (Enter /usr/local/gaussian/g09/l401.exe)
 ExpMin= 2.53D-02 ExpMax= 1.06D+07 ExpMxC= 1.21D+04 IAcc=3 IRadAn=         5 AccDes= 0.00D+00
 Harris functional with IExCor=  205 and IRadAn=       5 diagonalized for initial guess.
 HarFok:  IExCor=  205 AccDes= 0.00D+00 IRadAn=         5 IDoV= 1 UseB2=F ITyADJ=14
 ICtDFT=  3500011 ScaDFX=  1.000000  1.000000  1.000000  1.000000
 FoFCou: FMM=F IPFlag=           0 FMFlag=      100000 FMFlg1=           0
         NFxFlg=           0 DoJE=T BraDBF=F KetDBF=T FulRan=T
         wScrn=  0.000000 ICntrl=     500 IOpCl=  0 I1Cent=   200000004 NGrid=           0
         NMat0=    1 NMatS0=      1 NMatT0=    0 NMatD0=    1 NMtDS0=    0 NMtDT0=    0
 Symmetry not used in FoFCou.
 Harris En= -2647.96985442790    
 JPrj=0 DoOrth=F DoCkMO=F.
 Leave Link  401 at Tue Oct 12 14:18:04 2021, MaxMem=  1048576000 cpu:         2.6
 (Enter /usr/local/gaussian/g09/l502.exe)
 Closed shell SCF:
 Using DIIS extrapolation, IDIIS=  1040.
 Two-electron integral symmetry not used.
 Keep R1 ints in memory in canonical form, NReq=69268924.
 IVT=      112518 IEndB=      112518 NGot=  1048576000 MDV=   982608457
 LenX=   982608457 LenY=   982577740
 Requested convergence on RMS density matrix=1.00D-08 within 128 cycles.
 Requested convergence on MAX density matrix=1.00D-06.
 Requested convergence on             energy=1.00D-06.
 No special actions if energy rises.
 FoFCou: FMM=F IPFlag=           0 FMFlag=           0 FMFlg1=           0
         NFxFlg=           0 DoJE=F BraDBF=F KetDBF=F FulRan=T
         wScrn=  0.000000 ICntrl=     600 IOpCl=  0 I1Cent=           0 NGrid=           0
         NMat0=    1 NMatS0=  11476 NMatT0=    0 NMatD0=    1 NMtDS0=    0 NMtDT0=    0
 Symmetry not used in FoFCou.

 Cycle   1  Pass 1  IDiag  1:
 E= -2648.37996493160    
 DIIS: error= 7.12D-02 at cycle   1 NSaved=   1.
 NSaved= 1 IEnMin= 1 EnMin= -2648.37996493160     IErMin= 1 ErrMin= 7.12D-02
 ErrMax= 7.12D-02  0.00D+00 EMaxC= 1.00D-01 BMatC= 5.74D-01 BMatP= 5.74D-01
 IDIUse=3 WtCom= 2.88D-01 WtEn= 7.12D-01
 Coeff-Com:  0.100D+01
 Coeff-En:   0.100D+01
 Coeff:      0.100D+01
 Gap=     0.545 Goal=   None    Shift=    0.000
 GapD=    0.545 DampG=2.000 DampE=0.500 DampFc=1.0000 IDamp=-1.
 RMSDP=3.42D-03 MaxDP=1.05D-01              OVMax= 1.49D-01

 Cycle   2  Pass 1  IDiag  1:
 E= -2648.48825535084     Delta-E=       -0.108290419234 Rises=F Damp=F
 DIIS: error= 2.65D-02 at cycle   2 NSaved=   2.
 NSaved= 2 IEnMin= 2 EnMin= -2648.48825535084     IErMin= 2 ErrMin= 2.65D-02
 ErrMax= 2.65D-02  0.00D+00 EMaxC= 1.00D-01 BMatC= 9.53D-02 BMatP= 5.74D-01
 IDIUse=3 WtCom= 7.35D-01 WtEn= 2.65D-01
 Coeff-Com:  0.242D+00 0.758D+00
 Coeff-En:   0.923D-01 0.908D+00
 Coeff:      0.202D+00 0.798D+00
 Gap=     0.372 Goal=   None    Shift=    0.000
 RMSDP=1.44D-03 MaxDP=4.52D-02 DE=-1.08D-01 OVMax= 9.76D-02

 Cycle   3  Pass 1  IDiag  1:
 E= -2648.53685035187     Delta-E=       -0.048595001032 Rises=F Damp=F
 DIIS: error= 1.22D-02 at cycle   3 NSaved=   3.
 NSaved= 3 IEnMin= 3 EnMin= -2648.53685035187     IErMin= 3 ErrMin= 1.22D-02
 ErrMax= 1.22D-02  0.00D+00 EMaxC= 1.00D-01 BMatC= 1.95D-02 BMatP= 9.53D-02
 IDIUse=3 WtCom= 8.78D-01 WtEn= 1.22D-01
 Coeff-Com:  0.109D-01 0.314D+00 0.675D+00
 Coeff-En:   0.000D+00 0.770D-01 0.923D+00
 Coeff:      0.960D-02 0.285D+00 0.705D+00
 Gap=     0.338 Goal=   None    Shift=    0.000
 RMSDP=4.41D-04 MaxDP=1.17D-02 DE=-4.86D-02 OVMax= 2.99D-02

 Cycle   4  Pass 1  IDiag  1:
 E= -2648.54942674881     Delta-E=       -0.012576396940 Rises=F Damp=F
 DIIS: error= 1.11D-03 at cycle   4 NSaved=   4.
 NSaved= 4 IEnMin= 4 EnMin= -2648.54942674881     IErMin= 4 ErrMin= 1.11D-03
 ErrMax= 1.11D-03  0.00D+00 EMaxC= 1.00D-01 BMatC= 1.47D-04 BMatP= 1.95D-02
 IDIUse=3 WtCom= 9.89D-01 WtEn= 1.11D-02
 Coeff-Com: -0.443D-02-0.219D-01 0.423D-01 0.984D+00
 Coeff-En:   0.000D+00 0.000D+00 0.000D+00 0.100D+01
 Coeff:     -0.438D-02-0.217D-01 0.419D-01 0.984D+00
 Gap=     0.335 Goal=   None    Shift=    0.000
 RMSDP=5.24D-05 MaxDP=1.31D-03 DE=-1.26D-02 OVMax= 3.85D-03

 Cycle   5  Pass 1  IDiag  1:
 E= -2648.54955120397     Delta-E=       -0.000124455161 Rises=F Damp=F
 DIIS: error= 1.15D-04 at cycle   5 NSaved=   5.
 NSaved= 5 IEnMin= 5 EnMin= -2648.54955120397     IErMin= 5 ErrMin= 1.15D-04
 ErrMax= 1.15D-04  0.00D+00 EMaxC= 1.00D-01 BMatC= 2.71D-06 BMatP= 1.47D-04
 IDIUse=3 WtCom= 9.99D-01 WtEn= 1.15D-03
 Coeff-Com:  0.106D-02-0.490D-02-0.306D-01-0.220D+00 0.125D+01
 Coeff-En:   0.000D+00 0.000D+00 0.000D+00 0.000D+00 0.100D+01
 Coeff:      0.106D-02-0.490D-02-0.305D-01-0.220D+00 0.125D+01
 Gap=     0.335 Goal=   None    Shift=    0.000
 RMSDP=2.35D-05 MaxDP=7.08D-04 DE=-1.24D-04 OVMax= 1.23D-03

 Cycle   6  Pass 1  IDiag  1:
 E= -2648.54955940292     Delta-E=       -0.000008198953 Rises=F Damp=F
 DIIS: error= 4.68D-05 at cycle   6 NSaved=   6.
 NSaved= 6 IEnMin= 6 EnMin= -2648.54955940292     IErMin= 6 ErrMin= 4.68D-05
 ErrMax= 4.68D-05  0.00D+00 EMaxC= 1.00D-01 BMatC= 3.20D-07 BMatP= 2.71D-06
 IDIUse=1 WtCom= 1.00D+00 WtEn= 0.00D+00
 Coeff-Com:  0.241D-03 0.277D-02-0.203D-02-0.954D-01 0.494D-01 0.104D+01
 Coeff:      0.241D-03 0.277D-02-0.203D-02-0.954D-01 0.494D-01 0.104D+01
 Gap=     0.335 Goal=   None    Shift=    0.000
 RMSDP=6.26D-06 MaxDP=1.74D-04 DE=-8.20D-06 OVMax= 4.53D-04

 Cycle   7  Pass 1  IDiag  1:
 E= -2648.54956019730     Delta-E=       -0.000000794375 Rises=F Damp=F
 DIIS: error= 1.46D-05 at cycle   7 NSaved=   7.
 NSaved= 7 IEnMin= 7 EnMin= -2648.54956019730     IErMin= 7 ErrMin= 1.46D-05
 ErrMax= 1.46D-05  0.00D+00 EMaxC= 1.00D-01 BMatC= 3.53D-08 BMatP= 3.20D-07
 IDIUse=1 WtCom= 1.00D+00 WtEn= 0.00D+00
 Coeff-Com: -0.157D-03-0.119D-03 0.356D-02 0.457D-01-0.182D+00-0.667D-01
 Coeff-Com:  0.120D+01
 Coeff:     -0.157D-03-0.119D-03 0.356D-02 0.457D-01-0.182D+00-0.667D-01
 Coeff:      0.120D+01
 Gap=     0.335 Goal=   None    Shift=    0.000
 RMSDP=2.32D-06 MaxDP=5.24D-05 DE=-7.94D-07 OVMax= 1.70D-04

 Cycle   8  Pass 1  IDiag  1:
 E= -2648.54956029871     Delta-E=       -0.000000101417 Rises=F Damp=F
 DIIS: error= 4.85D-06 at cycle   8 NSaved=   8.
 NSaved= 8 IEnMin= 8 EnMin= -2648.54956029871     IErMin= 8 ErrMin= 4.85D-06
 ErrMax= 4.85D-06  0.00D+00 EMaxC= 1.00D-01 BMatC= 1.73D-09 BMatP= 3.53D-08
 IDIUse=1 WtCom= 1.00D+00 WtEn= 0.00D+00
 Coeff-Com:  0.192D-04-0.142D-03-0.642D-03-0.475D-02 0.424D-01-0.613D-01
 Coeff-Com: -0.263D+00 0.129D+01
 Coeff:      0.192D-04-0.142D-03-0.642D-03-0.475D-02 0.424D-01-0.613D-01
 Coeff:     -0.263D+00 0.129D+01
 Gap=     0.335 Goal=   None    Shift=    0.000
 RMSDP=5.04D-07 MaxDP=1.33D-05 DE=-1.01D-07 OVMax= 4.29D-05

 Cycle   9  Pass 1  IDiag  1:
 E= -2648.54956030478     Delta-E=       -0.000000006061 Rises=F Damp=F
 DIIS: error= 1.01D-06 at cycle   9 NSaved=   9.
 NSaved= 9 IEnMin= 9 EnMin= -2648.54956030478     IErMin= 9 ErrMin= 1.01D-06
 ErrMax= 1.01D-06  0.00D+00 EMaxC= 1.00D-01 BMatC= 1.32D-10 BMatP= 1.73D-09
 IDIUse=1 WtCom= 1.00D+00 WtEn= 0.00D+00
 Coeff-Com:  0.513D-05 0.241D-04-0.748D-04-0.179D-02 0.259D-02 0.165D-01
 Coeff-Com: -0.269D-01-0.235D+00 0.124D+01
 Coeff:      0.513D-05 0.241D-04-0.748D-04-0.179D-02 0.259D-02 0.165D-01
 Coeff:     -0.269D-01-0.235D+00 0.124D+01
 Gap=     0.335 Goal=   None    Shift=    0.000
 RMSDP=1.34D-07 MaxDP=3.28D-06 DE=-6.06D-09 OVMax= 1.23D-05

 Cycle  10  Pass 1  IDiag  1:
 E= -2648.54956030521     Delta-E=       -0.000000000433 Rises=F Damp=F
 DIIS: error= 2.66D-07 at cycle  10 NSaved=  10.
 NSaved=10 IEnMin=10 EnMin= -2648.54956030521     IErMin=10 ErrMin= 2.66D-07
 ErrMax= 2.66D-07  0.00D+00 EMaxC= 1.00D-01 BMatC= 1.08D-11 BMatP= 1.32D-10
 IDIUse=1 WtCom= 1.00D+00 WtEn= 0.00D+00
 Coeff-Com: -0.149D-05 0.148D-04 0.472D-04 0.254D-03-0.328D-02 0.660D-02
 Coeff-Com:  0.193D-01-0.114D+00-0.204D-01 0.111D+01
 Coeff:     -0.149D-05 0.148D-04 0.472D-04 0.254D-03-0.328D-02 0.660D-02
 Coeff:      0.193D-01-0.114D+00-0.204D-01 0.111D+01
 Gap=     0.335 Goal=   None    Shift=    0.000
 RMSDP=4.53D-08 MaxDP=1.30D-06 DE=-4.33D-10 OVMax= 3.42D-06

 Cycle  11  Pass 1  IDiag  1:
 E= -2648.54956030525     Delta-E=       -0.000000000044 Rises=F Damp=F
 DIIS: error= 9.56D-08 at cycle  11 NSaved=  11.
 NSaved=11 IEnMin=11 EnMin= -2648.54956030525     IErMin=11 ErrMin= 9.56D-08
 ErrMax= 9.56D-08  0.00D+00 EMaxC= 1.00D-01 BMatC= 8.66D-13 BMatP= 1.08D-11
 IDIUse=1 WtCom= 1.00D+00 WtEn= 0.00D+00
 Coeff-Com: -0.132D-06-0.407D-05-0.241D-05 0.107D-03 0.333D-03-0.231D-02
 Coeff-Com: -0.570D-03 0.353D-01-0.103D+00-0.112D+00 0.118D+01
 Coeff:     -0.132D-06-0.407D-05-0.241D-05 0.107D-03 0.333D-03-0.231D-02
 Coeff:     -0.570D-03 0.353D-01-0.103D+00-0.112D+00 0.118D+01
 Gap=     0.335 Goal=   None    Shift=    0.000
 RMSDP=1.28D-08 MaxDP=3.44D-07 DE=-4.37D-11 OVMax= 1.03D-06

 Cycle  12  Pass 1  IDiag  1:
 E= -2648.54956030525     Delta-E=        0.000000000004 Rises=F Damp=F
 DIIS: error= 3.06D-08 at cycle  12 NSaved=  12.
 NSaved=12 IEnMin=11 EnMin= -2648.54956030525     IErMin=12 ErrMin= 3.06D-08
 ErrMax= 3.06D-08  0.00D+00 EMaxC= 1.00D-01 BMatC= 6.80D-14 BMatP= 8.66D-13
 IDIUse=1 WtCom= 1.00D+00 WtEn= 0.00D+00
 Coeff-Com:  0.114D-06-0.867D-06-0.248D-05-0.252D-04 0.208D-03-0.420D-03
 Coeff-Com: -0.126D-02 0.640D-02 0.643D-02-0.742D-01-0.125D+00 0.119D+01
 Coeff:      0.114D-06-0.867D-06-0.248D-05-0.252D-04 0.208D-03-0.420D-03
 Coeff:     -0.126D-02 0.640D-02 0.643D-02-0.742D-01-0.125D+00 0.119D+01
 Gap=     0.335 Goal=   None    Shift=    0.000
 RMSDP=3.62D-09 MaxDP=6.93D-08 DE= 3.64D-12 OVMax= 2.50D-07

 SCF Done:  E(RHF) =  -2648.54956031     A.U. after   12 cycles
            NFock= 12  Conv=0.36D-08     -V/T= 2.0001
 KE= 2.648227953283D+03 PE=-6.483550664712D+03 EE= 1.118550008254D+03
 Leave Link  502 at Tue Oct 12 14:18:06 2021, MaxMem=  1048576000 cpu:        12.8
 (Enter /usr/local/gaussian/g09/l801.exe)
 ExpMin= 2.53D-02 ExpMax= 1.06D+07 ExpMxC= 1.21D+04 IAcc=3 IRadAn=         5 AccDes= 0.00D+00
 HarFok:  IExCor=  205 AccDes= 0.00D+00 IRadAn=         5 IDoV=-2 UseB2=F ITyADJ=14
 ICtDFT= 12500011 ScaDFX=  1.000000  1.000000  1.000000  1.000000
 Largest valence mixing into a core orbital is  1.31D-04
 Largest core mixing into a valence orbital is  3.59D-05
 Range of M.O.s used for correlation:    11   151
 NBasis=   151 NAE=    23 NBE=    23 NFC=    10 NFV=     0
 NROrb=    141 NOA=    13 NOB=    13 NVA=   128 NVB=   128

 **** Warning!!: The largest alpha MO coefficient is  0.15471569D+02

 Leave Link  801 at Tue Oct 12 14:18:06 2021, MaxMem=  1048576000 cpu:         0.7
 (Enter /usr/local/gaussian/g09/l906.exe)
 Frozen-core derivative calculation, NFC=  10 NFV=   0.
 FulOut=F Deriv=T AODrv=F NAtomX=     4
   MMem=         391  MDisk=          13 MDiskD=          13
  W3Min=      604302 MinDsk=     1007783 NBas6D=         174
 NBas2D=       15618    NTT=       15225    LW2=     9911920
    MDV=  1048225830 MDiskM=       30063 NBas2p=       15367
 Fully in-core method, ICMem=   275066562.
 IMap=   1   2   3   4   5   6   7   8   9  10  11  12  13  14  15  16  17  18  19  20
 IMap=  21  22  23
 JobTyp=1 Pass  1 fully in-core, NPsUse= 12.
 Compute canonical integrals.
 FoFCou: FMM=F IPFlag=           0 FMFlag=           0 FMFlg1=           0
         NFxFlg=           0 DoJE=F BraDBF=F KetDBF=F FulRan=T
         wScrn=  0.000000 ICntrl=     600 IOpCl=  1 I1Cent=           0 NGrid=           0
         NMat0=    1 NMatS0=  15618 NMatT0=    0 NMatD0=    1 NMtDS0=    0 NMtDT0=    0
 Symmetry not used in FoFCou.
 Spin components of T(2) and E(2):
     alpha-alpha T2 =       0.2262674823D-01 E2=     -0.7308222061D-01
     alpha-beta  T2 =       0.1192766140D+00 E2=     -0.3919694168D+00
     beta-beta   T2 =       0.2262674823D-01 E2=     -0.7308222061D-01
 The integrals were generated   1 times.
 ANorm=    0.1079133963D+01
 E2 =    -0.5381338580D+00 EUMP2 =    -0.26490876941632D+04
 Leave Link  906 at Tue Oct 12 14:18:12 2021, MaxMem=  1048576000 cpu:        71.4
 (Enter /usr/local/gaussian/g09/l1002.exe)
 Minotr:  Closed shell wavefunction.
          Computing MP2/KS-MP2 derivatives.
          Using Z-Vector for PSCF gradient.
          Skipping F1 and S1 gradient terms here.
          Frozen-core window.
          Direct CPHF calculation.
          Differentiating once with respect to electric field.
                with respect to dipole field.
          Electric field/nuclear overlap derivatives assumed to be zero.
          Requested convergence is 1.0D-10 RMS, and 1.0D-09 maximum.
          NewPWx=F KeepS1=T KeepF1=T KeepIn=T MapXYZ=F SortEE=F KeepMc=T.
          MDV=    1048575823 using IRadAn=       0.
 Keep R1 ints in memory in canonical form, NReq=69224423.
 FoFCou: FMM=F IPFlag=           0 FMFlag=           0 FMFlg1=           0
         NFxFlg=           0 DoJE=F BraDBF=F KetDBF=F FulRan=T
         wScrn=  0.000000 ICntrl=     600 IOpCl=  0 I1Cent=           0 NGrid=           0
         NMat0=    1 NMatS0=  11476 NMatT0=    0 NMatD0=    1 NMtDS0=    0 NMtDT0=    0
 Symmetry not used in FoFCou.
          Solving linear equations separately, MaxMat=       0.
          There are     1 degrees of freedom in the 1st order CPHF.  IDoFFX=0 NUNeed=     1.
 LinEq1:  Iter=  0 NonCon=     1 RMS=3.16D-03 Max=7.72D-02 NDo=     1
 AX will form     1 AO Fock derivatives at one time.
 LinEq1:  Iter=  1 NonCon=     1 RMS=5.52D-04 Max=8.68D-03 NDo=     1
 LinEq1:  Iter=  2 NonCon=     1 RMS=2.10D-04 Max=2.97D-03 NDo=     1
 LinEq1:  Iter=  3 NonCon=     1 RMS=7.73D-05 Max=1.19D-03 NDo=     1
 LinEq1:  Iter=  4 NonCon=     1 RMS=3.78D-05 Max=5.57D-04 NDo=     1
 LinEq1:  Iter=  5 NonCon=     1 RMS=9.93D-06 Max=1.42D-04 NDo=     1
 LinEq1:  Iter=  6 NonCon=     1 RMS=2.17D-06 Max=3.02D-05 NDo=     1
 LinEq1:  Iter=  7 NonCon=     1 RMS=4.78D-07 Max=6.58D-06 NDo=     1
 LinEq1:  Iter=  8 NonCon=     1 RMS=1.29D-07 Max=1.28D-06 NDo=     1
 LinEq1:  Iter=  9 NonCon=     1 RMS=2.14D-08 Max=2.75D-07 NDo=     1
 LinEq1:  Iter= 10 NonCon=     1 RMS=3.63D-09 Max=5.63D-08 NDo=     1
 LinEq1:  Iter= 11 NonCon=     1 RMS=8.68D-10 Max=1.11D-08 NDo=     1
 LinEq1:  Iter= 12 NonCon=     1 RMS=1.64D-10 Max=2.35D-09 NDo=     1
 LinEq1:  Iter= 13 NonCon=     0 RMS=3.85D-11 Max=4.36D-10 NDo=     1
 Linear equations converged to 1.000D-10 1.000D-09 after    13 iterations.
 End of Minotr F.D. properties file   721 does not exist.
 End of Minotr F.D. properties file   722 does not exist.
 End of Minotr F.D. properties file   788 does not exist.
 Leave Link 1002 at Tue Oct 12 14:18:14 2021, MaxMem=  1048576000 cpu:        11.9
 (Enter /usr/local/gaussian/g09/l601.exe)
 Copying SCF densities to generalized density rwf, IOpCl= 0 IROHF=0.

 **********************************************************************

            Population analysis using the MP2 density.

 **********************************************************************

 Alpha  occ. eigenvalues -- -489.77379 -64.91401 -58.26863 -58.26840 -58.26840
 Alpha  occ. eigenvalues --  -20.34361  -9.58645  -7.19477  -7.19339  -7.19335
 Alpha  occ. eigenvalues --   -2.93675  -2.93606  -2.93601  -2.93430  -2.93430
 Alpha  occ. eigenvalues --   -1.07161  -0.74898  -0.42468  -0.34375  -0.27086
 Alpha  occ. eigenvalues --   -0.19070  -0.18986  -0.18868
 Alpha virt. eigenvalues --    0.14604   0.17069   0.22897   0.23618   0.24017
 Alpha virt. eigenvalues --    0.28439   0.31221   0.31688   0.32902   0.35970
 Alpha virt. eigenvalues --    0.40919   0.41777   0.42465   0.45821   0.46278
 Alpha virt. eigenvalues --    0.47524   0.47818   0.53563   0.57513   0.60298
 Alpha virt. eigenvalues --    0.62589   0.62703   0.67817   0.71810   0.73081
 Alpha virt. eigenvalues --    0.73991   0.80789   0.88679   0.91027   0.93309
 Alpha virt. eigenvalues --    0.95703   0.96758   0.97985   0.98824   0.98968
 Alpha virt. eigenvalues --    1.00805   1.03600   1.04799   1.09194   1.11419
 Alpha virt. eigenvalues --    1.11670   1.13457   1.16719   1.16800   1.19630
 Alpha virt. eigenvalues --    1.21028   1.21865   1.24161   1.25806   1.27605
 Alpha virt. eigenvalues --    1.34454   1.38921   1.45312   1.47550   1.47632
 Alpha virt. eigenvalues --    1.52335   1.66378   1.67704   1.72795   1.73853
 Alpha virt. eigenvalues --    1.74750   1.81357   1.98794   2.02452   2.13340
 Alpha virt. eigenvalues --    2.32570   2.41561   2.42168   2.44031   2.48707
 Alpha virt. eigenvalues --    2.52202   2.52617   2.53551   2.53604   2.54958
 Alpha virt. eigenvalues --    2.55026   2.55566   2.56075   2.60969   2.63834
 Alpha virt. eigenvalues --    2.64757   2.64855   2.68715   2.71271   2.73438
 Alpha virt. eigenvalues --    2.73951   2.78779   2.98573   2.99967   3.06070
 Alpha virt. eigenvalues --    3.15526   3.15852   3.42272   3.88953   3.94763
 Alpha virt. eigenvalues --    4.15943   4.18603   4.30152   4.33867   4.41468
 Alpha virt. eigenvalues --    4.48403   4.51720   4.55003   4.61320   4.68612
 Alpha virt. eigenvalues --    4.75622   4.86207   4.99912   5.15391   5.24080
 Alpha virt. eigenvalues --    5.43649   5.57275   5.58189   6.22844   6.56067
 Alpha virt. eigenvalues --    6.92576   7.00973   7.08331   7.24920   7.44965
 Alpha virt. eigenvalues --    7.48681   7.56128   7.57907   7.60757   7.77874
 Alpha virt. eigenvalues --    7.99035   8.46196  14.49569
          Condensed to atoms (all electrons):
               1          2          3          4
     1  O    8.369941   0.188340  -0.095955   0.184231
     2  H    0.188340   0.629759  -0.004824   0.035624
     3  Br  -0.095955  -0.004824  35.788678   0.028650
     4  H    0.184231   0.035624   0.028650   0.539490
 Mulliken charges:
               1
     1  O   -0.646557
     2  H    0.151101
     3  Br  -0.716549
     4  H    0.212004
 Sum of Mulliken charges =  -1.00000
 Mulliken charges with hydrogens summed into heavy atoms:
               1
     1  O   -0.283451
     3  Br  -0.716549
 Electronic spatial extent (au):  <R**2>=           1429.4132
 Charge=             -1.0000 electrons
 Dipole moment (field-independent basis, Debye):
    X=              3.1593    Y=              9.6149    Z=             -0.0000  Tot=             10.1207
 Quadrupole moment (field-independent basis, Debye-Ang):
   XX=            -30.2980   YY=            -64.6796   ZZ=            -31.5189
   XY=             -6.5916   XZ=             -0.0000   YZ=             -0.0000
 Traceless Quadrupole moment (field-independent basis, Debye-Ang):
   XX=             11.8675   YY=            -22.5141   ZZ=             10.6466
   XY=             -6.5916   XZ=             -0.0000   YZ=             -0.0000
 Octapole moment (field-independent basis, Debye-Ang**2):
  XXX=             45.3623  YYY=            325.6532  ZZZ=             -0.0000  XYY=             36.1160
  XXY=             76.9463  XXZ=             -0.0000  XZZ=             14.2141  YZZ=             72.4486
  YYZ=              0.0000  XYZ=              0.0000
 Hexadecapole moment (field-independent basis, Debye-Ang**3):
 XXXX=           -105.6388 YYYY=          -1752.2531 ZZZZ=            -47.7264 XXXY=           -145.0916
 XXXZ=             -0.0000 YYYX=           -208.6155 YYYZ=             -0.0000 ZZZX=             -0.0000
 ZZZY=              0.0000 XXYY=           -268.7821 XXZZ=            -25.8070 YYZZ=           -245.4141
 XXYZ=              0.0000 YYXZ=             -0.0000 ZZXY=            -47.4555
 N-N= 6.822314286952D+01 E-N=-6.482038014076D+03  KE= 2.648114459864D+03
 No NMR shielding tensors so no spin-rotation constants.
 Leave Link  601 at Tue Oct 12 14:18:14 2021, MaxMem=  1048576000 cpu:         2.1
 (Enter /usr/local/gaussian/g09/l607.exe)
 ******************************Gaussian NBO Version 3.1******************************
             N A T U R A L   A T O M I C   O R B I T A L   A N D
          N A T U R A L   B O N D   O R B I T A L   A N A L Y S I S
 ******************************Gaussian NBO Version 3.1******************************
       /RESON  / : Allow strongly delocalized NBO set

 Analyzing the MP2 density

 Job title: title                                                           

 Storage needed:     69217 in NPA,     91732 in NBO (1048575904 available)


 NATURAL POPULATIONS:  Natural atomic orbital occupancies 
                                                          
   NAO  Atom  No  lang   Type(AO)    Occupancy
 --------------------------------------------
     1    O    1  S      Cor( 1S)     1.99972
     2    O    1  S      Val( 2S)     1.79884
     3    O    1  S      Ryd( 3S)     0.00764
     4    O    1  S      Ryd( 4S)     0.00034
     5    O    1  S      Ryd( 5S)     0.00019
     6    O    1  px     Val( 2p)     1.51664
     7    O    1  px     Ryd( 3p)     0.01305
     8    O    1  px     Ryd( 4p)     0.00058
     9    O    1  px     Ryd( 5p)     0.00014
    10    O    1  py     Val( 2p)     1.69775
    11    O    1  py     Ryd( 3p)     0.01462
    12    O    1  py     Ryd( 4p)     0.00056
    13    O    1  py     Ryd( 5p)     0.00007
    14    O    1  pz     Val( 2p)     1.95102
    15    O    1  pz     Ryd( 3p)     0.02472
    16    O    1  pz     Ryd( 4p)     0.00057
    17    O    1  pz     Ryd( 5p)     0.00000
    18    O    1  dxy    Ryd( 3d)     0.00816
    19    O    1  dxy    Ryd( 4d)     0.00049
    20    O    1  dxy    Ryd( 5d)     0.00008
    21    O    1  dxz    Ryd( 3d)     0.00878
    22    O    1  dxz    Ryd( 4d)     0.00052
    23    O    1  dxz    Ryd( 5d)     0.00008
    24    O    1  dyz    Ryd( 3d)     0.00682
    25    O    1  dyz    Ryd( 4d)     0.00057
    26    O    1  dyz    Ryd( 5d)     0.00008
    27    O    1  dx2y2  Ryd( 3d)     0.01147
    28    O    1  dx2y2  Ryd( 4d)     0.00047
    29    O    1  dx2y2  Ryd( 5d)     0.00011
    30    O    1  dz2    Ryd( 3d)     0.00789
    31    O    1  dz2    Ryd( 4d)     0.00059
    32    O    1  dz2    Ryd( 5d)     0.00011
    33    O    1  f(0)   Ryd( 4f)     0.00061
    34    O    1  f(0)   Ryd( 5f)     0.00011
    35    O    1  f(C1)  Ryd( 4f)     0.00056
    36    O    1  f(C1)  Ryd( 5f)     0.00009
    37    O    1  f(S1)  Ryd( 4f)     0.00061
    38    O    1  f(S1)  Ryd( 5f)     0.00011
    39    O    1  f(C2)  Ryd( 4f)     0.00049
    40    O    1  f(C2)  Ryd( 5f)     0.00010
    41    O    1  f(S2)  Ryd( 4f)     0.00047
    42    O    1  f(S2)  Ryd( 5f)     0.00008
    43    O    1  f(C3)  Ryd( 4f)     0.00047
    44    O    1  f(C3)  Ryd( 5f)     0.00013
    45    O    1  f(S3)  Ryd( 4f)     0.00047
    46    O    1  f(S3)  Ryd( 5f)     0.00011

    47    H    2  S      Val( 1S)     0.56254
    48    H    2  S      Ryd( 2S)     0.00240
    49    H    2  S      Ryd( 3S)     0.00016
    50    H    2  S      Ryd( 4S)     0.00009
    51    H    2  px     Ryd( 2p)     0.00231
    52    H    2  px     Ryd( 3p)     0.00077
    53    H    2  px     Ryd( 4p)     0.00014
    54    H    2  py     Ryd( 2p)     0.00262
    55    H    2  py     Ryd( 3p)     0.00024
    56    H    2  py     Ryd( 4p)     0.00012
    57    H    2  pz     Ryd( 2p)     0.00519
    58    H    2  pz     Ryd( 3p)     0.00020
    59    H    2  pz     Ryd( 4p)     0.00006
    60    H    2  dxy    Ryd( 3d)     0.00007
    61    H    2  dxy    Ryd( 4d)     0.00005
    62    H    2  dxz    Ryd( 3d)     0.00008
    63    H    2  dxz    Ryd( 4d)     0.00007
    64    H    2  dyz    Ryd( 3d)     0.00012
    65    H    2  dyz    Ryd( 4d)     0.00005
    66    H    2  dx2y2  Ryd( 3d)     0.00011
    67    H    2  dx2y2  Ryd( 4d)     0.00006
    68    H    2  dz2    Ryd( 3d)     0.00013
    69    H    2  dz2    Ryd( 4d)     0.00007

    70   Br    3  S      Cor( 1S)     2.00000
    71   Br    3  S      Cor( 2S)     2.00000
    72   Br    3  S      Cor( 3S)     1.99961
    73   Br    3  S      Val( 4S)     1.94938
    74   Br    3  S      Ryd( 5S)     0.00160
    75   Br    3  S      Ryd( 6S)     0.00040
    76   Br    3  S      Ryd( 7S)     0.00010
    77   Br    3  px     Cor( 2p)     2.00000
    78   Br    3  px     Cor( 3p)     1.99997
    79   Br    3  px     Val( 4p)     1.94534
    80   Br    3  px     Ryd( 5p)     0.01065
    81   Br    3  px     Ryd( 6p)     0.00081
    82   Br    3  px     Ryd( 7p)     0.00005
    83   Br    3  py     Cor( 2p)     2.00000
    84   Br    3  py     Cor( 3p)     1.99986
    85   Br    3  py     Val( 4p)     1.75249
    86   Br    3  py     Ryd( 5p)     0.00879
    87   Br    3  py     Ryd( 6p)     0.00076
    88   Br    3  py     Ryd( 7p)     0.00018
    89   Br    3  pz     Cor( 2p)     2.00000
    90   Br    3  pz     Cor( 3p)     1.99998
    91   Br    3  pz     Val( 4p)     1.95444
    92   Br    3  pz     Ryd( 5p)     0.01071
    93   Br    3  pz     Ryd( 6p)     0.00080
    94   Br    3  pz     Ryd( 7p)     0.00002
    95   Br    3  dxy    Cor( 3d)     1.99765
    96   Br    3  dxy    Ryd( 4d)     0.01846
    97   Br    3  dxy    Ryd( 5d)     0.00133
    98   Br    3  dxy    Ryd( 6d)     0.00023
    99   Br    3  dxz    Cor( 3d)     1.99769
   100   Br    3  dxz    Ryd( 4d)     0.01833
   101   Br    3  dxz    Ryd( 5d)     0.00168
   102   Br    3  dxz    Ryd( 6d)     0.00020
   103   Br    3  dyz    Cor( 3d)     1.99766
   104   Br    3  dyz    Ryd( 4d)     0.01835
   105   Br    3  dyz    Ryd( 5d)     0.00134
   106   Br    3  dyz    Ryd( 6d)     0.00022
   107   Br    3  dx2y2  Cor( 3d)     1.99760
   108   Br    3  dx2y2  Ryd( 4d)     0.01890
   109   Br    3  dx2y2  Ryd( 5d)     0.00150
   110   Br    3  dx2y2  Ryd( 6d)     0.00022
   111   Br    3  dz2    Cor( 3d)     1.99766
   112   Br    3  dz2    Ryd( 4d)     0.01859
   113   Br    3  dz2    Ryd( 5d)     0.00164
   114   Br    3  dz2    Ryd( 6d)     0.00020
   115   Br    3  f(0)   Ryd( 4f)     0.00172
   116   Br    3  f(0)   Ryd( 5f)     0.00024
   117   Br    3  f(C1)  Ryd( 4f)     0.00174
   118   Br    3  f(C1)  Ryd( 5f)     0.00024
   119   Br    3  f(S1)  Ryd( 4f)     0.00177
   120   Br    3  f(S1)  Ryd( 5f)     0.00026
   121   Br    3  f(C2)  Ryd( 4f)     0.00170
   122   Br    3  f(C2)  Ryd( 5f)     0.00024
   123   Br    3  f(S2)  Ryd( 4f)     0.00172
   124   Br    3  f(S2)  Ryd( 5f)     0.00024
   125   Br    3  f(C3)  Ryd( 4f)     0.00170
   126   Br    3  f(C3)  Ryd( 5f)     0.00025
   127   Br    3  f(S3)  Ryd( 4f)     0.00176
   128   Br    3  f(S3)  Ryd( 5f)     0.00027

   129    H    4  S      Val( 1S)     0.58434
   130    H    4  S      Ryd( 2S)     0.00551
   131    H    4  S      Ryd( 3S)     0.00046
   132    H    4  S      Ryd( 4S)     0.00016
   133    H    4  px     Ryd( 2p)     0.00403
   134    H    4  px     Ryd( 3p)     0.00039
   135    H    4  px     Ryd( 4p)     0.00007
   136    H    4  py     Ryd( 2p)     0.00382
   137    H    4  py     Ryd( 3p)     0.00113
   138    H    4  py     Ryd( 4p)     0.00014
   139    H    4  pz     Ryd( 2p)     0.00421
   140    H    4  pz     Ryd( 3p)     0.00032
   141    H    4  pz     Ryd( 4p)     0.00006
   142    H    4  dxy    Ryd( 3d)     0.00029
   143    H    4  dxy    Ryd( 4d)     0.00008
   144    H    4  dxz    Ryd( 3d)     0.00020
   145    H    4  dxz    Ryd( 4d)     0.00005
   146    H    4  dyz    Ryd( 3d)     0.00030
   147    H    4  dyz    Ryd( 4d)     0.00008
   148    H    4  dx2y2  Ryd( 3d)     0.00020
   149    H    4  dx2y2  Ryd( 4d)     0.00012
   150    H    4  dz2    Ryd( 3d)     0.00020
   151    H    4  dz2    Ryd( 4d)     0.00007

 WARNING:  5 low occupancy (<1.9990e) core orbitals found on Br    3


 Summary of Natural Population Analysis:                  
                                                          
                                       Natural Population 
                Natural  -----------------------------------------------
    Atom  No    Charge         Core      Valence    Rydberg      Total
 -----------------------------------------------------------------------
      O    1   -1.07707      1.99972     6.96425    0.11311     9.07707
      H    2    0.42237      0.00000     0.56254    0.01509     0.57763
     Br    3   -0.73923     27.98767     7.60165    0.14990    35.73923
      H    4    0.39380      0.00000     0.58434    0.02187     0.60620
 =======================================================================
   * Total *   -1.00013     29.98739    15.71277    0.29997    46.00013

                                 Natural Population      
 --------------------------------------------------------
   Core                      29.98739 ( 99.9580% of  30)
   Valence                   15.71277 ( 98.2048% of  16)
   Natural Minimal Basis     45.70016 ( 99.3482% of  46)
   Natural Rydberg Basis      0.29997 (  0.6521% of  46)
 --------------------------------------------------------

    Atom  No          Natural Electron Configuration
 ----------------------------------------------------------------------------
      O    1      [core]2S( 1.80)2p( 5.17)3S( 0.01)3p( 0.05)3d( 0.04)
      H    2            1S( 0.56)2p( 0.01)
     Br    3      [core]4S( 1.95)4p( 5.65)4d( 0.09)5p( 0.03)4f( 0.01)5d( 0.01)
      H    4            1S( 0.58)2S( 0.01)2p( 0.01)


 NATURAL BOND ORBITAL ANALYSIS:
 Warning:  a bond orbital has occupanc of -0.00002
 Warning:  a bond orbital has occupanc of -0.00026

                       Occupancies       Lewis Structure    Low   High
           Occ.    -------------------  -----------------   occ   occ
  Cycle   Thresh.   Lewis   Non-Lewis     CR  BD  3C  LP    (L)   (NL)   Dev
 =============================================================================
   1(1)    1.90    45.42977   0.57023     15   2   0   6     1      1    0.33
 Warning:  a bond orbital has occupanc of -0.00002
 Warning:  a bond orbital has occupanc of -0.00026
   2(2)    1.90    45.35301   0.64699     15   2   0   6     1      1    0.43
 Warning:  a bond orbital has occupanc of -0.00002
 Warning:  a bond orbital has occupanc of -0.00026
   3(3)    1.90    45.42977   0.57023     15   2   0   6     1      1    0.33
 Warning:  a bond orbital has occupanc of -0.00002
 Warning:  a bond orbital has occupanc of -0.00026
   4(1)    1.80    45.42977   0.57023     15   2   0   6     1      1    0.33
 Warning:  a bond orbital has occupanc of -0.00002
 Warning:  a bond orbital has occupanc of -0.00026
   5(2)    1.80    45.35301   0.64699     15   2   0   6     1      1    0.43
 Warning:  a bond orbital has occupanc of -0.00002
 Warning:  a bond orbital has occupanc of -0.00026
   6(3)    1.80    45.42977   0.57023     15   2   0   6     1      1    0.33
 Warning:  a bond orbital has occupanc of -0.00002
 Warning:  a bond orbital has occupanc of -0.00026
   7(1)    1.70    45.42977   0.57023     15   2   0   6     0      1    0.33
 Warning:  a bond orbital has occupanc of -0.00002
 Warning:  a bond orbital has occupanc of -0.00026
   8(2)    1.70    45.42977   0.57023     15   2   0   6     0      1    0.33
 Warning:  a bond orbital has occupanc of -0.00002
 Warning:  a bond orbital has occupanc of -0.00026
   9(1)    1.60    45.11715   0.88285     15   1   0   7     0      1    0.43
 Warning:  a bond orbital has occupanc of -0.00002
 Warning:  a bond orbital has occupanc of -0.00026
  10(2)    1.60    45.11715   0.88285     15   1   0   7     0      1    0.43
 Warning:  a bond orbital has occupanc of -0.00002
 Warning:  a bond orbital has occupanc of -0.00026
  11(1)    1.50    45.11715   0.88285     15   1   0   7     0      1    0.43
 Warning:  a bond orbital has occupanc of -0.00002
 Warning:  a bond orbital has occupanc of -0.00026
  12(2)    1.50    45.11715   0.88285     15   1   0   7     0      1    0.43
 Warning:  a bond orbital has occupanc of -0.00002
 Warning:  a bond orbital has occupanc of -0.00026
  13(1)    1.90    45.42977   0.57023     15   2   0   6     1      1    0.33
 -----------------------------------------------------------------------------

 Structure accepted: RESONANCE keyword permits strongly delocalized structure

 WARNING:  5 low occupancy (<1.9990e) core orbitals found on Br    3

 --------------------------------------------------------
   Core                     29.98739 ( 99.958% of  30)
   Valence Lewis            15.44238 ( 96.515% of  16)
  ==================       ============================
   Total Lewis              45.42977 ( 98.760% of  46)
  -----------------------------------------------------
   Valence non-Lewis         0.29423 (  0.640% of  46)
   Rydberg non-Lewis         0.27600 (  0.600% of  46)
  ==================       ============================
   Total non-Lewis           0.57023 (  1.240% of  46)
 --------------------------------------------------------


       (Occupancy)   Bond orbital/ Coefficients/ Hybrids
 ---------------------------------------------------------------------------------
     1. (1.96245) BD ( 1) O   1 - H   2  
                ( 72.13%)   0.8493* O   1 s( 21.65%)p 3.60( 77.86%)d 0.02(  0.48%)
                                                  f 0.00(  0.01%)
                                            0.0003  0.4652 -0.0104 -0.0034 -0.0016
                                            0.8810 -0.0424 -0.0097 -0.0071  0.0191
                                           -0.0054  0.0017 -0.0024  0.0000  0.0000
                                            0.0000  0.0000 -0.0130  0.0039 -0.0022
                                            0.0000  0.0000  0.0000  0.0000  0.0000
                                            0.0000  0.0583 -0.0059  0.0040 -0.0336
                                            0.0009  0.0002  0.0000  0.0000 -0.0096
                                            0.0004 -0.0005  0.0002  0.0000  0.0000
                                            0.0000  0.0000  0.0057  0.0033  0.0004
                                           -0.0003
                ( 27.87%)   0.5279* H   2 s( 99.82%)p 0.00(  0.18%)d 0.00(  0.00%)
                                            0.9991  0.0052  0.0001 -0.0003  0.0241
                                           -0.0334 -0.0038 -0.0074  0.0005  0.0002
                                            0.0000  0.0000  0.0000  0.0001  0.0024
                                            0.0000  0.0000  0.0000  0.0000  0.0022
                                            0.0029 -0.0025 -0.0014
     2. (1.95168) BD ( 1) O   1 - H   4  
                ( 81.40%)   0.9022* O   1 s( 15.93%)p 5.26( 83.83%)d 0.01(  0.23%)
                                                  f 0.00(  0.01%)
                                           -0.0002 -0.3991 -0.0081 -0.0008 -0.0014
                                            0.1893 -0.0124 -0.0013 -0.0024  0.8957
                                            0.0076 -0.0017 -0.0030  0.0000  0.0000
                                            0.0000  0.0000  0.0178 -0.0026  0.0009
                                            0.0000  0.0000  0.0000  0.0000  0.0000
                                            0.0000  0.0373 -0.0056  0.0002  0.0226
                                           -0.0036 -0.0010  0.0000  0.0000 -0.0012
                                           -0.0002 -0.0080  0.0024  0.0000  0.0000
                                            0.0000  0.0000 -0.0025  0.0003 -0.0007
                                            0.0011
                ( 18.60%)   0.4313* H   4 s( 99.83%)p 0.00(  0.16%)d 0.00(  0.01%)
                                           -0.9988 -0.0256  0.0123  0.0045 -0.0228
                                           -0.0046 -0.0016  0.0004 -0.0302 -0.0107
                                            0.0000  0.0000  0.0000  0.0008 -0.0025
                                            0.0000  0.0000  0.0000  0.0000  0.0042
                                            0.0065  0.0035  0.0044
     3. (1.99972) CR ( 1) O   1           s(100.00%)
                                            1.0000 -0.0004  0.0000  0.0000  0.0000
                                           -0.0001  0.0000  0.0000  0.0000  0.0001
                                            0.0000 -0.0000 -0.0000  0.0000  0.0000
                                            0.0000  0.0000  0.0000 -0.0000  0.0000
                                            0.0000  0.0000  0.0000  0.0000  0.0000
                                            0.0000 -0.0000 -0.0000 -0.0000  0.0000
                                           -0.0000 -0.0000  0.0000  0.0000  0.0000
                                            0.0000 -0.0000  0.0000  0.0000  0.0000
                                            0.0000  0.0000 -0.0000 -0.0000 -0.0000
                                            0.0000
     4. (2.00000) CR ( 1)Br   3           s(100.00%)
                                            1.0000  0.0000  0.0000  0.0000  0.0000
                                            0.0000 -0.0000  0.0000 -0.0000 -0.0000
                                            0.0000  0.0000 -0.0000  0.0000 -0.0000
                                           -0.0000  0.0000 -0.0000 -0.0000  0.0000
                                            0.0000  0.0000  0.0000  0.0000  0.0000
                                           -0.0000 -0.0000 -0.0000 -0.0000  0.0000
                                            0.0000  0.0000  0.0000  0.0000  0.0000
                                            0.0000  0.0000  0.0000  0.0000 -0.0000
                                            0.0000  0.0000  0.0000  0.0000  0.0000
                                            0.0000  0.0000  0.0000 -0.0000  0.0000
                                           -0.0000  0.0000  0.0000  0.0000  0.0000
                                            0.0000 -0.0000  0.0000 -0.0000
     5. (2.00000) CR ( 2)Br   3           s(100.00%)
                                            0.0000  1.0000 -0.0000 -0.0000 -0.0000
                                           -0.0000  0.0000 -0.0000  0.0000  0.0000
                                           -0.0000 -0.0000  0.0000 -0.0000  0.0000
                                            0.0000 -0.0000  0.0000  0.0000  0.0000
                                            0.0000  0.0000  0.0000  0.0000  0.0000
                                            0.0000  0.0000  0.0000  0.0000  0.0000
                                            0.0000  0.0000  0.0000  0.0000  0.0000
                                            0.0000  0.0000 -0.0000 -0.0000  0.0000
                                           -0.0000 -0.0000 -0.0000 -0.0000 -0.0000
                                            0.0000  0.0000  0.0000  0.0000 -0.0000
                                            0.0000  0.0000  0.0000  0.0000  0.0000
                                            0.0000  0.0000 -0.0000  0.0000
     6. (1.99961) CR ( 3)Br   3           s(100.00%)p 0.00(  0.00%)
                                            0.0000 -0.0000  1.0000 -0.0004 -0.0000
                                           -0.0000  0.0000 -0.0000  0.0000  0.0000
                                           -0.0000 -0.0000  0.0000 -0.0000  0.0000
                                            0.0001 -0.0000  0.0000  0.0000  0.0000
                                            0.0000  0.0000  0.0000  0.0000  0.0000
                                            0.0000  0.0000  0.0000  0.0000  0.0000
                                            0.0000  0.0000  0.0000  0.0000  0.0000
                                            0.0000  0.0000 -0.0000 -0.0000  0.0000
                                           -0.0000 -0.0000 -0.0000 -0.0000 -0.0000
                                            0.0000  0.0000 -0.0000  0.0000 -0.0000
                                            0.0000  0.0000  0.0000  0.0000  0.0000
                                           -0.0000  0.0000 -0.0000  0.0000
     7. (2.00000) CR ( 4)Br   3           s(  0.00%)p 1.00(100.00%)
                                            0.0000 -0.0000 -0.0000 -0.0000  0.0000
                                            0.0000 -0.0000  1.0000  0.0000  0.0000
                                            0.0000  0.0000 -0.0000  0.0000 -0.0000
                                           -0.0000 -0.0000 -0.0000 -0.0000  0.0000
                                            0.0000  0.0000  0.0000  0.0000  0.0000
                                           -0.0000  0.0000 -0.0000 -0.0000  0.0000
                                            0.0000  0.0000  0.0000  0.0000  0.0000
                                            0.0000  0.0000 -0.0000  0.0000 -0.0000
                                           -0.0000 -0.0000 -0.0000  0.0000 -0.0000
                                            0.0000  0.0000 -0.0000 -0.0000  0.0000
                                            0.0000  0.0000  0.0000  0.0000  0.0000
                                           -0.0000 -0.0000  0.0000  0.0000
     8. (1.99997) CR ( 5)Br   3           s(  0.00%)p 1.00(100.00%)
                                           -0.0000  0.0000  0.0000  0.0000 -0.0000
                                           -0.0000  0.0000  0.0000  1.0000 -0.0004
                                           -0.0000 -0.0000  0.0000 -0.0000  0.0000
                                            0.0001  0.0000  0.0000  0.0000  0.0000
                                            0.0000  0.0000  0.0000  0.0000  0.0000
                                            0.0000 -0.0000  0.0000  0.0000  0.0000
                                            0.0000  0.0000  0.0000  0.0000  0.0000
                                            0.0000  0.0000  0.0000 -0.0000  0.0000
                                            0.0000  0.0000  0.0000 -0.0000  0.0000
                                            0.0000  0.0000  0.0000  0.0000 -0.0000
                                           -0.0000  0.0000  0.0000  0.0000  0.0000
                                            0.0000  0.0000 -0.0000 -0.0000
     9. (2.00000) CR ( 6)Br   3           s(  0.00%)p 1.00(100.00%)
                                            0.0000 -0.0000 -0.0000 -0.0000 -0.0000
                                           -0.0000  0.0000  0.0000 -0.0000 -0.0000
                                           -0.0000 -0.0000  0.0000  1.0000  0.0000
                                            0.0000 -0.0000  0.0000  0.0000  0.0000
                                            0.0000  0.0000  0.0000  0.0000  0.0000
                                            0.0000 -0.0000  0.0000  0.0000  0.0000
                                            0.0000  0.0000  0.0000  0.0000  0.0000
                                            0.0000  0.0000 -0.0000 -0.0000  0.0000
                                           -0.0000 -0.0000 -0.0000 -0.0000  0.0000
                                            0.0000  0.0000  0.0000  0.0000 -0.0000
                                            0.0000  0.0000  0.0000  0.0000  0.0000
                                            0.0000  0.0000 -0.0000 -0.0000
    10. (1.99986) CR ( 7)Br   3           s(  0.00%)p 1.00(100.00%)
                                           -0.0000  0.0000  0.0000  0.0002  0.0000
                                            0.0000 -0.0000 -0.0000  0.0000  0.0001
                                            0.0000  0.0000 -0.0000  0.0000  1.0000
                                           -0.0001  0.0000 -0.0000 -0.0000  0.0000
                                            0.0000  0.0000  0.0000  0.0000  0.0000
                                           -0.0000  0.0000 -0.0000 -0.0000  0.0000
                                            0.0000  0.0000  0.0000  0.0000  0.0000
                                            0.0000  0.0000  0.0000  0.0000 -0.0000
                                            0.0000  0.0000  0.0000  0.0000  0.0000
                                            0.0000  0.0000 -0.0000 -0.0000  0.0000
                                           -0.0000  0.0000  0.0000  0.0000  0.0000
                                           -0.0000 -0.0000  0.0000  0.0000
    11. (2.00000) CR ( 8)Br   3           s(  0.00%)p 1.00(100.00%)
                                            0.0000  0.0000  0.0000  0.0000  0.0000
                                            0.0000  0.0000  0.0000  0.0000  0.0000
                                            0.0000  0.0000  0.0000  0.0000  0.0000
                                            0.0000  0.0000  0.0000  0.0000  1.0000
                                            0.0000  0.0000  0.0000  0.0000 -0.0000
                                            0.0000  0.0000  0.0000  0.0000 -0.0000
                                            0.0000 -0.0000  0.0000 -0.0000  0.0000
                                           -0.0000 -0.0000  0.0000  0.0000  0.0000
                                            0.0000  0.0000  0.0000  0.0000  0.0000
                                           -0.0000 -0.0000  0.0000  0.0000  0.0000
                                            0.0000 -0.0000 -0.0000  0.0000  0.0000
                                            0.0000  0.0000  0.0000  0.0000
    12. (1.99998) CR ( 9)Br   3           s(  0.00%)p 1.00(100.00%)
                                            0.0000  0.0000  0.0000  0.0000  0.0000
                                            0.0000  0.0000  0.0000  0.0000  0.0000
                                            0.0000  0.0000  0.0000  0.0000  0.0000
                                            0.0000  0.0000  0.0000  0.0000  0.0000
                                            1.0000 -0.0004 -0.0000 -0.0000  0.0000
                                            0.0000  0.0000  0.0000  0.0000  0.0000
                                           -0.0000  0.0000 -0.0000  0.0000 -0.0000
                                            0.0000  0.0000  0.0000  0.0000  0.0000
                                            0.0000  0.0000  0.0000  0.0000  0.0000
                                            0.0000  0.0000  0.0000  0.0000  0.0000
                                            0.0000  0.0000  0.0000 -0.0000 -0.0000
                                            0.0000  0.0000  0.0000  0.0000
    13. (1.99765) CR (10)Br   3           s(  0.00%)p 0.00(  0.00%)d 1.00(100.00%)
                                           -0.0000  0.0000  0.0000  0.0000  0.0000
                                            0.0000 -0.0000 -0.0000  0.0000  0.0000
                                            0.0000  0.0000 -0.0000  0.0000 -0.0000
                                           -0.0000  0.0000 -0.0000 -0.0000  0.0000
                                            0.0000  0.0000  0.0000  0.0000  0.0000
                                            1.0000  0.0000 -0.0000 -0.0000  0.0000
                                            0.0000  0.0000  0.0000  0.0000  0.0000
                                            0.0000  0.0000  0.0000  0.0000 -0.0000
                                           -0.0000  0.0000  0.0000  0.0000 -0.0000
                                            0.0000  0.0000 -0.0000 -0.0000  0.0000
                                           -0.0000  0.0000  0.0000  0.0000  0.0000
                                           -0.0000 -0.0000  0.0000  0.0000
    14. (1.99769) CR (11)Br   3           s(  0.00%)p 0.00(  0.00%)d 1.00(100.00%)
                                            0.0000  0.0000  0.0000  0.0000  0.0000
                                            0.0000  0.0000  0.0000  0.0000  0.0000
                                            0.0000  0.0000  0.0000  0.0000  0.0000
                                            0.0000  0.0000  0.0000  0.0000 -0.0000
                                            0.0000  0.0000  0.0000  0.0000 -0.0000
                                            0.0000  0.0000  0.0000  0.0000  1.0000
                                            0.0000 -0.0000  0.0000 -0.0000  0.0000
                                           -0.0000 -0.0000  0.0000  0.0000  0.0000
                                            0.0000  0.0000  0.0000  0.0000  0.0000
                                           -0.0000 -0.0000  0.0000  0.0000  0.0000
                                            0.0000 -0.0000 -0.0000  0.0000  0.0000
                                            0.0000  0.0000  0.0000  0.0000
    15. (1.99766) CR (12)Br   3           s(  0.00%)p 0.00(  0.00%)d 1.00(100.00%)
                                            0.0000  0.0000  0.0000  0.0000  0.0000
                                            0.0000  0.0000  0.0000  0.0000  0.0000
                                            0.0000  0.0000  0.0000  0.0000  0.0000
                                            0.0000  0.0000  0.0000  0.0000 -0.0000
                                            0.0000  0.0000  0.0000  0.0000 -0.0000
                                            0.0000  0.0000  0.0000  0.0000 -0.0000
                                            0.0000 -0.0000  0.0000  1.0000  0.0000
                                           -0.0000 -0.0000  0.0000  0.0000  0.0000
                                            0.0000  0.0000  0.0000  0.0000  0.0000
                                           -0.0000 -0.0000  0.0000  0.0000  0.0000
                                            0.0000 -0.0000 -0.0000  0.0000  0.0000
                                            0.0000  0.0000  0.0000  0.0000
    16. (1.99760) CR (13)Br   3           s(  0.00%)p 0.00(  0.00%)d 1.00(100.00%)
                                            0.0000 -0.0000 -0.0000 -0.0001 -0.0000
                                           -0.0000  0.0000 -0.0000  0.0000  0.0000
                                           -0.0000  0.0000 -0.0000 -0.0000  0.0000
                                            0.0000 -0.0000  0.0000  0.0000  0.0000
                                            0.0000  0.0000  0.0000  0.0000  0.0000
                                            0.0000  0.0000  0.0000 -0.0000  0.0000
                                            0.0000  0.0000  0.0000  0.0000  0.0000
                                            0.0000  0.0000  1.0000 -0.0000 -0.0000
                                           -0.0000 -0.0000 -0.0000  0.0000 -0.0000
                                            0.0000  0.0000 -0.0000 -0.0000 -0.0000
                                            0.0000  0.0000  0.0000  0.0000  0.0000
                                           -0.0000 -0.0000  0.0000  0.0000
    17. (1.99766) CR (14)Br   3           s(  0.00%)p 0.00(  0.00%)d 1.00(100.00%)
                                            0.0000 -0.0000 -0.0000 -0.0000 -0.0000
                                           -0.0000  0.0000 -0.0000  0.0000  0.0000
                                           -0.0000 -0.0000  0.0000 -0.0000  0.0000
                                            0.0000 -0.0000  0.0000  0.0000  0.0000
                                            0.0000  0.0000  0.0000  0.0000  0.0000
                                            0.0000  0.0000  0.0000  0.0000  0.0000
                                            0.0000  0.0000  0.0000  0.0000  0.0000
                                            0.0000  0.0000 -0.0000 -0.0000  0.0000
                                           -0.0000  1.0000 -0.0000 -0.0000 -0.0000
                                            0.0000  0.0000  0.0000  0.0000 -0.0000
                                            0.0000  0.0000  0.0000  0.0000  0.0000
                                           -0.0000  0.0000 -0.0000  0.0000
    18. (1.96811) LP ( 1) O   1           s( 62.37%)p 0.60( 37.56%)d 0.00(  0.07%)
                                                  f 0.00(  0.00%)
                                            0.0003  0.7897 -0.0001  0.0009 -0.0003
                                           -0.4254  0.0004 -0.0023  0.0017  0.4412
                                            0.0051  0.0030  0.0019  0.0000  0.0000
                                            0.0000  0.0000  0.0234 -0.0034 -0.0007
                                            0.0000  0.0000  0.0000  0.0000  0.0000
                                            0.0000 -0.0044  0.0011 -0.0007  0.0101
                                           -0.0020  0.0016  0.0000  0.0000  0.0028
                                           -0.0009 -0.0014  0.0003  0.0000  0.0000
                                            0.0000  0.0000  0.0002 -0.0014  0.0019
                                           -0.0002
    19. (1.95554) LP ( 2) O   1           s(  0.00%)p 1.00( 99.83%)d 0.00(  0.17%)
                                                  f 0.00(  0.01%)
                                            0.0000  0.0000  0.0000  0.0000  0.0000
                                            0.0000  0.0000  0.0000  0.0000  0.0000
                                            0.0000  0.0000  0.0000  0.9988  0.0227
                                            0.0050  0.0064  0.0000  0.0000  0.0000
                                            0.0367 -0.0033 -0.0017 -0.0171  0.0022
                                            0.0016  0.0000  0.0000  0.0000  0.0000
                                            0.0000  0.0000 -0.0081  0.0027  0.0000
                                            0.0000  0.0000  0.0000  0.0017  0.0010
                                            0.0014 -0.0005  0.0000  0.0000  0.0000
                                            0.0000
    20. (1.97702) LP ( 1)Br   3           s( 89.36%)p 0.12( 10.64%)d 0.00(  0.00%)
                                                  f 0.00(  0.00%)
                                           -0.0000  0.0000  0.0004  0.9453  0.0006
                                            0.0006 -0.0007  0.0000 -0.0000 -0.0671
                                            0.0008  0.0000 -0.0001  0.0000 -0.0002
                                           -0.3192  0.0033 -0.0002 -0.0001  0.0000
                                            0.0000  0.0000  0.0000  0.0000  0.0000
                                           -0.0000 -0.0013 -0.0001 -0.0002  0.0000
                                            0.0000  0.0000  0.0000  0.0000  0.0000
                                            0.0000  0.0000  0.0001  0.0028 -0.0000
                                            0.0005  0.0000  0.0017  0.0000  0.0004
                                            0.0000  0.0000  0.0000 -0.0000  0.0001
                                           -0.0002  0.0000  0.0000  0.0000  0.0000
                                            0.0001 -0.0002  0.0002 -0.0002
    21. (1.95467) LP ( 2)Br   3           s(  0.00%)p 1.00( 99.99%)d 0.00(  0.01%)
                                                  f 0.00(  0.00%)
                                            0.0000  0.0000  0.0000  0.0000  0.0000
                                            0.0000  0.0000  0.0000  0.0000  0.0000
                                            0.0000  0.0000  0.0000  0.0000  0.0000
                                            0.0000  0.0000  0.0000  0.0000 -0.0000
                                            0.0004  0.9999  0.0036  0.0020 -0.0003
                                            0.0000  0.0000  0.0000  0.0000 -0.0000
                                            0.0025 -0.0007  0.0002 -0.0000  0.0069
                                           -0.0003 -0.0038  0.0000  0.0000  0.0000
                                            0.0000  0.0000  0.0000  0.0000  0.0000
                                           -0.0031 -0.0015  0.0000  0.0000  0.0000
                                            0.0000 -0.0033 -0.0014  0.0016  0.0009
                                            0.0000  0.0000  0.0000  0.0000
    22. (1.95442) LP ( 3)Br   3           s(  0.00%)p 1.00( 99.99%)d 0.00(  0.01%)
                                                  f 0.00(  0.00%)
                                            0.0000 -0.0000  0.0000 -0.0003 -0.0001
                                           -0.0009  0.0014  0.0000 -0.0004 -0.9787
                                           -0.0045 -0.0024  0.0009 -0.0000  0.0001
                                            0.2050  0.0005  0.0001  0.0004 -0.0000
                                           -0.0000 -0.0000 -0.0000 -0.0000 -0.0000
                                            0.0000 -0.0070  0.0003  0.0035 -0.0000
                                           -0.0000 -0.0000 -0.0000 -0.0000 -0.0000
                                           -0.0000 -0.0000  0.0000 -0.0047  0.0008
                                            0.0006 -0.0000  0.0004 -0.0004  0.0007
                                           -0.0000 -0.0000  0.0013  0.0007 -0.0002
                                           -0.0000 -0.0000 -0.0000 -0.0000 -0.0000
                                            0.0035  0.0014 -0.0028 -0.0013
    23. (1.71849) LP ( 4)Br   3           s( 10.63%)p 8.39( 89.24%)d 0.01(  0.12%)
                                                  f 0.00(  0.01%)
                                            0.0000  0.0000 -0.0000  0.3261 -0.0021
                                           -0.0020  0.0024  0.0000 -0.0000  0.1936
                                           -0.0018 -0.0012  0.0007  0.0000 -0.0000
                                            0.9246 -0.0082 -0.0052  0.0012  0.0000
                                            0.0000  0.0000  0.0000  0.0000  0.0000
                                            0.0000  0.0119 -0.0016 -0.0005  0.0000
                                            0.0000  0.0000  0.0000  0.0000  0.0000
                                            0.0000  0.0000  0.0000 -0.0264  0.0038
                                            0.0012 -0.0000 -0.0172  0.0027  0.0003
                                            0.0000  0.0000 -0.0014 -0.0003 -0.0069
                                           -0.0016  0.0000  0.0000  0.0000  0.0000
                                           -0.0049 -0.0008 -0.0070 -0.0013
    24. (0.02396) RY*( 1) O   1           s(  0.00%)p 1.00( 98.89%)d 0.01(  1.08%)
                                                  f 0.00(  0.03%)
                                            0.0000  0.0000  0.0000  0.0000  0.0000
                                            0.0000  0.0000  0.0000  0.0000  0.0000
                                            0.0000  0.0000  0.0000 -0.0266  0.9935
                                           -0.0242 -0.0227  0.0000  0.0000  0.0000
                                            0.0833 -0.0167  0.0063 -0.0562  0.0172
                                           -0.0096  0.0000  0.0000  0.0000  0.0000
                                            0.0000  0.0000 -0.0106  0.0115  0.0000
                                            0.0000  0.0000  0.0000 -0.0034  0.0020
                                            0.0001 -0.0016  0.0000  0.0000  0.0000
                                            0.0000
    25. (0.01822) RY*( 2) O   1           s( 16.81%)p 4.81( 80.93%)d 0.13(  2.20%)
                                                  f 0.00(  0.05%)
                                           -0.0000 -0.0053  0.4097  0.0051 -0.0136
                                           -0.0060 -0.4660  0.0056  0.0155 -0.0132
                                            0.7691 -0.0080 -0.0092  0.0000  0.0000
                                            0.0000  0.0000  0.1439 -0.0241  0.0090
                                            0.0000  0.0000  0.0000  0.0000  0.0000
                                            0.0000 -0.0119  0.0018  0.0017  0.0171
                                           -0.0127  0.0064  0.0000  0.0000  0.0022
                                           -0.0024  0.0009  0.0031  0.0000  0.0000
                                            0.0000  0.0000  0.0173 -0.0101  0.0098
                                           -0.0033
    26. (0.00977) RY*( 3) O   1           s( 10.41%)p 8.10( 84.41%)d 0.48(  4.97%)
                                                  f 0.02(  0.21%)
                                            0.0000 -0.0110  0.3206 -0.0192  0.0298
                                           -0.0395 -0.7113  0.0207  0.0298 -0.0031
                                           -0.5782 -0.0049 -0.0307 -0.0000 -0.0000
                                           -0.0000 -0.0000 -0.1262 -0.0143  0.0050
                                           -0.0000 -0.0000 -0.0000 -0.0000 -0.0000
                                           -0.0000  0.1684  0.0574 -0.0257  0.0255
                                            0.0208 -0.0104 -0.0000 -0.0000 -0.0089
                                            0.0047  0.0139 -0.0139 -0.0000 -0.0000
                                           -0.0000 -0.0000  0.0317 -0.0251  0.0006
                                           -0.0050
    27. (0.00658) RY*( 4) O   1           s( 21.73%)p 0.26(  5.72%)d 3.30( 71.78%)
                                                  f 0.04(  0.76%)
                                           -0.0000  0.0145  0.4659  0.0048 -0.0028
                                            0.0296  0.2324 -0.0051 -0.0069  0.0342
                                            0.0237 -0.0112 -0.0196 -0.0000 -0.0000
                                           -0.0000 -0.0000 -0.7357 -0.0182 -0.0020
                                           -0.0000 -0.0000 -0.0000 -0.0000 -0.0000
                                           -0.0000 -0.3865 -0.0015 -0.0049  0.1607
                                            0.0292 -0.0131 -0.0000 -0.0000  0.0062
                                            0.0039  0.0358 -0.0243 -0.0000 -0.0000
                                           -0.0000 -0.0000 -0.0653  0.0308 -0.0222
                                           -0.0030
    28. (0.00638) RY*( 5) O   1           s(  0.00%)p 1.00(  0.02%)d99.99( 98.91%)
                                                  f70.09(  1.07%)
                                            0.0000  0.0000  0.0000  0.0000  0.0000
                                            0.0000  0.0000  0.0000  0.0000  0.0000
                                            0.0000  0.0000  0.0000 -0.0060  0.0006
                                           -0.0106 -0.0022  0.0000  0.0000  0.0000
                                            0.5497  0.0360 -0.0103  0.8266  0.0479
                                           -0.0022  0.0000  0.0000  0.0000  0.0000
                                            0.0000  0.0000  0.0088 -0.0124  0.0000
                                            0.0000  0.0000  0.0000  0.0873 -0.0532
                                            0.0066  0.0028  0.0000  0.0000  0.0000
                                            0.0000
    29. (0.00604) RY*( 6) O   1           s(  0.00%)p 1.00(  1.15%)d85.36( 97.88%)
                                                  f 0.85(  0.97%)
                                            0.0000  0.0000  0.0000  0.0000  0.0000
                                            0.0000  0.0000  0.0000  0.0000  0.0000
                                            0.0000  0.0000  0.0000 -0.0377 -0.0987
                                            0.0156  0.0074  0.0000  0.0000  0.0000
                                            0.8182  0.0749 -0.0288 -0.5483 -0.0475
                                            0.0094  0.0000  0.0000  0.0000  0.0000
                                            0.0000  0.0000 -0.0709  0.0389  0.0000
                                            0.0000  0.0000  0.0000  0.0373 -0.0148
                                           -0.0361  0.0163  0.0000  0.0000  0.0000
                                            0.0000
    30. (0.00590) RY*( 7) O   1           s(  5.60%)p 0.80(  4.47%)d15.94( 89.29%)
                                                  f 0.11(  0.64%)
                                           -0.0000  0.0147  0.2358 -0.0131 -0.0003
                                            0.0336  0.1845 -0.0187 -0.0031 -0.0290
                                           -0.0905  0.0090 -0.0090  0.0000  0.0000
                                            0.0000  0.0000  0.3265  0.0188 -0.0022
                                            0.0000  0.0000  0.0000  0.0000  0.0000
                                            0.0000  0.1313  0.0161 -0.0028  0.8716
                                            0.0908 -0.0241  0.0000  0.0000  0.0535
                                           -0.0272 -0.0446  0.0255  0.0000  0.0000
                                            0.0000  0.0000  0.0067 -0.0029  0.0076
                                            0.0010
    31. (0.00533) RY*( 8) O   1           s( 13.99%)p 0.54(  7.53%)d 5.45( 76.22%)
                                                  f 0.16(  2.26%)
                                           -0.0000 -0.0001  0.3740  0.0066 -0.0035
                                            0.0478  0.1100 -0.0196 -0.0008  0.0195
                                           -0.2399 -0.0046 -0.0507 -0.0000 -0.0000
                                           -0.0000 -0.0000  0.5424  0.0185  0.0047
                                           -0.0000 -0.0000 -0.0000 -0.0000 -0.0000
                                           -0.0000 -0.6329  0.0030 -0.0093 -0.2588
                                           -0.0078 -0.0010 -0.0000 -0.0000  0.0326
                                           -0.0212  0.0512 -0.0407 -0.0000 -0.0000
                                           -0.0000 -0.0000  0.0139 -0.0228  0.1096
                                           -0.0640
    32. (0.00246) RY*( 9) O   1           s( 29.71%)p 0.58( 17.20%)d 1.75( 52.04%)
                                                  f 0.04(  1.05%)
                                            0.0000 -0.0049  0.5428 -0.0447 -0.0221
                                           -0.0236  0.4103  0.0115 -0.0095 -0.0036
                                           -0.0395  0.0210 -0.0298  0.0000  0.0000
                                            0.0000  0.0000  0.0672  0.0136 -0.0138
                                            0.0000  0.0000  0.0000  0.0000  0.0000
                                            0.0000  0.6052  0.1357  0.0498 -0.3431
                                           -0.1019 -0.0169  0.0000  0.0000 -0.0337
                                            0.0480  0.0103 -0.0073  0.0000  0.0000
                                            0.0000  0.0000  0.0551 -0.0612 -0.0124
                                            0.0010
    33. (0.00061) RY*(10) O   1           s( 19.08%)p 3.80( 72.50%)d 0.38(  7.20%)
                                                  f 0.06(  1.22%)
                                            0.0000 -0.0046  0.0080  0.4106 -0.1487
                                           -0.0024 -0.0272 -0.1657 -0.0468  0.0006
                                           -0.0064  0.8334  0.0072  0.0000  0.0000
                                            0.0000  0.0000 -0.0162  0.2312 -0.0652
                                            0.0000  0.0000  0.0000  0.0000  0.0000
                                            0.0000  0.0047 -0.0289  0.0236  0.0124
                                           -0.0859  0.0714  0.0000  0.0000  0.0307
                                            0.0011  0.1034 -0.0102  0.0000  0.0000
                                            0.0000  0.0000 -0.0053  0.0052  0.0138
                                            0.0151
    34. (0.00057) RY*(11) O   1           s(  0.00%)p 1.00( 48.60%)d 0.98( 47.69%)
                                                  f 0.08(  3.71%)
                                            0.0000  0.0000  0.0000  0.0000  0.0000
                                            0.0000  0.0000  0.0000  0.0000  0.0000
                                            0.0000  0.0000  0.0000  0.0010  0.0379
                                            0.6889 -0.1000  0.0000  0.0000  0.0000
                                           -0.0384  0.3110 -0.0273  0.0403 -0.6125
                                            0.0342  0.0000  0.0000  0.0000  0.0000
                                            0.0000  0.0000  0.0828 -0.0173  0.0000
                                            0.0000  0.0000  0.0000  0.1236 -0.0049
                                            0.1209  0.0003  0.0000  0.0000  0.0000
                                            0.0000
    35. (0.00056) RY*(12) O   1           s(  3.60%)p 0.91(  3.29%)d24.45( 88.04%)
                                                  f 1.41(  5.07%)
                                           -0.0000  0.0020  0.0152  0.1772 -0.0660
                                            0.0021 -0.0082  0.0526 -0.0204 -0.0070
                                           -0.0392 -0.1672 -0.0081 -0.0000 -0.0000
                                           -0.0000 -0.0000 -0.0190 -0.1364 -0.0266
                                           -0.0000 -0.0000 -0.0000 -0.0000 -0.0000
                                           -0.0000  0.0000 -0.3724  0.0159  0.0959
                                           -0.8378  0.1030 -0.0000 -0.0000  0.1042
                                            0.0008 -0.0175  0.0074 -0.0000 -0.0000
                                           -0.0000 -0.0000  0.1654 -0.0048  0.1100
                                           -0.0044
    36. (0.00052) RY*(13) O   1           s(  0.00%)p 1.00( 47.66%)d 0.93( 44.13%)
                                                  f 0.17(  8.21%)
                                            0.0000  0.0000  0.0000  0.0000  0.0000
                                            0.0000  0.0000  0.0000  0.0000  0.0000
                                            0.0000  0.0000  0.0000 -0.0045 -0.0033
                                            0.6712 -0.1616  0.0000  0.0000  0.0000
                                            0.0117 -0.1407  0.0038 -0.0256  0.6485
                                            0.0092  0.0000  0.0000  0.0000  0.0000
                                            0.0000  0.0000  0.0160  0.0002  0.0000
                                            0.0000  0.0000  0.0000 -0.0242  0.0127
                                           -0.2847 -0.0021  0.0000  0.0000  0.0000
                                            0.0000
    37. (0.00047) RY*(14) O   1           s(  0.00%)p 1.00(  1.23%)d 1.09(  1.35%)
                                                  f78.89( 97.42%)
                                            0.0000  0.0000  0.0000  0.0000  0.0000
                                            0.0000  0.0000  0.0000  0.0000  0.0000
                                            0.0000  0.0000  0.0000  0.0044  0.0030
                                           -0.1016  0.0446  0.0000  0.0000  0.0000
                                           -0.0040 -0.0516 -0.0196 -0.0664  0.0369
                                           -0.0682  0.0000  0.0000  0.0000  0.0000
                                            0.0000  0.0000  0.7700  0.0373  0.0000
                                            0.0000  0.0000  0.0000  0.5951  0.0253
                                           -0.1584 -0.0055  0.0000  0.0000  0.0000
                                            0.0000
    38. (0.00045) RY*(15) O   1           s(  0.65%)p99.99( 67.55%)d 5.35(  3.47%)
                                                  f43.69( 28.33%)
                                            0.0000 -0.0044 -0.0039  0.0747  0.0295
                                           -0.0107 -0.0185 -0.7830  0.0279 -0.0032
                                            0.0054 -0.2382 -0.0655 -0.0000 -0.0000
                                           -0.0000 -0.0000 -0.0365  0.1076 -0.0512
                                           -0.0000 -0.0000 -0.0000 -0.0000 -0.0000
[...]
                                                  f 0.02(  0.19%)
   127. (0.00002) RY*(41)Br   3           s(  0.00%)p 1.00( 99.84%)d 0.00(  0.14%)
                                                  f 0.00(  0.02%)
   128. (0.00703) RY*( 1) H   4           s( 71.74%)p 0.39( 27.91%)d 0.00(  0.34%)
                                           -0.0363  0.8443 -0.0429 -0.0386  0.4148
                                           -0.0068  0.0151  0.2897  0.1382  0.0611
                                            0.0000  0.0000  0.0000 -0.0473  0.0015
                                            0.0000  0.0000  0.0000  0.0000  0.0300
                                            0.0109  0.0072  0.0096
   129. (0.00428) RY*( 2) H   4           s(  0.00%)p 1.00( 98.87%)d 0.01(  1.13%)
                                            0.0000  0.0000  0.0000  0.0000  0.0000
                                            0.0000  0.0000  0.0000  0.0000  0.0000
                                            0.9908  0.0776 -0.0319  0.0000  0.0000
                                           -0.0104  0.0131 -0.0834  0.0640  0.0000
                                            0.0000  0.0000  0.0000
   130. (0.00385) RY*( 3) H   4           s(  2.79%)p34.57( 96.30%)d 0.33(  0.92%)
                                            0.0164  0.0181  0.1229 -0.1103 -0.5621
                                           -0.0099  0.0383  0.7978 -0.0886  0.0335
                                            0.0000  0.0000  0.0000  0.0733 -0.0211
                                            0.0000  0.0000  0.0000  0.0000  0.0415
                                           -0.0026  0.0395 -0.0091
   131. (0.00324) RY*( 4) H   4           s( 25.78%)p 2.84( 73.26%)d 0.04(  0.96%)
                                           -0.0006  0.4981 -0.0491  0.0852 -0.6991
                                           -0.0005  0.0091 -0.4801  0.1140 -0.0193
                                           -0.0000 -0.0000 -0.0000  0.0932 -0.0189
                                           -0.0000 -0.0000 -0.0000 -0.0000 -0.0090
                                           -0.0101 -0.0052 -0.0191
   132. (0.00179) RY*( 5) H   4           s( 25.97%)p 2.73( 70.97%)d 0.12(  3.06%)
                                            0.0247  0.1802  0.4634  0.1089  0.0587
                                           -0.1934 -0.0113 -0.1029 -0.8072 -0.0808
                                           -0.0000 -0.0000 -0.0000  0.0399  0.0598
                                           -0.0000 -0.0000 -0.0000 -0.0000 -0.0768
                                           -0.1037 -0.0753 -0.0561
   133. (0.00039) RY*( 6) H   4           s(  2.01%)p46.97( 94.28%)d 1.85(  3.71%)
                                            0.0002 -0.0462  0.1210 -0.0575  0.0257
                                           -0.9113  0.1780 -0.0144  0.2607 -0.1089
                                            0.0000  0.0000  0.0000  0.1137 -0.0944
                                            0.0000  0.0000  0.0000  0.0000  0.0532
                                            0.0386  0.1046 -0.0004
   134. (0.00030) RY*( 7) H   4           s(  0.00%)p 1.00( 99.14%)d 0.01(  0.86%)
                                            0.0000  0.0000  0.0000  0.0000  0.0000
                                            0.0000  0.0000  0.0000  0.0000  0.0000
                                           -0.0836  0.9862 -0.1084  0.0000  0.0000
                                            0.0372  0.0215  0.0242  0.0787  0.0000
                                            0.0000  0.0000  0.0000
   135. (0.00029) RY*( 8) H   4           s(  0.00%)p 1.00(  7.31%)d12.67( 92.69%)
                                            0.0000  0.0000  0.0000  0.0000  0.0000
                                            0.0000  0.0000  0.0000  0.0000  0.0000
                                            0.0825  0.0003  0.2575  0.0000  0.0000
                                            0.0739  0.0778  0.9526  0.0895  0.0000
                                            0.0000  0.0000  0.0000
   136. (0.00026) RY*( 9) H   4           s(  0.81%)p 7.82(  6.35%)d99.99( 92.84%)
                                           -0.0001  0.0120  0.0814 -0.0367 -0.1027
                                           -0.1172 -0.1848  0.0058  0.0430  0.0562
                                           -0.0000 -0.0000 -0.0000 -0.8172 -0.1049
                                           -0.0000 -0.0000 -0.0000 -0.0000 -0.4592
                                           -0.0007  0.1892 -0.0538
   137. (0.00022) RY*(10) H   4           s(  0.00%)p 1.00(  0.18%)d99.99( 99.82%)
                                            0.0000  0.0000  0.0000  0.0000  0.0000
                                            0.0000  0.0000  0.0000  0.0000  0.0000
                                            0.0098 -0.0325 -0.0252  0.0000  0.0000
                                            0.9475 -0.3117 -0.0452  0.0339  0.0000
                                            0.0000  0.0000  0.0000
   138. (0.00021) RY*(11) H   4           s(  1.25%)p 3.41(  4.26%)d75.60( 94.49%)
                                            0.0025 -0.0014  0.0979 -0.0540 -0.0621
                                           -0.0708 -0.0820  0.0013  0.0672 -0.1500
                                           -0.0000 -0.0000 -0.0000 -0.3946  0.0065
                                           -0.0000 -0.0000 -0.0000 -0.0000  0.4515
                                           -0.0612 -0.7000  0.3026
   139. (0.00018) RY*(12) H   4           s(  3.57%)p 9.82( 35.10%)d17.16( 61.33%)
                                           -0.0152 -0.0395  0.1841  0.0057  0.0107
                                           -0.0417  0.1369  0.0089  0.2061  0.5365
                                           -0.0000 -0.0000 -0.0000  0.1728  0.1372
                                           -0.0000 -0.0000 -0.0000 -0.0000 -0.4627
                                           -0.2873 -0.5036 -0.1194
   140. (0.00010) RY*(13) H   4           s( 62.94%)p 0.42( 26.45%)d 0.17( 10.62%)
   141. (0.00008) RY*(14) H   4           s( 80.13%)p 0.05(  3.98%)d 0.20( 15.89%)
   142. (0.00007) RY*(15) H   4           s(  0.00%)p 1.00( 13.89%)d 6.20( 86.11%)
   143. (0.00005) RY*(16) H   4           s(  5.65%)p 2.02( 11.39%)d14.69( 82.97%)
   144. (0.00005) RY*(17) H   4           s(  3.73%)p16.85( 62.86%)d 8.96( 33.41%)
   145. (0.00003) RY*(18) H   4           s(  0.43%)p99.99( 82.40%)d40.34( 17.17%)
   146. (0.00002) RY*(19) H   4           s(  0.00%)p 1.00(  1.13%)d87.63( 98.87%)
   147. (0.00003) RY*(20) H   4           s( 10.39%)p 0.25(  2.59%)d 8.38( 87.02%)
   148. (0.00003) RY*(21) H   4           s(  0.00%)p 1.00( 79.49%)d 0.26( 20.51%)
   149. (0.00002) RY*(22) H   4           s(  2.98%)p 0.59(  1.75%)d31.93( 95.27%)
   150. (0.02315) BD*( 1) O   1 - H   2  
                ( 27.87%)   0.5279* O   1 s( 21.65%)p 3.60( 77.86%)d 0.02(  0.48%)
                                                  f 0.00(  0.01%)
                                           -0.0003 -0.4652  0.0104  0.0034  0.0016
                                           -0.8810  0.0424  0.0097  0.0071 -0.0191
                                            0.0054 -0.0017  0.0024 -0.0000 -0.0000
                                           -0.0000 -0.0000  0.0130 -0.0039  0.0022
                                           -0.0000 -0.0000 -0.0000 -0.0000 -0.0000
                                           -0.0000 -0.0583  0.0059 -0.0040  0.0336
                                           -0.0009 -0.0002 -0.0000 -0.0000  0.0096
                                           -0.0004  0.0005 -0.0002 -0.0000 -0.0000
                                           -0.0000 -0.0000 -0.0057 -0.0033 -0.0004
                                            0.0003
                ( 72.13%)  -0.8493* H   2 s( 99.82%)p 0.00(  0.18%)d 0.00(  0.00%)
                                           -0.9991 -0.0052 -0.0001  0.0003 -0.0241
                                            0.0334  0.0038  0.0074 -0.0005 -0.0002
                                           -0.0000 -0.0000 -0.0000 -0.0001 -0.0024
                                           -0.0000 -0.0000 -0.0000 -0.0000 -0.0022
                                           -0.0029  0.0025  0.0014
   151. (0.27108) BD*( 1) O   1 - H   4  
                ( 18.60%)   0.4313* O   1 s( 15.93%)p 5.26( 83.83%)d 0.01(  0.23%)
                                                  f 0.00(  0.01%)
                                            0.0002  0.3991  0.0081  0.0008  0.0014
                                           -0.1893  0.0124  0.0013  0.0024 -0.8957
                                           -0.0076  0.0017  0.0030 -0.0000 -0.0000
                                           -0.0000 -0.0000 -0.0178  0.0026 -0.0009
                                           -0.0000 -0.0000 -0.0000 -0.0000 -0.0000
                                           -0.0000 -0.0373  0.0056 -0.0002 -0.0226
                                            0.0036  0.0010 -0.0000 -0.0000  0.0012
                                            0.0002  0.0080 -0.0024 -0.0000 -0.0000
                                           -0.0000 -0.0000  0.0025 -0.0003  0.0007
                                           -0.0011
                ( 81.40%)  -0.9022* H   4 s( 99.83%)p 0.00(  0.16%)d 0.00(  0.01%)
                                            0.9988  0.0256 -0.0123 -0.0045  0.0228
                                            0.0046  0.0016 -0.0004  0.0302  0.0107
                                           -0.0000 -0.0000 -0.0000 -0.0008  0.0025
                                           -0.0000 -0.0000 -0.0000 -0.0000 -0.0042
                                           -0.0065 -0.0035 -0.0044


 NHO Directionality and "Bond Bending" (deviations from line of nuclear centers)

         [Thresholds for printing:  angular deviation  >  1.0 degree]
                                    hybrid p-character > 25.0%
                                    orbital occupancy  >  0.10e

                                Line of Centers        Hybrid 1              Hybrid 2
                                ---------------  -------------------   ------------------
                NBO               Theta   Phi    Theta   Phi    Dev    Theta   Phi    Dev
 ========================================================================================
    18. LP (   1) O   1             --     --     90.0  133.3   --       --     --    --
    19. LP (   2) O   1             --     --      0.0    0.0   --       --     --    --
    21. LP (   2)Br   3             --     --      0.0    0.0   --       --     --    --
    22. LP (   3)Br   3             --     --     90.0  168.2   --       --     --    --
    23. LP (   4)Br   3             --     --     90.0   78.2   --       --     --    --


 Natural Bond Orbitals (Summary):

           NBO                  Occupancy  
 -----------------------------------------------
 Molecular unit  1  (H2O)
     1. BD (   1) O   1 - H   2          1.96245
     2. BD (   1) O   1 - H   4          1.95168
     3. CR (   1) O   1                  1.99972
    18. LP (   1) O   1                  1.96811
    19. LP (   2) O   1                  1.95554
    24. RY*(   1) O   1                  0.02396
    25. RY*(   2) O   1                  0.01822
    26. RY*(   3) O   1                  0.00977
    27. RY*(   4) O   1                  0.00658
    28. RY*(   5) O   1                  0.00638
    29. RY*(   6) O   1                  0.00604
    30. RY*(   7) O   1                  0.00590
    31. RY*(   8) O   1                  0.00533
    32. RY*(   9) O   1                  0.00246
    33. RY*(  10) O   1                  0.00061
    34. RY*(  11) O   1                  0.00057
    35. RY*(  12) O   1                  0.00056
    36. RY*(  13) O   1                  0.00052
    37. RY*(  14) O   1                  0.00047
    38. RY*(  15) O   1                  0.00045
    39. RY*(  16) O   1                  0.00046
    40. RY*(  17) O   1                  0.00046
    41. RY*(  18) O   1                  0.00046
    42. RY*(  19) O   1                  0.00044
    43. RY*(  20) O   1                  0.00041
    44. RY*(  21) O   1                  0.00042
    45. RY*(  22) O   1                  0.00041
    46. RY*(  23) O   1                  0.00034
    47. RY*(  24) O   1                  0.00030
    48. RY*(  25) O   1                  0.00023
    49. RY*(  26) O   1                  0.00015
    50. RY*(  27) O   1                  0.00008
    51. RY*(  28) O   1                  0.00008
    52. RY*(  29) O   1                  0.00008
    53. RY*(  30) O   1                  0.00008
    54. RY*(  31) O   1                  0.00008
    55. RY*(  32) O   1                  0.00008
    56. RY*(  33) O   1                  0.00007
    57. RY*(  34) O   1                  0.00006
    58. RY*(  35) O   1                  0.00006
    59. RY*(  36) O   1                  0.00005
    60. RY*(  37) O   1                  0.00005
    61. RY*(  38) O   1                  0.00002
    62. RY*(  39) O   1                  0.00002
    63. RY*(  40) O   1                 -0.00002
    64. RY*(  41) O   1                 -0.00026
    65. RY*(   1) H   2                  0.00526
    66. RY*(   2) H   2                  0.00292
    67. RY*(   3) H   2                  0.00266
    68. RY*(   4) H   2                  0.00159
    69. RY*(   5) H   2                  0.00027
    70. RY*(   6) H   2                  0.00020
    71. RY*(   7) H   2                  0.00018
    72. RY*(   8) H   2                  0.00014
    73. RY*(   9) H   2                  0.00013
    74. RY*(  10) H   2                  0.00011
    75. RY*(  11) H   2                  0.00011
    76. RY*(  12) H   2                  0.00009
    77. RY*(  13) H   2                  0.00008
    78. RY*(  14) H   2                  0.00006
    79. RY*(  15) H   2                  0.00005
    80. RY*(  16) H   2                  0.00004
    81. RY*(  17) H   2                  0.00005
    82. RY*(  18) H   2                  0.00004
    83. RY*(  19) H   2                  0.00002
    84. RY*(  20) H   2                  0.00001
    85. RY*(  21) H   2                  0.00002
    86. RY*(  22) H   2                  0.00002
   128. RY*(   1) H   4                  0.00703
   129. RY*(   2) H   4                  0.00428
   130. RY*(   3) H   4                  0.00385
   131. RY*(   4) H   4                  0.00324
   132. RY*(   5) H   4                  0.00179
   133. RY*(   6) H   4                  0.00039
   134. RY*(   7) H   4                  0.00030
   135. RY*(   8) H   4                  0.00029
   136. RY*(   9) H   4                  0.00026
   137. RY*(  10) H   4                  0.00022
   138. RY*(  11) H   4                  0.00021
   139. RY*(  12) H   4                  0.00018
   140. RY*(  13) H   4                  0.00010
   141. RY*(  14) H   4                  0.00008
   142. RY*(  15) H   4                  0.00007
   143. RY*(  16) H   4                  0.00005
   144. RY*(  17) H   4                  0.00005
   145. RY*(  18) H   4                  0.00003
   146. RY*(  19) H   4                  0.00002
   147. RY*(  20) H   4                  0.00003
   148. RY*(  21) H   4                  0.00003
   149. RY*(  22) H   4                  0.00002
   150. BD*(   1) O   1 - H   2          0.02315
   151. BD*(   1) O   1 - H   4          0.27108
       -------------------------------
              Total Lewis    9.83750  ( 95.8749%)
        Valence non-Lewis    0.29423  (  2.8675%)
        Rydberg non-Lewis    0.12904  (  1.2576%)
       -------------------------------
            Total unit  1   10.26077  (100.0000%)
           Charge unit  1   -0.26077

 Molecular unit  2  (Br)
     4. CR (   1)Br   3                  2.00000
     5. CR (   2)Br   3                  2.00000
     6. CR (   3)Br   3                  1.99961
     7. CR (   4)Br   3                  2.00000
     8. CR (   5)Br   3                  1.99997
     9. CR (   6)Br   3                  2.00000
    10. CR (   7)Br   3                  1.99986
    11. CR (   8)Br   3                  2.00000
    12. CR (   9)Br   3                  1.99998
    13. CR (  10)Br   3                  1.99765
    14. CR (  11)Br   3                  1.99769
    15. CR (  12)Br   3                  1.99766
    16. CR (  13)Br   3                  1.99760
    17. CR (  14)Br   3                  1.99766
    20. LP (   1)Br   3                  1.97702
    21. LP (   2)Br   3                  1.95467
    22. LP (   3)Br   3                  1.95442
    23. LP (   4)Br   3                  1.71849
    87. RY*(   1)Br   3                  0.01832
    88. RY*(   2)Br   3                  0.01832
    89. RY*(   3)Br   3                  0.01828
    90. RY*(   4)Br   3                  0.01822
    91. RY*(   5)Br   3                  0.01796
    92. RY*(   6)Br   3                  0.01072
    93. RY*(   7)Br   3                  0.01068
    94. RY*(   8)Br   3                  0.00814
    95. RY*(   9)Br   3                  0.00194
    96. RY*(  10)Br   3                  0.00174
    97. RY*(  11)Br   3                  0.00173
    98. RY*(  12)Br   3                  0.00174
    99. RY*(  13)Br   3                  0.00173
   100. RY*(  14)Br   3                  0.00171
   101. RY*(  15)Br   3                  0.00171
   102. RY*(  16)Br   3                  0.00171
   103. RY*(  17)Br   3                  0.00171
   104. RY*(  18)Br   3                  0.00168
   105. RY*(  19)Br   3                  0.00132
   106. RY*(  20)Br   3                  0.00129
   107. RY*(  21)Br   3                  0.00111
   108. RY*(  22)Br   3                  0.00077
   109. RY*(  23)Br   3                  0.00078
   110. RY*(  24)Br   3                  0.00070
   111. RY*(  25)Br   3                  0.00034
   112. RY*(  26)Br   3                  0.00029
   113. RY*(  27)Br   3                  0.00023
   114. RY*(  28)Br   3                  0.00023
   115. RY*(  29)Br   3                  0.00023
   116. RY*(  30)Br   3                  0.00024
   117. RY*(  31)Br   3                  0.00023
   118. RY*(  32)Br   3                  0.00023
   119. RY*(  33)Br   3                  0.00018
   120. RY*(  34)Br   3                  0.00018
   121. RY*(  35)Br   3                  0.00012
   122. RY*(  36)Br   3                  0.00011
   123. RY*(  37)Br   3                  0.00011
   124. RY*(  38)Br   3                  0.00008
   125. RY*(  39)Br   3                  0.00004
   126. RY*(  40)Br   3                  0.00004
   127. RY*(  41)Br   3                  0.00002
       -------------------------------
              Total Lewis   35.59226  ( 99.5888%)
        Valence non-Lewis    0.00000  (  0.0000%)
        Rydberg non-Lewis    0.14696  (  0.4112%)
       -------------------------------
            Total unit  2   35.73923  (100.0000%)
           Charge unit  2   -0.73923
 Leave Link  607 at Tue Oct 12 14:18:15 2021, MaxMem=  1048576000 cpu:         8.7
 (Enter /usr/local/gaussian/g09/l9999.exe)
 1\1\GINC-KRYPTON\SP\RMP2-FC\Aug-CC-pVTZ\Br1H2O1(1-)\CGAVINH\12-Oct-202
 1\0\\#p pop=NBO SP NoSymm mp2/aug-cc-pvtz density=current\\title\\-1,1
 \O\X,1,10.\H,1,0.96078759,2,90.\Br,1,3.25661955,2,90.,3,101.73887131,0
 \H,1,1.35,2,90.,3,101.73887131,0\\Version=ES64L-G09RevE.01\HF=-2648.54
 95603\MP2=-2649.0876942\RMSD=3.620e-09\Dipole=0.297956,-0.9591348,0.\Q
 uadrupole=8.8232259,-16.7387016,7.9154757,-4.9006759,0.,0.\PG=CS [SG(B
 r1H2O1)]\\@


      SCIENCE SANS CONSCIENCE N'EST QUE RUINE DE L'AME.

                                                  -- RABELAIS
 Job cpu time:       0 days  0 hours  1 minutes 53.1 seconds.
 File lengths (MBytes):  RWF=     10 Int=      0 D2E=      0 Chk=      3 Scr=      1
 Normal termination of Gaussian 09 at Tue Oct 12 14:18:15 2021.
