 Entering Gaussian System, Link 0=g09
 Input=brhod_0_opt.gjf
 Output=brhod_0_opt.log
 Initial command:
 /usr/local/gaussian/g09/l1.exe "/scratch/Gau-11470.inp" -scrdir="/scratch/"
 Entering Link 1 = /usr/local/gaussian/g09/l1.exe PID=     11471.
  
 Copyright (c) 1988,1990,1992,1993,1995,1998,2003,2009,2015,
            Gaussian, Inc.  All Rights Reserved.
  
 This is part of the Gaussian(R) 09 program.  It is based on
 the Gaussian(R) 03 system (copyright 2003, Gaussian, Inc.),
 the Gaussian(R) 98 system (copyright 1998, Gaussian, Inc.),
 the Gaussian(R) 94 system (copyright 1995, Gaussian, Inc.),
 the Gaussian 92(TM) system (copyright 1992, Gaussian, Inc.),
 the Gaussian 90(TM) system (copyright 1990, Gaussian, Inc.),
 the Gaussian 88(TM) system (copyright 1988, Gaussian, Inc.),
 the Gaussian 86(TM) system (copyright 1986, Carnegie Mellon
 University), and the Gaussian 82(TM) system (copyright 1983,
 Carnegie Mellon University). Gaussian is a federally registered
 trademark of Gaussian, Inc.
  
 This software contains proprietary and confidential information,
 including trade secrets, belonging to Gaussian, Inc.
  
 This software is provided under written license and may be
 used, copied, transmitted, or stored only in accord with that
 written license.
  
 The following legend is applicable only to US Government
 contracts under FAR:
  
                    RESTRICTED RIGHTS LEGEND
  
 Use, reproduction and disclosure by the US Government is
 subject to restrictions as set forth in subparagraphs (a)
 and (c) of the Commercial Computer Software - Restricted
 Rights clause in FAR 52.227-19.
  
 Gaussian, Inc.
 340 Quinnipiac St., Bldg. 40, Wallingford CT 06492
  
  
 ---------------------------------------------------------------
 Warning -- This program may not be used in any manner that
 competes with the business of Gaussian, Inc. or will provide
 assistance to any competitor of Gaussian, Inc.  The licensee
 of this program is prohibited from giving any competitor of
 Gaussian, Inc. access to this program.  By using this program,
 the user acknowledges that Gaussian, Inc. is engaged in the
 business of creating and licensing software in the field of
 computational chemistry and represents and warrants to the
 licensee that it is not a competitor of Gaussian, Inc. and that
 it will not use this program in any manner prohibited above.
 ---------------------------------------------------------------
  

 Cite this work as:
 Gaussian 09, Revision E.01,
 M. J. Frisch, G. W. Trucks, H. B. Schlegel, G. E. Scuseria, 
 M. A. Robb, J. R. Cheeseman, G. Scalmani, V. Barone, B. Mennucci, 
 G. A. Petersson, H. Nakatsuji, M. Caricato, X. Li, H. P. Hratchian, 
 A. F. Izmaylov, J. Bloino, G. Zheng, J. L. Sonnenberg, M. Hada, 
 M. Ehara, K. Toyota, R. Fukuda, J. Hasegawa, M. Ishida, T. Nakajima, 
 Y. Honda, O. Kitao, H. Nakai, T. Vreven, J. A. Montgomery, Jr., 
 J. E. Peralta, F. Ogliaro, M. Bearpark, J. J. Heyd, E. Brothers, 
 K. N. Kudin, V. N. Staroverov, T. Keith, R. Kobayashi, J. Normand, 
 K. Raghavachari, A. Rendell, J. C. Burant, S. S. Iyengar, J. Tomasi, 
 M. Cossi, N. Rega, J. M. Millam, M. Klene, J. E. Knox, J. B. Cross, 
 V. Bakken, C. Adamo, J. Jaramillo, R. Gomperts, R. E. Stratmann, 
 O. Yazyev, A. J. Austin, R. Cammi, C. Pomelli, J. W. Ochterski, 
 R. L. Martin, K. Morokuma, V. G. Zakrzewski, G. A. Voth, 
 P. Salvador, J. J. Dannenberg, S. Dapprich, A. D. Daniels, 
 O. Farkas, J. B. Foresman, J. V. Ortiz, J. Cioslowski, 
 and D. J. Fox, Gaussian, Inc., Wallingford CT, 2013.
 
 ******************************************
 Gaussian 09:  ES64L-G09RevE.01 30-Nov-2015
                12-Oct-2021 
 ******************************************
 %nproc=12
 Will use up to   12 processors via shared memory.
 %mem=8000MB
 %chk=/home/netid.washington.edu/cgavinh/mccoy_hocl/rOH_s_oop_0/brhod/brhod_0_opt
 .chk
 -------------------------------------------------
 #p opt=(z-matrix) mp2/aug-cc-pvtz density=current
 -------------------------------------------------
 1/10=7,18=40,38=1/1,3;
 2/12=2,17=6,18=5,29=3,40=1/2;
 3/5=16,6=1,7=10,11=9,16=1,25=1,30=1,71=1/1,2,3;
 4//1;
 5/5=2,38=5/2;
 8/6=4,10=1/1;
 9/15=2,16=-3/6;
 10/5=1/2;
 6/7=2,8=2,9=2,10=2,22=-1/1;
 7/12=2,29=1/1,2,3,16;
 1/10=7,18=40/3(2);
 2/29=3/2;
 99//99;
 2/29=3/2;
 3/5=16,6=1,7=10,11=9,16=1,25=1,30=1,71=1/1,2,3;
 4/5=5,16=3,69=1/1;
 5/5=2,38=5/2;
 8/6=4,10=1/1;
 9/15=2,16=-3/6;
 10/5=1/2;
 7/12=2/1,2,3,16;
 1/18=40/3(-8);
 2/29=3/2;
 6/7=2,8=2,9=2,10=2,22=-1/1;
 99//99;
 Leave Link    1 at Tue Oct 12 14:01:51 2021, MaxMem=  1048576000 cpu:         0.5
 (Enter /usr/local/gaussian/g09/l101.exe)
 -----
 title
 -----
 Symbolic Z-matrix:
 Charge = -1 Multiplicity = 1
 O
 X                    1     10. 
 H(iso=2)             1    r1       2     90. 
 Br                   1    r2       2     90.      3    a1       0
 H                    1    r3       2    oop      3    a1       0
       Variables:
  r1                    0.9607                   
  r2                    3.07067                  
  r3                    0.9607                   
  a1                  103.50791                  
  OOP                  90.                       
 
 NAtoms=      4 NQM=        4 NQMF=       0 NMMI=      0 NMMIF=      0
                NMic=       0 NMicF=      0.
                    Isotopes and Nuclear Properties:
 (Nuclear quadrupole moments (NQMom) in fm**2, nuclear magnetic moments (NMagM)
  in nuclear magnetons)

  Atom         1           2           3           4
 IAtWgt=          16           2          79           1
 AtmWgt=  15.9949146   2.0141018  78.9183361   1.0078250
 NucSpn=           0           2           3           1
 AtZEff=   0.0000000   0.0000000   0.0000000   0.0000000
 NQMom=    0.0000000   0.2860000  31.3000000   0.0000000
 NMagM=    0.0000000   0.8574380   2.1063990   2.7928460
 AtZNuc=   8.0000000   1.0000000  35.0000000   1.0000000
 Leave Link  101 at Tue Oct 12 14:01:51 2021, MaxMem=  1048576000 cpu:         0.6
 (Enter /usr/local/gaussian/g09/l103.exe)

 GradGradGradGradGradGradGradGradGradGradGradGradGradGradGradGradGradGrad
 Berny optimization.
 Initialization pass.
                       ----------------------------
                       !    Initial Parameters    !
                       ! (Angstroms and Degrees)  !
 ----------------------                            ----------------------
 !      Name          Value   Derivative information (Atomic Units)     !
 ------------------------------------------------------------------------
 !       r1          0.9607   estimate D2E/DX2                          !
 !       r2          3.0707   estimate D2E/DX2                          !
 !       r3          0.9607   estimate D2E/DX2                          !
 !       a1        103.5079   estimate D2E/DX2                          !
 !       OOP        90.0      estimate D2E/DX2                          !
 ------------------------------------------------------------------------
 Trust Radius=3.00D-01 FncErr=1.00D-07 GrdErr=1.00D-07
 Number of steps in this run=     20 maximum allowed number of steps=    100.
 GradGradGradGradGradGradGradGradGradGradGradGradGradGradGradGradGradGrad

 Leave Link  103 at Tue Oct 12 14:01:51 2021, MaxMem=  1048576000 cpu:         0.1
 (Enter /usr/local/gaussian/g09/l202.exe)
 ---------------------------------------------------------------------------------------------------
                            Z-MATRIX (ANGSTROMS AND DEGREES)
   CD    Cent   Atom    N1       Length/X        N2       Alpha/Y        N3        Beta/Z          J
 ---------------------------------------------------------------------------------------------------
      1      1  O 
      2         X        1  10.000000(     1)
      3      2  H        1   0.960700(     2)      2   90.000(     5)
      4      3  Br       1   3.070672(     3)      2   90.000(     6)      3  103.508(     8)      0
      5      4  H        1   0.960700(     4)      2   90.000(     7)      3  103.508(     9)      0
 ---------------------------------------------------------------------------------------------------
                         Z-Matrix orientation:                         
 ---------------------------------------------------------------------
 Center     Atomic      Atomic             Coordinates (Angstroms)
 Number     Number       Type             X           Y           Z
 ---------------------------------------------------------------------
      1          8           0        0.000000    0.000000    0.000000
      2         -1           0        0.000000    0.000000   10.000000
      3          1           0        0.960700    0.000000    0.000000
      4         35           0       -0.717246   -2.985731    0.000000
      5          1           0       -0.224400   -0.934125    0.000000
 ---------------------------------------------------------------------
                    Distance matrix (angstroms):
                    1          2          3          4          5
     1  O    0.000000
     2  X   10.000000   0.000000
     3  H    0.960700  10.046041   0.000000
     4  Br   3.070672  10.460833   3.424922   0.000000
     5  H    0.960700  10.046041   1.508990   2.109972   0.000000
 Stoichiometry    BrH2O(1-)
 Framework group  CS[SG(BrH2O)]
 Deg. of freedom     5
 Full point group                 CS      NOp   2
 Largest Abelian subgroup         CS      NOp   2
 Largest concise Abelian subgroup C1      NOp   1
                         Standard orientation:                         
 ---------------------------------------------------------------------
 Center     Atomic      Atomic             Coordinates (Angstroms)
 Number     Number       Type             X           Y           Z
 ---------------------------------------------------------------------
      1          8           0        0.020758    2.404663    0.000000
      2          1           0       -0.913366    2.629063    0.000000
      3         35           0        0.020758   -0.666009   -0.000000
      4          1           0        0.020758    1.443963    0.000000
 ---------------------------------------------------------------------
 Rotational constants (GHZ):    328.5248809      3.5304334      3.4928976
 Leave Link  202 at Tue Oct 12 14:01:51 2021, MaxMem=  1048576000 cpu:         0.1
 (Enter /usr/local/gaussian/g09/l301.exe)
 Standard basis: Aug-CC-pVTZ (5D, 7F)
 Ernie: Thresh=  0.10000D-02 Tol=  0.10000D-05 Strict=F.
 Ernie:  35 primitive shells out of 175 were deleted.
 There are   120 symmetry adapted cartesian basis functions of A'  symmetry.
 There are    54 symmetry adapted cartesian basis functions of A"  symmetry.
 There are   101 symmetry adapted basis functions of A'  symmetry.
 There are    50 symmetry adapted basis functions of A"  symmetry.
   151 basis functions,   343 primitive gaussians,   174 cartesian basis functions
    23 alpha electrons       23 beta electrons
       nuclear repulsion energy        71.6027368080 Hartrees.
 IExCor=    0 DFT=F Ex=HF Corr=None ExCW=0 ScaHFX=  1.000000
 ScaDFX=  1.000000  1.000000  1.000000  1.000000 ScalE2=  1.000000  1.000000
 IRadAn=      0 IRanWt=     -1 IRanGd=            0 ICorTp=0 IEmpDi=  4
 NAtoms=    4 NActive=    4 NUniq=    4 SFac= 1.00D+00 NAtFMM=   60 NAOKFM=F Big=F
 Integral buffers will be    131072 words long.
 Raffenetti 1 integral format.
 Two-electron integral symmetry is turned on.
 Leave Link  301 at Tue Oct 12 14:01:51 2021, MaxMem=  1048576000 cpu:         0.4
 (Enter /usr/local/gaussian/g09/l302.exe)
 NPDir=0 NMtPBC=     1 NCelOv=     1 NCel=       1 NClECP=     1 NCelD=      1
         NCelK=      1 NCelE2=     1 NClLst=     1 CellRange=     0.0.
 One-electron integrals computed using PRISM.
 NBasis=   151 RedAO= T EigKep=  3.71D-04  NBF=   101    50
 NBsUse=   151 1.00D-06 EigRej= -1.00D+00 NBFU=   101    50
 Leave Link  302 at Tue Oct 12 14:01:52 2021, MaxMem=  1048576000 cpu:         1.8
 (Enter /usr/local/gaussian/g09/l303.exe)
 DipDrv:  MaxL=1.
 Leave Link  303 at Tue Oct 12 14:01:52 2021, MaxMem=  1048576000 cpu:         0.2
 (Enter /usr/local/gaussian/g09/l401.exe)
 ExpMin= 2.53D-02 ExpMax= 1.06D+07 ExpMxC= 1.21D+04 IAcc=3 IRadAn=         5 AccDes= 0.00D+00
 Harris functional with IExCor=  205 and IRadAn=       5 diagonalized for initial guess.
 HarFok:  IExCor=  205 AccDes= 0.00D+00 IRadAn=         5 IDoV= 1 UseB2=F ITyADJ=14
 ICtDFT=  3500011 ScaDFX=  1.000000  1.000000  1.000000  1.000000
 FoFCou: FMM=F IPFlag=           0 FMFlag=      100000 FMFlg1=           0
         NFxFlg=           0 DoJE=T BraDBF=F KetDBF=T FulRan=T
         wScrn=  0.000000 ICntrl=     500 IOpCl=  0 I1Cent=   200000004 NGrid=           0
         NMat0=    1 NMatS0=      1 NMatT0=    0 NMatD0=    1 NMtDS0=    0 NMtDT0=    0
 Petite list used in FoFCou.
 Harris En= -2648.01688951859    
 JPrj=0 DoOrth=F DoCkMO=F.
 Initial guess orbital symmetries:
       Occupied  (A') (A') (A') (A') (A") (A') (A') (A') (A') (A")
                 (A') (A') (A") (A') (A") (A') (A') (A') (A') (A")
                 (A') (A') (A")
       Virtual   (A') (A') (A') (A") (A') (A') (A') (A") (A') (A")
                 (A') (A') (A") (A') (A') (A') (A") (A') (A') (A")
                 (A') (A') (A") (A') (A') (A') (A') (A") (A') (A")
                 (A') (A") (A') (A') (A") (A') (A") (A') (A') (A")
                 (A') (A') (A") (A") (A') (A') (A") (A') (A") (A')
                 (A') (A') (A') (A') (A') (A") (A") (A') (A') (A")
                 (A") (A') (A') (A') (A') (A") (A') (A') (A") (A')
                 (A") (A') (A") (A') (A") (A') (A") (A') (A') (A")
                 (A') (A') (A') (A") (A") (A') (A') (A') (A") (A')
                 (A') (A") (A') (A') (A') (A") (A") (A') (A') (A")
                 (A") (A") (A') (A') (A') (A') (A') (A") (A') (A')
                 (A') (A") (A') (A') (A') (A") (A') (A") (A") (A')
                 (A') (A") (A") (A') (A') (A') (A') (A')
 The electronic state of the initial guess is 1-A'.
 Leave Link  401 at Tue Oct 12 14:01:52 2021, MaxMem=  1048576000 cpu:         2.8
 (Enter /usr/local/gaussian/g09/l502.exe)
 Closed shell SCF:
 Using DIIS extrapolation, IDIIS=  1040.
 Integral symmetry usage will be decided dynamically.
 Keep R1 ints in memory in symmetry-blocked form, NReq=99396593.
 IVT=      112775 IEndB=      112775 NGot=  1048576000 MDV=  1015034585
 LenX=  1015034585 LenY=  1015003868
 Requested convergence on RMS density matrix=1.00D-08 within 128 cycles.
 Requested convergence on MAX density matrix=1.00D-06.
 Requested convergence on             energy=1.00D-06.
 No special actions if energy rises.
 FoFCou: FMM=F IPFlag=           0 FMFlag=           0 FMFlg1=           0
         NFxFlg=           0 DoJE=F BraDBF=F KetDBF=F FulRan=T
         wScrn=  0.000000 ICntrl=     600 IOpCl=  0 I1Cent=           0 NGrid=           0
         NMat0=    1 NMatS0=  11476 NMatT0=    0 NMatD0=    1 NMtDS0=    0 NMtDT0=    0
 Petite list used in FoFCou.

 Cycle   1  Pass 1  IDiag  1:
 E= -2648.43545956701    
 DIIS: error= 7.80D-02 at cycle   1 NSaved=   1.
 NSaved= 1 IEnMin= 1 EnMin= -2648.43545956701     IErMin= 1 ErrMin= 7.80D-02
 ErrMax= 7.80D-02  0.00D+00 EMaxC= 1.00D-01 BMatC= 5.56D-01 BMatP= 5.56D-01
 IDIUse=3 WtCom= 2.20D-01 WtEn= 7.80D-01
 Coeff-Com:  0.100D+01
 Coeff-En:   0.100D+01
 Coeff:      0.100D+01
 Gap=     0.381 Goal=   None    Shift=    0.000
 GapD=    0.381 DampG=1.000 DampE=0.500 DampFc=0.5000 IDamp=-1.
 Damping current iteration by 5.00D-01
 RMSDP=3.39D-03 MaxDP=9.95D-02              OVMax= 1.28D-01

 Cycle   2  Pass 1  IDiag  1:
 E= -2648.52391799752     Delta-E=       -0.088458430508 Rises=F Damp=T
 DIIS: error= 3.65D-02 at cycle   2 NSaved=   2.
 NSaved= 2 IEnMin= 2 EnMin= -2648.52391799752     IErMin= 2 ErrMin= 3.65D-02
 ErrMax= 3.65D-02  0.00D+00 EMaxC= 1.00D-01 BMatC= 1.04D-01 BMatP= 5.56D-01
 IDIUse=3 WtCom= 6.35D-01 WtEn= 3.65D-01
 Coeff-Com: -0.596D+00 0.160D+01
 Coeff-En:   0.000D+00 0.100D+01
 Coeff:     -0.379D+00 0.138D+01
 Gap=     0.278 Goal=   None    Shift=    0.000
 RMSDP=1.35D-03 MaxDP=3.55D-02 DE=-8.85D-02 OVMax= 6.13D-02

 Cycle   3  Pass 1  IDiag  1:
 E= -2648.60302864084     Delta-E=       -0.079110643322 Rises=F Damp=F
 DIIS: error= 3.59D-03 at cycle   3 NSaved=   3.
 NSaved= 3 IEnMin= 3 EnMin= -2648.60302864084     IErMin= 3 ErrMin= 3.59D-03
 ErrMax= 3.59D-03  0.00D+00 EMaxC= 1.00D-01 BMatC= 1.81D-03 BMatP= 1.04D-01
 IDIUse=3 WtCom= 9.64D-01 WtEn= 3.59D-02
 Coeff-Com: -0.127D+00 0.276D+00 0.851D+00
 Coeff-En:   0.000D+00 0.000D+00 0.100D+01
 Coeff:     -0.123D+00 0.266D+00 0.857D+00
 Gap=     0.300 Goal=   None    Shift=    0.000
 RMSDP=2.92D-04 MaxDP=8.82D-03 DE=-7.91D-02 OVMax= 9.83D-03

 Cycle   4  Pass 1  IDiag  1:
 E= -2648.60423565675     Delta-E=       -0.001207015911 Rises=F Damp=F
 DIIS: error= 4.70D-04 at cycle   4 NSaved=   4.
 NSaved= 4 IEnMin= 4 EnMin= -2648.60423565675     IErMin= 4 ErrMin= 4.70D-04
 ErrMax= 4.70D-04  0.00D+00 EMaxC= 1.00D-01 BMatC= 3.31D-05 BMatP= 1.81D-03
 IDIUse=3 WtCom= 9.95D-01 WtEn= 4.70D-03
 Coeff-Com:  0.171D-01-0.406D-01 0.655D-02 0.102D+01
 Coeff-En:   0.000D+00 0.000D+00 0.000D+00 0.100D+01
 Coeff:      0.170D-01-0.405D-01 0.652D-02 0.102D+01
 Gap=     0.298 Goal=   None    Shift=    0.000
 RMSDP=4.43D-05 MaxDP=1.27D-03 DE=-1.21D-03 OVMax= 1.86D-03

 Cycle   5  Pass 1  IDiag  1:
 E= -2648.60427889234     Delta-E=       -0.000043235593 Rises=F Damp=F
 DIIS: error= 1.52D-04 at cycle   5 NSaved=   5.
 NSaved= 5 IEnMin= 5 EnMin= -2648.60427889234     IErMin= 5 ErrMin= 1.52D-04
 ErrMax= 1.52D-04  0.00D+00 EMaxC= 1.00D-01 BMatC= 1.72D-06 BMatP= 3.31D-05
 IDIUse=3 WtCom= 9.98D-01 WtEn= 1.52D-03
 Coeff-Com: -0.163D-02 0.511D-02-0.286D-01-0.338D+00 0.136D+01
 Coeff-En:   0.000D+00 0.000D+00 0.000D+00 0.000D+00 0.100D+01
 Coeff:     -0.163D-02 0.510D-02-0.286D-01-0.337D+00 0.136D+01
 Gap=     0.299 Goal=   None    Shift=    0.000
 RMSDP=1.93D-05 MaxDP=5.20D-04 DE=-4.32D-05 OVMax= 9.21D-04

 Cycle   6  Pass 1  IDiag  1:
 E= -2648.60428407191     Delta-E=       -0.000005179567 Rises=F Damp=F
 DIIS: error= 3.37D-05 at cycle   6 NSaved=   6.
 NSaved= 6 IEnMin= 6 EnMin= -2648.60428407191     IErMin= 6 ErrMin= 3.37D-05
 ErrMax= 3.37D-05  0.00D+00 EMaxC= 1.00D-01 BMatC= 7.99D-08 BMatP= 1.72D-06
 IDIUse=1 WtCom= 1.00D+00 WtEn= 0.00D+00
 Coeff-Com: -0.860D-03 0.184D-02 0.239D-02-0.211D-01-0.111D+00 0.113D+01
 Coeff:     -0.860D-03 0.184D-02 0.239D-02-0.211D-01-0.111D+00 0.113D+01
 Gap=     0.299 Goal=   None    Shift=    0.000
 RMSDP=3.50D-06 MaxDP=8.37D-05 DE=-5.18D-06 OVMax= 2.24D-04

 Cycle   7  Pass 1  IDiag  1:
 E= -2648.60428430227     Delta-E=       -0.000000230361 Rises=F Damp=F
 DIIS: error= 8.97D-06 at cycle   7 NSaved=   7.
 NSaved= 7 IEnMin= 7 EnMin= -2648.60428430227     IErMin= 7 ErrMin= 8.97D-06
 ErrMax= 8.97D-06  0.00D+00 EMaxC= 1.00D-01 BMatC= 7.36D-09 BMatP= 7.99D-08
 IDIUse=1 WtCom= 1.00D+00 WtEn= 0.00D+00
 Coeff-Com:  0.549D-04-0.277D-03 0.280D-02 0.286D-01-0.129D+00 0.551D-01
 Coeff-Com:  0.104D+01
 Coeff:      0.549D-04-0.277D-03 0.280D-02 0.286D-01-0.129D+00 0.551D-01
 Coeff:      0.104D+01
 Gap=     0.299 Goal=   None    Shift=    0.000
 RMSDP=9.25D-07 MaxDP=2.83D-05 DE=-2.30D-07 OVMax= 6.45D-05

 Cycle   8  Pass 1  IDiag  1:
 E= -2648.60428432039     Delta-E=       -0.000000018121 Rises=F Damp=F
 DIIS: error= 1.64D-06 at cycle   8 NSaved=   8.
 NSaved= 8 IEnMin= 8 EnMin= -2648.60428432039     IErMin= 8 ErrMin= 1.64D-06
 ErrMax= 1.64D-06  0.00D+00 EMaxC= 1.00D-01 BMatC= 3.46D-10 BMatP= 7.36D-09
 IDIUse=1 WtCom= 1.00D+00 WtEn= 0.00D+00
 Coeff-Com:  0.584D-04-0.995D-04-0.594D-03-0.209D-02 0.233D-01-0.693D-01
 Coeff-Com: -0.177D+00 0.123D+01
 Coeff:      0.584D-04-0.995D-04-0.594D-03-0.209D-02 0.233D-01-0.693D-01
 Coeff:     -0.177D+00 0.123D+01
 Gap=     0.299 Goal=   None    Shift=    0.000
 RMSDP=2.94D-07 MaxDP=7.71D-06 DE=-1.81D-08 OVMax= 1.65D-05

 Cycle   9  Pass 1  IDiag  1:
 E= -2648.60428432140     Delta-E=       -0.000000001008 Rises=F Damp=F
 DIIS: error= 3.91D-07 at cycle   9 NSaved=   9.
 NSaved= 9 IEnMin= 9 EnMin= -2648.60428432140     IErMin= 9 ErrMin= 3.91D-07
 ErrMax= 3.91D-07  0.00D+00 EMaxC= 1.00D-01 BMatC= 1.69D-11 BMatP= 3.46D-10
 IDIUse=1 WtCom= 1.00D+00 WtEn= 0.00D+00
 Coeff-Com: -0.206D-04 0.452D-04 0.144D-06-0.106D-02 0.128D-02 0.135D-01
 Coeff-Com: -0.147D-01-0.225D+00 0.123D+01
 Coeff:     -0.206D-04 0.452D-04 0.144D-06-0.106D-02 0.128D-02 0.135D-01
 Coeff:     -0.147D-01-0.225D+00 0.123D+01
 Gap=     0.299 Goal=   None    Shift=    0.000
 RMSDP=5.25D-08 MaxDP=9.07D-07 DE=-1.01D-09 OVMax= 3.51D-06

 Cycle  10  Pass 1  IDiag  1:
 E= -2648.60428432145     Delta-E=       -0.000000000054 Rises=F Damp=F
 DIIS: error= 9.96D-08 at cycle  10 NSaved=  10.
 NSaved=10 IEnMin=10 EnMin= -2648.60428432145     IErMin=10 ErrMin= 9.96D-08
 ErrMax= 9.96D-08  0.00D+00 EMaxC= 1.00D-01 BMatC= 1.37D-12 BMatP= 1.69D-11
 IDIUse=1 WtCom= 1.00D+00 WtEn= 0.00D+00
 Coeff-Com: -0.628D-06-0.540D-07 0.326D-04 0.247D-03-0.158D-02 0.364D-02
 Coeff-Com:  0.116D-01-0.773D-01-0.127D-01 0.108D+01
 Coeff:     -0.628D-06-0.540D-07 0.326D-04 0.247D-03-0.158D-02 0.364D-02
 Coeff:      0.116D-01-0.773D-01-0.127D-01 0.108D+01
 Gap=     0.299 Goal=   None    Shift=    0.000
 RMSDP=1.40D-08 MaxDP=4.03D-07 DE=-5.37D-11 OVMax= 9.18D-07

 Cycle  11  Pass 1  IDiag  1:
 E= -2648.60428432146     Delta-E=       -0.000000000003 Rises=F Damp=F
 DIIS: error= 2.09D-08 at cycle  11 NSaved=  11.
 NSaved=11 IEnMin=11 EnMin= -2648.60428432146     IErMin=11 ErrMin= 2.09D-08
 ErrMax= 2.09D-08  0.00D+00 EMaxC= 1.00D-01 BMatC= 1.51D-13 BMatP= 1.37D-12
 IDIUse=1 WtCom= 1.00D+00 WtEn= 0.00D+00
 Coeff-Com:  0.720D-06-0.179D-05 0.399D-05 0.611D-04-0.147D-03-0.709D-03
 Coeff-Com:  0.170D-02 0.121D-01-0.109D+00 0.148D+00 0.948D+00
 Coeff:      0.720D-06-0.179D-05 0.399D-05 0.611D-04-0.147D-03-0.709D-03
 Coeff:      0.170D-02 0.121D-01-0.109D+00 0.148D+00 0.948D+00
 Gap=     0.299 Goal=   None    Shift=    0.000
 RMSDP=5.53D-09 MaxDP=2.14D-07 DE=-2.73D-12 OVMax= 2.02D-07

 SCF Done:  E(RHF) =  -2648.60428432     A.U. after   11 cycles
            NFock= 11  Conv=0.55D-08     -V/T= 2.0000
 KE= 2.648609489242D+03 PE=-6.491271781224D+03 EE= 1.122455270852D+03
 Leave Link  502 at Tue Oct 12 14:01:54 2021, MaxMem=  1048576000 cpu:        17.6
 (Enter /usr/local/gaussian/g09/l801.exe)
 ExpMin= 2.53D-02 ExpMax= 1.06D+07 ExpMxC= 1.21D+04 IAcc=3 IRadAn=         5 AccDes= 0.00D+00
 HarFok:  IExCor=  205 AccDes= 0.00D+00 IRadAn=         5 IDoV=-2 UseB2=F ITyADJ=14
 ICtDFT= 12500011 ScaDFX=  1.000000  1.000000  1.000000  1.000000
 Largest valence mixing into a core orbital is  1.26D-04
 Largest core mixing into a valence orbital is  3.59D-05
 Range of M.O.s used for correlation:    11   151
 NBasis=   151 NAE=    23 NBE=    23 NFC=    10 NFV=     0
 NROrb=    141 NOA=    13 NOB=    13 NVA=   128 NVB=   128

 **** Warning!!: The largest alpha MO coefficient is  0.13835808D+02

 Leave Link  801 at Tue Oct 12 14:01:54 2021, MaxMem=  1048576000 cpu:         0.5
 (Enter /usr/local/gaussian/g09/l906.exe)
 Frozen-core derivative calculation, NFC=  10 NFV=   0.
 FulOut=F Deriv=T AODrv=T NAtomX=     4
   MMem=         385  MDisk=          13 MDiskD=          13
  W3Min=      604302 MinDsk=     1007783 NBas6D=         174
 NBas2D=       15618    NTT=       15225    LW2=     9911920
    MDV=  1048190007 MDiskM=       30062 NBas2p=       15603
 Fully direct method using O(ONN) memory.
 IMap=   1   2   3   4   5   6   7   8   9  10  11  12  13  14  15  16  17  18  19  20
 IMap=  21  22  23
 JobTyp=1 Pass  1:  I=  11 to  13 NPSUse=  7 ParTrn=T ParDer=T DoDerP=T.
 JobTyp=1 Pass  2:  I=  14 to  16 NPSUse=  7 ParTrn=T ParDer=T DoDerP=T.
 JobTyp=1 Pass  3:  I=  17 to  19 NPSUse=  7 ParTrn=T ParDer=T DoDerP=T.
 JobTyp=1 Pass  4:  I=  20 to  22 NPSUse=  7 ParTrn=T ParDer=T DoDerP=T.
 JobTyp=1 Pass  5:  I=  23 to  23 NPSUse=  7 ParTrn=T ParDer=T DoDerP=T.
 Spin components of T(2) and E(2):
     alpha-alpha T2 =       0.2055371092D-01 E2=     -0.7025983456D-01
     alpha-beta  T2 =       0.1083309128D+00 E2=     -0.3793821914D+00
     beta-beta   T2 =       0.2055371092D-01 E2=     -0.7025983456D-01
 The integrals were generated   5 times.
 ANorm=    0.1072118620D+01
 E2 =    -0.5199018605D+00 EUMP2 =    -0.26491241861820D+04
 Leave Link  906 at Tue Oct 12 14:02:25 2021, MaxMem=  1048576000 cpu:       217.5
 (Enter /usr/local/gaussian/g09/l1002.exe)
 Minotr:  Closed shell wavefunction.
          Computing MP2/KS-MP2 derivatives.
          Using Z-Vector for PSCF gradient.
          Skipping F1 and S1 gradient terms here.
          IDoAtm=1111
          Frozen-core window.
          Direct CPHF calculation.
          Differentiating once with respect to electric field.
                with respect to dipole field.
          Differentiating once with respect to nuclear coordinates.
          Using symmetry in CPHF.
          Requested convergence is 1.0D-10 RMS, and 1.0D-09 maximum.
          NewPWx=F KeepS1=T KeepF1=T KeepIn=T MapXYZ=F SortEE=F KeepMc=T.
          MDV=    1048575815 using IRadAn=       0.
 Keep R1 ints in memory in symmetry-blocked form, NReq=99285251.
 FoFCou: FMM=F IPFlag=           0 FMFlag=           0 FMFlg1=           0
         NFxFlg=           0 DoJE=F BraDBF=F KetDBF=F FulRan=T
         wScrn=  0.000000 ICntrl=     600 IOpCl=  0 I1Cent=           0 NGrid=           0
         NMat0=    1 NMatS0=  11476 NMatT0=    0 NMatD0=    1 NMtDS0=    0 NMtDT0=    0
 Petite list used in FoFCou.
          Solving linear equations separately, MaxMat=       0.
          There are     1 degrees of freedom in the 1st order CPHF.  IDoFFX=0 NUNeed=     1.
 LinEq1:  Iter=  0 NonCon=     1 RMS=2.40D-03 Max=4.95D-02 NDo=     1
 AX will form     1 AO Fock derivatives at one time.
 LinEq1:  Iter=  1 NonCon=     1 RMS=3.99D-04 Max=4.98D-03 NDo=     1
 LinEq1:  Iter=  2 NonCon=     1 RMS=1.84D-04 Max=2.32D-03 NDo=     1
 LinEq1:  Iter=  3 NonCon=     1 RMS=5.12D-05 Max=9.86D-04 NDo=     1
 LinEq1:  Iter=  4 NonCon=     1 RMS=9.70D-06 Max=1.16D-04 NDo=     1
 LinEq1:  Iter=  5 NonCon=     1 RMS=4.26D-06 Max=5.82D-05 NDo=     1
 LinEq1:  Iter=  6 NonCon=     1 RMS=9.37D-07 Max=1.99D-05 NDo=     1
 LinEq1:  Iter=  7 NonCon=     1 RMS=2.21D-07 Max=3.49D-06 NDo=     1
 LinEq1:  Iter=  8 NonCon=     1 RMS=5.97D-08 Max=7.95D-07 NDo=     1
 LinEq1:  Iter=  9 NonCon=     1 RMS=7.43D-09 Max=1.45D-07 NDo=     1
 LinEq1:  Iter= 10 NonCon=     1 RMS=1.04D-09 Max=1.39D-08 NDo=     1
 LinEq1:  Iter= 11 NonCon=     1 RMS=3.07D-10 Max=6.05D-09 NDo=     1
 LinEq1:  Iter= 12 NonCon=     0 RMS=5.84D-11 Max=6.64D-10 NDo=     1
 Linear equations converged to 1.000D-10 1.000D-09 after    12 iterations.
 End of Minotr F.D. properties file   721 does not exist.
 End of Minotr F.D. properties file   722 does not exist.
 End of Minotr F.D. properties file   788 does not exist.
 Leave Link 1002 at Tue Oct 12 14:02:26 2021, MaxMem=  1048576000 cpu:        16.5
 (Enter /usr/local/gaussian/g09/l601.exe)
 Copying SCF densities to generalized density rwf, IOpCl= 0 IROHF=0.

 **********************************************************************

            Population analysis using the MP2 density.

 **********************************************************************

 Orbital symmetries:
       Occupied  (A') (A') (A') (A") (A') (A') (A') (A') (A') (A")
                 (A') (A') (A") (A") (A') (A') (A') (A') (A') (A")
                 (A') (A') (A")
       Virtual   (A') (A') (A') (A") (A') (A') (A") (A') (A') (A')
                 (A') (A") (A') (A") (A') (A") (A') (A') (A') (A")
                 (A') (A') (A') (A') (A") (A') (A') (A') (A') (A")
                 (A") (A") (A') (A') (A") (A') (A") (A') (A') (A")
                 (A') (A') (A') (A") (A') (A') (A") (A") (A') (A")
                 (A') (A') (A') (A') (A") (A') (A') (A") (A") (A')
                 (A') (A") (A') (A') (A') (A") (A') (A') (A") (A')
                 (A") (A") (A') (A") (A') (A") (A') (A') (A') (A')
                 (A") (A") (A') (A') (A') (A") (A') (A") (A') (A')
                 (A") (A') (A') (A') (A') (A") (A') (A") (A') (A")
                 (A") (A') (A") (A') (A') (A') (A') (A") (A') (A')
                 (A') (A") (A') (A') (A') (A") (A') (A") (A") (A')
                 (A") (A') (A") (A') (A') (A') (A') (A')
 The electronic state is 1-A'.
 Alpha  occ. eigenvalues -- -489.73984 -64.88027 -58.23475 -58.23473 -58.23472
 Alpha  occ. eigenvalues --  -20.37536  -9.55288  -7.16046  -7.16025  -7.16021
 Alpha  occ. eigenvalues --   -2.90207  -2.90199  -2.90194  -2.90179  -2.90179
 Alpha  occ. eigenvalues --   -1.16641  -0.71505  -0.52952  -0.40712  -0.32501
 Alpha  occ. eigenvalues --   -0.16665  -0.16186  -0.16120
 Alpha virt. eigenvalues --    0.13749   0.17391   0.23236   0.24203   0.24849
 Alpha virt. eigenvalues --    0.27771   0.29824   0.30111   0.34004   0.35179
 Alpha virt. eigenvalues --    0.40392   0.41343   0.42243   0.47305   0.48433
 Alpha virt. eigenvalues --    0.48853   0.53101   0.54301   0.57681   0.60472
 Alpha virt. eigenvalues --    0.62219   0.64814   0.70992   0.74017   0.75528
 Alpha virt. eigenvalues --    0.75588   0.82664   0.88155   0.88748   0.89072
 Alpha virt. eigenvalues --    0.90336   0.96305   0.99727   1.01375   1.01460
 Alpha virt. eigenvalues --    1.03291   1.04409   1.05283   1.08620   1.10595
 Alpha virt. eigenvalues --    1.11209   1.13269   1.17881   1.18607   1.18764
 Alpha virt. eigenvalues --    1.19819   1.20024   1.24596   1.24662   1.29053
 Alpha virt. eigenvalues --    1.36414   1.40659   1.43853   1.46846   1.50318
 Alpha virt. eigenvalues --    1.57779   1.64765   1.68677   1.71146   1.72317
 Alpha virt. eigenvalues --    1.80939   1.85159   2.07142   2.08509   2.19967
 Alpha virt. eigenvalues --    2.41761   2.43563   2.44164   2.45707   2.49916
 Alpha virt. eigenvalues --    2.54771   2.55174   2.55684   2.56322   2.56379
 Alpha virt. eigenvalues --    2.57099   2.58037   2.59662   2.61962   2.65087
 Alpha virt. eigenvalues --    2.67178   2.68094   2.69510   2.72042   2.79388
 Alpha virt. eigenvalues --    2.79555   2.84111   2.92134   2.93016   3.03928
 Alpha virt. eigenvalues --    3.14043   3.16216   3.22944   3.88812   4.19581
 Alpha virt. eigenvalues --    4.23947   4.38118   4.40134   4.46349   4.47873
 Alpha virt. eigenvalues --    4.57518   4.60899   4.66170   4.77785   4.95678
 Alpha virt. eigenvalues --    5.02479   5.20499   5.34233   5.39805   5.49588
 Alpha virt. eigenvalues --    5.58642   5.72556   5.91567   6.41573   6.71864
 Alpha virt. eigenvalues --    6.91971   7.12349   7.32146   7.45832   7.50109
 Alpha virt. eigenvalues --    7.50991   7.55758   7.64287   7.87477   8.15176
 Alpha virt. eigenvalues --    8.16683   9.03505  16.88735
          Condensed to atoms (all electrons):
               1          2          3          4
     1  O    8.273898   0.219991  -0.084341   0.120796
     2  H    0.219991   0.616104   0.005760  -0.002475
     3  Br  -0.084341   0.005760  35.981360   0.007233
     4  H    0.120796  -0.002475   0.007233   0.594707
 Mulliken charges:
               1
     1  O   -0.530345
     2  H    0.160619
     3  Br  -0.910013
     4  H    0.279738
 Sum of Mulliken charges =  -1.00000
 Mulliken charges with hydrogens summed into heavy atoms:
               1
     1  O   -0.089987
     3  Br  -0.910013
 Electronic spatial extent (au):  <R**2>=            330.9334
 Charge=             -1.0000 electrons
 Dipole moment (field-independent basis, Debye):
    X=             -1.3726    Y=              0.5217    Z=              0.0000  Tot=              1.4684
 Quadrupole moment (field-independent basis, Debye-Ang):
   XX=            -29.3097   YY=            -40.1515   ZZ=            -31.5813
   XY=             -4.0307   XZ=             -0.0000   YZ=             -0.0000
 Traceless Quadrupole moment (field-independent basis, Debye-Ang):
   XX=              4.3711   YY=             -6.4706   ZZ=              2.0995
   XY=             -4.0307   XZ=             -0.0000   YZ=             -0.0000
 Octapole moment (field-independent basis, Debye-Ang**2):
  XXX=             -1.3321  YYY=            -25.2659  ZZZ=             -0.0000  XYY=            -11.4418
  XXY=              2.2512  XXZ=              0.0000  XZZ=              0.0906  YZZ=             -3.6823
  YYZ=             -0.0000  XYZ=             -0.0000
 Hexadecapole moment (field-independent basis, Debye-Ang**3):
 XXXX=            -49.0741 YYYY=           -411.1143 ZZZZ=            -49.8006 XXXY=             -0.1183
 XXXZ=             -0.0000 YYYX=            -28.1418 YYYZ=             -0.0000 ZZZX=             -0.0000
 ZZZY=             -0.0000 XXYY=            -57.9855 XXZZ=            -16.7723 YYZZ=            -73.3183
 XXYZ=             -0.0000 YYXZ=             -0.0000 ZZXY=              1.4028
 N-N= 7.160273680802D+01 E-N=-6.489720116560D+03  KE= 2.648450307433D+03
 Symmetry A'   KE= 2.268652694763D+03
 Symmetry A"   KE= 3.797976126704D+02
 No NMR shielding tensors so no spin-rotation constants.
 Leave Link  601 at Tue Oct 12 14:02:27 2021, MaxMem=  1048576000 cpu:         2.2
 (Enter /usr/local/gaussian/g09/l701.exe)
 Compute integral first derivatives.
 ... and contract with generalized density number  2.
 Leave Link  701 at Tue Oct 12 14:02:27 2021, MaxMem=  1048576000 cpu:         1.9
 (Enter /usr/local/gaussian/g09/l702.exe)
 L702 exits ... SP integral derivatives will be done elsewhere.
 Leave Link  702 at Tue Oct 12 14:02:27 2021, MaxMem=  1048576000 cpu:         0.1
 (Enter /usr/local/gaussian/g09/l703.exe)
 Compute integral first derivatives, UseDBF=F ICtDFT=           0.
 Integral derivatives from FoFJK, PRISM(SPDF).
 Calling FoFJK, ICntrl=  10002127 FMM=F ISym2X=1 I1Cent= 0 IOpClX= 0 NMat=1 NMatS=1 NMatT=0.
 FoFJK:  IHMeth= 1 ICntrl=10002127 DoSepK=F KAlg= 0 I1Cent=   0 FoldK=F
 IRaf=         0 NMat=   1 IRICut=       1 DoRegI=T DoRafI=F ISym2E= 1.
 FoFCou: FMM=F IPFlag=           0 FMFlag=      100000 FMFlg1=         800
         NFxFlg=           0 DoJE=F BraDBF=F KetDBF=F FulRan=T
         wScrn=  0.000000 ICntrl=10002127 IOpCl=  0 I1Cent=           0 NGrid=           0
         NMat0=    1 NMatS0=      1 NMatT0=    0 NMatD0=    1 NMtDS0=    0 NMtDT0=    0
 Petite list used in FoFCou.
 Leave Link  703 at Tue Oct 12 14:02:29 2021, MaxMem=  1048576000 cpu:        22.0
 (Enter /usr/local/gaussian/g09/l716.exe)
 Dipole        =-5.40008826D-01 2.05254751D-01 3.58968463D-33
 ***** Axes restored to original set *****
 -------------------------------------------------------------------
 Center     Atomic                   Forces (Hartrees/Bohr)
 Number     Number              X              Y              Z
 -------------------------------------------------------------------
      1        8           0.009167956    0.032941119   -0.000000000
      2        1          -0.001182010   -0.001574432    0.000000000
      3       35          -0.001122722   -0.008597252    0.000000000
      4        1          -0.006863225   -0.022769435    0.000000000
 -------------------------------------------------------------------
 Cartesian Forces:  Max     0.032941119 RMS     0.012294202
 -----------------------------------------------------------------------------------------------
                       Internal Coordinate Forces (Hartree/Bohr or radian)
  Cent   Atom   N1       Length/X         N2         Alpha/Y        N3         Beta/Z          J
 -----------------------------------------------------------------------------------------------
      1  O 
         X        1   0.000000(     1)
      2  H        1  -0.001182(     2)      2  -0.000000(     5)
      3  Br       1   0.008622(     3)      2  -0.000000(     6)      3  -0.005318(     8)     0
      4  H        1   0.023743(     4)      2  -0.000000(     7)      3   0.002460(     9)     0
 -----------------------------------------------------------------------------------------------
 Internal  Forces:  Max     0.023742689 RMS     0.008652412
 Force constants in Cartesian coordinates: 
                1             2             3             4             5 
      1  0.656640D+00
      2  0.512184D-01  0.674260D+00
      3  0.000000D+00  0.000000D+00  0.229210D-01
      4 -0.553231D+00  0.000000D+00  0.000000D+00  0.553231D+00
      5  0.619702D-01 -0.111977D+00  0.000000D+00  0.000000D+00  0.970905D-01
      6  0.000000D+00  0.000000D+00  0.000000D+00  0.000000D+00  0.000000D+00
      7  0.420917D-02  0.862653D-02  0.000000D+00  0.000000D+00 -0.147679D-01
      8 -0.614134D-02 -0.234281D-01  0.000000D+00  0.000000D+00  0.354761D-02
      9  0.000000D+00  0.000000D+00  0.104362D-01  0.000000D+00  0.000000D+00
     10 -0.107618D+00 -0.598450D-01  0.000000D+00  0.000000D+00 -0.472024D-01
     11 -0.107047D+00 -0.538855D+00  0.000000D+00  0.000000D+00  0.113392D-01
     12  0.000000D+00  0.000000D+00 -0.333572D-01  0.000000D+00  0.000000D+00
                6             7             8             9            10 
      6  0.100000D+01
      7  0.000000D+00  0.101502D-01
      8  0.000000D+00  0.269187D-02  0.207092D-01
      9  0.000000D+00  0.000000D+00  0.000000D+00  0.475177D-02
     10  0.000000D+00 -0.143594D-01  0.344947D-02  0.000000D+00  0.121977D+00
     11  0.000000D+00  0.344947D-02 -0.828649D-03  0.000000D+00  0.103598D+00
     12  0.000000D+00  0.000000D+00  0.000000D+00 -0.151880D-01  0.000000D+00
               11            12 
     11  0.528344D+00
     12  0.000000D+00  0.485452D-01
 Force constants in internal coordinates: 
                1             2             3             4             5 
      1  0.000000D+00
      2  0.000000D+00  0.553231D+00
      3  0.000000D+00  0.000000D+00  0.213558D-01
      4  0.000000D+00  0.000000D+00  0.000000D+00  0.553231D+00
      5  0.000000D+00  0.000000D+00  0.000000D+00  0.000000D+00  0.329589D+01
      6  0.000000D+00  0.000000D+00  0.000000D+00  0.000000D+00  0.000000D+00
      7  0.000000D+00  0.000000D+00  0.000000D+00  0.000000D+00  0.000000D+00
      8  0.000000D+00  0.000000D+00  0.000000D+00  0.000000D+00  0.000000D+00
      9  0.000000D+00  0.000000D+00  0.000000D+00  0.000000D+00  0.000000D+00
                6             7             8             9 
      6  0.160000D+00
      7 -0.160000D+00  0.160000D+00
      8  0.000000D+00  0.000000D+00  0.320000D+00
      9  0.000000D+00  0.000000D+00 -0.160000D+00  0.320000D+00
 Leave Link  716 at Tue Oct 12 14:02:29 2021, MaxMem=  1048576000 cpu:         0.2
 (Enter /usr/local/gaussian/g09/l103.exe)

 GradGradGradGradGradGradGradGradGradGradGradGradGradGradGradGradGradGrad
 Berny optimization.
 Search for a local minimum.
 Step number   1 out of a maximum of   20
 All quantities printed in internal units (Hartrees-Bohrs-Radians)
 Second derivative matrix not updated -- first step.
 The second derivative matrix:
                          r1        r2        r3        a1        OOP
           r1           0.55323
           r2          -0.00000   0.02136
           r3          -0.00000  -0.00000   0.55323
           a1          -0.00000  -0.00000  -0.00000   0.32000
           OOP          0.00000  -0.00000  -0.00000  -0.00000   0.16000
 ITU=  0
     Eigenvalues ---    0.02136   0.16000   0.32000   0.55323   0.55323
 RFO step:  Lambda=-3.97402457D-03 EMin= 2.13558189D-02
 Linear search not attempted -- first point.
 Maximum step size (   0.300) exceeded in Quadratic search.
    -- Step size scaled by   0.874
 Variable       Old X    -DE/DX   Delta X   Delta X   Delta X     New X
                                 (Linear)    (Quad)   (Total)
    r1        1.81546  -0.00118   0.00000  -0.00185  -0.00185   1.81361
    r2        5.80273   0.00862   0.00000   0.29757   0.29757   6.10030
    r3        1.81546   0.02374   0.00000   0.03725   0.03725   1.85271
    a1        1.80655  -0.00286   0.00000  -0.00771  -0.00771   1.79884
   OOP        1.57080  -0.00000   0.00000  -0.00000   0.00000   1.57080
         Item               Value     Threshold  Converged?
 Maximum Force            0.023743     0.000450     NO 
 RMS     Force            0.011381     0.000300     NO 
 Maximum Displacement     0.297572     0.001800     NO 
 RMS     Displacement     0.134164     0.001200     NO 
 Predicted change in Energy=-2.134420D-03
 Lowest energy point so far.  Saving SCF results.
 GradGradGradGradGradGradGradGradGradGradGradGradGradGradGradGradGradGrad

 Leave Link  103 at Tue Oct 12 14:02:29 2021, MaxMem=  1048576000 cpu:         0.1
 (Enter /usr/local/gaussian/g09/l202.exe)
 ---------------------------------------------------------------------------------------------------
                            Z-MATRIX (ANGSTROMS AND DEGREES)
   CD    Cent   Atom    N1       Length/X        N2       Alpha/Y        N3        Beta/Z          J
 ---------------------------------------------------------------------------------------------------
      1      1  O 
      2         X        1  10.000000(     1)
      3      2  H        1   0.959719(     2)      2   90.000(     5)
      4      3  Br       1   3.228141(     3)      2   90.000(     6)      3  103.066(     8)      0
      5      4  H        1   0.980413(     4)      2   90.000(     7)      3  103.066(     9)      0
 ---------------------------------------------------------------------------------------------------
                         Z-Matrix orientation:                         
 ---------------------------------------------------------------------
 Center     Atomic      Atomic             Coordinates (Angstroms)
 Number     Number       Type             X           Y           Z
 ---------------------------------------------------------------------
      1          8           0        0.000000    0.000000    0.000000
      2         -1           0        0.000000    0.000000   10.000000
      3          1           0        0.959719    0.000000    0.000000
      4         35           0       -0.729795   -3.144566    0.000000
      5          1           0       -0.221645   -0.955030    0.000000
 ---------------------------------------------------------------------
                    Distance matrix (angstroms):
                    1          2          3          4          5
     1  O    0.000000
     2  X   10.000000   0.000000
     3  H    0.959719  10.045947   0.000000
     4  Br   3.228141  10.508135   3.569699   0.000000
     5  H    0.980413  10.047946   1.519112   2.247728   0.000000
 Stoichiometry    BrH2O(1-)
 Framework group  CS[SG(BrH2O)]
 Deg. of freedom     5
 Full point group                 CS      NOp   2
 RotChk:  IX=0 Diff= 1.09D-02
 Largest Abelian subgroup         CS      NOp   2
 Largest concise Abelian subgroup C1      NOp   1
                         Standard orientation:                         
 ---------------------------------------------------------------------
 Center     Atomic      Atomic             Coordinates (Angstroms)
 Number     Number       Type             X           Y           Z
 ---------------------------------------------------------------------
      1          8           0        0.020775    2.527742   -0.000000
      2          1           0       -0.914097    2.744708   -0.000000
      3         35           0        0.020775   -0.700399    0.000000
      4          1           0        0.020775    1.547329   -0.000000
 ---------------------------------------------------------------------
 Rotational constants (GHZ):    327.4759077      3.1972669      3.1663526
 Leave Link  202 at Tue Oct 12 14:02:29 2021, MaxMem=  1048576000 cpu:         0.1
 (Enter /usr/local/gaussian/g09/l301.exe)
 Standard basis: Aug-CC-pVTZ (5D, 7F)
 Ernie: Thresh=  0.10000D-02 Tol=  0.10000D-05 Strict=F.
 Ernie:  35 primitive shells out of 175 were deleted.
 There are   120 symmetry adapted cartesian basis functions of A'  symmetry.
 There are    54 symmetry adapted cartesian basis functions of A"  symmetry.
 There are   101 symmetry adapted basis functions of A'  symmetry.
 There are    50 symmetry adapted basis functions of A"  symmetry.
   151 basis functions,   343 primitive gaussians,   174 cartesian basis functions
    23 alpha electrons       23 beta electrons
       nuclear repulsion energy        68.4052236181 Hartrees.
 IExCor=    0 DFT=F Ex=HF Corr=None ExCW=0 ScaHFX=  1.000000
 ScaDFX=  1.000000  1.000000  1.000000  1.000000 ScalE2=  1.000000  1.000000
 IRadAn=      0 IRanWt=     -1 IRanGd=            0 ICorTp=0 IEmpDi=  4
 NAtoms=    4 NActive=    4 NUniq=    4 SFac= 1.00D+00 NAtFMM=   60 NAOKFM=F Big=F
 Integral buffers will be    131072 words long.
 Raffenetti 1 integral format.
 Two-electron integral symmetry is turned on.
 Leave Link  301 at Tue Oct 12 14:02:29 2021, MaxMem=  1048576000 cpu:         0.3
 (Enter /usr/local/gaussian/g09/l302.exe)
 NPDir=0 NMtPBC=     1 NCelOv=     1 NCel=       1 NClECP=     1 NCelD=      1
         NCelK=      1 NCelE2=     1 NClLst=     1 CellRange=     0.0.
 One-electron integrals computed using PRISM.
 NBasis=   151 RedAO= T EigKep=  4.06D-04  NBF=   101    50
 NBsUse=   151 1.00D-06 EigRej= -1.00D+00 NBFU=   101    50
 Leave Link  302 at Tue Oct 12 14:02:29 2021, MaxMem=  1048576000 cpu:         1.5
 (Enter /usr/local/gaussian/g09/l303.exe)
 DipDrv:  MaxL=1.
 Leave Link  303 at Tue Oct 12 14:02:29 2021, MaxMem=  1048576000 cpu:         0.2
 (Enter /usr/local/gaussian/g09/l401.exe)
 Initial guess from the checkpoint file:  "/home/netid.washington.edu/cgavinh/mccoy_hocl/rOH_s_oop_0/brhod/brhod_0_opt.chk"
 B after Tr=    -0.000000   -0.000000    0.000000
         Rot=    1.000000    0.000000    0.000000    0.000705 Ang=   0.08 deg.
 Guess basis will be translated and rotated to current coordinates.
 JPrj=2 DoOrth=T DoCkMO=T.
 Initial guess orbital symmetries:
       Occupied  (A') (A') (A') (A") (A') (A') (A') (A') (A') (A")
                 (A') (A') (A") (A") (A') (A') (A') (A') (A') (A")
                 (A') (A') (A")
       Virtual   (A') (A') (A') (A') (A') (A') (A') (A') (A') (A')
                 (A') (A') (A') (A') (A') (A') (A') (A') (A') (A')
                 (A') (A') (A') (A') (A') (A') (A') (A') (A') (A')
                 (A') (A') (A') (A') (A') (A') (A') (A') (A') (A')
                 (A') (A') (A') (A') (A') (A') (A') (A') (A') (A')
                 (A') (A') (A') (A') (A') (A') (A') (A') (A') (A')
                 (A') (A') (A') (A') (A') (A') (A') (A') (A') (A')
                 (A') (A') (A') (A') (A') (A') (A') (A') (A') (A')
                 (A') (A') (A') (A') (A") (A") (A") (A") (A") (A")
                 (A") (A") (A") (A") (A") (A") (A") (A") (A") (A")
                 (A") (A") (A") (A") (A") (A") (A") (A") (A") (A")
                 (A") (A") (A") (A") (A") (A") (A") (A") (A") (A")
                 (A") (A") (A") (A") (A") (A") (A") (A")
 The electronic state of the initial guess is 1-A'.
 Generating alternative initial guess.
 ExpMin= 2.53D-02 ExpMax= 1.06D+07 ExpMxC= 1.21D+04 IAcc=3 IRadAn=         5 AccDes= 0.00D+00
 Harris functional with IExCor=  205 and IRadAn=       5 diagonalized for initial guess.
 HarFok:  IExCor=  205 AccDes= 0.00D+00 IRadAn=         5 IDoV= 1 UseB2=F ITyADJ=14
 ICtDFT=  3500011 ScaDFX=  1.000000  1.000000  1.000000  1.000000
 FoFCou: FMM=F IPFlag=           0 FMFlag=      100000 FMFlg1=           0
         NFxFlg=           0 DoJE=T BraDBF=F KetDBF=T FulRan=T
         wScrn=  0.000000 ICntrl=     500 IOpCl=  0 I1Cent=   200000004 NGrid=           0
         NMat0=    1 NMatS0=      1 NMatT0=    0 NMatD0=    1 NMtDS0=    0 NMtDT0=    0
 Petite list used in FoFCou.
 Harris En= -2648.01734839606    
 Leave Link  401 at Tue Oct 12 14:02:29 2021, MaxMem=  1048576000 cpu:         6.3
 (Enter /usr/local/gaussian/g09/l502.exe)
 Closed shell SCF:
 Using DIIS extrapolation, IDIIS=  1040.
 Integral symmetry usage will be decided dynamically.
 Keep R1 ints in memory in symmetry-blocked form, NReq=99396593.
 IVT=      112775 IEndB=      112775 NGot=  1048576000 MDV=  1015034585
 LenX=  1015034585 LenY=  1015003868
 Requested convergence on RMS density matrix=1.00D-08 within 128 cycles.
 Requested convergence on MAX density matrix=1.00D-06.
 Requested convergence on             energy=1.00D-06.
 No special actions if energy rises.
 FoFCou: FMM=F IPFlag=           0 FMFlag=           0 FMFlg1=           0
         NFxFlg=           0 DoJE=F BraDBF=F KetDBF=F FulRan=T
         wScrn=  0.000000 ICntrl=     600 IOpCl=  0 I1Cent=           0 NGrid=           0
         NMat0=    1 NMatS0=  11476 NMatT0=    0 NMatD0=    1 NMtDS0=    0 NMtDT0=    0
 Petite list used in FoFCou.

 Cycle   1  Pass 1  IDiag  1:
 E= -2648.60688860333    
 DIIS: error= 1.61D-03 at cycle   1 NSaved=   1.
 NSaved= 1 IEnMin= 1 EnMin= -2648.60688860333     IErMin= 1 ErrMin= 1.61D-03
 ErrMax= 1.61D-03  0.00D+00 EMaxC= 1.00D-01 BMatC= 4.02D-04 BMatP= 4.02D-04
 IDIUse=3 WtCom= 9.84D-01 WtEn= 1.61D-02
 Coeff-Com:  0.100D+01
 Coeff-En:   0.100D+01
 Coeff:      0.100D+01
 Gap=     0.610 Goal=   None    Shift=    0.000
 GapD=    0.610 DampG=2.000 DampE=1.000 DampFc=2.0000 IDamp=-1.
 RMSDP=2.08D-04 MaxDP=9.47D-03              OVMax= 7.15D-03

 Cycle   2  Pass 1  IDiag  1:
 E= -2648.60726567901     Delta-E=       -0.000377075676 Rises=F Damp=F
 DIIS: error= 3.46D-04 at cycle   2 NSaved=   2.
 NSaved= 2 IEnMin= 2 EnMin= -2648.60726567901     IErMin= 2 ErrMin= 3.46D-04
 ErrMax= 3.46D-04  0.00D+00 EMaxC= 1.00D-01 BMatC= 1.34D-05 BMatP= 4.02D-04
 IDIUse=3 WtCom= 9.97D-01 WtEn= 3.46D-03
 Coeff-Com: -0.926D-01 0.109D+01
 Coeff-En:   0.000D+00 0.100D+01
 Coeff:     -0.923D-01 0.109D+01
 Gap=     0.297 Goal=   None    Shift=    0.000
 RMSDP=3.18D-05 MaxDP=1.24D-03 DE=-3.77D-04 OVMax= 1.93D-03

 Cycle   3  Pass 1  IDiag  1:
 E= -2648.60728726313     Delta-E=       -0.000021584120 Rises=F Damp=F
 DIIS: error= 1.13D-04 at cycle   3 NSaved=   3.
 NSaved= 3 IEnMin= 3 EnMin= -2648.60728726313     IErMin= 3 ErrMin= 1.13D-04
 ErrMax= 1.13D-04  0.00D+00 EMaxC= 1.00D-01 BMatC= 1.40D-06 BMatP= 1.34D-05
 IDIUse=3 WtCom= 9.99D-01 WtEn= 1.13D-03
 Coeff-Com: -0.308D-01 0.123D+00 0.908D+00
 Coeff-En:   0.000D+00 0.000D+00 0.100D+01
 Coeff:     -0.308D-01 0.122D+00 0.908D+00
 Gap=     0.296 Goal=   None    Shift=    0.000
 RMSDP=8.44D-06 MaxDP=2.67D-04 DE=-2.16D-05 OVMax= 5.79D-04

 Cycle   4  Pass 1  IDiag  1:
 E= -2648.60728931921     Delta-E=       -0.000002056083 Rises=F Damp=F
 DIIS: error= 4.30D-05 at cycle   4 NSaved=   4.
 NSaved= 4 IEnMin= 4 EnMin= -2648.60728931921     IErMin= 4 ErrMin= 4.30D-05
 ErrMax= 4.30D-05  0.00D+00 EMaxC= 1.00D-01 BMatC= 2.43D-07 BMatP= 1.40D-06
 IDIUse=1 WtCom= 1.00D+00 WtEn= 0.00D+00
 Coeff-Com:  0.636D-02-0.113D+00 0.135D+00 0.971D+00
 Coeff:      0.636D-02-0.113D+00 0.135D+00 0.971D+00
 Gap=     0.296 Goal=   None    Shift=    0.000
 RMSDP=4.70D-06 MaxDP=1.49D-04 DE=-2.06D-06 OVMax= 2.53D-04

 Cycle   5  Pass 1  IDiag  1:
 E= -2648.60728969126     Delta-E=       -0.000000372052 Rises=F Damp=F
 DIIS: error= 1.36D-05 at cycle   5 NSaved=   5.
 NSaved= 5 IEnMin= 5 EnMin= -2648.60728969126     IErMin= 5 ErrMin= 1.36D-05
 ErrMax= 1.36D-05  0.00D+00 EMaxC= 1.00D-01 BMatC= 2.01D-08 BMatP= 2.43D-07
 IDIUse=1 WtCom= 1.00D+00 WtEn= 0.00D+00
 Coeff-Com:  0.440D-02-0.360D-01-0.527D-01 0.157D+00 0.927D+00
 Coeff:      0.440D-02-0.360D-01-0.527D-01 0.157D+00 0.927D+00
 Gap=     0.296 Goal=   None    Shift=    0.000
 RMSDP=1.43D-06 MaxDP=5.24D-05 DE=-3.72D-07 OVMax= 6.71D-05

 Cycle   6  Pass 1  IDiag  1:
 E= -2648.60728972612     Delta-E=       -0.000000034858 Rises=F Damp=F
 DIIS: error= 4.06D-06 at cycle   6 NSaved=   6.
 NSaved= 6 IEnMin= 6 EnMin= -2648.60728972612     IErMin= 6 ErrMin= 4.06D-06
 ErrMax= 4.06D-06  0.00D+00 EMaxC= 1.00D-01 BMatC= 1.41D-09 BMatP= 2.01D-08
 IDIUse=1 WtCom= 1.00D+00 WtEn= 0.00D+00
 Coeff-Com: -0.527D-03 0.958D-02-0.102D-01-0.925D-01 0.194D-02 0.109D+01
 Coeff:     -0.527D-03 0.958D-02-0.102D-01-0.925D-01 0.194D-02 0.109D+01
 Gap=     0.296 Goal=   None    Shift=    0.000
 RMSDP=6.26D-07 MaxDP=2.50D-05 DE=-3.49D-08 OVMax= 3.43D-05

 Cycle   7  Pass 1  IDiag  1:
 E= -2648.60728972950     Delta-E=       -0.000000003382 Rises=F Damp=F
 DIIS: error= 8.80D-07 at cycle   7 NSaved=   7.
 NSaved= 7 IEnMin= 7 EnMin= -2648.60728972950     IErMin= 7 ErrMin= 8.80D-07
 ErrMax= 8.80D-07  0.00D+00 EMaxC= 1.00D-01 BMatC= 9.78D-11 BMatP= 1.41D-09
 IDIUse=1 WtCom= 1.00D+00 WtEn= 0.00D+00
 Coeff-Com: -0.348D-03 0.334D-02 0.216D-02-0.158D-01-0.586D-01 0.550D-01
 Coeff-Com:  0.101D+01
 Coeff:     -0.348D-03 0.334D-02 0.216D-02-0.158D-01-0.586D-01 0.550D-01
 Coeff:      0.101D+01
 Gap=     0.296 Goal=   None    Shift=    0.000
 RMSDP=2.52D-07 MaxDP=1.28D-05 DE=-3.38D-09 OVMax= 8.38D-06

 Cycle   8  Pass 1  IDiag  1:
 E= -2648.60728972973     Delta-E=       -0.000000000233 Rises=F Damp=F
 DIIS: error= 1.96D-07 at cycle   8 NSaved=   8.
 NSaved= 8 IEnMin= 8 EnMin= -2648.60728972973     IErMin= 8 ErrMin= 1.96D-07
 ErrMax= 1.96D-07  0.00D+00 EMaxC= 1.00D-01 BMatC= 8.56D-12 BMatP= 9.78D-11
 IDIUse=1 WtCom= 1.00D+00 WtEn= 0.00D+00
 Coeff-Com:  0.697D-04-0.992D-03 0.295D-03 0.886D-02 0.545D-02-0.100D+00
 Coeff-Com: -0.640D-01 0.115D+01
 Coeff:      0.697D-04-0.992D-03 0.295D-03 0.886D-02 0.545D-02-0.100D+00
 Coeff:     -0.640D-01 0.115D+01
 Gap=     0.296 Goal=   None    Shift=    0.000
 RMSDP=8.61D-08 MaxDP=3.82D-06 DE=-2.33D-10 OVMax= 2.89D-06

 Cycle   9  Pass 1  IDiag  1:
 E= -2648.60728972976     Delta-E=       -0.000000000028 Rises=F Damp=F
 DIIS: error= 6.36D-08 at cycle   9 NSaved=   9.
 NSaved= 9 IEnMin= 9 EnMin= -2648.60728972976     IErMin= 9 ErrMin= 6.36D-08
 ErrMax= 6.36D-08  0.00D+00 EMaxC= 1.00D-01 BMatC= 5.18D-13 BMatP= 8.56D-12
 IDIUse=1 WtCom= 1.00D+00 WtEn= 0.00D+00
 Coeff-Com:  0.235D-04-0.238D-03-0.184D-03 0.118D-02 0.475D-02-0.811D-02
 Coeff-Com: -0.826D-01 0.102D+00 0.983D+00
 Coeff:      0.235D-04-0.238D-03-0.184D-03 0.118D-02 0.475D-02-0.811D-02
 Coeff:     -0.826D-01 0.102D+00 0.983D+00
 Gap=     0.296 Goal=   None    Shift=    0.000
 RMSDP=1.05D-08 MaxDP=4.15D-07 DE=-2.82D-11 OVMax= 7.61D-07

 Cycle  10  Pass 1  IDiag  1:
 E= -2648.60728972977     Delta-E=       -0.000000000004 Rises=F Damp=F
 DIIS: error= 1.35D-08 at cycle  10 NSaved=  10.
 NSaved=10 IEnMin=10 EnMin= -2648.60728972977     IErMin=10 ErrMin= 1.35D-08
 ErrMax= 1.35D-08  0.00D+00 EMaxC= 1.00D-01 BMatC= 1.95D-14 BMatP= 5.18D-13
 IDIUse=1 WtCom= 1.00D+00 WtEn= 0.00D+00
 Coeff-Com: -0.556D-05 0.718D-04 0.191D-04-0.525D-03-0.849D-03 0.543D-02
 Coeff-Com:  0.162D-01-0.760D-01-0.151D+00 0.121D+01
 Coeff:     -0.556D-05 0.718D-04 0.191D-04-0.525D-03-0.849D-03 0.543D-02
 Coeff:      0.162D-01-0.760D-01-0.151D+00 0.121D+01
 Gap=     0.296 Goal=   None    Shift=    0.000
 RMSDP=6.88D-09 MaxDP=3.53D-07 DE=-4.09D-12 OVMax= 1.88D-07

 SCF Done:  E(RHF) =  -2648.60728973     A.U. after   10 cycles
            NFock= 10  Conv=0.69D-08     -V/T= 2.0000
 KE= 2.648534225623D+03 PE=-6.484753814566D+03 EE= 1.119207075595D+03
 Leave Link  502 at Tue Oct 12 14:02:31 2021, MaxMem=  1048576000 cpu:        19.2
 (Enter /usr/local/gaussian/g09/l801.exe)
 ExpMin= 2.53D-02 ExpMax= 1.06D+07 ExpMxC= 1.21D+04 IAcc=3 IRadAn=         5 AccDes= 0.00D+00
 HarFok:  IExCor=  205 AccDes= 0.00D+00 IRadAn=         5 IDoV=-2 UseB2=F ITyADJ=14
 ICtDFT= 12500011 ScaDFX=  1.000000  1.000000  1.000000  1.000000
 Largest valence mixing into a core orbital is  1.27D-04
 Largest core mixing into a valence orbital is  3.62D-05
 Range of M.O.s used for correlation:    11   151
 NBasis=   151 NAE=    23 NBE=    23 NFC=    10 NFV=     0
 NROrb=    141 NOA=    13 NOB=    13 NVA=   128 NVB=   128

 **** Warning!!: The largest alpha MO coefficient is  0.14467065D+02

 Leave Link  801 at Tue Oct 12 14:02:31 2021, MaxMem=  1048576000 cpu:         0.5
 (Enter /usr/local/gaussian/g09/l906.exe)
 Frozen-core derivative calculation, NFC=  10 NFV=   0.
 FulOut=F Deriv=T AODrv=T NAtomX=     4
   MMem=         386  MDisk=          13 MDiskD=          13
  W3Min=      604302 MinDsk=     1007783 NBas6D=         174
 NBas2D=       15618    NTT=       15225    LW2=     9911920
    MDV=  1048191022 MDiskM=       30062 NBas2p=       15554
 Fully direct method using O(ONN) memory.
 IMap=   1   2   3   4   5   6   7   8   9  10  11  12  13  14  15  16  17  18  19  20
 IMap=  21  22  23
 JobTyp=1 Pass  1:  I=  11 to  13 NPSUse=  7 ParTrn=T ParDer=T DoDerP=T.
 JobTyp=1 Pass  2:  I=  14 to  16 NPSUse=  7 ParTrn=T ParDer=T DoDerP=T.
 JobTyp=1 Pass  3:  I=  17 to  19 NPSUse=  7 ParTrn=T ParDer=T DoDerP=T.
 JobTyp=1 Pass  4:  I=  20 to  22 NPSUse=  7 ParTrn=T ParDer=T DoDerP=T.
 JobTyp=1 Pass  5:  I=  23 to  23 NPSUse=  7 ParTrn=T ParDer=T DoDerP=T.
 Spin components of T(2) and E(2):
     alpha-alpha T2 =       0.2053758197D-01 E2=     -0.6994994509D-01
     alpha-beta  T2 =       0.1087282977D+00 E2=     -0.3788963895D+00
     beta-beta   T2 =       0.2053758197D-01 E2=     -0.6994994509D-01
 The integrals were generated   5 times.
 ANorm=    0.1072288889D+01
 E2 =    -0.5187962797D+00 EUMP2 =    -0.26491260860095D+04
 Leave Link  906 at Tue Oct 12 14:03:02 2021, MaxMem=  1048576000 cpu:       213.9
 (Enter /usr/local/gaussian/g09/l1002.exe)
 Minotr:  Closed shell wavefunction.
          Computing MP2/KS-MP2 derivatives.
          Using Z-Vector for PSCF gradient.
          Skipping F1 and S1 gradient terms here.
          IDoAtm=1111
          Frozen-core window.
          Direct CPHF calculation.
          Differentiating once with respect to electric field.
                with respect to dipole field.
          Differentiating once with respect to nuclear coordinates.
          Using symmetry in CPHF.
          Requested convergence is 1.0D-10 RMS, and 1.0D-09 maximum.
          NewPWx=F KeepS1=T KeepF1=T KeepIn=T MapXYZ=F SortEE=F KeepMc=T.
          MDV=    1048575815 using IRadAn=       0.
 Keep R1 ints in memory in symmetry-blocked form, NReq=99285251.
 FoFCou: FMM=F IPFlag=           0 FMFlag=           0 FMFlg1=           0
         NFxFlg=           0 DoJE=F BraDBF=F KetDBF=F FulRan=T
         wScrn=  0.000000 ICntrl=     600 IOpCl=  0 I1Cent=           0 NGrid=           0
         NMat0=    1 NMatS0=  11476 NMatT0=    0 NMatD0=    1 NMtDS0=    0 NMtDT0=    0
 Petite list used in FoFCou.
          Solving linear equations separately, MaxMat=       0.
          There are     1 degrees of freedom in the 1st order CPHF.  IDoFFX=0 NUNeed=     1.
 LinEq1:  Iter=  0 NonCon=     1 RMS=2.39D-03 Max=4.88D-02 NDo=     1
 AX will form     1 AO Fock derivatives at one time.
 LinEq1:  Iter=  1 NonCon=     1 RMS=3.96D-04 Max=5.07D-03 NDo=     1
 LinEq1:  Iter=  2 NonCon=     1 RMS=1.86D-04 Max=2.32D-03 NDo=     1
 LinEq1:  Iter=  3 NonCon=     1 RMS=5.17D-05 Max=9.90D-04 NDo=     1
 LinEq1:  Iter=  4 NonCon=     1 RMS=1.02D-05 Max=1.29D-04 NDo=     1
 LinEq1:  Iter=  5 NonCon=     1 RMS=4.49D-06 Max=6.43D-05 NDo=     1
 LinEq1:  Iter=  6 NonCon=     1 RMS=8.97D-07 Max=1.92D-05 NDo=     1
 LinEq1:  Iter=  7 NonCon=     1 RMS=2.02D-07 Max=3.28D-06 NDo=     1
 LinEq1:  Iter=  8 NonCon=     1 RMS=5.71D-08 Max=8.74D-07 NDo=     1
 LinEq1:  Iter=  9 NonCon=     1 RMS=7.25D-09 Max=1.36D-07 NDo=     1
 LinEq1:  Iter= 10 NonCon=     1 RMS=9.14D-10 Max=1.15D-08 NDo=     1
 LinEq1:  Iter= 11 NonCon=     1 RMS=2.65D-10 Max=5.38D-09 NDo=     1
 LinEq1:  Iter= 12 NonCon=     0 RMS=5.20D-11 Max=6.94D-10 NDo=     1
 Linear equations converged to 1.000D-10 1.000D-09 after    12 iterations.
 End of Minotr F.D. properties file   721 does not exist.
 End of Minotr F.D. properties file   722 does not exist.
 End of Minotr F.D. properties file   788 does not exist.
 Leave Link 1002 at Tue Oct 12 14:03:04 2021, MaxMem=  1048576000 cpu:        16.6
 (Enter /usr/local/gaussian/g09/l701.exe)
 Compute integral first derivatives.
 ... and contract with generalized density number  2.
 Leave Link  701 at Tue Oct 12 14:03:04 2021, MaxMem=  1048576000 cpu:         2.0
 (Enter /usr/local/gaussian/g09/l702.exe)
 L702 exits ... SP integral derivatives will be done elsewhere.
 Leave Link  702 at Tue Oct 12 14:03:04 2021, MaxMem=  1048576000 cpu:         0.1
 (Enter /usr/local/gaussian/g09/l703.exe)
 Compute integral first derivatives, UseDBF=F ICtDFT=           0.
 Integral derivatives from FoFJK, PRISM(SPDF).
 Calling FoFJK, ICntrl=  10002127 FMM=F ISym2X=1 I1Cent= 0 IOpClX= 0 NMat=1 NMatS=1 NMatT=0.
 FoFJK:  IHMeth= 1 ICntrl=10002127 DoSepK=F KAlg= 0 I1Cent=   0 FoldK=F
 IRaf=         0 NMat=   1 IRICut=       1 DoRegI=T DoRafI=F ISym2E= 1.
 FoFCou: FMM=F IPFlag=           0 FMFlag=      100000 FMFlg1=         800
         NFxFlg=           0 DoJE=F BraDBF=F KetDBF=F FulRan=T
         wScrn=  0.000000 ICntrl=10002127 IOpCl=  0 I1Cent=           0 NGrid=           0
         NMat0=    1 NMatS0=      1 NMatT0=    0 NMatD0=    1 NMtDS0=    0 NMtDT0=    0
 Petite list used in FoFCou.
 Leave Link  703 at Tue Oct 12 14:03:06 2021, MaxMem=  1048576000 cpu:        21.4
 (Enter /usr/local/gaussian/g09/l716.exe)
 Dipole        =-5.43678480D-01 2.67999880D-01-1.23004567D-32
 ***** Axes restored to original set *****
 -------------------------------------------------------------------
 Center     Atomic                   Forces (Hartrees/Bohr)
 Number     Number              X              Y              Z
 -------------------------------------------------------------------
      1        8           0.001838361    0.007938670   -0.000000000
      2        1           0.000259205   -0.001556563    0.000000000
      3       35           0.000674001   -0.001194125    0.000000000
      4        1          -0.002771567   -0.005187982    0.000000000
 -------------------------------------------------------------------
 Cartesian Forces:  Max     0.007938670 RMS     0.002963234
 -----------------------------------------------------------------------------------------------
                       Internal Coordinate Forces (Hartree/Bohr or radian)
  Cent   Atom   N1       Length/X         N2         Alpha/Y        N3         Beta/Z          J
 -----------------------------------------------------------------------------------------------
      1  O 
         X        1   0.000000(     1)
      2  H        1   0.000259(     2)      2  -0.000000(     5)
      3  Br       1   0.001011(     3)      2  -0.000000(     6)      3  -0.005652(     8)     0
      4  H        1   0.005680(     4)      2  -0.000000(     7)      3   0.002829(     9)     0
 -----------------------------------------------------------------------------------------------
 Internal  Forces:  Max     0.005680243 RMS     0.002853895
 Leave Link  716 at Tue Oct 12 14:03:06 2021, MaxMem=  1048576000 cpu:         0.2
 (Enter /usr/local/gaussian/g09/l103.exe)

 GradGradGradGradGradGradGradGradGradGradGradGradGradGradGradGradGradGrad
 Berny optimization.
 Search for a local minimum.
 Step number   2 out of a maximum of   20
 All quantities printed in internal units (Hartrees-Bohrs-Radians)
 Update second derivatives using D2CorN and points    1    2
 DE= -1.90D-03 DEPred=-2.13D-03 R= 8.90D-01
 TightC=F SS=  1.41D+00  RLast= 3.00D-01 DXNew= 5.0454D-01 9.0000D-01
 Trust test= 8.90D-01 RLast= 3.00D-01 DXMaxT set to 5.05D-01
 The second derivative matrix:
                          r1        r2        r3        a1        OOP
           r1           0.55324
           r2          -0.00070   0.02551
           r3          -0.00006  -0.00395   0.55218
           a1          -0.00001   0.00397   0.00061   0.31979
           OOP         -0.00000  -0.00000  -0.00000  -0.00000   0.16000
 ITU=  1  0
     Eigenvalues ---    0.02542   0.16000   0.31984   0.55221   0.55324
 RFO step:  Lambda=-3.07136606D-05 EMin= 2.54242376D-02
 Quartic linear search produced a step of  0.24199.
 Variable       Old X    -DE/DX   Delta X   Delta X   Delta X     New X
                                 (Linear)    (Quad)   (Total)
    r1        1.81361   0.00026  -0.00045   0.00108   0.00063   1.81424
    r2        6.10030   0.00101   0.07201  -0.00773   0.06428   6.16458
    r3        1.85271   0.00568   0.00901   0.00246   0.01147   1.86419
    a1        1.79884  -0.00282  -0.00187  -0.00876  -0.01062   1.78822
   OOP        1.57080  -0.00000   0.00000  -0.00000   0.00000   1.57080
         Item               Value     Threshold  Converged?
 Maximum Force            0.005680     0.000450     NO 
 RMS     Force            0.002875     0.000300     NO 
 Maximum Displacement     0.064278     0.001800     NO 
 RMS     Displacement     0.029586     0.001200     NO 
 Predicted change in Energy=-5.882994D-05
 Lowest energy point so far.  Saving SCF results.
 GradGradGradGradGradGradGradGradGradGradGradGradGradGradGradGradGradGrad

 Leave Link  103 at Tue Oct 12 14:03:06 2021, MaxMem=  1048576000 cpu:         0.1
 (Enter /usr/local/gaussian/g09/l202.exe)
 ---------------------------------------------------------------------------------------------------
                            Z-MATRIX (ANGSTROMS AND DEGREES)
   CD    Cent   Atom    N1       Length/X        N2       Alpha/Y        N3        Beta/Z          J
 ---------------------------------------------------------------------------------------------------
      1      1  O 
      2         X        1  10.000000(     1)
      3      2  H        1   0.960054(     2)      2   90.000(     5)
      4      3  Br       1   3.262156(     3)      2   90.000(     6)      3  102.457(     8)      0
      5      4  H        1   0.986484(     4)      2   90.000(     7)      3  102.457(     9)      0
 ---------------------------------------------------------------------------------------------------
                         Z-Matrix orientation:                         
 ---------------------------------------------------------------------
 Center     Atomic      Atomic             Coordinates (Angstroms)
 Number     Number       Type             X           Y           Z
 ---------------------------------------------------------------------
      1          8           0        0.000000    0.000000    0.000000
      2         -1           0        0.000000    0.000000   10.000000
      3          1           0        0.960054    0.000000    0.000000
      4         35           0       -0.703687   -3.185355    0.000000
      5          1           0       -0.212797   -0.963260    0.000000
 ---------------------------------------------------------------------
                    Distance matrix (angstroms):
                    1          2          3          4          5
     1  O    0.000000
     2  X   10.000000   0.000000
     3  H    0.960054  10.045979   0.000000
     4  Br   3.262156  10.518634   3.593678   0.000000
     5  H    0.986484  10.048540   1.517711   2.275671   0.000000
 Stoichiometry    BrH2O(1-)
 Framework group  CS[SG(BrH2O)]
 Deg. of freedom     5
 Full point group                 CS      NOp   2
 RotChk:  IX=0 Diff= 1.50D-02
 Largest Abelian subgroup         CS      NOp   2
 Largest concise Abelian subgroup C1      NOp   1
                         Standard orientation:                         
 ---------------------------------------------------------------------
 Center     Atomic      Atomic             Coordinates (Angstroms)
 Number     Number       Type             X           Y           Z
 ---------------------------------------------------------------------
      1          8           0        0.020832    2.554552    0.000000
      2          1           0       -0.916619    2.761647    0.000000
      3         35           0        0.020832   -0.707604   -0.000000
      4          1           0        0.020832    1.568068    0.000000
 ---------------------------------------------------------------------
 Rotational constants (GHZ):    325.3817965      3.1334533      3.1035658
 Leave Link  202 at Tue Oct 12 14:03:06 2021, MaxMem=  1048576000 cpu:         0.1
 (Enter /usr/local/gaussian/g09/l301.exe)
 Standard basis: Aug-CC-pVTZ (5D, 7F)
 Ernie: Thresh=  0.10000D-02 Tol=  0.10000D-05 Strict=F.
 Ernie:  35 primitive shells out of 175 were deleted.
 There are   120 symmetry adapted cartesian basis functions of A'  symmetry.
 There are    54 symmetry adapted cartesian basis functions of A"  symmetry.
 There are   101 symmetry adapted basis functions of A'  symmetry.
 There are    50 symmetry adapted basis functions of A"  symmetry.
   151 basis functions,   343 primitive gaussians,   174 cartesian basis functions
    23 alpha electrons       23 beta electrons
       nuclear repulsion energy        67.7630333834 Hartrees.
 IExCor=    0 DFT=F Ex=HF Corr=None ExCW=0 ScaHFX=  1.000000
 ScaDFX=  1.000000  1.000000  1.000000  1.000000 ScalE2=  1.000000  1.000000
 IRadAn=      0 IRanWt=     -1 IRanGd=            0 ICorTp=0 IEmpDi=  4
 NAtoms=    4 NActive=    4 NUniq=    4 SFac= 1.00D+00 NAtFMM=   60 NAOKFM=F Big=F
 Integral buffers will be    131072 words long.
 Raffenetti 1 integral format.
 Two-electron integral symmetry is turned on.
 Leave Link  301 at Tue Oct 12 14:03:06 2021, MaxMem=  1048576000 cpu:         0.3
 (Enter /usr/local/gaussian/g09/l302.exe)
 NPDir=0 NMtPBC=     1 NCelOv=     1 NCel=       1 NClECP=     1 NCelD=      1
         NCelK=      1 NCelE2=     1 NClLst=     1 CellRange=     0.0.
 One-electron integrals computed using PRISM.
 NBasis=   151 RedAO= T EigKep=  4.14D-04  NBF=   101    50
 NBsUse=   151 1.00D-06 EigRej= -1.00D+00 NBFU=   101    50
 Leave Link  302 at Tue Oct 12 14:03:06 2021, MaxMem=  1048576000 cpu:         1.5
 (Enter /usr/local/gaussian/g09/l303.exe)
 DipDrv:  MaxL=1.
 Leave Link  303 at Tue Oct 12 14:03:06 2021, MaxMem=  1048576000 cpu:         0.2
 (Enter /usr/local/gaussian/g09/l401.exe)
 Initial guess from the checkpoint file:  "/home/netid.washington.edu/cgavinh/mccoy_hocl/rOH_s_oop_0/brhod/brhod_0_opt.chk"
 B after Tr=     0.000000    0.000000   -0.000000
         Rot=    1.000000    0.000000    0.000000    0.000055 Ang=   0.01 deg.
 Guess basis will be translated and rotated to current coordinates.
 JPrj=2 DoOrth=T DoCkMO=T.
 Initial guess orbital symmetries:
       Occupied  (A') (A') (A') (A") (A') (A') (A') (A') (A') (A")
                 (A') (A') (A") (A") (A') (A') (A') (A') (A') (A")
                 (A') (A') (A")
       Virtual   (A') (A') (A') (A') (A') (A') (A') (A') (A') (A')
                 (A') (A') (A') (A') (A') (A') (A') (A') (A') (A')
                 (A') (A') (A') (A') (A') (A') (A') (A') (A') (A')
                 (A') (A') (A') (A') (A') (A') (A') (A') (A') (A')
                 (A') (A') (A') (A') (A') (A') (A') (A') (A') (A')
                 (A') (A') (A') (A') (A') (A') (A') (A') (A') (A')
                 (A') (A') (A') (A') (A') (A') (A') (A') (A') (A')
                 (A') (A') (A') (A') (A') (A') (A') (A') (A') (A')
                 (A') (A') (A') (A') (A") (A") (A") (A") (A") (A")
                 (A") (A") (A") (A") (A") (A") (A") (A") (A") (A")
                 (A") (A") (A") (A") (A") (A") (A") (A") (A") (A")
                 (A") (A") (A") (A") (A") (A") (A") (A") (A") (A")
                 (A") (A") (A") (A") (A") (A") (A") (A")
 The electronic state of the initial guess is 1-A'.
 Generating alternative initial guess.
 ExpMin= 2.53D-02 ExpMax= 1.06D+07 ExpMxC= 1.21D+04 IAcc=3 IRadAn=         5 AccDes= 0.00D+00
 Harris functional with IExCor=  205 and IRadAn=       5 diagonalized for initial guess.
 HarFok:  IExCor=  205 AccDes= 0.00D+00 IRadAn=         5 IDoV= 1 UseB2=F ITyADJ=14
 ICtDFT=  3500011 ScaDFX=  1.000000  1.000000  1.000000  1.000000
 FoFCou: FMM=F IPFlag=           0 FMFlag=      100000 FMFlg1=           0
         NFxFlg=           0 DoJE=T BraDBF=F KetDBF=T FulRan=T
         wScrn=  0.000000 ICntrl=     500 IOpCl=  0 I1Cent=   200000004 NGrid=           0
         NMat0=    1 NMatS0=      1 NMatT0=    0 NMatD0=    1 NMtDS0=    0 NMtDT0=    0
 Petite list used in FoFCou.
 Harris En= -2648.01699865846    
 Leave Link  401 at Tue Oct 12 14:03:06 2021, MaxMem=  1048576000 cpu:         2.8
 (Enter /usr/local/gaussian/g09/l502.exe)
 Closed shell SCF:
 Using DIIS extrapolation, IDIIS=  1040.
 Integral symmetry usage will be decided dynamically.
 Keep R1 ints in memory in symmetry-blocked form, NReq=99396593.
 IVT=      112775 IEndB=      112775 NGot=  1048576000 MDV=  1015034585
 LenX=  1015034585 LenY=  1015003868
 Requested convergence on RMS density matrix=1.00D-08 within 128 cycles.
 Requested convergence on MAX density matrix=1.00D-06.
 Requested convergence on             energy=1.00D-06.
 No special actions if energy rises.
 FoFCou: FMM=F IPFlag=           0 FMFlag=           0 FMFlg1=           0
         NFxFlg=           0 DoJE=F BraDBF=F KetDBF=F FulRan=T
         wScrn=  0.000000 ICntrl=     600 IOpCl=  0 I1Cent=           0 NGrid=           0
         NMat0=    1 NMatS0=  11476 NMatT0=    0 NMatD0=    1 NMtDS0=    0 NMtDT0=    0
 Petite list used in FoFCou.

 Cycle   1  Pass 1  IDiag  1:
 E= -2648.60737617147    
 DIIS: error= 4.50D-04 at cycle   1 NSaved=   1.
 NSaved= 1 IEnMin= 1 EnMin= -2648.60737617147     IErMin= 1 ErrMin= 4.50D-04
 ErrMax= 4.50D-04  0.00D+00 EMaxC= 1.00D-01 BMatC= 3.43D-05 BMatP= 3.43D-05
 IDIUse=3 WtCom= 9.96D-01 WtEn= 4.50D-03
 Coeff-Com:  0.100D+01
 Coeff-En:   0.100D+01
 Coeff:      0.100D+01
 Gap=     0.605 Goal=   None    Shift=    0.000
 RMSDP=4.52D-05 MaxDP=1.61D-03              OVMax= 1.70D-03

 Cycle   2  Pass 1  IDiag  1:
 E= -2648.60740579210     Delta-E=       -0.000029620625 Rises=F Damp=F
 DIIS: error= 8.08D-05 at cycle   2 NSaved=   2.
 NSaved= 2 IEnMin= 2 EnMin= -2648.60740579210     IErMin= 2 ErrMin= 8.08D-05
 ErrMax= 8.08D-05  0.00D+00 EMaxC= 1.00D-01 BMatC= 1.43D-06 BMatP= 3.43D-05
 IDIUse=1 WtCom= 1.00D+00 WtEn= 0.00D+00
 Coeff-Com: -0.129D+00 0.113D+01
 Coeff:     -0.129D+00 0.113D+01
 Gap=     0.296 Goal=   None    Shift=    0.000
 RMSDP=8.45D-06 MaxDP=2.49D-04 DE=-2.96D-05 OVMax= 5.82D-04

 Cycle   3  Pass 1  IDiag  1:
 E= -2648.60740787839     Delta-E=       -0.000002086291 Rises=F Damp=F
 DIIS: error= 2.88D-05 at cycle   3 NSaved=   3.
 NSaved= 3 IEnMin= 3 EnMin= -2648.60740787839     IErMin= 3 ErrMin= 2.88D-05
 ErrMax= 2.88D-05  0.00D+00 EMaxC= 1.00D-01 BMatC= 7.90D-08 BMatP= 1.43D-06
 IDIUse=1 WtCom= 1.00D+00 WtEn= 0.00D+00
 Coeff-Com: -0.185D-01-0.354D-01 0.105D+01
 Coeff:     -0.185D-01-0.354D-01 0.105D+01
 Gap=     0.296 Goal=   None    Shift=    0.000
 RMSDP=2.43D-06 MaxDP=6.37D-05 DE=-2.09D-06 OVMax= 1.70D-04

 Cycle   4  Pass 1  IDiag  1:
 E= -2648.60740804587     Delta-E=       -0.000000167487 Rises=F Damp=F
 DIIS: error= 9.64D-06 at cycle   4 NSaved=   4.
 NSaved= 4 IEnMin= 4 EnMin= -2648.60740804587     IErMin= 4 ErrMin= 9.64D-06
 ErrMax= 9.64D-06  0.00D+00 EMaxC= 1.00D-01 BMatC= 1.03D-08 BMatP= 7.90D-08
 IDIUse=1 WtCom= 1.00D+00 WtEn= 0.00D+00
 Coeff-Com:  0.937D-02-0.965D-01 0.596D-01 0.103D+01
 Coeff:      0.937D-02-0.965D-01 0.596D-01 0.103D+01
 Gap=     0.296 Goal=   None    Shift=    0.000
 RMSDP=9.55D-07 MaxDP=2.79D-05 DE=-1.67D-07 OVMax= 6.43D-05

 Cycle   5  Pass 1  IDiag  1:
 E= -2648.60740806489     Delta-E=       -0.000000019021 Rises=F Damp=F
 DIIS: error= 2.23D-06 at cycle   5 NSaved=   5.
 NSaved= 5 IEnMin= 5 EnMin= -2648.60740806489     IErMin= 5 ErrMin= 2.23D-06
 ErrMax= 2.23D-06  0.00D+00 EMaxC= 1.00D-01 BMatC= 6.94D-10 BMatP= 1.03D-08
 IDIUse=1 WtCom= 1.00D+00 WtEn= 0.00D+00
 Coeff-Com:  0.235D-02-0.129D-01-0.477D-01 0.947D-01 0.963D+00
 Coeff:      0.235D-02-0.129D-01-0.477D-01 0.947D-01 0.963D+00
 Gap=     0.296 Goal=   None    Shift=    0.000
 RMSDP=2.60D-07 MaxDP=9.77D-06 DE=-1.90D-08 OVMax= 1.94D-05

 Cycle   6  Pass 1  IDiag  1:
 E= -2648.60740806623     Delta-E=       -0.000000001332 Rises=F Damp=F
 DIIS: error= 1.05D-06 at cycle   6 NSaved=   6.
 NSaved= 6 IEnMin= 6 EnMin= -2648.60740806623     IErMin= 6 ErrMin= 1.05D-06
 ErrMax= 1.05D-06  0.00D+00 EMaxC= 1.00D-01 BMatC= 9.25D-11 BMatP= 6.94D-10
 IDIUse=1 WtCom= 1.00D+00 WtEn= 0.00D+00
 Coeff-Com: -0.572D-03 0.763D-02-0.949D-02-0.970D-01 0.128D+00 0.972D+00
 Coeff:     -0.572D-03 0.763D-02-0.949D-02-0.970D-01 0.128D+00 0.972D+00
 Gap=     0.296 Goal=   None    Shift=    0.000
 RMSDP=1.09D-07 MaxDP=4.65D-06 DE=-1.33D-09 OVMax= 5.71D-06

 Cycle   7  Pass 1  IDiag  1:
 E= -2648.60740806639     Delta-E=       -0.000000000166 Rises=F Damp=F
 DIIS: error= 3.13D-07 at cycle   7 NSaved=   7.
 NSaved= 7 IEnMin= 7 EnMin= -2648.60740806639     IErMin= 7 ErrMin= 3.13D-07
 ErrMax= 3.13D-07  0.00D+00 EMaxC= 1.00D-01 BMatC= 9.65D-12 BMatP= 9.25D-11
 IDIUse=1 WtCom= 1.00D+00 WtEn= 0.00D+00
 Coeff-Com: -0.327D-03 0.250D-02 0.381D-02-0.226D-01-0.875D-01 0.122D+00
 Coeff-Com:  0.982D+00
 Coeff:     -0.327D-03 0.250D-02 0.381D-02-0.226D-01-0.875D-01 0.122D+00
 Coeff:      0.982D+00
 Gap=     0.296 Goal=   None    Shift=    0.000
 RMSDP=4.59D-08 MaxDP=2.16D-06 DE=-1.66D-10 OVMax= 2.19D-06

 Cycle   8  Pass 1  IDiag  1:
 E= -2648.60740806641     Delta-E=       -0.000000000018 Rises=F Damp=F
 DIIS: error= 7.79D-08 at cycle   8 NSaved=   8.
 NSaved= 8 IEnMin= 8 EnMin= -2648.60740806641     IErMin= 8 ErrMin= 7.79D-08
 ErrMax= 7.79D-08  0.00D+00 EMaxC= 1.00D-01 BMatC= 7.27D-13 BMatP= 9.65D-12
 IDIUse=1 WtCom= 1.00D+00 WtEn= 0.00D+00
 Coeff-Com:  0.747D-04-0.829D-03 0.192D-03 0.108D-01-0.524D-02-0.104D+00
 Coeff-Com: -0.576D-01 0.116D+01
 Coeff:      0.747D-04-0.829D-03 0.192D-03 0.108D-01-0.524D-02-0.104D+00
 Coeff:     -0.576D-01 0.116D+01
 Gap=     0.296 Goal=   None    Shift=    0.000
 RMSDP=1.41D-08 MaxDP=5.45D-07 DE=-1.77D-11 OVMax= 7.22D-07

 Cycle   9  Pass 1  IDiag  1:
 E= -2648.60740806642     Delta-E=       -0.000000000013 Rises=F Damp=F
 DIIS: error= 1.75D-08 at cycle   9 NSaved=   9.
 NSaved= 9 IEnMin= 9 EnMin= -2648.60740806642     IErMin= 9 ErrMin= 1.75D-08
 ErrMax= 1.75D-08  0.00D+00 EMaxC= 1.00D-01 BMatC= 5.11D-14 BMatP= 7.27D-13
 IDIUse=1 WtCom= 1.00D+00 WtEn= 0.00D+00
 Coeff-Com:  0.328D-04-0.289D-03-0.340D-03 0.333D-02 0.606D-02-0.259D-01
 Coeff-Com: -0.841D-01 0.199D+00 0.903D+00
 Coeff:      0.328D-04-0.289D-03-0.340D-03 0.333D-02 0.606D-02-0.259D-01
 Coeff:     -0.841D-01 0.199D+00 0.903D+00
 Gap=     0.296 Goal=   None    Shift=    0.000
 RMSDP=2.37D-09 MaxDP=5.95D-08 DE=-1.27D-11 OVMax= 1.69D-07

 SCF Done:  E(RHF) =  -2648.60740807     A.U. after    9 cycles
            NFock=  9  Conv=0.24D-08     -V/T= 2.0000
 KE= 2.648516970884D+03 PE=-6.483440260303D+03 EE= 1.118552847969D+03
 Leave Link  502 at Tue Oct 12 14:03:08 2021, MaxMem=  1048576000 cpu:        16.8
 (Enter /usr/local/gaussian/g09/l801.exe)
 ExpMin= 2.53D-02 ExpMax= 1.06D+07 ExpMxC= 1.21D+04 IAcc=3 IRadAn=         5 AccDes= 0.00D+00
 HarFok:  IExCor=  205 AccDes= 0.00D+00 IRadAn=         5 IDoV=-2 UseB2=F ITyADJ=14
 ICtDFT= 12500011 ScaDFX=  1.000000  1.000000  1.000000  1.000000
 Largest valence mixing into a core orbital is  1.27D-04
 Largest core mixing into a valence orbital is  3.62D-05
 Range of M.O.s used for correlation:    11   151
 NBasis=   151 NAE=    23 NBE=    23 NFC=    10 NFV=     0
 NROrb=    141 NOA=    13 NOB=    13 NVA=   128 NVB=   128

 **** Warning!!: The largest alpha MO coefficient is  0.14764092D+02

 Leave Link  801 at Tue Oct 12 14:03:08 2021, MaxMem=  1048576000 cpu:         0.4
 (Enter /usr/local/gaussian/g09/l906.exe)
 Frozen-core derivative calculation, NFC=  10 NFV=   0.
 FulOut=F Deriv=T AODrv=T NAtomX=     4
   MMem=         386  MDisk=          13 MDiskD=          13
  W3Min=      604302 MinDsk=     1007783 NBas6D=         174
 NBas2D=       15618    NTT=       15225    LW2=     9911920
    MDV=  1048191168 MDiskM=       30062 NBas2p=       15545
 Fully direct method using O(ONN) memory.
 IMap=   1   2   3   4   5   6   7   8   9  10  11  12  13  14  15  16  17  18  19  20
 IMap=  21  22  23
 JobTyp=1 Pass  1:  I=  11 to  13 NPSUse=  7 ParTrn=T ParDer=T DoDerP=T.
 JobTyp=1 Pass  2:  I=  14 to  16 NPSUse=  7 ParTrn=T ParDer=T DoDerP=T.
 JobTyp=1 Pass  3:  I=  17 to  19 NPSUse=  7 ParTrn=T ParDer=T DoDerP=T.
 JobTyp=1 Pass  4:  I=  20 to  22 NPSUse=  7 ParTrn=T ParDer=T DoDerP=T.
 JobTyp=1 Pass  5:  I=  23 to  23 NPSUse=  7 ParTrn=T ParDer=T DoDerP=T.
 Spin components of T(2) and E(2):
     alpha-alpha T2 =       0.2055160930D-01 E2=     -0.6991728653D-01
     alpha-beta  T2 =       0.1088958619D+00 E2=     -0.3789300690D+00
[...]
 Frozen-core derivative calculation, NFC=  10 NFV=   0.
 FulOut=F Deriv=T AODrv=T NAtomX=     4
   MMem=         386  MDisk=          13 MDiskD=          13
  W3Min=      604302 MinDsk=     1007783 NBas6D=         174
 NBas2D=       15618    NTT=       15225    LW2=     9911920
    MDV=  1048191154 MDiskM=       30062 NBas2p=       15545
 Fully direct method using O(ONN) memory.
 IMap=   1   2   3   4   5   6   7   8   9  10  11  12  13  14  15  16  17  18  19  20
 IMap=  21  22  23
 JobTyp=1 Pass  1:  I=  11 to  13 NPSUse=  7 ParTrn=T ParDer=T DoDerP=T.
 JobTyp=1 Pass  2:  I=  14 to  16 NPSUse=  7 ParTrn=T ParDer=T DoDerP=T.
 JobTyp=1 Pass  3:  I=  17 to  19 NPSUse=  7 ParTrn=T ParDer=T DoDerP=T.
 JobTyp=1 Pass  4:  I=  20 to  22 NPSUse=  7 ParTrn=T ParDer=T DoDerP=T.
 JobTyp=1 Pass  5:  I=  23 to  23 NPSUse=  7 ParTrn=T ParDer=T DoDerP=T.
 Spin components of T(2) and E(2):
     alpha-alpha T2 =       0.2056950241D-01 E2=     -0.6995515438D-01
     alpha-beta  T2 =       0.1089710808D+00 E2=     -0.3790744628D+00
     beta-beta   T2 =       0.2056950241D-01 E2=     -0.6995515438D-01
 The integrals were generated   5 times.
 ANorm=    0.1072431856D+01
 E2 =    -0.5189847715D+00 EUMP2 =    -0.26491261850300D+04
 Leave Link  906 at Tue Oct 12 14:05:26 2021, MaxMem=  1048576000 cpu:       213.4
 (Enter /usr/local/gaussian/g09/l1002.exe)
 Minotr:  Closed shell wavefunction.
          Computing MP2/KS-MP2 derivatives.
          Using Z-Vector for PSCF gradient.
          Skipping F1 and S1 gradient terms here.
          IDoAtm=1111
          Frozen-core window.
          Direct CPHF calculation.
          Differentiating once with respect to electric field.
                with respect to dipole field.
          Differentiating once with respect to nuclear coordinates.
          Using symmetry in CPHF.
          Requested convergence is 1.0D-10 RMS, and 1.0D-09 maximum.
          NewPWx=F KeepS1=T KeepF1=T KeepIn=T MapXYZ=F SortEE=F KeepMc=T.
          MDV=    1048575815 using IRadAn=       0.
 Keep R1 ints in memory in symmetry-blocked form, NReq=99285251.
 FoFCou: FMM=F IPFlag=           0 FMFlag=           0 FMFlg1=           0
         NFxFlg=           0 DoJE=F BraDBF=F KetDBF=F FulRan=T
         wScrn=  0.000000 ICntrl=     600 IOpCl=  0 I1Cent=           0 NGrid=           0
         NMat0=    1 NMatS0=  11476 NMatT0=    0 NMatD0=    1 NMtDS0=    0 NMtDT0=    0
 Petite list used in FoFCou.
          Solving linear equations separately, MaxMat=       0.
          There are     1 degrees of freedom in the 1st order CPHF.  IDoFFX=0 NUNeed=     1.
 LinEq1:  Iter=  0 NonCon=     1 RMS=2.40D-03 Max=4.90D-02 NDo=     1
 AX will form     1 AO Fock derivatives at one time.
 LinEq1:  Iter=  1 NonCon=     1 RMS=3.98D-04 Max=5.15D-03 NDo=     1
 LinEq1:  Iter=  2 NonCon=     1 RMS=1.87D-04 Max=2.32D-03 NDo=     1
 LinEq1:  Iter=  3 NonCon=     1 RMS=5.22D-05 Max=1.00D-03 NDo=     1
 LinEq1:  Iter=  4 NonCon=     1 RMS=1.04D-05 Max=1.31D-04 NDo=     1
 LinEq1:  Iter=  5 NonCon=     1 RMS=4.56D-06 Max=6.59D-05 NDo=     1
 LinEq1:  Iter=  6 NonCon=     1 RMS=8.98D-07 Max=1.94D-05 NDo=     1
 LinEq1:  Iter=  7 NonCon=     1 RMS=2.02D-07 Max=3.32D-06 NDo=     1
 LinEq1:  Iter=  8 NonCon=     1 RMS=5.73D-08 Max=9.16D-07 NDo=     1
 LinEq1:  Iter=  9 NonCon=     1 RMS=7.32D-09 Max=1.38D-07 NDo=     1
 LinEq1:  Iter= 10 NonCon=     1 RMS=9.10D-10 Max=1.17D-08 NDo=     1
 LinEq1:  Iter= 11 NonCon=     1 RMS=2.63D-10 Max=5.23D-09 NDo=     1
 LinEq1:  Iter= 12 NonCon=     0 RMS=5.18D-11 Max=7.03D-10 NDo=     1
 Linear equations converged to 1.000D-10 1.000D-09 after    12 iterations.
 End of Minotr F.D. properties file   721 does not exist.
 End of Minotr F.D. properties file   722 does not exist.
 End of Minotr F.D. properties file   788 does not exist.
 Leave Link 1002 at Tue Oct 12 14:05:28 2021, MaxMem=  1048576000 cpu:        16.5
 (Enter /usr/local/gaussian/g09/l701.exe)
 Compute integral first derivatives.
 ... and contract with generalized density number  2.
 Leave Link  701 at Tue Oct 12 14:05:28 2021, MaxMem=  1048576000 cpu:         2.2
 (Enter /usr/local/gaussian/g09/l702.exe)
 L702 exits ... SP integral derivatives will be done elsewhere.
 Leave Link  702 at Tue Oct 12 14:05:28 2021, MaxMem=  1048576000 cpu:         0.1
 (Enter /usr/local/gaussian/g09/l703.exe)
 Compute integral first derivatives, UseDBF=F ICtDFT=           0.
 Integral derivatives from FoFJK, PRISM(SPDF).
 Calling FoFJK, ICntrl=  10002127 FMM=F ISym2X=1 I1Cent= 0 IOpClX= 0 NMat=1 NMatS=1 NMatT=0.
 FoFJK:  IHMeth= 1 ICntrl=10002127 DoSepK=F KAlg= 0 I1Cent=   0 FoldK=F
 IRaf=         0 NMat=   1 IRICut=       1 DoRegI=T DoRafI=F ISym2E= 1.
 FoFCou: FMM=F IPFlag=           0 FMFlag=      100000 FMFlg1=         800
         NFxFlg=           0 DoJE=F BraDBF=F KetDBF=F FulRan=T
         wScrn=  0.000000 ICntrl=10002127 IOpCl=  0 I1Cent=           0 NGrid=           0
         NMat0=    1 NMatS0=      1 NMatT0=    0 NMatD0=    1 NMtDS0=    0 NMtDT0=    0
 Petite list used in FoFCou.
 Leave Link  703 at Tue Oct 12 14:05:30 2021, MaxMem=  1048576000 cpu:        21.1
 (Enter /usr/local/gaussian/g09/l716.exe)
 Dipole        =-5.42830969D-01 2.60638032D-01 4.13908530D-34
 ***** Axes restored to original set *****
 -------------------------------------------------------------------
 Center     Atomic                   Forces (Hartrees/Bohr)
 Number     Number              X              Y              Z
 -------------------------------------------------------------------
      1        8           0.002192765   -0.000458342   -0.000000000
      2        1           0.000002662   -0.000001502    0.000000000
      3       35           0.000956480   -0.000200037   -0.000000000
      4        1          -0.003151907    0.000659881    0.000000000
 -------------------------------------------------------------------
 Cartesian Forces:  Max     0.003151907 RMS     0.001167017
 -----------------------------------------------------------------------------------------------
                       Internal Coordinate Forces (Hartree/Bohr or radian)
  Cent   Atom   N1       Length/X         N2         Alpha/Y        N3         Beta/Z          J
 -----------------------------------------------------------------------------------------------
      1  O 
         X        1   0.000000(     1)
      2  H        1   0.000003(     2)      2   0.000000(     5)
      3  Br       1   0.000001(     3)      2   0.000000(     6)      3  -0.006014(     8)     0
      4  H        1  -0.000005(     4)      2  -0.000000(     7)      3   0.006011(     9)     0
 -----------------------------------------------------------------------------------------------
 Internal  Forces:  Max     0.006013640 RMS     0.002834214
 Leave Link  716 at Tue Oct 12 14:05:30 2021, MaxMem=  1048576000 cpu:         0.2
 (Enter /usr/local/gaussian/g09/l103.exe)

 GradGradGradGradGradGradGradGradGradGradGradGradGradGradGradGradGradGrad
 Berny optimization.
 Search for a local minimum.
 Step number   6 out of a maximum of   20
 All quantities printed in internal units (Hartrees-Bohrs-Radians)
 Update second derivatives using D2CorN and points    1    2    3    4    5
                                                          6
 DE= -6.59D-08 DEPred=-6.74D-08 R= 9.78D-01
 Trust test= 9.78D-01 RLast= 2.33D-03 DXMaxT set to 5.05D-01
 The second derivative matrix:
                          r1        r2        r3        a1        OOP
           r1           0.54864
           r2           0.00109   0.01779
           r3          -0.00930  -0.00494   0.53372
           a1           0.03051  -0.00260   0.05557   0.14926
           OOP          0.00000  -0.00000  -0.00000  -0.00000   0.16000
 ITU=  0  1  1  1  1  0
     Eigenvalues ---    0.01770   0.13899   0.16000   0.53954   0.55317
 RFO step:  Lambda= 0.00000000D+00 EMin= 1.77024713D-02
 Quartic linear search produced a step of  0.00884.
 Variable       Old X    -DE/DX   Delta X   Delta X   Delta X     New X
                                 (Linear)    (Quad)   (Total)
    r1        1.81563   0.00000  -0.00000   0.00001   0.00001   1.81563
    r2        6.15412   0.00000   0.00002   0.00005   0.00007   6.15419
    r3        1.86660  -0.00000   0.00000  -0.00001  -0.00001   1.86660
    a1        1.77568  -0.00000   0.00001  -0.00002  -0.00002   1.77566
   OOP        1.57080  -0.00000   0.00000  -0.00000   0.00000   1.57080
         Item               Value     Threshold  Converged?
 Maximum Force            0.000005     0.000450     YES
 RMS     Force            0.000003     0.000300     YES
 Maximum Displacement     0.000068     0.001800     YES
 RMS     Displacement     0.000032     0.001200     YES
 Predicted change in Energy=-8.635674D-11
 Optimization completed.
    -- Stationary point found.
                       ----------------------------
                       !   Optimized Parameters   !
                       ! (Angstroms and Degrees)  !
 ----------------------                            ----------------------
 !      Name          Value   Derivative information (Atomic Units)     !
 ------------------------------------------------------------------------
 !       r1          0.9608   -DE/DX =    0.0                           !
 !       r2          3.2566   -DE/DX =    0.0                           !
 !       r3          0.9878   -DE/DX =    0.0                           !
 !       a1        101.7389   -DE/DX =    0.0                           !
 !       OOP        90.0      -DE/DX =    0.0                           !
 ------------------------------------------------------------------------
 Lowest energy point so far.  Saving SCF results.
 GradGradGradGradGradGradGradGradGradGradGradGradGradGradGradGradGradGrad

 Largest change from initial coordinates is atom    1       0.119 Angstoms.
 Leave Link  103 at Tue Oct 12 14:05:30 2021, MaxMem=  1048576000 cpu:         0.1
 (Enter /usr/local/gaussian/g09/l202.exe)
 ---------------------------------------------------------------------------------------------------
                            Z-MATRIX (ANGSTROMS AND DEGREES)
   CD    Cent   Atom    N1       Length/X        N2       Alpha/Y        N3        Beta/Z          J
 ---------------------------------------------------------------------------------------------------
      1      1  O 
      2         X        1  10.000000(     1)
      3      2  H        1   0.960788(     2)      2   90.000(     5)
      4      3  Br       1   3.256620(     3)      2   90.000(     6)      3  101.739(     8)      0
      5      4  H        1   0.987764(     4)      2   90.000(     7)      3  101.739(     9)      0
 ---------------------------------------------------------------------------------------------------
                         Z-Matrix orientation:                         
 ---------------------------------------------------------------------
 Center     Atomic      Atomic             Coordinates (Angstroms)
 Number     Number       Type             X           Y           Z
 ---------------------------------------------------------------------
      1          8           0        0.000000    0.000000    0.000000
      2         -1           0        0.000000    0.000000   10.000000
      3          1           0        0.960788    0.000000    0.000000
      4         35           0       -0.662564   -3.188507    0.000000
      5          1           0       -0.200962   -0.967105    0.000000
 ---------------------------------------------------------------------
                    Distance matrix (angstroms):
                    1          2          3          4          5
     1  O    0.000000
     2  X   10.000000   0.000000
     3  H    0.960788  10.046050   0.000000
     4  Br   3.256620  10.516918   3.577967   0.000000
     5  H    0.987764  10.048666   1.511607   2.268855   0.000000
 Stoichiometry    BrH2O(1-)
 Framework group  CS[SG(BrH2O)]
 Deg. of freedom     5
 Full point group                 CS      NOp   2
 RotChk:  IX=0 Diff= 4.85D-33
 Largest Abelian subgroup         CS      NOp   2
 Largest concise Abelian subgroup C1      NOp   1
                         Standard orientation:                         
 ---------------------------------------------------------------------
 Center     Atomic      Atomic             Coordinates (Angstroms)
 Number     Number       Type             X           Y           Z
 ---------------------------------------------------------------------
      1          8           0        0.020904    2.550533    0.000000
      2          1           0       -0.919788    2.746007    0.000000
      3         35           0        0.020904   -0.706087    0.000000
      4          1           0        0.020904    1.562768    0.000000
 ---------------------------------------------------------------------
 Rotational constants (GHZ):    322.8892706      3.1468117      3.1164395
 Leave Link  202 at Tue Oct 12 14:05:30 2021, MaxMem=  1048576000 cpu:         0.1
 (Enter /usr/local/gaussian/g09/l601.exe)
 Copying SCF densities to generalized density rwf, IOpCl= 0 IROHF=0.

 **********************************************************************

            Population analysis using the MP2 density.

 **********************************************************************

 Orbital symmetries:
       Occupied  (A') (A') (A') (A') (A") (A') (A') (A') (A') (A")
                 (A') (A') (A") (A") (A') (A') (A') (A') (A') (A")
                 (A') (A') (A")
       Virtual   (A') (A') (A') (A") (A') (A') (A") (A') (A') (A')
                 (A') (A") (A') (A") (A') (A") (A') (A') (A') (A")
                 (A') (A') (A') (A') (A") (A') (A') (A') (A') (A")
                 (A") (A") (A') (A') (A") (A') (A") (A') (A') (A')
                 (A") (A') (A') (A") (A') (A") (A') (A') (A") (A")
                 (A') (A') (A') (A') (A") (A') (A") (A') (A') (A")
                 (A') (A") (A') (A') (A') (A') (A") (A') (A") (A')
                 (A") (A") (A') (A") (A') (A") (A') (A') (A') (A')
                 (A") (A") (A') (A') (A") (A') (A') (A") (A') (A')
                 (A') (A") (A') (A') (A') (A") (A') (A") (A") (A')
                 (A") (A') (A") (A') (A') (A') (A') (A") (A') (A')
                 (A') (A") (A') (A') (A') (A") (A') (A") (A') (A")
                 (A") (A') (A") (A') (A') (A') (A') (A')
 The electronic state is 1-A'.
 Alpha  occ. eigenvalues -- -489.74062 -64.88088 -58.23537 -58.23535 -58.23535
 Alpha  occ. eigenvalues --  -20.38846  -9.55334  -7.16090  -7.16068  -7.16065
 Alpha  occ. eigenvalues --   -2.90256  -2.90247  -2.90243  -2.90221  -2.90220
 Alpha  occ. eigenvalues --   -1.16963  -0.71224  -0.52696  -0.41563  -0.33320
 Alpha  occ. eigenvalues --   -0.16652  -0.16122  -0.16079
 Alpha virt. eigenvalues --    0.13587   0.17396   0.23371   0.24171   0.24847
 Alpha virt. eigenvalues --    0.27526   0.29607   0.29908   0.33883   0.34904
 Alpha virt. eigenvalues --    0.39865   0.41076   0.41663   0.46396   0.48132
 Alpha virt. eigenvalues --    0.48549   0.51826   0.53488   0.57418   0.59837
 Alpha virt. eigenvalues --    0.61579   0.63454   0.70786   0.73811   0.75169
 Alpha virt. eigenvalues --    0.75690   0.82418   0.87641   0.88544   0.88555
 Alpha virt. eigenvalues --    0.90329   0.96157   0.99241   1.01098   1.01565
 Alpha virt. eigenvalues --    1.02009   1.03542   1.04653   1.07586   1.09483
 Alpha virt. eigenvalues --    1.09596   1.10984   1.16604   1.17645   1.17929
 Alpha virt. eigenvalues --    1.19311   1.19312   1.22926   1.22927   1.25495
 Alpha virt. eigenvalues --    1.33232   1.36711   1.41855   1.45038   1.46862
 Alpha virt. eigenvalues --    1.52404   1.63448   1.64248   1.68910   1.69831
 Alpha virt. eigenvalues --    1.77818   1.81945   2.05657   2.07164   2.18827
 Alpha virt. eigenvalues --    2.41116   2.41174   2.42743   2.44605   2.49866
 Alpha virt. eigenvalues --    2.53016   2.54620   2.55418   2.55803   2.56302
 Alpha virt. eigenvalues --    2.56387   2.57321   2.59130   2.62071   2.62739
 Alpha virt. eigenvalues --    2.66000   2.66495   2.67693   2.70235   2.74457
 Alpha virt. eigenvalues --    2.76445   2.81553   2.91861   2.92808   2.99666
 Alpha virt. eigenvalues --    3.11525   3.13453   3.14287   3.87059   4.12593
 Alpha virt. eigenvalues --    4.22460   4.33477   4.35186   4.44205   4.44702
 Alpha virt. eigenvalues --    4.55656   4.57179   4.62875   4.71406   4.79502
 Alpha virt. eigenvalues --    4.98044   5.14262   5.29064   5.37488   5.46209
 Alpha virt. eigenvalues --    5.51314   5.67708   5.83819   6.39305   6.70473
 Alpha virt. eigenvalues --    6.89765   7.10575   7.28768   7.43688   7.44460
 Alpha virt. eigenvalues --    7.47427   7.54931   7.61202   7.81409   8.07844
 Alpha virt. eigenvalues --    8.12524   8.96067  16.26779
          Condensed to atoms (all electrons):
               1          2          3          4
     1  O    8.263450   0.212417  -0.063749   0.125366
     2  H    0.212417   0.607262   0.004330   0.008429
     3  Br  -0.063749   0.004330  35.950595   0.030521
     4  H    0.125366   0.008429   0.030521   0.544064
 Mulliken charges:
               1
     1  O   -0.537484
     2  H    0.167562
     3  Br  -0.921697
     4  H    0.291619
 Sum of Mulliken charges =  -1.00000
 Mulliken charges with hydrogens summed into heavy atoms:
               1
     1  O   -0.078303
     3  Br  -0.921697
 Electronic spatial extent (au):  <R**2>=            362.7682
 Charge=             -1.0000 electrons
 Dipole moment (field-independent basis, Debye):
    X=             -1.3797    Y=              0.6625    Z=              0.0000  Tot=              1.5305
 Quadrupole moment (field-independent basis, Debye-Ang):
   XX=            -29.3726   YY=            -40.9871   ZZ=            -31.6898
   XY=             -4.1821   XZ=              0.0000   YZ=              0.0000
 Traceless Quadrupole moment (field-independent basis, Debye-Ang):
   XX=              4.6439   YY=             -6.9706   ZZ=              2.3267
   XY=             -4.1821   XZ=              0.0000   YZ=              0.0000
 Octapole moment (field-independent basis, Debye-Ang**2):
  XXX=             -1.3842  YYY=            -28.3662  ZZZ=             -0.0000  XYY=            -12.3682
  XXY=              2.4350  XXZ=              0.0000  XZZ=              0.0866  YZZ=             -3.8993
  YYZ=              0.0000  XYZ=              0.0000
 Hexadecapole moment (field-independent basis, Debye-Ang**3):
 XXXX=            -49.4084 YYYY=           -460.3011 ZZZZ=            -50.2134 XXXY=             -0.1298
 XXXZ=              0.0000 YYYX=            -31.9313 YYYZ=              0.0000 ZZZX=              0.0000
 ZZZY=              0.0000 XXYY=            -63.0505 XXZZ=            -16.9061 YYZZ=            -80.1629
 XXYZ=              0.0000 YYXZ=              0.0000 ZZXY=              1.4963
 N-N= 6.787980730749D+01 E-N=-6.482141505688D+03  KE= 2.648363717299D+03
 Symmetry A'   KE= 2.268557290452D+03
 Symmetry A"   KE= 3.798064268466D+02
 No NMR shielding tensors so no spin-rotation constants.
 Leave Link  601 at Tue Oct 12 14:05:30 2021, MaxMem=  1048576000 cpu:         1.7
 (Enter /usr/local/gaussian/g09/l9999.exe)
 1\1\GINC-KRYPTON\FOpt\RMP2-FC\Aug-CC-pVTZ\Br1H2O1(1-)\CGAVINH\12-Oct-2
 021\1\\#p opt=(z-matrix) mp2/aug-cc-pvtz density=current\\title\\-1,1\
 O\X,1,10.\H,1,r1,2,90.\Br,1,r2,2,90.,3,a1,0\H,1,r3,2,OOP,3,a1,0\\r1=0.
 96078759\r2=3.25661955\r3=0.98776438\a1=101.73887131\OOP=90.\\Version=
 ES64L-G09RevE.01\State=1-A'\HF=-2648.6072003\MP2=-2649.126185\RMSD=5.3
 48e-09\RMSF=1.167e-03\Dipole=-0.542831,0.260638,0.\Quadrupole=3.452638
 ,-5.1824535,1.7298156,-3.1092622,0.,0.\PG=CS [SG(Br1H2O1)]\\@


 Sacred cows make the best hamburger.
                               -- Mark Twain
 Job cpu time:       0 days  0 hours 27 minutes 46.7 seconds.
 File lengths (MBytes):  RWF=     14 Int=      0 D2E=      0 Chk=      3 Scr=      1
 Normal termination of Gaussian 09 at Tue Oct 12 14:05:30 2021.
