title                                                                   
SP        RMP2-FC                                                     Gen                 
Number of atoms                            I                4
Info1-9                                    I   N=           9
         135         126           0           0           0         110
           1           2           1
Full Title                                 C   N=           1
title       
Route                                      C   N=           5
#p pop=NBO SP NoSymm mp2/gen Pseudo=read density=current    
Charge                                     I               -1
Multiplicity                               I                1
Number of electrons                        I               52
Number of alpha electrons                  I               26
Number of beta electrons                   I               26
Number of basis functions                  I              174
Number of independent functions            I              174
Number of point charges in /Mol/           I                0
Number of translation vectors              I                0
Atomic numbers                             I   N=           4
           8          53          17           1
Nuclear charges                            R   N=           4
  8.00000000E+00  2.50000000E+01  1.70000000E+01  1.00000000E+00
Current cartesian coordinates              R   N=          12
  0.00000000E+00  0.00000000E+00  0.00000000E+00  6.25933684E+00  0.00000000E+00
  0.00000000E+00 -7.30225624E-01  3.10228121E+00  0.00000000E+00  1.42488665E+00
  0.00000000E+00  1.19562187E+00
Number of symbols in /Mol/                 I                0
Force Field                                I                0
Atom Types                                 C   N=           4
                                                
Int Atom Types                             I   N=           4
           0           0           0           0
MM charges                                 R   N=           4
  0.00000000E+00  0.00000000E+00  0.00000000E+00  0.00000000E+00
Integer atomic weights                     I   N=           4
          16         127          35           1
Real atomic weights                        R   N=           4
  1.59949146E+01  1.26900400E+02  3.49688527E+01  1.00782504E+00
Atom fragment info                         I   N=           4
           0           0           0           0
Atom residue num                           I   N=           4
           0           0           0           0
Nuclear spins                              I   N=           4
           0           5           3           1
Nuclear ZEff                               R   N=           4
 -5.60000000E+00 -5.83000000E+03 -1.42400000E+01 -1.00000000E+00
Nuclear ZNuc                               R   N=           4
  8.00000000E+00  5.30000000E+01  1.70000000E+01  1.00000000E+00
Nuclear QMom                               R   N=           4
  0.00000000E+00 -7.10000000E+01 -8.16500000E+00  0.00000000E+00
Nuclear GFac                               R   N=           4
  0.00000000E+00  2.81328000E+00  8.21874000E-01  2.79284600E+00
MicOpt                                     I   N=           4
          -1          -1          -1          -1
Number of residues                         I                0
Number of secondary structures             I                0
Number of contracted shells                I               56
Number of primitive shells                 I              143
Pure/Cartesian d shells                    I                0
Pure/Cartesian f shells                    I                0
Highest angular momentum                   I                3
Largest degree of contraction              I               11
Shell types                                I   N=          56
           0           0           0           0           0           1
           1           1           1          -2          -2          -2
          -3          -3           0           0           0           0
           0           0           1           1           1           1
           1          -2          -2          -2          -2          -3
          -3           0           0           0           0           0
           0           1           1           1           1           1
          -2          -2          -2          -3          -3           0
           0           0           0           1           1           1
          -2          -2
Number of primitives per shell             I   N=          56
           7           6           1           1           1           3
           1           1           1           1           1           1
           1           1           9           8           1           1
           1           1           8           8           1           1
           1           9           1           1           1           1
           1          11           9           8           1           1
           1           6           6           1           1           1
           1           1           1           1           1           3
           1           1           1           1           1           1
           1           1
Shell to atom map                          I   N=          56
           1           1           1           1           1           1
           1           1           1           1           1           1
           1           1           2           2           2           2
           2           2           2           2           2           2
           2           2           2           2           2           2
           2           3           3           3           3           3
           3           3           3           3           3           3
           3           3           3           3           3           4
           4           4           4           4           4           4
           4           4
Primitive exponents                        R   N=         143
  1.53300000E+04  2.29900000E+03  5.22400000E+02  1.47300000E+02  4.75500000E+01
  1.67600000E+01  6.20700000E+00  5.22400000E+02  1.47300000E+02  4.75500000E+01
  1.67600000E+01  6.20700000E+00  6.88200000E-01  1.75200000E+00  2.38400000E-01
  7.37600000E-02  3.44600000E+01  7.74900000E+00  2.28000000E+00  7.15600000E-01
  2.14000000E-01  5.97400000E-02  2.31400000E+00  6.45000000E-01  2.14000000E-01
  1.42800000E+00  5.00000000E-01  5.54650000E+03  8.38214000E+02  1.82187000E+02
  3.12123000E+01  1.95314000E+01  8.24099000E+00  2.19455000E+00  1.10911000E+00
  8.10610000E-02  5.54650000E+03  8.38214000E+02  3.12123000E+01  1.95314000E+01
  8.24099000E+00  2.19455000E+00  1.10911000E+00  8.10610000E-02  3.74641000E-01
  1.77080000E-01  1.00100000E-01  4.12000000E-02  1.88988000E+02  2.12868000E+01
  1.00396000E+01  3.45180000E+00  1.97456000E+00  1.02420000E+00  4.49437000E-01
  7.34810000E-02  1.88988000E+02  1.00396000E+01  3.45180000E+00  1.97456000E+00
  1.02420000E+00  4.49437000E-01  1.86648000E-01  7.34810000E-02  5.98100000E-01
  9.61800000E-02  3.59000000E-02  1.32662000E+02  3.76054000E+01  1.03891000E+01
  6.49017000E+00  3.45451000E+00  1.84413000E+00  9.62478000E-01  4.72853000E-01
  1.93200000E-01  4.72853000E-01  1.93200000E-01  7.82000000E-02  4.06400000E-01
  1.84800000E-01  4.56100000E+05  6.83300000E+04  1.55500000E+04  4.40500000E+03
  1.43900000E+03  5.20400000E+02  2.03100000E+02  8.39600000E+01  3.62000000E+01
  1.58300000E+01  6.33400000E+00  4.40500000E+03  1.43900000E+03  5.20400000E+02
  2.03100000E+02  8.39600000E+01  3.62000000E+01  1.58300000E+01  6.33400000E+00
  2.69400000E+00  1.43900000E+03  2.03100000E+02  8.39600000E+01  3.62000000E+01
  1.58300000E+01  6.33400000E+00  2.69400000E+00  4.31300000E-01  9.76800000E-01
  1.62500000E-01  5.91000000E-02  6.63300000E+02  1.56800000E+02  4.99800000E+01
  1.84200000E+01  7.24000000E+00  2.92200000E+00  1.56800000E+02  4.99800000E+01
  1.84200000E+01  7.24000000E+00  2.92200000E+00  3.81800000E-01  1.02200000E+00
  1.30100000E-01  4.19000000E-02  1.04600000E+00  3.44000000E-01  1.35000000E-01
  7.06000000E-01  3.12000000E-01  3.38700000E+01  5.09500000E+00  1.15900000E+00
  3.25800000E-01  1.02700000E-01  2.52600000E-02  1.40700000E+00  3.88000000E-01
  1.02000000E-01  1.05700000E+00  2.47000000E-01
Contraction coefficients                   R   N=         143
  5.19808943E-04  4.02025621E-03  2.07128267E-02  8.10105536E-02  2.35962985E-01
  4.42653446E-01  3.57064423E-01 -4.42115008E-05 -1.22591041E-03 -1.05517725E-02
 -6.74452633E-02 -1.71198607E-01  1.07329856E+00  1.00000000E+00  1.00000000E+00
  1.00000000E+00  4.11634896E-02  2.57762836E-01  8.02419274E-01  1.00000000E+00
  1.00000000E+00  1.00000000E+00  1.00000000E+00  1.00000000E+00  1.00000000E+00
  1.00000000E+00  1.00000000E+00  1.58603022E-04  1.00211458E-03  2.83966410E-03
 -4.40310212E-02  2.38198152E-01 -7.63568980E-01  8.96516870E-01  4.68371203E-01
  2.16251781E-03 -2.17177846E-05 -2.59237305E-04 -1.50376554E-02  2.42214079E-02
  6.99888661E-02 -5.50491335E-01 -5.69654432E-01  3.76065139E-01  1.00000000E+00
  1.00000000E+00  1.00000000E+00  1.00000000E+00  5.85232173E-04  3.69335916E-02
 -2.35399435E-01  3.41625365E-01  5.34991615E-01  2.65244797E-01  2.54463150E-02
  3.82802808E-04 -6.76097015E-05  8.33123161E-03 -4.66496478E-02 -5.27406452E-02
 -2.91398344E-02  3.65650039E-01  5.48502805E-01  2.34644635E-01  1.00000000E+00
  1.00000000E+00  1.00000000E+00  5.72000072E-04  4.40200055E-03 -4.09220051E-02
  9.96610125E-02  3.22663040E-01  4.00343050E-01  2.68306034E-01  8.48470106E-02
  7.63200096E-03  1.00000000E+00  1.00000000E+00  1.00000000E+00  1.00000000E+00
  1.00000000E+00  4.93229477E-05  3.83207967E-04  2.00947816E-03  8.38950124E-03
  2.94843950E-02  8.78759948E-02  2.11589759E-01  3.65611554E-01  3.41246350E-01
  1.02162570E-01  2.14249949E-03 -2.21747925E-06 -1.71189708E-04 -1.27922846E-03
 -9.32956265E-03 -3.98910062E-02 -1.05536085E-01  9.36202446E-03  5.10511140E-01
  5.73150737E-01  4.03949245E-06  2.12481765E-04  8.59484452E-04  4.63248159E-03
  4.47343490E-04 -7.38438245E-02 -3.62271994E-01  1.16620337E+00  1.00000000E+00
  1.00000000E+00  1.00000000E+00  2.47206402E-03  1.97550234E-02  9.09917355E-02
  2.63187834E-01  4.49078073E-01  3.60183072E-01  3.03427809E-05 -1.22475826E-03
 -6.01429772E-03 -2.76401323E-02  4.35105612E-04  1.00307272E+00  1.00000000E+00
  1.00000000E+00  1.00000000E+00  1.00000000E+00  1.00000000E+00  1.00000000E+00
  1.00000000E+00  1.00000000E+00  2.54948632E-02  1.90362766E-01  8.52162022E-01
  1.00000000E+00  1.00000000E+00  1.00000000E+00  1.00000000E+00  1.00000000E+00
  1.00000000E+00  1.00000000E+00  1.00000000E+00
Coordinates of each shell                  R   N=         168
  0.00000000E+00  0.00000000E+00  0.00000000E+00  0.00000000E+00  0.00000000E+00
  0.00000000E+00  0.00000000E+00  0.00000000E+00  0.00000000E+00  0.00000000E+00
  0.00000000E+00  0.00000000E+00  0.00000000E+00  0.00000000E+00  0.00000000E+00
  0.00000000E+00  0.00000000E+00  0.00000000E+00  0.00000000E+00  0.00000000E+00
  0.00000000E+00  0.00000000E+00  0.00000000E+00  0.00000000E+00  0.00000000E+00
  0.00000000E+00  0.00000000E+00  0.00000000E+00  0.00000000E+00  0.00000000E+00
  0.00000000E+00  0.00000000E+00  0.00000000E+00  0.00000000E+00  0.00000000E+00
  0.00000000E+00  0.00000000E+00  0.00000000E+00  0.00000000E+00  0.00000000E+00
  0.00000000E+00  0.00000000E+00  6.25933684E+00  0.00000000E+00  0.00000000E+00
  6.25933684E+00  0.00000000E+00  0.00000000E+00  6.25933684E+00  0.00000000E+00
  0.00000000E+00  6.25933684E+00  0.00000000E+00  0.00000000E+00  6.25933684E+00
  0.00000000E+00  0.00000000E+00  6.25933684E+00  0.00000000E+00  0.00000000E+00
  6.25933684E+00  0.00000000E+00  0.00000000E+00  6.25933684E+00  0.00000000E+00
  0.00000000E+00  6.25933684E+00  0.00000000E+00  0.00000000E+00  6.25933684E+00
  0.00000000E+00  0.00000000E+00  6.25933684E+00  0.00000000E+00  0.00000000E+00
  6.25933684E+00  0.00000000E+00  0.00000000E+00  6.25933684E+00  0.00000000E+00
  0.00000000E+00  6.25933684E+00  0.00000000E+00  0.00000000E+00  6.25933684E+00
  0.00000000E+00  0.00000000E+00  6.25933684E+00  0.00000000E+00  0.00000000E+00
  6.25933684E+00  0.00000000E+00  0.00000000E+00 -7.30225624E-01  3.10228121E+00
  0.00000000E+00 -7.30225624E-01  3.10228121E+00  0.00000000E+00 -7.30225624E-01
  3.10228121E+00  0.00000000E+00 -7.30225624E-01  3.10228121E+00  0.00000000E+00
 -7.30225624E-01  3.10228121E+00  0.00000000E+00 -7.30225624E-01  3.10228121E+00
  0.00000000E+00 -7.30225624E-01  3.10228121E+00  0.00000000E+00 -7.30225624E-01
  3.10228121E+00  0.00000000E+00 -7.30225624E-01  3.10228121E+00  0.00000000E+00
 -7.30225624E-01  3.10228121E+00  0.00000000E+00 -7.30225624E-01  3.10228121E+00
  0.00000000E+00 -7.30225624E-01  3.10228121E+00  0.00000000E+00 -7.30225624E-01
  3.10228121E+00  0.00000000E+00 -7.30225624E-01  3.10228121E+00  0.00000000E+00
 -7.30225624E-01  3.10228121E+00  0.00000000E+00 -7.30225624E-01  3.10228121E+00
  0.00000000E+00  1.42488665E+00  0.00000000E+00  1.19562187E+00  1.42488665E+00
  0.00000000E+00  1.19562187E+00  1.42488665E+00  0.00000000E+00  1.19562187E+00
  1.42488665E+00  0.00000000E+00  1.19562187E+00  1.42488665E+00  0.00000000E+00
  1.19562187E+00  1.42488665E+00  0.00000000E+00  1.19562187E+00  1.42488665E+00
  0.00000000E+00  1.19562187E+00  1.42488665E+00  0.00000000E+00  1.19562187E+00
  1.42488665E+00  0.00000000E+00  1.19562187E+00
Num ILSW                                   I              100
ILSW                                       I   N=         100
           0           0           0           0           2           0
           0           0           0           0           0          -1
           5           0           0           0           0           0
           0           0           0           0           0           0
           1           1           0           0           0           0
           0           0      100000           0          -1           0
           0           0           0           0           0           0
           0           0           0           1           0           0
           0 -2000000000           1           0           0           0
           0           0           4          52           0           0
           0           0           0           0           0           0
           0           0           0           4           0           1
           0           0           0           0           0           0
           0           0           0           0           0           0
           0           0           0           0           0           0
           0           0           0           0           0           0
           0           0           0           0
Num RLSW                                   I               52
RLSW                                       R   N=          52
  1.00000000E+00  1.00000000E+00  1.00000000E+00  1.00000000E+00  1.00000000E+00
  0.00000000E+00  0.00000000E+00  1.00000000E+00  0.00000000E+00  0.00000000E+00
  0.00000000E+00  0.00000000E+00  1.00000000E+00  0.00000000E+00  0.00000000E+00
  0.00000000E+00  0.00000000E+00  1.00000000E+00  0.00000000E+00  0.00000000E+00
  0.00000000E+00  0.00000000E+00  1.00000000E+00  0.00000000E+00  0.00000000E+00
  0.00000000E+00  0.00000000E+00  1.00000000E+00  0.00000000E+00  0.00000000E+00
  0.00000000E+00  0.00000000E+00  1.00000000E+00  0.00000000E+00  0.00000000E+00
  0.00000000E+00  0.00000000E+00  0.00000000E+00  1.00000000E+00  1.00000000E+00
  0.00000000E+00  1.00000000E+00  0.00000000E+00  0.00000000E+00  0.00000000E+00
  0.00000000E+00  0.00000000E+00  0.00000000E+00  0.00000000E+00  0.00000000E+00
  0.00000000E+00  0.00000000E+00
ECP-MxAtEC                                 I           250000
ECP-MaxLECP                                I               10
ECP-MaxAtL                                 I          2250000
ECP-MxTECP                                 I         11250000
ECP-LenNCZ                                 I               16
ECP-KFirst                                 I   N=          40
           0           1           0           0           0           2
           0           0           0           5           0           0
           0           9           0           0           0          13
           0           0           0           0           0           0
           0           0           0           0           0           0
           0           0           0           0           0           0
           0           0           0           0
ECP-KLast                                  I   N=          40
           0           1           0           0           0           4
           0           0           0           8           0           0
           0          12           0           0           0          16
           0           0           0           0           0           0
           0           0           0           0           0           0
           0           0           0           0           0           0
           0           0           0           0
ECP-LMax                                   I   N=           4
           0           4           0           0
ECP-LPSkip                                 I   N=           4
           1           0           1           1
ECP-RNFroz                                 R   N=           4
  0.00000000E+00  2.80000000E+01  0.00000000E+00  0.00000000E+00
ECP-NLP                                    I   N=          16
           2           2           2           2           2           2
           2           2           2           2           2           2
           2           2           2           2
ECP-CLP1                                   R   N=          16
  0.00000000E+00  4.99896490E+01  2.81006556E+02  6.14167390E+01  6.74162390E+01
  1.34807696E+02  1.45665480E+01  2.89684220E+01  3.55387560E+01  5.33397590E+01
  9.71646600E+00  1.49775000E+01 -2.01766180E+01 -2.60880770E+01 -2.20434000E-01
 -2.21646000E-01
ECP-CLP2                                   R   N=          16
  0.00000000E+00  0.00000000E+00  0.00000000E+00  0.00000000E+00  0.00000000E+00
  0.00000000E+00  0.00000000E+00  0.00000000E+00  0.00000000E+00  0.00000000E+00
  0.00000000E+00  0.00000000E+00  0.00000000E+00  0.00000000E+00  0.00000000E+00
  0.00000000E+00
ECP-ZLP                                    R   N=          16
  1.00000000E+00  4.00333760E+01  1.73005760E+01  8.85172000E+00  1.57201410E+01
  1.52082220E+01  8.29418600E+00  7.75394900E+00  1.38177510E+01  1.35878050E+01
  6.94763000E+00  6.96009900E+00  1.85229500E+01  1.82510350E+01  7.55790100E+00
  7.59740400E+00
MxBond                                     I                2
NBond                                      I   N=           4
           2           0           1           1
IBond                                      I   N=           8
           3           4           0           0           1           0
           1           0
RBond                                      R   N=           8
  1.00000000E+00  1.00000000E+00  0.00000000E+00  0.00000000E+00  1.00000000E+00
  0.00000000E+00  1.00000000E+00  0.00000000E+00
Virial Ratio                               R      2.285003036137310E+00
SCF Energy                                 R     -8.296771077785218E+02
MP2 Energy                                 R     -8.303560430208079E+02
Total Energy                               R     -8.303560430208079E+02
Post-SCF wavefunction norm                 R      1.108135056345175E+00
RMS Density                                R      7.539367915619129E-09
Job Status                                 I                1
Nuclear derivative order                   I                0
External E-field                           R   N=          35
  0.00000000E+00  0.00000000E+00  0.00000000E+00  0.00000000E+00  0.00000000E+00
  0.00000000E+00  0.00000000E+00  0.00000000E+00  0.00000000E+00  0.00000000E+00
  0.00000000E+00  0.00000000E+00  0.00000000E+00  0.00000000E+00  0.00000000E+00
  0.00000000E+00  0.00000000E+00  0.00000000E+00  0.00000000E+00  0.00000000E+00
  0.00000000E+00  0.00000000E+00  0.00000000E+00  0.00000000E+00  0.00000000E+00
  0.00000000E+00  0.00000000E+00  0.00000000E+00  0.00000000E+00  0.00000000E+00
  0.00000000E+00  0.00000000E+00  0.00000000E+00  0.00000000E+00  0.00000000E+00
IOpCl                                      I                0
IROHF                                      I                0
Alpha Orbital Energies                     R   N=         174
 -1.04749986E+02 -2.04917396E+01 -1.04696016E+01 -7.93678722E+00 -7.93401245E+00
 -7.93386159E+00 -7.46749890E+00 -5.29324403E+00 -5.29275103E+00 -5.29259009E+00
 -2.02069127E+00 -2.02052364E+00 -2.02038107E+00 -2.01980156E+00 -2.01978841E+00
 -1.26119660E+00 -9.16550376E-01 -6.29655873E-01 -5.66857139E-01 -4.66843786E-01
 -4.57830841E-01 -3.27667813E-01 -3.01607625E-01 -1.48359778E-01 -1.42823941E-01
 -1.41813120E-01  1.46841226E-01  1.72142970E-01  2.14707617E-01  2.22745718E-01
  2.41954228E-01  2.52269797E-01  2.54602054E-01  2.68649499E-01  2.74312576E-01
  2.96166758E-01  3.11438287E-01  3.17482087E-01  3.41319551E-01  3.70824124E-01
  3.81386192E-01  3.86046069E-01  4.21397160E-01  4.35387934E-01  4.56097676E-01
  4.92561636E-01  4.99474828E-01  5.30263550E-01  5.38615779E-01  5.64825901E-01
  5.70038795E-01  5.80980584E-01  6.25255694E-01  6.35296452E-01  6.64474937E-01
  7.41974273E-01  7.53526085E-01  7.83257415E-01  7.84485425E-01  7.95500464E-01
  7.97031257E-01  8.00611973E-01  8.10106768E-01  8.18142448E-01  8.27880310E-01
  8.45295328E-01  8.78287069E-01  8.79456097E-01  8.85493950E-01  8.96441236E-01
  9.03797836E-01  9.21920667E-01  9.37481678E-01  9.55500396E-01  9.74975629E-01
  9.96481455E-01  1.01276116E+00  1.05174435E+00  1.05995697E+00  1.09282334E+00
  1.10471086E+00  1.12850206E+00  1.14507379E+00  1.19221418E+00  1.21892397E+00
  1.23402496E+00  1.28030459E+00  1.30409315E+00  1.33465822E+00  1.34627051E+00
  1.39262865E+00  1.42029679E+00  1.50092561E+00  1.51849600E+00  1.57378054E+00
  1.61353697E+00  1.63211401E+00  1.66777921E+00  1.69451870E+00  1.72294498E+00
  1.75476025E+00  1.75490620E+00  1.77524354E+00  1.78229358E+00  1.80611916E+00
  1.83890642E+00  1.84530455E+00  1.87047633E+00  1.90016299E+00  1.95777681E+00
  2.05242528E+00  2.06095422E+00  2.08418909E+00  2.11340318E+00  2.12244736E+00
  2.26826764E+00  2.33162091E+00  2.40289530E+00  2.48941283E+00  2.49544008E+00
  2.52041918E+00  2.58119789E+00  2.59827247E+00  2.62487479E+00  2.66538252E+00
  2.68683425E+00  2.69566047E+00  2.71712307E+00  2.75417349E+00  2.77575168E+00
  2.80506937E+00  2.92521719E+00  2.97303012E+00  3.08465313E+00  3.16475660E+00
  3.18564573E+00  3.19854666E+00  3.21222187E+00  3.22290789E+00  3.23185535E+00
  3.28163164E+00  3.33138063E+00  3.48119588E+00  3.52638449E+00  3.53505047E+00
  3.80645830E+00  3.90355479E+00  3.94777188E+00  4.33169955E+00  4.43829177E+00
  4.52186758E+00  4.57236378E+00  4.70623347E+00  4.89599383E+00  4.98402004E+00
  5.34258707E+00  5.42571427E+00  5.67113359E+00  6.35550071E+00  6.60196785E+00
  6.83768026E+00  6.88346617E+00  6.89528289E+00  6.95842130E+00  7.31283861E+00
  7.34156037E+00  7.35121544E+00  7.43606161E+00  7.47125081E+00  7.66644891E+00
  7.70659987E+00  8.36527757E+00  1.45047884E+01  5.92017198E+01
Alpha MO coefficients                      R   N=       30276
  6.32864037E-06  3.44636550E-05  1.01668579E-06 -1.32649332E-04 -7.46596517E-05
 -2.08295642E-07  3.22327090E-06  6.03708971E-07  2.71530079E-07 -9.67966361E-06
 -2.41152116E-06  4.84546628E-05 -1.48813341E-04  6.65373897E-06  1.51381607E-05
 -3.04857219E-05  5.72835825E-06 -1.90513150E-06  2.48909332E-07  1.60541236E-07
 -2.95828592E-06 -1.39586426E-06  1.31263557E-05 -7.87671329E-08 -1.00195943E-06
  2.10115030E-05  9.42204140E-06  2.75440099E-05  9.14336624E-06 -8.88599027E-06
  5.48541884E-05  1.41215750E-05 -1.12689213E-07 -1.07121246E-07  6.71720102E-07
 -7.63400590E-07  8.20771273E-07 -1.11566899E-06  5.90731269E-07  5.40714300E-08
 -2.05515272E-06  1.03057921E-05  3.72633262E-06 -3.30703540E-06 -6.55129713E-06
  1.07085145E-05 -9.53844080E-08  1.03491604E-07 -9.38201931E-07  1.39049638E-05
 -1.94740948E-05 -5.74379427E-06 -2.72008615E-07 -7.28712456E-10  1.43668672E-07
 -4.21141932E-06  8.06355651E-08  9.46076775E-07  1.77780138E-07 -4.75139953E-09
 -2.53787215E-07  1.63620986E-05 -5.43032556E-07 -3.46201156E-06  3.16606142E-06
 -2.97912401E-07  4.79588227E-07  9.26614404E-08  4.56296167E-08 -2.25790297E-08
 -3.20214339E-07 -1.20142465E-07 -7.16237271E-07 -3.67125973E-07  6.66757303E-08
  1.94876463E-06  4.40430198E-07  2.03290202E-06  1.49131267E-06  4.10622180E-08
 -4.98835933E-06 -5.19695340E-07  2.89820202E-06  1.29661099E-06 -8.60442632E-07
 -4.12248139E-06  1.02487232E-06  5.85190350E-08  6.69564981E-09  2.32862066E-07
 -3.95390880E-08 -6.19491479E-07 -5.10184839E-07 -4.40942437E-07  4.68900420E-07
 -1.58307249E-06 -3.57674104E-07 -7.25425236E-07  1.17714665E-06  3.30722683E-06
  6.12600387E-07  9.99534907E-01  1.95307102E-03  1.83764294E-04 -4.16877820E-04
  6.77817309E-05  6.98272346E-05  1.63287986E-05 -7.67650524E-05  2.33570207E-06
  3.41321167E-05 -1.34033863E-04  3.92128015E-06 -1.67169414E-05  7.23504694E-05
 -2.19174807E-06  7.72276805E-06 -5.25781945E-05 -2.85730255E-06  1.67232975E-06
 -1.14936734E-05 -1.34464525E-06 -3.79683819E-06  1.93428119E-07 -1.67191238E-07
 -5.56221621E-06 -3.34810075E-06 -2.77530904E-05  5.17737458E-07 -1.35801001E-06
 -4.31105667E-05 -2.28983166E-05 -3.14455553E-06 -3.38359261E-06  7.22745930E-07
 -6.64940265E-06 -1.70014522E-07 -6.46046880E-07 -1.24976325E-06  5.61287434E-06
  2.78668262E-07 -1.26022361E-06 -5.13466527E-06  4.78036648E-06  9.81112166E-07
 -1.28189348E-06  3.92704750E-06 -1.16062318E-06  2.39711469E-06 -3.05437981E-06
  5.78612859E-06 -5.70222559E-07 -2.21286695E-05  8.60975749E-06 -5.97855989E-06
  1.22061917E-06 -2.09987244E-06  5.88779176E-07 -7.71875952E-06  1.64656884E-05
 -8.13388752E-08  8.36584528E-06  1.43069316E-05 -2.57881837E-06 -8.38323774E-07
 -1.42237701E-07 -1.05067122E-07 -1.61055953E-06 -8.14198663E-07 -4.59682280E-06
  2.78351307E-06 -1.21807524E-06  3.25317047E-06 -3.52486205E-06  9.76842993E-01
 -9.05838333E-03  4.33705794E-02  2.26173574E-03  2.90799156E-04  6.21951201E-04
  1.53637573E-03  9.86883690E-04 -7.02565132E-04 -1.19527867E-03 -9.05434543E-04
 -3.36388614E-04  8.18668087E-04 -2.86321114E-04 -1.43868108E-04  1.44275204E-04
 -1.15518285E-04  5.66008700E-05  3.11208550E-05  2.69583434E-06  1.00006371E-04
  4.33071574E-05  1.35256796E-04 -4.80418386E-04 -2.44707173E-05  1.17040842E-04
  1.73110219E-04 -1.93715501E-04 -7.85278673E-05  3.76156053E-05 -2.62290504E-04
 -1.88210180E-04  4.10769689E-06 -1.51143273E-05  9.54696170E-06 -8.88248143E-07
 -1.47328486E-05 -1.14627364E-05  1.12639813E-05  3.00328077E-05 -8.74113358E-05
 -1.66273670E-05 -1.20267592E-04 -3.01312203E-05 -3.82349757E-05 -4.54675198E-05
  3.07251220E-06 -4.38727705E-06  7.67587538E-06 -3.52037786E-04  6.31567452E-04
  1.41646513E-04 -6.00533685E-06  1.38153910E-06  2.52939749E-06  4.48770860E-05
  2.94361888E-06  2.31896655E-05  2.23298247E-05 -3.81242586E-06 -3.25983063E-06
 -4.78853311E-04  2.73467354E-05 -2.83996311E-05 -4.83126852E-05 -1.59581416E-05
  1.35357920E-06 -5.07141599E-06  2.42527416E-06  1.36624757E-07  3.15693025E-06
 -1.80703842E-06  3.54030559E-05 -1.48954738E-05 -3.69282187E-07 -3.27166235E-05
  9.52620471E-06 -1.05818799E-04  2.96583231E-05 -9.01260795E-08  1.26175144E-04
 -2.83216272E-05 -8.74682842E-05  1.97761277E-05  1.04586068E-05  1.19947753E-04
  1.30108816E-05  1.76769480E-06 -1.62434681E-05 -6.63887516E-06  1.31462410E-05
  4.51573400E-06 -8.60119971E-06  3.61723288E-06  1.03112543E-05  1.10551237E-04
  1.04514664E-05 -5.03947943E-05 -9.14290650E-06 -4.22860760E-05 -7.24073698E-07
  3.65801758E-06  6.05215045E-05  5.86826611E-05 -2.54787528E-04 -1.66326564E-04
 -4.37139814E-04 -5.28041413E-06 -1.74852138E-06 -3.54982114E-06  2.05366866E-05
 -4.62374936E-04 -5.74743391E-05 -2.95320763E-05  2.29142745E-04  1.63925116E-05
  2.12490324E-04  4.89897396E-04  1.12544145E-04 -1.38502519E-05  1.00202994E-04
  2.60865385E-05  1.40589893E-05 -1.01008723E-06  5.65454811E-08  1.25300575E-05
  1.11631075E-05 -2.77377248E-04 -4.28015629E-06  3.45843749E-05 -4.20898769E-04
 -1.82996389E-04  1.43544482E-04  7.03262634E-05 -5.77942359E-05  3.56850283E-04
 -2.90376378E-05  1.11548201E-05 -3.39633252E-05  1.59241390E-04  1.28405655E-06
  9.40420814E-06 -1.24255118E-04  1.85208376E-04 -1.19493526E-05 -2.19188156E-05
  8.64560404E-05  2.12992454E-05 -2.21202278E-05 -7.28505721E-05  4.19244927E-05
  4.37541229E-04  1.77178036E-03 -8.54932909E-04 -1.07060963E-05 -2.18320616E-04
  5.75969475E-05 -1.71777659E-04 -8.31704283E-04 -2.95872636E-05 -6.26546316E-04
 -3.51801723E-04 -2.70320420E-04  4.35453938E-04 -2.41054369E-05 -3.56052402E-05
 -4.99876089E-05  9.22053192E-06 -5.37561531E-05  2.30102958E-05  4.77671093E-04
  2.46399976E-05  2.61446974E-04  5.23296836E-05 -7.97668773E-05 -1.19597144E-04
 -1.02163505E-04  2.47030024E-03  1.70422140E-03 -1.88610988E-05  3.50765266E-05
 -1.14451271E-05 -1.03970548E-04  5.94896464E-04  4.93554796E-05 -6.34787166E-04
  2.47731029E-03 -1.76490463E-05 -3.41692654E-04  7.58284491E-04 -1.38748348E-04
 -3.05614884E-05 -5.49896628E-06 -9.02578452E-06 -4.55856005E-05 -3.20372250E-05
 -1.60045994E-04  3.15871077E-05  6.83721415E-05 -2.66437658E-04 -6.03537308E-05
 -3.00651246E-04 -1.20315717E-04  2.17015510E-04 -7.10067230E-04  3.10267472E-06
 -3.45261560E-06  1.27206409E-05 -3.25666436E-05  1.66774642E-05 -1.17244666E-05
  4.01469595E-05 -3.54467558E-05  1.07591535E-05  9.40307060E-06  3.47997761E-05