title                                                                   
SP        RMP2-FC                                                     Gen                 
Number of atoms                            I                4
Info1-9                                    I   N=           9
         135         126           0           0           0         110
           1           2           1
Full Title                                 C   N=           1
title       
Route                                      C   N=           5
#p pop=NBO SP NoSymm mp2/gen Pseudo=read density=current    
Charge                                     I               -1
Multiplicity                               I                1
Number of electrons                        I               52
Number of alpha electrons                  I               26
Number of beta electrons                   I               26
Number of basis functions                  I              174
Number of independent functions            I              174
Number of point charges in /Mol/           I                0
Number of translation vectors              I                0
Atomic numbers                             I   N=           4
           8          53          17           1
Nuclear charges                            R   N=           4
  8.00000000E+00  2.50000000E+01  1.70000000E+01  1.00000000E+00
Current cartesian coordinates              R   N=          12
  0.00000000E+00  0.00000000E+00  0.00000000E+00  6.25933684E+00  0.00000000E+00
  0.00000000E+00 -7.30225624E-01  3.10228121E+00  0.00000000E+00  1.18843089E+00
  0.00000000E+00  1.41631678E+00
Number of symbols in /Mol/                 I                0
Force Field                                I                0
Atom Types                                 C   N=           4
                                                
Int Atom Types                             I   N=           4
           0           0           0           0
MM charges                                 R   N=           4
  0.00000000E+00  0.00000000E+00  0.00000000E+00  0.00000000E+00
Integer atomic weights                     I   N=           4
          16         127          35           1
Real atomic weights                        R   N=           4
  1.59949146E+01  1.26900400E+02  3.49688527E+01  1.00782504E+00
Atom fragment info                         I   N=           4
           0           0           0           0
Atom residue num                           I   N=           4
           0           0           0           0
Nuclear spins                              I   N=           4
           0           5           3           1
Nuclear ZEff                               R   N=           4
 -5.60000000E+00 -5.83000000E+03 -1.42400000E+01 -1.00000000E+00
Nuclear ZNuc                               R   N=           4
  8.00000000E+00  5.30000000E+01  1.70000000E+01  1.00000000E+00
Nuclear QMom                               R   N=           4
  0.00000000E+00 -7.10000000E+01 -8.16500000E+00  0.00000000E+00
Nuclear GFac                               R   N=           4
  0.00000000E+00  2.81328000E+00  8.21874000E-01  2.79284600E+00
MicOpt                                     I   N=           4
          -1          -1          -1          -1
Number of residues                         I                0
Number of secondary structures             I                0
Number of contracted shells                I               56
Number of primitive shells                 I              143
Pure/Cartesian d shells                    I                0
Pure/Cartesian f shells                    I                0
Highest angular momentum                   I                3
Largest degree of contraction              I               11
Shell types                                I   N=          56
           0           0           0           0           0           1
           1           1           1          -2          -2          -2
          -3          -3           0           0           0           0
           0           0           1           1           1           1
           1          -2          -2          -2          -2          -3
          -3           0           0           0           0           0
           0           1           1           1           1           1
          -2          -2          -2          -3          -3           0
           0           0           0           1           1           1
          -2          -2
Number of primitives per shell             I   N=          56
           7           6           1           1           1           3
           1           1           1           1           1           1
           1           1           9           8           1           1
           1           1           8           8           1           1
           1           9           1           1           1           1
           1          11           9           8           1           1
           1           6           6           1           1           1
           1           1           1           1           1           3
           1           1           1           1           1           1
           1           1
Shell to atom map                          I   N=          56
           1           1           1           1           1           1
           1           1           1           1           1           1
           1           1           2           2           2           2
           2           2           2           2           2           2
           2           2           2           2           2           2
           2           3           3           3           3           3
           3           3           3           3           3           3
           3           3           3           3           3           4
           4           4           4           4           4           4
           4           4
Primitive exponents                        R   N=         143
  1.53300000E+04  2.29900000E+03  5.22400000E+02  1.47300000E+02  4.75500000E+01
  1.67600000E+01  6.20700000E+00  5.22400000E+02  1.47300000E+02  4.75500000E+01
  1.67600000E+01  6.20700000E+00  6.88200000E-01  1.75200000E+00  2.38400000E-01
  7.37600000E-02  3.44600000E+01  7.74900000E+00  2.28000000E+00  7.15600000E-01
  2.14000000E-01  5.97400000E-02  2.31400000E+00  6.45000000E-01  2.14000000E-01
  1.42800000E+00  5.00000000E-01  5.54650000E+03  8.38214000E+02  1.82187000E+02
  3.12123000E+01  1.95314000E+01  8.24099000E+00  2.19455000E+00  1.10911000E+00
  8.10610000E-02  5.54650000E+03  8.38214000E+02  3.12123000E+01  1.95314000E+01
  8.24099000E+00  2.19455000E+00  1.10911000E+00  8.10610000E-02  3.74641000E-01
  1.77080000E-01  1.00100000E-01  4.12000000E-02  1.88988000E+02  2.12868000E+01
  1.00396000E+01  3.45180000E+00  1.97456000E+00  1.02420000E+00  4.49437000E-01
  7.34810000E-02  1.88988000E+02  1.00396000E+01  3.45180000E+00  1.97456000E+00
  1.02420000E+00  4.49437000E-01  1.86648000E-01  7.34810000E-02  5.98100000E-01
  9.61800000E-02  3.59000000E-02  1.32662000E+02  3.76054000E+01  1.03891000E+01
  6.49017000E+00  3.45451000E+00  1.84413000E+00  9.62478000E-01  4.72853000E-01
  1.93200000E-01  4.72853000E-01  1.93200000E-01  7.82000000E-02  4.06400000E-01
  1.84800000E-01  4.56100000E+05  6.83300000E+04  1.55500000E+04  4.40500000E+03
  1.43900000E+03  5.20400000E+02  2.03100000E+02  8.39600000E+01  3.62000000E+01
  1.58300000E+01  6.33400000E+00  4.40500000E+03  1.43900000E+03  5.20400000E+02
  2.03100000E+02  8.39600000E+01  3.62000000E+01  1.58300000E+01  6.33400000E+00
  2.69400000E+00  1.43900000E+03  2.03100000E+02  8.39600000E+01  3.62000000E+01
  1.58300000E+01  6.33400000E+00  2.69400000E+00  4.31300000E-01  9.76800000E-01
  1.62500000E-01  5.91000000E-02  6.63300000E+02  1.56800000E+02  4.99800000E+01
  1.84200000E+01  7.24000000E+00  2.92200000E+00  1.56800000E+02  4.99800000E+01
  1.84200000E+01  7.24000000E+00  2.92200000E+00  3.81800000E-01  1.02200000E+00
  1.30100000E-01  4.19000000E-02  1.04600000E+00  3.44000000E-01  1.35000000E-01
  7.06000000E-01  3.12000000E-01  3.38700000E+01  5.09500000E+00  1.15900000E+00
  3.25800000E-01  1.02700000E-01  2.52600000E-02  1.40700000E+00  3.88000000E-01
  1.02000000E-01  1.05700000E+00  2.47000000E-01
Contraction coefficients                   R   N=         143
  5.19808943E-04  4.02025621E-03  2.07128267E-02  8.10105536E-02  2.35962985E-01
  4.42653446E-01  3.57064423E-01 -4.42115008E-05 -1.22591041E-03 -1.05517725E-02
 -6.74452633E-02 -1.71198607E-01  1.07329856E+00  1.00000000E+00  1.00000000E+00
  1.00000000E+00  4.11634896E-02  2.57762836E-01  8.02419274E-01  1.00000000E+00
  1.00000000E+00  1.00000000E+00  1.00000000E+00  1.00000000E+00  1.00000000E+00
  1.00000000E+00  1.00000000E+00  1.58603022E-04  1.00211458E-03  2.83966410E-03
 -4.40310212E-02  2.38198152E-01 -7.63568980E-01  8.96516870E-01  4.68371203E-01
  2.16251781E-03 -2.17177846E-05 -2.59237305E-04 -1.50376554E-02  2.42214079E-02
  6.99888661E-02 -5.50491335E-01 -5.69654432E-01  3.76065139E-01  1.00000000E+00
  1.00000000E+00  1.00000000E+00  1.00000000E+00  5.85232173E-04  3.69335916E-02
 -2.35399435E-01  3.41625365E-01  5.34991615E-01  2.65244797E-01  2.54463150E-02
  3.82802808E-04 -6.76097015E-05  8.33123161E-03 -4.66496478E-02 -5.27406452E-02
 -2.91398344E-02  3.65650039E-01  5.48502805E-01  2.34644635E-01  1.00000000E+00
  1.00000000E+00  1.00000000E+00  5.72000072E-04  4.40200055E-03 -4.09220051E-02
  9.96610125E-02  3.22663040E-01  4.00343050E-01  2.68306034E-01  8.48470106E-02
  7.63200096E-03  1.00000000E+00  1.00000000E+00  1.00000000E+00  1.00000000E+00
  1.00000000E+00  4.93229477E-05  3.83207967E-04  2.00947816E-03  8.38950124E-03
  2.94843950E-02  8.78759948E-02  2.11589759E-01  3.65611554E-01  3.41246350E-01
  1.02162570E-01  2.14249949E-03 -2.21747925E-06 -1.71189708E-04 -1.27922846E-03
 -9.32956265E-03 -3.98910062E-02 -1.05536085E-01  9.36202446E-03  5.10511140E-01
  5.73150737E-01  4.03949245E-06  2.12481765E-04  8.59484452E-04  4.63248159E-03
  4.47343490E-04 -7.38438245E-02 -3.62271994E-01  1.16620337E+00  1.00000000E+00
  1.00000000E+00  1.00000000E+00  2.47206402E-03  1.97550234E-02  9.09917355E-02
  2.63187834E-01  4.49078073E-01  3.60183072E-01  3.03427809E-05 -1.22475826E-03
 -6.01429772E-03 -2.76401323E-02  4.35105612E-04  1.00307272E+00  1.00000000E+00
  1.00000000E+00  1.00000000E+00  1.00000000E+00  1.00000000E+00  1.00000000E+00
  1.00000000E+00  1.00000000E+00  2.54948632E-02  1.90362766E-01  8.52162022E-01
  1.00000000E+00  1.00000000E+00  1.00000000E+00  1.00000000E+00  1.00000000E+00
  1.00000000E+00  1.00000000E+00  1.00000000E+00
Coordinates of each shell                  R   N=         168
  0.00000000E+00  0.00000000E+00  0.00000000E+00  0.00000000E+00  0.00000000E+00
  0.00000000E+00  0.00000000E+00  0.00000000E+00  0.00000000E+00  0.00000000E+00
  0.00000000E+00  0.00000000E+00  0.00000000E+00  0.00000000E+00  0.00000000E+00
  0.00000000E+00  0.00000000E+00  0.00000000E+00  0.00000000E+00  0.00000000E+00
  0.00000000E+00  0.00000000E+00  0.00000000E+00  0.00000000E+00  0.00000000E+00
  0.00000000E+00  0.00000000E+00  0.00000000E+00  0.00000000E+00  0.00000000E+00
  0.00000000E+00  0.00000000E+00  0.00000000E+00  0.00000000E+00  0.00000000E+00
  0.00000000E+00  0.00000000E+00  0.00000000E+00  0.00000000E+00  0.00000000E+00
  0.00000000E+00  0.00000000E+00  6.25933684E+00  0.00000000E+00  0.00000000E+00
  6.25933684E+00  0.00000000E+00  0.00000000E+00  6.25933684E+00  0.00000000E+00
  0.00000000E+00  6.25933684E+00  0.00000000E+00  0.00000000E+00  6.25933684E+00
  0.00000000E+00  0.00000000E+00  6.25933684E+00  0.00000000E+00  0.00000000E+00
  6.25933684E+00  0.00000000E+00  0.00000000E+00  6.25933684E+00  0.00000000E+00
  0.00000000E+00  6.25933684E+00  0.00000000E+00  0.00000000E+00  6.25933684E+00
  0.00000000E+00  0.00000000E+00  6.25933684E+00  0.00000000E+00  0.00000000E+00
  6.25933684E+00  0.00000000E+00  0.00000000E+00  6.25933684E+00  0.00000000E+00
  0.00000000E+00  6.25933684E+00  0.00000000E+00  0.00000000E+00  6.25933684E+00
  0.00000000E+00  0.00000000E+00  6.25933684E+00  0.00000000E+00  0.00000000E+00
  6.25933684E+00  0.00000000E+00  0.00000000E+00 -7.30225624E-01  3.10228121E+00
  0.00000000E+00 -7.30225624E-01  3.10228121E+00  0.00000000E+00 -7.30225624E-01
  3.10228121E+00  0.00000000E+00 -7.30225624E-01  3.10228121E+00  0.00000000E+00
 -7.30225624E-01  3.10228121E+00  0.00000000E+00 -7.30225624E-01  3.10228121E+00
  0.00000000E+00 -7.30225624E-01  3.10228121E+00  0.00000000E+00 -7.30225624E-01
  3.10228121E+00  0.00000000E+00 -7.30225624E-01  3.10228121E+00  0.00000000E+00
 -7.30225624E-01  3.10228121E+00  0.00000000E+00 -7.30225624E-01  3.10228121E+00
  0.00000000E+00 -7.30225624E-01  3.10228121E+00  0.00000000E+00 -7.30225624E-01
  3.10228121E+00  0.00000000E+00 -7.30225624E-01  3.10228121E+00  0.00000000E+00
 -7.30225624E-01  3.10228121E+00  0.00000000E+00 -7.30225624E-01  3.10228121E+00
  0.00000000E+00  1.18843089E+00  0.00000000E+00  1.41631678E+00  1.18843089E+00
  0.00000000E+00  1.41631678E+00  1.18843089E+00  0.00000000E+00  1.41631678E+00
  1.18843089E+00  0.00000000E+00  1.41631678E+00  1.18843089E+00  0.00000000E+00
  1.41631678E+00  1.18843089E+00  0.00000000E+00  1.41631678E+00  1.18843089E+00
  0.00000000E+00  1.41631678E+00  1.18843089E+00  0.00000000E+00  1.41631678E+00
  1.18843089E+00  0.00000000E+00  1.41631678E+00
Num ILSW                                   I              100
ILSW                                       I   N=         100
           0           0           0           0           2           0
           0           0           0           0           0          -1
           5           0           0           0           0           0
           0           0           0           0           0           0
           1           1           0           0           0           0
           0           0      100000           0          -1           0
           0           0           0           0           0           0
           0           0           0           1           0           0
           0 -2000000000           1           0           0           0
           0           0           4          52           0           0
           0           0           0           0           0           0
           0           0           0           4           0           1
           0           0           0           0           0           0
           0           0           0           0           0           0
           0           0           0           0           0           0
           0           0           0           0           0           0
           0           0           0           0
Num RLSW                                   I               52
RLSW                                       R   N=          52
  1.00000000E+00  1.00000000E+00  1.00000000E+00  1.00000000E+00  1.00000000E+00
  0.00000000E+00  0.00000000E+00  1.00000000E+00  0.00000000E+00  0.00000000E+00
  0.00000000E+00  0.00000000E+00  1.00000000E+00  0.00000000E+00  0.00000000E+00
  0.00000000E+00  0.00000000E+00  1.00000000E+00  0.00000000E+00  0.00000000E+00
  0.00000000E+00  0.00000000E+00  1.00000000E+00  0.00000000E+00  0.00000000E+00
  0.00000000E+00  0.00000000E+00  1.00000000E+00  0.00000000E+00  0.00000000E+00
  0.00000000E+00  0.00000000E+00  1.00000000E+00  0.00000000E+00  0.00000000E+00
  0.00000000E+00  0.00000000E+00  0.00000000E+00  1.00000000E+00  1.00000000E+00
  0.00000000E+00  1.00000000E+00  0.00000000E+00  0.00000000E+00  0.00000000E+00
  0.00000000E+00  0.00000000E+00  0.00000000E+00  0.00000000E+00  0.00000000E+00
  0.00000000E+00  0.00000000E+00
ECP-MxAtEC                                 I           250000
ECP-MaxLECP                                I               10
ECP-MaxAtL                                 I          2250000
ECP-MxTECP                                 I         11250000
ECP-LenNCZ                                 I               16
ECP-KFirst                                 I   N=          40
           0           1           0           0           0           2
           0           0           0           5           0           0
           0           9           0           0           0          13
           0           0           0           0           0           0
           0           0           0           0           0           0
           0           0           0           0           0           0
           0           0           0           0
ECP-KLast                                  I   N=          40
           0           1           0           0           0           4
           0           0           0           8           0           0
           0          12           0           0           0          16
           0           0           0           0           0           0
           0           0           0           0           0           0
           0           0           0           0           0           0
           0           0           0           0
ECP-LMax                                   I   N=           4
           0           4           0           0
ECP-LPSkip                                 I   N=           4
           1           0           1           1
ECP-RNFroz                                 R   N=           4
  0.00000000E+00  2.80000000E+01  0.00000000E+00  0.00000000E+00
ECP-NLP                                    I   N=          16
           2           2           2           2           2           2
           2           2           2           2           2           2
           2           2           2           2
ECP-CLP1                                   R   N=          16
  0.00000000E+00  4.99896490E+01  2.81006556E+02  6.14167390E+01  6.74162390E+01
  1.34807696E+02  1.45665480E+01  2.89684220E+01  3.55387560E+01  5.33397590E+01
  9.71646600E+00  1.49775000E+01 -2.01766180E+01 -2.60880770E+01 -2.20434000E-01
 -2.21646000E-01
ECP-CLP2                                   R   N=          16
  0.00000000E+00  0.00000000E+00  0.00000000E+00  0.00000000E+00  0.00000000E+00
  0.00000000E+00  0.00000000E+00  0.00000000E+00  0.00000000E+00  0.00000000E+00
  0.00000000E+00  0.00000000E+00  0.00000000E+00  0.00000000E+00  0.00000000E+00
  0.00000000E+00
ECP-ZLP                                    R   N=          16
  1.00000000E+00  4.00333760E+01  1.73005760E+01  8.85172000E+00  1.57201410E+01
  1.52082220E+01  8.29418600E+00  7.75394900E+00  1.38177510E+01  1.35878050E+01
  6.94763000E+00  6.96009900E+00  1.85229500E+01  1.82510350E+01  7.55790100E+00
  7.59740400E+00
MxBond                                     I                2
NBond                                      I   N=           4
           2           0           1           1
IBond                                      I   N=           8
           3           4           0           0           1           0
           1           0
RBond                                      R   N=           8
  1.00000000E+00  1.00000000E+00  0.00000000E+00  0.00000000E+00  1.00000000E+00
  0.00000000E+00  1.00000000E+00  0.00000000E+00
Virial Ratio                               R      2.284979815876441E+00
SCF Energy                                 R     -8.296730208654603E+02
MP2 Energy                                 R     -8.303510308796577E+02
Total Energy                               R     -8.303510308796577E+02
Post-SCF wavefunction norm                 R      1.108040965303783E+00
RMS Density                                R      6.993770554794839E-09
Job Status                                 I                1
Nuclear derivative order                   I                0
External E-field                           R   N=          35
  0.00000000E+00  0.00000000E+00  0.00000000E+00  0.00000000E+00  0.00000000E+00
  0.00000000E+00  0.00000000E+00  0.00000000E+00  0.00000000E+00  0.00000000E+00
  0.00000000E+00  0.00000000E+00  0.00000000E+00  0.00000000E+00  0.00000000E+00
  0.00000000E+00  0.00000000E+00  0.00000000E+00  0.00000000E+00  0.00000000E+00
  0.00000000E+00  0.00000000E+00  0.00000000E+00  0.00000000E+00  0.00000000E+00
  0.00000000E+00  0.00000000E+00  0.00000000E+00  0.00000000E+00  0.00000000E+00
  0.00000000E+00  0.00000000E+00  0.00000000E+00  0.00000000E+00  0.00000000E+00
IOpCl                                      I                0
IROHF                                      I                0
Alpha Orbital Energies                     R   N=         174
 -1.04752708E+02 -2.04971429E+01 -1.04724040E+01 -7.93959434E+00 -7.93679650E+00
 -7.93662956E+00 -7.46333362E+00 -5.28903376E+00 -5.28862345E+00 -5.28841266E+00
 -2.01646474E+00 -2.01635409E+00 -2.01615066E+00 -2.01566532E+00 -2.01564154E+00
 -1.26780505E+00 -9.19557546E-01 -6.24312767E-01 -5.72668014E-01 -4.71143574E-01
 -4.61931229E-01 -3.31052964E-01 -3.04778087E-01 -1.42849951E-01 -1.38815531E-01
 -1.37451524E-01  1.43921179E-01  1.70383013E-01  2.13633145E-01  2.22706084E-01
  2.43258012E-01  2.52802298E-01  2.55367488E-01  2.65964016E-01  2.70078828E-01
  2.96197623E-01  3.10291207E-01  3.12247083E-01  3.40169454E-01  3.70759514E-01
  3.82679334E-01  3.88273982E-01  4.21105309E-01  4.34523955E-01  4.56931936E-01
  4.85081791E-01  4.94255200E-01  5.28175482E-01  5.36295119E-01  5.60050828E-01
  5.70208611E-01  5.77468061E-01  6.03117880E-01  6.32479110E-01  6.59773904E-01
  7.39110715E-01  7.50222984E-01  7.83515179E-01  7.88447060E-01  7.94488157E-01
  8.00561906E-01  8.04048416E-01  8.04556750E-01  8.18650157E-01  8.24612176E-01
  8.46152857E-01  8.77554939E-01  8.80815311E-01  8.84697991E-01  8.96507859E-01
  9.03132560E-01  9.16089860E-01  9.39000697E-01  9.44559911E-01  9.68908297E-01
  9.96438042E-01  1.00741398E+00  1.04639667E+00  1.05073241E+00  1.09055896E+00
  1.10010063E+00  1.12469991E+00  1.13323747E+00  1.19047308E+00  1.22038720E+00
  1.23334976E+00  1.24225750E+00  1.28225155E+00  1.33174182E+00  1.34871307E+00
  1.39048028E+00  1.42784350E+00  1.47595195E+00  1.51138985E+00  1.53939179E+00
  1.60123681E+00  1.62103060E+00  1.66232796E+00  1.68510418E+00  1.72124363E+00
  1.75806065E+00  1.75829719E+00  1.77947399E+00  1.78723822E+00  1.80678233E+00
  1.83730616E+00  1.84109623E+00  1.87068104E+00  1.88945078E+00  1.95275481E+00
  2.05521091E+00  2.06390425E+00  2.08001874E+00  2.10863767E+00  2.11888206E+00
  2.26066150E+00  2.33585503E+00  2.40398339E+00  2.46918949E+00  2.48378019E+00
  2.51385865E+00  2.57048308E+00  2.59669935E+00  2.62344751E+00  2.66392773E+00
  2.68730584E+00  2.69048039E+00  2.71485470E+00  2.75003258E+00  2.77901907E+00
  2.81529416E+00  2.90410087E+00  2.97792704E+00  3.08875836E+00  3.16444608E+00
  3.18508130E+00  3.19352355E+00  3.20128023E+00  3.22099108E+00  3.22861647E+00
  3.28032120E+00  3.31748303E+00  3.46220872E+00  3.52388522E+00  3.53463946E+00
  3.74268276E+00  3.89270806E+00  3.93773503E+00  4.32749159E+00  4.40164574E+00
  4.50308838E+00  4.53597782E+00  4.70955240E+00  4.88574501E+00  4.98540027E+00
  5.35335308E+00  5.43379525E+00  5.66907641E+00  6.34747775E+00  6.60539680E+00
  6.82299537E+00  6.88425977E+00  6.89580640E+00  6.94389827E+00  7.31605913E+00
  7.34680059E+00  7.35902601E+00  7.43657214E+00  7.44802684E+00  7.65147697E+00
  7.68537977E+00  8.37811722E+00  1.46306013E+01  5.92007493E+01
Alpha MO coefficients                      R   N=       30276
  6.62160681E-06  3.59350174E-05  7.20199150E-07 -1.29215295E-04 -6.88608695E-05
 -3.02730137E-07  3.24077338E-06  5.04719245E-07  1.18984396E-06 -9.71444073E-06
 -1.40269577E-06  4.63818290E-05 -1.44840301E-04  8.43812002E-06  1.52929359E-05
 -2.82781029E-05  6.45215508E-06 -1.83033497E-06  2.36058184E-07  1.78206069E-07
 -2.90323745E-06 -1.46884454E-06  1.32820747E-05  5.41606783E-07 -9.93919905E-07
  2.08891883E-05  9.88318495E-06  2.87828974E-05  9.53072348E-06 -9.93912375E-06
  5.27430073E-05  1.59334814E-05 -7.20551378E-08 -1.26059638E-07  9.92044182E-07
 -7.54474805E-07  7.62309506E-07 -9.18707189E-07  4.25332476E-07  1.56173825E-07
 -1.54088291E-06  9.16992001E-06  3.91300372E-06 -2.90237235E-06 -7.30518402E-06
  1.14805840E-05 -1.36611167E-07  1.58820252E-07 -4.15181661E-07  1.06909950E-05
 -1.37643231E-05 -6.57789853E-06 -2.37887576E-07 -7.08859867E-08  1.95618958E-07
 -4.18494839E-06 -3.86437766E-07  1.12954010E-06  1.63587124E-07  1.58302416E-07
 -4.08446725E-07  1.35388886E-05  4.34633113E-07 -2.65633635E-06  3.38001266E-06
 -3.29733899E-07  2.93506201E-07  1.06950940E-07  1.87671245E-08 -9.28104736E-09
 -3.39845951E-07 -1.82180817E-07 -7.76761510E-07 -1.87976851E-07  1.84398688E-08
  2.01213295E-06  7.08038649E-07  1.90197725E-06  7.33525538E-07  7.77721237E-08
 -4.57544872E-06 -9.77179595E-07  2.53036533E-06  1.13583268E-06 -6.61243439E-07
 -3.39406215E-06  7.03755489E-07  6.18448321E-08  3.21115885E-08  2.78433277E-07
  4.25307452E-09 -4.42171976E-07 -5.23764911E-07 -6.50480470E-07  2.31898142E-07
 -1.68831214E-06 -4.74574510E-07 -4.90087898E-07  8.42969858E-07  3.23050926E-06
  1.11118809E-06  9.99534896E-01  1.95327188E-03  1.84053538E-04 -4.16961355E-04
  6.58014747E-05  6.62761313E-05  1.56829179E-05 -7.70135641E-05  2.54238616E-06
  3.32654696E-05 -1.34003722E-04  4.43978632E-06 -1.61860086E-05  7.24797930E-05
 -2.45076827E-06  8.24458091E-06 -4.99644865E-05 -2.75717600E-06  1.42377258E-06
 -1.10851186E-05 -1.44131524E-06 -3.80266642E-06  1.65745420E-07 -1.14471131E-07
 -5.73764273E-06 -3.31514245E-06 -2.75003143E-05  6.28107589E-07 -1.72095605E-06
 -4.28821401E-05 -2.26492350E-05 -3.46348507E-06 -3.13926280E-06  8.42453415E-07
 -5.36442436E-06  2.18568720E-08 -6.10653840E-07 -1.07357964E-06  5.39696680E-06
  4.83971041E-08 -1.29478376E-06 -5.30609825E-06  5.06445698E-06  6.93753976E-07
 -1.64205045E-06  4.25874903E-06 -8.34281473E-07  2.36609388E-06 -2.62980627E-06
  5.17292842E-06 -3.61126495E-07 -2.15080499E-05  1.66111584E-07 -4.82718514E-06
  1.29091308E-06 -1.71703010E-06  8.85865384E-07 -7.43196957E-06  1.53032870E-05
  9.08143442E-07  6.34789046E-06  1.15453381E-05 -1.80651037E-06 -1.24091426E-06
 -3.42636289E-07 -2.82523236E-08 -1.75327300E-06 -6.79363934E-07 -2.18815355E-06
  2.32797849E-06 -6.32017346E-07  2.05947620E-06 -2.55260873E-06  9.76844491E-01
 -9.06192702E-03  4.33698385E-02  2.22892426E-03 -3.33116706E-05  4.41827855E-04
  1.51337864E-03  1.17270407E-03 -5.34987126E-04 -1.18052575E-03 -1.07852032E-03
 -3.52180113E-04  8.45298823E-04 -2.75524601E-04 -1.74699752E-04  1.05778281E-04
 -1.46119525E-04  6.62923029E-05  3.34765993E-05  6.01489480E-06  9.47536145E-05
  4.52634925E-05 -7.91503665E-06 -4.89155123E-04 -2.15966942E-05  1.90535485E-04
  1.82132095E-04 -1.76235543E-04 -6.32477217E-05  6.39867533E-05 -2.68327649E-04
 -1.82285331E-04 -3.48039969E-06 -1.75863616E-05  2.83899869E-06  2.95525106E-06
 -1.48180422E-05 -1.12535894E-05  1.39505195E-05 -7.19348457E-06 -1.21196960E-04
 -1.77379152E-05 -1.05974761E-04 -2.77353599E-05 -1.84585144E-05 -3.82503135E-05
  3.72375939E-06 -6.01918532E-06  2.57303295E-06 -4.28264030E-04  7.22697871E-04
  2.15017379E-04 -3.58704605E-06  1.43349340E-06  2.03228872E-06  7.25910080E-05
  3.36795909E-06  3.35976960E-06  2.17530406E-05 -4.01319377E-06 -5.87888876E-06
 -5.82929335E-04  2.41346132E-05  7.55290166E-05 -7.79371006E-05 -1.55762220E-05
  9.51441928E-06 -4.42858999E-06 -1.43783203E-06  2.08549845E-07  4.12732559E-06
 -1.56547455E-06  3.30059351E-05  9.98592343E-06 -8.53575824E-07 -4.12035908E-05
  8.66884544E-06 -1.02842114E-04 -4.32055649E-05  1.45967769E-06  1.55763343E-04
 -2.67298515E-05 -9.32368158E-05 -3.32033868E-05  8.67585871E-06  1.54784280E-04
  1.26566196E-05  7.41085009E-06 -1.14705258E-05 -6.91538913E-06  6.24660096E-06
  3.37407705E-06 -7.03392116E-06  3.88239952E-06 -2.99177128E-05  9.11578452E-05
  1.08877045E-05  5.60108329E-06 -8.10536625E-06 -6.40439834E-05 -1.52135084E-07
  3.16745360E-06  5.30751437E-05  4.04420615E-05 -2.47384736E-04 -1.39258566E-04
 -3.31806922E-04 -5.15270254E-06 -5.30244990E-07 -4.81807264E-06  2.24977488E-05
 -4.43743593E-04 -7.66850082E-05 -3.02221502E-05  2.24321566E-04  2.21894702E-05
  2.11864630E-04  4.51745404E-04  1.40378478E-04 -4.27355298E-06  8.22797801E-05
  3.46286172E-05  1.46748315E-05  4.65402887E-07 -2.79700036E-07  1.36108690E-05
  1.14496818E-05 -2.76605400E-04 -1.26739438E-05  4.48583184E-05 -4.17796054E-04
 -1.85127898E-04  1.56454989E-04  9.07865404E-05 -6.82492368E-05  3.43980572E-04
 -2.64119642E-05  1.20124428E-05 -3.71832570E-05  1.60086525E-04  1.24101975E-06
  1.14377628E-05 -1.24173872E-04  1.83594260E-04 -8.75893841E-06 -1.44241196E-05
  8.22967856E-05  2.38723068E-05 -2.43400828E-05 -7.67625082E-05  4.43801742E-05
  4.59752591E-04  1.82129015E-03 -7.44233045E-04 -3.43378815E-05 -1.96894252E-04
  6.08130406E-05 -2.07190710E-04 -6.47775945E-04 -6.54410782E-05 -7.99562416E-04
 -5.30513932E-04 -2.98562458E-04  3.36607020E-04 -3.49209724E-05 -3.84253617E-05
 -5.84467373E-05  1.70131227E-05 -4.18072620E-05  1.84624681E-04  4.98849814E-04
  4.12146817E-05  1.30966259E-04  5.65101431E-05 -8.26750544E-05 -1.37873603E-04
 -1.01371991E-04  2.37886058E-03  1.52004010E-03 -1.78681741E-05  3.54861234E-05
 -1.13762264E-05 -1.20664902E-04  5.94693616E-04  3.35816919E-05 -6.28111835E-04
  2.37942245E-03 -5.04403699E-05 -3.59625115E-04  6.91313480E-04 -1.58764456E-04
 -3.26250418E-05 -4.76218947E-06 -9.61367625E-06 -4.66004616E-05 -2.93178358E-05
 -1.51343494E-04  1.96002455E-05  6.97355716E-05 -2.66262678E-04 -8.31656855E-05
 -3.13829520E-04 -1.27838018E-04  2.34920617E-04 -6.75482563E-04 -6.34331542E-05
 -1.25538834E-06  1.63330908E-05 -3.77637787E-05  1.47296747E-05 -1.17774595E-05
  3.59463331E-05 -3.31955868E-05  2.09650654E-05  2.38410665E-06  6.94254181E-05