title                                                                   
SP        RMP2-FC                                                     Gen                 
Number of atoms                            I                4
Info1-9                                    I   N=           9
         135         126           0           0           0         110
           1           2           1
Full Title                                 C   N=           1
title       
Route                                      C   N=           5
#p pop=NBO SP NoSymm mp2/gen Pseudo=read density=current    
Charge                                     I               -1
Multiplicity                               I                1
Number of electrons                        I               52
Number of alpha electrons                  I               26
Number of beta electrons                   I               26
Number of basis functions                  I              174
Number of independent functions            I              174
Number of point charges in /Mol/           I                0
Number of translation vectors              I                0
Atomic numbers                             I   N=           4
           8          53          17           1
Nuclear charges                            R   N=           4
  8.00000000E+00  2.50000000E+01  1.70000000E+01  1.00000000E+00
Current cartesian coordinates              R   N=          12
  0.00000000E+00  0.00000000E+00  0.00000000E+00  6.25933684E+00  0.00000000E+00
  0.00000000E+00 -7.30225624E-01  3.10228121E+00  0.00000000E+00  1.31100998E+00
  0.00000000E+00  1.31183845E+00
Number of symbols in /Mol/                 I                0
Force Field                                I                0
Atom Types                                 C   N=           4
                                                
Int Atom Types                             I   N=           4
           0           0           0           0
MM charges                                 R   N=           4
  0.00000000E+00  0.00000000E+00  0.00000000E+00  0.00000000E+00
Integer atomic weights                     I   N=           4
          16         127          35           1
Real atomic weights                        R   N=           4
  1.59949146E+01  1.26900400E+02  3.49688527E+01  1.00782504E+00
Atom fragment info                         I   N=           4
           0           0           0           0
Atom residue num                           I   N=           4
           0           0           0           0
Nuclear spins                              I   N=           4
           0           5           3           1
Nuclear ZEff                               R   N=           4
 -5.60000000E+00 -5.83000000E+03 -1.42400000E+01 -1.00000000E+00
Nuclear ZNuc                               R   N=           4
  8.00000000E+00  5.30000000E+01  1.70000000E+01  1.00000000E+00
Nuclear QMom                               R   N=           4
  0.00000000E+00 -7.10000000E+01 -8.16500000E+00  0.00000000E+00
Nuclear GFac                               R   N=           4
  0.00000000E+00  2.81328000E+00  8.21874000E-01  2.79284600E+00
MicOpt                                     I   N=           4
          -1          -1          -1          -1
Number of residues                         I                0
Number of secondary structures             I                0
Number of contracted shells                I               56
Number of primitive shells                 I              143
Pure/Cartesian d shells                    I                0
Pure/Cartesian f shells                    I                0
Highest angular momentum                   I                3
Largest degree of contraction              I               11
Shell types                                I   N=          56
           0           0           0           0           0           1
           1           1           1          -2          -2          -2
          -3          -3           0           0           0           0
           0           0           1           1           1           1
           1          -2          -2          -2          -2          -3
          -3           0           0           0           0           0
           0           1           1           1           1           1
          -2          -2          -2          -3          -3           0
           0           0           0           1           1           1
          -2          -2
Number of primitives per shell             I   N=          56
           7           6           1           1           1           3
           1           1           1           1           1           1
           1           1           9           8           1           1
           1           1           8           8           1           1
           1           9           1           1           1           1
           1          11           9           8           1           1
           1           6           6           1           1           1
           1           1           1           1           1           3
           1           1           1           1           1           1
           1           1
Shell to atom map                          I   N=          56
           1           1           1           1           1           1
           1           1           1           1           1           1
           1           1           2           2           2           2
           2           2           2           2           2           2
           2           2           2           2           2           2
           2           3           3           3           3           3
           3           3           3           3           3           3
           3           3           3           3           3           4
           4           4           4           4           4           4
           4           4
Primitive exponents                        R   N=         143
  1.53300000E+04  2.29900000E+03  5.22400000E+02  1.47300000E+02  4.75500000E+01
  1.67600000E+01  6.20700000E+00  5.22400000E+02  1.47300000E+02  4.75500000E+01
  1.67600000E+01  6.20700000E+00  6.88200000E-01  1.75200000E+00  2.38400000E-01
  7.37600000E-02  3.44600000E+01  7.74900000E+00  2.28000000E+00  7.15600000E-01
  2.14000000E-01  5.97400000E-02  2.31400000E+00  6.45000000E-01  2.14000000E-01
  1.42800000E+00  5.00000000E-01  5.54650000E+03  8.38214000E+02  1.82187000E+02
  3.12123000E+01  1.95314000E+01  8.24099000E+00  2.19455000E+00  1.10911000E+00
  8.10610000E-02  5.54650000E+03  8.38214000E+02  3.12123000E+01  1.95314000E+01
  8.24099000E+00  2.19455000E+00  1.10911000E+00  8.10610000E-02  3.74641000E-01
  1.77080000E-01  1.00100000E-01  4.12000000E-02  1.88988000E+02  2.12868000E+01
  1.00396000E+01  3.45180000E+00  1.97456000E+00  1.02420000E+00  4.49437000E-01
  7.34810000E-02  1.88988000E+02  1.00396000E+01  3.45180000E+00  1.97456000E+00
  1.02420000E+00  4.49437000E-01  1.86648000E-01  7.34810000E-02  5.98100000E-01
  9.61800000E-02  3.59000000E-02  1.32662000E+02  3.76054000E+01  1.03891000E+01
  6.49017000E+00  3.45451000E+00  1.84413000E+00  9.62478000E-01  4.72853000E-01
  1.93200000E-01  4.72853000E-01  1.93200000E-01  7.82000000E-02  4.06400000E-01
  1.84800000E-01  4.56100000E+05  6.83300000E+04  1.55500000E+04  4.40500000E+03
  1.43900000E+03  5.20400000E+02  2.03100000E+02  8.39600000E+01  3.62000000E+01
  1.58300000E+01  6.33400000E+00  4.40500000E+03  1.43900000E+03  5.20400000E+02
  2.03100000E+02  8.39600000E+01  3.62000000E+01  1.58300000E+01  6.33400000E+00
  2.69400000E+00  1.43900000E+03  2.03100000E+02  8.39600000E+01  3.62000000E+01
  1.58300000E+01  6.33400000E+00  2.69400000E+00  4.31300000E-01  9.76800000E-01
  1.62500000E-01  5.91000000E-02  6.63300000E+02  1.56800000E+02  4.99800000E+01
  1.84200000E+01  7.24000000E+00  2.92200000E+00  1.56800000E+02  4.99800000E+01
  1.84200000E+01  7.24000000E+00  2.92200000E+00  3.81800000E-01  1.02200000E+00
  1.30100000E-01  4.19000000E-02  1.04600000E+00  3.44000000E-01  1.35000000E-01
  7.06000000E-01  3.12000000E-01  3.38700000E+01  5.09500000E+00  1.15900000E+00
  3.25800000E-01  1.02700000E-01  2.52600000E-02  1.40700000E+00  3.88000000E-01
  1.02000000E-01  1.05700000E+00  2.47000000E-01
Contraction coefficients                   R   N=         143
  5.19808943E-04  4.02025621E-03  2.07128267E-02  8.10105536E-02  2.35962985E-01
  4.42653446E-01  3.57064423E-01 -4.42115008E-05 -1.22591041E-03 -1.05517725E-02
 -6.74452633E-02 -1.71198607E-01  1.07329856E+00  1.00000000E+00  1.00000000E+00
  1.00000000E+00  4.11634896E-02  2.57762836E-01  8.02419274E-01  1.00000000E+00
  1.00000000E+00  1.00000000E+00  1.00000000E+00  1.00000000E+00  1.00000000E+00
  1.00000000E+00  1.00000000E+00  1.58603022E-04  1.00211458E-03  2.83966410E-03
 -4.40310212E-02  2.38198152E-01 -7.63568980E-01  8.96516870E-01  4.68371203E-01
  2.16251781E-03 -2.17177846E-05 -2.59237305E-04 -1.50376554E-02  2.42214079E-02
  6.99888661E-02 -5.50491335E-01 -5.69654432E-01  3.76065139E-01  1.00000000E+00
  1.00000000E+00  1.00000000E+00  1.00000000E+00  5.85232173E-04  3.69335916E-02
 -2.35399435E-01  3.41625365E-01  5.34991615E-01  2.65244797E-01  2.54463150E-02
  3.82802808E-04 -6.76097015E-05  8.33123161E-03 -4.66496478E-02 -5.27406452E-02
 -2.91398344E-02  3.65650039E-01  5.48502805E-01  2.34644635E-01  1.00000000E+00
  1.00000000E+00  1.00000000E+00  5.72000072E-04  4.40200055E-03 -4.09220051E-02
  9.96610125E-02  3.22663040E-01  4.00343050E-01  2.68306034E-01  8.48470106E-02
  7.63200096E-03  1.00000000E+00  1.00000000E+00  1.00000000E+00  1.00000000E+00
  1.00000000E+00  4.93229477E-05  3.83207967E-04  2.00947816E-03  8.38950124E-03
  2.94843950E-02  8.78759948E-02  2.11589759E-01  3.65611554E-01  3.41246350E-01
  1.02162570E-01  2.14249949E-03 -2.21747925E-06 -1.71189708E-04 -1.27922846E-03
 -9.32956265E-03 -3.98910062E-02 -1.05536085E-01  9.36202446E-03  5.10511140E-01
  5.73150737E-01  4.03949245E-06  2.12481765E-04  8.59484452E-04  4.63248159E-03
  4.47343490E-04 -7.38438245E-02 -3.62271994E-01  1.16620337E+00  1.00000000E+00
  1.00000000E+00  1.00000000E+00  2.47206402E-03  1.97550234E-02  9.09917355E-02
  2.63187834E-01  4.49078073E-01  3.60183072E-01  3.03427809E-05 -1.22475826E-03
 -6.01429772E-03 -2.76401323E-02  4.35105612E-04  1.00307272E+00  1.00000000E+00
  1.00000000E+00  1.00000000E+00  1.00000000E+00  1.00000000E+00  1.00000000E+00
  1.00000000E+00  1.00000000E+00  2.54948632E-02  1.90362766E-01  8.52162022E-01
  1.00000000E+00  1.00000000E+00  1.00000000E+00  1.00000000E+00  1.00000000E+00
  1.00000000E+00  1.00000000E+00  1.00000000E+00
Coordinates of each shell                  R   N=         168
  0.00000000E+00  0.00000000E+00  0.00000000E+00  0.00000000E+00  0.00000000E+00
  0.00000000E+00  0.00000000E+00  0.00000000E+00  0.00000000E+00  0.00000000E+00
  0.00000000E+00  0.00000000E+00  0.00000000E+00  0.00000000E+00  0.00000000E+00
  0.00000000E+00  0.00000000E+00  0.00000000E+00  0.00000000E+00  0.00000000E+00
  0.00000000E+00  0.00000000E+00  0.00000000E+00  0.00000000E+00  0.00000000E+00
  0.00000000E+00  0.00000000E+00  0.00000000E+00  0.00000000E+00  0.00000000E+00
  0.00000000E+00  0.00000000E+00  0.00000000E+00  0.00000000E+00  0.00000000E+00
  0.00000000E+00  0.00000000E+00  0.00000000E+00  0.00000000E+00  0.00000000E+00
  0.00000000E+00  0.00000000E+00  6.25933684E+00  0.00000000E+00  0.00000000E+00
  6.25933684E+00  0.00000000E+00  0.00000000E+00  6.25933684E+00  0.00000000E+00
  0.00000000E+00  6.25933684E+00  0.00000000E+00  0.00000000E+00  6.25933684E+00
  0.00000000E+00  0.00000000E+00  6.25933684E+00  0.00000000E+00  0.00000000E+00
  6.25933684E+00  0.00000000E+00  0.00000000E+00  6.25933684E+00  0.00000000E+00
  0.00000000E+00  6.25933684E+00  0.00000000E+00  0.00000000E+00  6.25933684E+00
  0.00000000E+00  0.00000000E+00  6.25933684E+00  0.00000000E+00  0.00000000E+00
  6.25933684E+00  0.00000000E+00  0.00000000E+00  6.25933684E+00  0.00000000E+00
  0.00000000E+00  6.25933684E+00  0.00000000E+00  0.00000000E+00  6.25933684E+00
  0.00000000E+00  0.00000000E+00  6.25933684E+00  0.00000000E+00  0.00000000E+00
  6.25933684E+00  0.00000000E+00  0.00000000E+00 -7.30225624E-01  3.10228121E+00
  0.00000000E+00 -7.30225624E-01  3.10228121E+00  0.00000000E+00 -7.30225624E-01
  3.10228121E+00  0.00000000E+00 -7.30225624E-01  3.10228121E+00  0.00000000E+00
 -7.30225624E-01  3.10228121E+00  0.00000000E+00 -7.30225624E-01  3.10228121E+00
  0.00000000E+00 -7.30225624E-01  3.10228121E+00  0.00000000E+00 -7.30225624E-01
  3.10228121E+00  0.00000000E+00 -7.30225624E-01  3.10228121E+00  0.00000000E+00
 -7.30225624E-01  3.10228121E+00  0.00000000E+00 -7.30225624E-01  3.10228121E+00
  0.00000000E+00 -7.30225624E-01  3.10228121E+00  0.00000000E+00 -7.30225624E-01
  3.10228121E+00  0.00000000E+00 -7.30225624E-01  3.10228121E+00  0.00000000E+00
 -7.30225624E-01  3.10228121E+00  0.00000000E+00 -7.30225624E-01  3.10228121E+00
  0.00000000E+00  1.31100998E+00  0.00000000E+00  1.31183845E+00  1.31100998E+00
  0.00000000E+00  1.31183845E+00  1.31100998E+00  0.00000000E+00  1.31183845E+00
  1.31100998E+00  0.00000000E+00  1.31183845E+00  1.31100998E+00  0.00000000E+00
  1.31183845E+00  1.31100998E+00  0.00000000E+00  1.31183845E+00  1.31100998E+00
  0.00000000E+00  1.31183845E+00  1.31100998E+00  0.00000000E+00  1.31183845E+00
  1.31100998E+00  0.00000000E+00  1.31183845E+00
Num ILSW                                   I              100
ILSW                                       I   N=         100
           0           0           0           0           2           0
           0           0           0           0           0          -1
           5           0           0           0           0           0
           0           0           0           0           0           0
           1           1           0           0           0           0
           0           0      100000           0          -1           0
           0           0           0           0           0           0
           0           0           0           1           0           0
           0 -2000000000           1           0           0           0
           0           0           4          52           0           0
           0           0           0           0           0           0
           0           0           0           4           0           1
           0           0           0           0           0           0
           0           0           0           0           0           0
           0           0           0           0           0           0
           0           0           0           0           0           0
           0           0           0           0
Num RLSW                                   I               52
RLSW                                       R   N=          52
  1.00000000E+00  1.00000000E+00  1.00000000E+00  1.00000000E+00  1.00000000E+00
  0.00000000E+00  0.00000000E+00  1.00000000E+00  0.00000000E+00  0.00000000E+00
  0.00000000E+00  0.00000000E+00  1.00000000E+00  0.00000000E+00  0.00000000E+00
  0.00000000E+00  0.00000000E+00  1.00000000E+00  0.00000000E+00  0.00000000E+00
  0.00000000E+00  0.00000000E+00  1.00000000E+00  0.00000000E+00  0.00000000E+00
  0.00000000E+00  0.00000000E+00  1.00000000E+00  0.00000000E+00  0.00000000E+00
  0.00000000E+00  0.00000000E+00  1.00000000E+00  0.00000000E+00  0.00000000E+00
  0.00000000E+00  0.00000000E+00  0.00000000E+00  1.00000000E+00  1.00000000E+00
  0.00000000E+00  1.00000000E+00  0.00000000E+00  0.00000000E+00  0.00000000E+00
  0.00000000E+00  0.00000000E+00  0.00000000E+00  0.00000000E+00  0.00000000E+00
  0.00000000E+00  0.00000000E+00
ECP-MxAtEC                                 I           250000
ECP-MaxLECP                                I               10
ECP-MaxAtL                                 I          2250000
ECP-MxTECP                                 I         11250000
ECP-LenNCZ                                 I               16
ECP-KFirst                                 I   N=          40
           0           1           0           0           0           2
           0           0           0           5           0           0
           0           9           0           0           0          13
           0           0           0           0           0           0
           0           0           0           0           0           0
           0           0           0           0           0           0
           0           0           0           0
ECP-KLast                                  I   N=          40
           0           1           0           0           0           4
           0           0           0           8           0           0
           0          12           0           0           0          16
           0           0           0           0           0           0
           0           0           0           0           0           0
           0           0           0           0           0           0
           0           0           0           0
ECP-LMax                                   I   N=           4
           0           4           0           0
ECP-LPSkip                                 I   N=           4
           1           0           1           1
ECP-RNFroz                                 R   N=           4
  0.00000000E+00  2.80000000E+01  0.00000000E+00  0.00000000E+00
ECP-NLP                                    I   N=          16
           2           2           2           2           2           2
           2           2           2           2           2           2
           2           2           2           2
ECP-CLP1                                   R   N=          16
  0.00000000E+00  4.99896490E+01  2.81006556E+02  6.14167390E+01  6.74162390E+01
  1.34807696E+02  1.45665480E+01  2.89684220E+01  3.55387560E+01  5.33397590E+01
  9.71646600E+00  1.49775000E+01 -2.01766180E+01 -2.60880770E+01 -2.20434000E-01
 -2.21646000E-01
ECP-CLP2                                   R   N=          16
  0.00000000E+00  0.00000000E+00  0.00000000E+00  0.00000000E+00  0.00000000E+00
  0.00000000E+00  0.00000000E+00  0.00000000E+00  0.00000000E+00  0.00000000E+00
  0.00000000E+00  0.00000000E+00  0.00000000E+00  0.00000000E+00  0.00000000E+00
  0.00000000E+00
ECP-ZLP                                    R   N=          16
  1.00000000E+00  4.00333760E+01  1.73005760E+01  8.85172000E+00  1.57201410E+01
  1.52082220E+01  8.29418600E+00  7.75394900E+00  1.38177510E+01  1.35878050E+01
  6.94763000E+00  6.96009900E+00  1.85229500E+01  1.82510350E+01  7.55790100E+00
  7.59740400E+00
MxBond                                     I                2
NBond                                      I   N=           4
           2           0           1           1
IBond                                      I   N=           8
           3           4           0           0           1           0
           1           0
RBond                                      R   N=           8
  1.00000000E+00  1.00000000E+00  0.00000000E+00  0.00000000E+00  1.00000000E+00
  0.00000000E+00  1.00000000E+00  0.00000000E+00
Virial Ratio                               R      2.284992811323725E+00
SCF Energy                                 R     -8.296750902810906E+02
MP2 Energy                                 R     -8.303535356034647E+02
Total Energy                               R     -8.303535356034647E+02
Post-SCF wavefunction norm                 R      1.108086924311730E+00
RMS Density                                R      7.270925789967911E-09
Job Status                                 I                1
Nuclear derivative order                   I                0
External E-field                           R   N=          35
  0.00000000E+00  0.00000000E+00  0.00000000E+00  0.00000000E+00  0.00000000E+00
  0.00000000E+00  0.00000000E+00  0.00000000E+00  0.00000000E+00  0.00000000E+00
  0.00000000E+00  0.00000000E+00  0.00000000E+00  0.00000000E+00  0.00000000E+00
  0.00000000E+00  0.00000000E+00  0.00000000E+00  0.00000000E+00  0.00000000E+00
  0.00000000E+00  0.00000000E+00  0.00000000E+00  0.00000000E+00  0.00000000E+00
  0.00000000E+00  0.00000000E+00  0.00000000E+00  0.00000000E+00  0.00000000E+00
  0.00000000E+00  0.00000000E+00  0.00000000E+00  0.00000000E+00  0.00000000E+00
IOpCl                                      I                0
IROHF                                      I                0
Alpha Orbital Energies                     R   N=         174
 -1.04751385E+02 -2.04945287E+01 -1.04710400E+01 -7.93822816E+00 -7.93544152E+00
 -7.93528248E+00 -7.46539715E+00 -5.29112027E+00 -5.29066833E+00 -5.29048103E+00
 -2.01855744E+00 -2.01842068E+00 -2.01824677E+00 -2.01771310E+00 -2.01769490E+00
 -1.26450517E+00 -9.18098875E-01 -6.26933750E-01 -5.69769086E-01 -4.69042866E-01
 -4.59930503E-01 -3.29390697E-01 -3.03238579E-01 -1.45552998E-01 -1.40800907E-01
 -1.39611053E-01  1.45424441E-01  1.71252837E-01  2.14193434E-01  2.22676009E-01
  2.42576487E-01  2.52570985E-01  2.55020386E-01  2.67241705E-01  2.71966513E-01
  2.96142252E-01  3.11584647E-01  3.14350261E-01  3.40627187E-01  3.70836986E-01
  3.82007558E-01  3.87151947E-01  4.21360722E-01  4.35102963E-01  4.56559345E-01
  4.89176438E-01  4.96272589E-01  5.29185734E-01  5.37389454E-01  5.62559585E-01
  5.70000845E-01  5.79213383E-01  6.13839436E-01  6.33689846E-01  6.61485381E-01
  7.40406521E-01  7.51866652E-01  7.84174897E-01  7.86253581E-01  7.95005113E-01
  7.98757546E-01  8.02499611E-01  8.08036845E-01  8.17491039E-01  8.25322213E-01
  8.45793258E-01  8.79018426E-01  8.79551088E-01  8.84648179E-01  8.97138446E-01
  9.03700023E-01  9.19074350E-01  9.38207457E-01  9.49961299E-01  9.71216419E-01
  9.97427602E-01  1.00979478E+00  1.05079201E+00  1.05401662E+00  1.09151199E+00
  1.10221247E+00  1.12471253E+00  1.13836915E+00  1.19136708E+00  1.22050668E+00
  1.23412936E+00  1.26207603E+00  1.29467391E+00  1.33741586E+00  1.34214786E+00
  1.39275805E+00  1.42336984E+00  1.48955433E+00  1.51489413E+00  1.55521301E+00
  1.60740353E+00  1.62599889E+00  1.66502185E+00  1.68977573E+00  1.72119127E+00
  1.75647202E+00  1.75662112E+00  1.77755296E+00  1.78487857E+00  1.80679490E+00
  1.83753174E+00  1.84320105E+00  1.87160266E+00  1.89261220E+00  1.95501310E+00
  2.05331192E+00  2.06247641E+00  2.08271210E+00  2.11088255E+00  2.12018325E+00
  2.26681624E+00  2.33233911E+00  2.40296915E+00  2.48283690E+00  2.48712726E+00
  2.51705361E+00  2.57658992E+00  2.59648108E+00  2.62365416E+00  2.66469907E+00
  2.68704662E+00  2.69260987E+00  2.71608298E+00  2.75207454E+00  2.77794305E+00
  2.81266896E+00  2.91398659E+00  2.97358821E+00  3.08646288E+00  3.16552413E+00
  3.18664674E+00  3.19462890E+00  3.20638001E+00  3.22090907E+00  3.22956457E+00
  3.28093085E+00  3.32475234E+00  3.47244114E+00  3.52523762E+00  3.53518659E+00
  3.77185701E+00  3.89365058E+00  3.93610573E+00  4.33053483E+00  4.41751915E+00
  4.51221589E+00  4.55323221E+00  4.70645363E+00  4.88819986E+00  4.98404886E+00
  5.34728101E+00  5.43013648E+00  5.66982525E+00  6.35077492E+00  6.60529058E+00
  6.83043851E+00  6.88368171E+00  6.89507707E+00  6.95117887E+00  7.31492155E+00
  7.34415287E+00  7.35448128E+00  7.44255405E+00  7.45293467E+00  7.65831568E+00
  7.69559140E+00  8.37142297E+00  1.45636294E+01  5.92009860E+01
Alpha MO coefficients                      R   N=       30276
  6.48406673E-06  3.52361030E-05  8.55016014E-07 -1.30646683E-04 -7.15044889E-05
 -2.63556312E-07  3.23666332E-06  5.53204641E-07  7.87868217E-07 -9.71909396E-06
 -1.92768295E-06  4.75511623E-05 -1.46828825E-04  7.68318123E-06  1.52749866E-05
 -2.92825163E-05  6.11541777E-06 -1.86833311E-06  2.40759880E-07  1.74391494E-07
 -2.92738120E-06 -1.42831306E-06  1.31680274E-05  2.45322903E-07 -1.03188935E-06
  2.09564248E-05  9.63276468E-06  2.81625022E-05  9.51387053E-06 -9.53631312E-06
  5.38048609E-05  1.50147245E-05 -8.88983359E-08 -1.21421902E-07  8.37862824E-07
 -7.72847906E-07  8.07926386E-07 -1.01425230E-06  5.03223792E-07  7.88676705E-08
 -1.78827526E-06  9.69660557E-06  3.87483088E-06 -3.18103189E-06 -6.92495545E-06
  1.11101948E-05 -1.16049451E-07  1.30402636E-07 -7.10384618E-07  1.23471768E-05
 -1.64866327E-05 -6.24660228E-06 -2.75854746E-07 -3.81267819E-08  1.84116432E-07
 -4.32888104E-06 -1.76540845E-07  1.10615429E-06  2.19882777E-07  8.17288906E-08
 -3.66172606E-07  1.49570929E-05  4.59387976E-09 -3.08680960E-06  3.30267102E-06
 -3.20245791E-07  3.83363212E-07  9.94728978E-08  3.04150267E-08 -1.57916765E-08
 -3.32162379E-07 -1.56005656E-07 -7.46775872E-07 -2.67078333E-07  4.13740277E-08
  1.99267810E-06  5.97149011E-07  1.95148180E-06  1.06496471E-06  6.25347321E-08
 -4.76890171E-06 -7.88786044E-07  2.71154377E-06  1.23505121E-06 -7.66004240E-07
 -3.76161970E-06  8.50042223E-07  6.14122536E-08  1.46364801E-08  2.61805704E-07
 -1.32072575E-08 -5.34982622E-07 -5.22986646E-07 -5.58653845E-07  3.29891650E-07
 -1.62881055E-06 -4.31185589E-07 -5.95097416E-07  1.01592385E-06  3.28542777E-06
  9.01185225E-07  9.99534903E-01  1.95316805E-03  1.83916710E-04 -4.16907916E-04
  6.66949740E-05  6.79160163E-05  1.60073359E-05 -7.68954662E-05  2.46171082E-06
  3.36910006E-05 -1.33998137E-04  4.19807250E-06 -1.64504525E-05  7.24131466E-05
 -2.33585450E-06  7.98780172E-06 -5.11808296E-05 -2.79977637E-06  1.53768653E-06
 -1.12863523E-05 -1.39490706E-06 -3.79982846E-06  1.84625197E-07 -1.46100504E-07
 -5.65349270E-06 -3.33364120E-06 -2.76164152E-05  5.71652056E-07 -1.54150856E-06
 -4.29720423E-05 -2.27659628E-05 -3.31445312E-06 -3.28780122E-06  7.58653731E-07
 -5.97458693E-06 -7.05705846E-08 -6.31698552E-07 -1.15315830E-06  5.49993498E-06
  1.73775954E-07 -1.29199321E-06 -5.22890547E-06  4.92071531E-06  8.43375252E-07
 -1.48523536E-06  4.09292559E-06 -1.01959040E-06  2.40794308E-06 -2.82246790E-06
  5.46867847E-06 -4.59901375E-07 -2.21035848E-05  4.09388145E-06 -5.32038368E-06
  1.26000276E-06 -1.92146418E-06  7.27426094E-07 -7.49224119E-06  1.59772130E-05
  4.56929392E-07  7.34438379E-06  1.28640458E-05 -2.27244310E-06 -1.02249937E-06
 -2.50025766E-07 -8.00478686E-08 -1.70324606E-06 -7.50928043E-07 -3.31315171E-06
  2.55986821E-06 -9.69511685E-07  2.62278489E-06 -3.09127046E-06  9.76844057E-01
 -9.05903581E-03  4.33701761E-02  2.25243061E-03  1.14997480E-04  5.36252203E-04
  1.52525074E-03  1.08446223E-03 -6.23594512E-04 -1.18837075E-03 -9.94491701E-04
 -3.55587510E-04  8.37137513E-04 -2.79013282E-04 -1.60536649E-04  1.21756081E-04
 -1.32609632E-04  6.08786244E-05  3.28103240E-05  4.24094097E-06  9.75647774E-05
  4.42525066E-05  6.52209077E-05 -4.92960494E-04 -2.36538280E-05  1.52278505E-04
  1.78103534E-04 -1.83150976E-04 -7.41775706E-05  5.27038994E-05 -2.68391520E-04
 -1.85737827E-04  7.58702984E-08 -1.71876647E-05  6.26547664E-06  9.02196869E-07
 -1.51159096E-05 -1.15021720E-05  1.25802613E-05  1.48032439E-05 -1.06658861E-04
 -1.76517777E-05 -1.15795199E-04 -2.89666156E-05 -2.75557746E-05 -4.17761785E-05
  3.59325281E-06 -5.75093023E-06 -2.89740135E-07 -3.99160287E-04  7.11732867E-04
  1.86437903E-04 -6.94598536E-06  1.49066516E-06  3.11021755E-06  4.93398210E-05
  3.57376463E-06  1.71557564E-05  2.81908221E-05 -4.11754485E-06 -6.84823549E-06
 -5.54012151E-04  2.55709145E-05  3.03419523E-05 -6.45834640E-05 -1.58030045E-05
  6.03468421E-06 -4.85693624E-06  5.10397868E-07  1.60248122E-07  3.67996520E-06
 -1.68869170E-06  3.52299902E-05 -1.82493566E-06 -5.53908506E-07 -3.82446022E-05
  9.13233612E-06 -1.09649109E-04 -1.30699025E-05  5.96977257E-07  1.50922724E-04
 -2.77965119E-05 -9.35876525E-05 -1.03724733E-05  9.69580306E-06  1.42657887E-04
  1.31857270E-05  4.42625377E-06 -1.41779874E-05 -6.87906891E-06  1.04617117E-05
  3.92578251E-06 -8.79004823E-06  3.91740443E-06 -1.24146842E-05  1.04264507E-04
  1.08221670E-05 -2.01885089E-05 -8.55029819E-06 -5.58533157E-05 -7.12883049E-07
  3.40181835E-06  5.65523593E-05  4.91268990E-05 -2.50563867E-04 -1.56710185E-04
 -3.79468031E-04 -5.32968256E-06 -1.00369271E-06 -4.20282255E-06  2.01032507E-05
 -4.51021698E-04 -6.70882203E-05 -2.94025037E-05  2.26205509E-04  1.93652752E-05
  2.15010713E-04  4.73678439E-04  1.23914561E-04 -9.01241966E-06  9.04979866E-05
  3.09132297E-05  1.43895408E-05 -3.60905933E-08 -1.74593188E-07  1.31438738E-05
  1.12897686E-05 -2.76556161E-04 -9.23239449E-06  3.98631895E-05 -4.19104806E-04
 -1.83685339E-04  1.49613097E-04  8.14735280E-05 -6.09574129E-05  3.53085358E-04
 -2.80328701E-05  1.14799836E-05 -3.54904486E-05  1.59479098E-04  9.71073087E-07
  1.03215263E-05 -1.24294043E-04  1.84566124E-04 -1.00428095E-05 -1.82150705E-05
  8.46688205E-05  2.31300517E-05 -2.28877223E-05 -7.46085743E-05  4.27911518E-05
  4.48699126E-04  1.81563429E-03 -8.34029311E-04 -2.54819933E-05 -2.09456891E-04
  5.93327873E-05 -1.90466159E-04 -7.37621174E-04 -4.83173181E-05 -7.20456218E-04
 -4.71016361E-04 -2.85143485E-04  3.94474234E-04 -2.91585469E-05 -3.72263900E-05
 -5.45862277E-05  1.38825284E-05 -4.79041354E-05  1.08788427E-04  4.96542154E-04
  3.32702585E-05  1.82637798E-04  5.58235431E-05 -8.13496833E-05 -1.29308806E-04
 -1.01575482E-04  2.41698099E-03  1.60158341E-03 -1.82539588E-05  3.51815524E-05
 -1.13464253E-05 -1.13514359E-04  5.95271379E-04  4.16733008E-05 -6.36930549E-04
  2.43087971E-03 -3.67840898E-05 -3.53229787E-04  7.22264070E-04 -1.49718401E-04
 -3.16396884E-05 -5.11915981E-06 -9.49745961E-06 -4.61171654E-05 -3.07659221E-05
 -1.54929168E-04  2.54389923E-05  7.04998777E-05 -2.66725592E-04 -7.12299760E-05
 -3.07283331E-04 -1.27405847E-04  2.29859669E-04 -6.93975408E-04 -3.04520454E-05
 -2.58999494E-06  1.47757730E-05 -3.51975825E-05  1.60462804E-05 -1.20013417E-05
  3.79213426E-05 -3.42401788E-05  1.62550674E-05  6.26958924E-06  5.35745104E-05