title                                                                   
SP        RMP2-FC                                                     Gen                 
Number of atoms                            I                4
Info1-9                                    I   N=           9
         135         126           0           0           0         110
           1           2           1
Full Title                                 C   N=           1
title       
Route                                      C   N=           5
#p pop=NBO SP NoSymm mp2/gen Pseudo=read density=current    
Charge                                     I               -1
Multiplicity                               I                1
Number of electrons                        I               52
Number of alpha electrons                  I               26
Number of beta electrons                   I               26
Number of basis functions                  I              174
Number of independent functions            I              174
Number of point charges in /Mol/           I                0
Number of translation vectors              I                0
Atomic numbers                             I   N=           4
           8          53          17           1
Nuclear charges                            R   N=           4
  8.00000000E+00  2.50000000E+01  1.70000000E+01  1.00000000E+00
Current cartesian coordinates              R   N=          12
  0.00000000E+00  0.00000000E+00  0.00000000E+00  6.25933684E+00  0.00000000E+00
  0.00000000E+00 -7.30225624E-01  3.10228121E+00  0.00000000E+00  1.70536039E+00
  0.00000000E+00  7.95222608E-01
Number of symbols in /Mol/                 I                0
Force Field                                I                0
Atom Types                                 C   N=           4
                                                
Int Atom Types                             I   N=           4
           0           0           0           0
MM charges                                 R   N=           4
  0.00000000E+00  0.00000000E+00  0.00000000E+00  0.00000000E+00
Integer atomic weights                     I   N=           4
          16         127          35           1
Real atomic weights                        R   N=           4
  1.59949146E+01  1.26900400E+02  3.49688527E+01  1.00782504E+00
Atom fragment info                         I   N=           4
           0           0           0           0
Atom residue num                           I   N=           4
           0           0           0           0
Nuclear spins                              I   N=           4
           0           5           3           1
Nuclear ZEff                               R   N=           4
 -5.60000000E+00 -5.83000000E+03 -1.42400000E+01 -1.00000000E+00
Nuclear ZNuc                               R   N=           4
  8.00000000E+00  5.30000000E+01  1.70000000E+01  1.00000000E+00
Nuclear QMom                               R   N=           4
  0.00000000E+00 -7.10000000E+01 -8.16500000E+00  0.00000000E+00
Nuclear GFac                               R   N=           4
  0.00000000E+00  2.81328000E+00  8.21874000E-01  2.79284600E+00
MicOpt                                     I   N=           4
          -1          -1          -1          -1
Number of residues                         I                0
Number of secondary structures             I                0
Number of contracted shells                I               56
Number of primitive shells                 I              143
Pure/Cartesian d shells                    I                0
Pure/Cartesian f shells                    I                0
Highest angular momentum                   I                3
Largest degree of contraction              I               11
Shell types                                I   N=          56
           0           0           0           0           0           1
           1           1           1          -2          -2          -2
          -3          -3           0           0           0           0
           0           0           1           1           1           1
           1          -2          -2          -2          -2          -3
          -3           0           0           0           0           0
           0           1           1           1           1           1
          -2          -2          -2          -3          -3           0
           0           0           0           1           1           1
          -2          -2
Number of primitives per shell             I   N=          56
           7           6           1           1           1           3
           1           1           1           1           1           1
           1           1           9           8           1           1
           1           1           8           8           1           1
           1           9           1           1           1           1
           1          11           9           8           1           1
           1           6           6           1           1           1
           1           1           1           1           1           3
           1           1           1           1           1           1
           1           1
Shell to atom map                          I   N=          56
           1           1           1           1           1           1
           1           1           1           1           1           1
           1           1           2           2           2           2
           2           2           2           2           2           2
           2           2           2           2           2           2
           2           3           3           3           3           3
           3           3           3           3           3           3
           3           3           3           3           3           4
           4           4           4           4           4           4
           4           4
Primitive exponents                        R   N=         143
  1.53300000E+04  2.29900000E+03  5.22400000E+02  1.47300000E+02  4.75500000E+01
  1.67600000E+01  6.20700000E+00  5.22400000E+02  1.47300000E+02  4.75500000E+01
  1.67600000E+01  6.20700000E+00  6.88200000E-01  1.75200000E+00  2.38400000E-01
  7.37600000E-02  3.44600000E+01  7.74900000E+00  2.28000000E+00  7.15600000E-01
  2.14000000E-01  5.97400000E-02  2.31400000E+00  6.45000000E-01  2.14000000E-01
  1.42800000E+00  5.00000000E-01  5.54650000E+03  8.38214000E+02  1.82187000E+02
  3.12123000E+01  1.95314000E+01  8.24099000E+00  2.19455000E+00  1.10911000E+00
  8.10610000E-02  5.54650000E+03  8.38214000E+02  3.12123000E+01  1.95314000E+01
  8.24099000E+00  2.19455000E+00  1.10911000E+00  8.10610000E-02  3.74641000E-01
  1.77080000E-01  1.00100000E-01  4.12000000E-02  1.88988000E+02  2.12868000E+01
  1.00396000E+01  3.45180000E+00  1.97456000E+00  1.02420000E+00  4.49437000E-01
  7.34810000E-02  1.88988000E+02  1.00396000E+01  3.45180000E+00  1.97456000E+00
  1.02420000E+00  4.49437000E-01  1.86648000E-01  7.34810000E-02  5.98100000E-01
  9.61800000E-02  3.59000000E-02  1.32662000E+02  3.76054000E+01  1.03891000E+01
  6.49017000E+00  3.45451000E+00  1.84413000E+00  9.62478000E-01  4.72853000E-01
  1.93200000E-01  4.72853000E-01  1.93200000E-01  7.82000000E-02  4.06400000E-01
  1.84800000E-01  4.56100000E+05  6.83300000E+04  1.55500000E+04  4.40500000E+03
  1.43900000E+03  5.20400000E+02  2.03100000E+02  8.39600000E+01  3.62000000E+01
  1.58300000E+01  6.33400000E+00  4.40500000E+03  1.43900000E+03  5.20400000E+02
  2.03100000E+02  8.39600000E+01  3.62000000E+01  1.58300000E+01  6.33400000E+00
  2.69400000E+00  1.43900000E+03  2.03100000E+02  8.39600000E+01  3.62000000E+01
  1.58300000E+01  6.33400000E+00  2.69400000E+00  4.31300000E-01  9.76800000E-01
  1.62500000E-01  5.91000000E-02  6.63300000E+02  1.56800000E+02  4.99800000E+01
  1.84200000E+01  7.24000000E+00  2.92200000E+00  1.56800000E+02  4.99800000E+01
  1.84200000E+01  7.24000000E+00  2.92200000E+00  3.81800000E-01  1.02200000E+00
  1.30100000E-01  4.19000000E-02  1.04600000E+00  3.44000000E-01  1.35000000E-01
  7.06000000E-01  3.12000000E-01  3.38700000E+01  5.09500000E+00  1.15900000E+00
  3.25800000E-01  1.02700000E-01  2.52600000E-02  1.40700000E+00  3.88000000E-01
  1.02000000E-01  1.05700000E+00  2.47000000E-01
Contraction coefficients                   R   N=         143
  5.19808943E-04  4.02025621E-03  2.07128267E-02  8.10105536E-02  2.35962985E-01
  4.42653446E-01  3.57064423E-01 -4.42115008E-05 -1.22591041E-03 -1.05517725E-02
 -6.74452633E-02 -1.71198607E-01  1.07329856E+00  1.00000000E+00  1.00000000E+00
  1.00000000E+00  4.11634896E-02  2.57762836E-01  8.02419274E-01  1.00000000E+00
  1.00000000E+00  1.00000000E+00  1.00000000E+00  1.00000000E+00  1.00000000E+00
  1.00000000E+00  1.00000000E+00  1.58603022E-04  1.00211458E-03  2.83966410E-03
 -4.40310212E-02  2.38198152E-01 -7.63568980E-01  8.96516870E-01  4.68371203E-01
  2.16251781E-03 -2.17177846E-05 -2.59237305E-04 -1.50376554E-02  2.42214079E-02
  6.99888661E-02 -5.50491335E-01 -5.69654432E-01  3.76065139E-01  1.00000000E+00
  1.00000000E+00  1.00000000E+00  1.00000000E+00  5.85232173E-04  3.69335916E-02
 -2.35399435E-01  3.41625365E-01  5.34991615E-01  2.65244797E-01  2.54463150E-02
  3.82802808E-04 -6.76097015E-05  8.33123161E-03 -4.66496478E-02 -5.27406452E-02
 -2.91398344E-02  3.65650039E-01  5.48502805E-01  2.34644635E-01  1.00000000E+00
  1.00000000E+00  1.00000000E+00  5.72000072E-04  4.40200055E-03 -4.09220051E-02
  9.96610125E-02  3.22663040E-01  4.00343050E-01  2.68306034E-01  8.48470106E-02
  7.63200096E-03  1.00000000E+00  1.00000000E+00  1.00000000E+00  1.00000000E+00
  1.00000000E+00  4.93229477E-05  3.83207967E-04  2.00947816E-03  8.38950124E-03
  2.94843950E-02  8.78759948E-02  2.11589759E-01  3.65611554E-01  3.41246350E-01
  1.02162570E-01  2.14249949E-03 -2.21747925E-06 -1.71189708E-04 -1.27922846E-03
 -9.32956265E-03 -3.98910062E-02 -1.05536085E-01  9.36202446E-03  5.10511140E-01
  5.73150737E-01  4.03949245E-06  2.12481765E-04  8.59484452E-04  4.63248159E-03
  4.47343490E-04 -7.38438245E-02 -3.62271994E-01  1.16620337E+00  1.00000000E+00
  1.00000000E+00  1.00000000E+00  2.47206402E-03  1.97550234E-02  9.09917355E-02
  2.63187834E-01  4.49078073E-01  3.60183072E-01  3.03427809E-05 -1.22475826E-03
 -6.01429772E-03 -2.76401323E-02  4.35105612E-04  1.00307272E+00  1.00000000E+00
  1.00000000E+00  1.00000000E+00  1.00000000E+00  1.00000000E+00  1.00000000E+00
  1.00000000E+00  1.00000000E+00  2.54948632E-02  1.90362766E-01  8.52162022E-01
  1.00000000E+00  1.00000000E+00  1.00000000E+00  1.00000000E+00  1.00000000E+00
  1.00000000E+00  1.00000000E+00  1.00000000E+00
Coordinates of each shell                  R   N=         168
  0.00000000E+00  0.00000000E+00  0.00000000E+00  0.00000000E+00  0.00000000E+00
  0.00000000E+00  0.00000000E+00  0.00000000E+00  0.00000000E+00  0.00000000E+00
  0.00000000E+00  0.00000000E+00  0.00000000E+00  0.00000000E+00  0.00000000E+00
  0.00000000E+00  0.00000000E+00  0.00000000E+00  0.00000000E+00  0.00000000E+00
  0.00000000E+00  0.00000000E+00  0.00000000E+00  0.00000000E+00  0.00000000E+00
  0.00000000E+00  0.00000000E+00  0.00000000E+00  0.00000000E+00  0.00000000E+00
  0.00000000E+00  0.00000000E+00  0.00000000E+00  0.00000000E+00  0.00000000E+00
  0.00000000E+00  0.00000000E+00  0.00000000E+00  0.00000000E+00  0.00000000E+00
  0.00000000E+00  0.00000000E+00  6.25933684E+00  0.00000000E+00  0.00000000E+00
  6.25933684E+00  0.00000000E+00  0.00000000E+00  6.25933684E+00  0.00000000E+00
  0.00000000E+00  6.25933684E+00  0.00000000E+00  0.00000000E+00  6.25933684E+00
  0.00000000E+00  0.00000000E+00  6.25933684E+00  0.00000000E+00  0.00000000E+00
  6.25933684E+00  0.00000000E+00  0.00000000E+00  6.25933684E+00  0.00000000E+00
  0.00000000E+00  6.25933684E+00  0.00000000E+00  0.00000000E+00  6.25933684E+00
  0.00000000E+00  0.00000000E+00  6.25933684E+00  0.00000000E+00  0.00000000E+00
  6.25933684E+00  0.00000000E+00  0.00000000E+00  6.25933684E+00  0.00000000E+00
  0.00000000E+00  6.25933684E+00  0.00000000E+00  0.00000000E+00  6.25933684E+00
  0.00000000E+00  0.00000000E+00  6.25933684E+00  0.00000000E+00  0.00000000E+00
  6.25933684E+00  0.00000000E+00  0.00000000E+00 -7.30225624E-01  3.10228121E+00
  0.00000000E+00 -7.30225624E-01  3.10228121E+00  0.00000000E+00 -7.30225624E-01
  3.10228121E+00  0.00000000E+00 -7.30225624E-01  3.10228121E+00  0.00000000E+00
 -7.30225624E-01  3.10228121E+00  0.00000000E+00 -7.30225624E-01  3.10228121E+00
  0.00000000E+00 -7.30225624E-01  3.10228121E+00  0.00000000E+00 -7.30225624E-01
  3.10228121E+00  0.00000000E+00 -7.30225624E-01  3.10228121E+00  0.00000000E+00
 -7.30225624E-01  3.10228121E+00  0.00000000E+00 -7.30225624E-01  3.10228121E+00
  0.00000000E+00 -7.30225624E-01  3.10228121E+00  0.00000000E+00 -7.30225624E-01
  3.10228121E+00  0.00000000E+00 -7.30225624E-01  3.10228121E+00  0.00000000E+00
 -7.30225624E-01  3.10228121E+00  0.00000000E+00 -7.30225624E-01  3.10228121E+00
  0.00000000E+00  1.70536039E+00  0.00000000E+00  7.95222608E-01  1.70536039E+00
  0.00000000E+00  7.95222608E-01  1.70536039E+00  0.00000000E+00  7.95222608E-01
  1.70536039E+00  0.00000000E+00  7.95222608E-01  1.70536039E+00  0.00000000E+00
  7.95222608E-01  1.70536039E+00  0.00000000E+00  7.95222608E-01  1.70536039E+00
  0.00000000E+00  7.95222608E-01  1.70536039E+00  0.00000000E+00  7.95222608E-01
  1.70536039E+00  0.00000000E+00  7.95222608E-01
Num ILSW                                   I              100
ILSW                                       I   N=         100
           0           0           0           0           2           0
           0           0           0           0           0          -1
           5           0           0           0           0           0
           0           0           0           0           0           0
           1           1           0           0           0           0
           0           0      100000           0          -1           0
           0           0           0           0           0           0
           0           0           0           1           0           0
           0 -2000000000           1           0           0           0
           0           0           4          52           0           0
           0           0           0           0           0           0
           0           0           0           4           0           1
           0           0           0           0           0           0
           0           0           0           0           0           0
           0           0           0           0           0           0
           0           0           0           0           0           0
           0           0           0           0
Num RLSW                                   I               52
RLSW                                       R   N=          52
  1.00000000E+00  1.00000000E+00  1.00000000E+00  1.00000000E+00  1.00000000E+00
  0.00000000E+00  0.00000000E+00  1.00000000E+00  0.00000000E+00  0.00000000E+00
  0.00000000E+00  0.00000000E+00  1.00000000E+00  0.00000000E+00  0.00000000E+00
  0.00000000E+00  0.00000000E+00  1.00000000E+00  0.00000000E+00  0.00000000E+00
  0.00000000E+00  0.00000000E+00  1.00000000E+00  0.00000000E+00  0.00000000E+00
  0.00000000E+00  0.00000000E+00  1.00000000E+00  0.00000000E+00  0.00000000E+00
  0.00000000E+00  0.00000000E+00  1.00000000E+00  0.00000000E+00  0.00000000E+00
  0.00000000E+00  0.00000000E+00  0.00000000E+00  1.00000000E+00  1.00000000E+00
  0.00000000E+00  1.00000000E+00  0.00000000E+00  0.00000000E+00  0.00000000E+00
  0.00000000E+00  0.00000000E+00  0.00000000E+00  0.00000000E+00  0.00000000E+00
  0.00000000E+00  0.00000000E+00
ECP-MxAtEC                                 I           250000
ECP-MaxLECP                                I               10
ECP-MaxAtL                                 I          2250000
ECP-MxTECP                                 I         11250000
ECP-LenNCZ                                 I               16
ECP-KFirst                                 I   N=          40
           0           1           0           0           0           2
           0           0           0           5           0           0
           0           9           0           0           0          13
           0           0           0           0           0           0
           0           0           0           0           0           0
           0           0           0           0           0           0
           0           0           0           0
ECP-KLast                                  I   N=          40
           0           1           0           0           0           4
           0           0           0           8           0           0
           0          12           0           0           0          16
           0           0           0           0           0           0
           0           0           0           0           0           0
           0           0           0           0           0           0
           0           0           0           0
ECP-LMax                                   I   N=           4
           0           4           0           0
ECP-LPSkip                                 I   N=           4
           1           0           1           1
ECP-RNFroz                                 R   N=           4
  0.00000000E+00  2.80000000E+01  0.00000000E+00  0.00000000E+00
ECP-NLP                                    I   N=          16
           2           2           2           2           2           2
           2           2           2           2           2           2
           2           2           2           2
ECP-CLP1                                   R   N=          16
  0.00000000E+00  4.99896490E+01  2.81006556E+02  6.14167390E+01  6.74162390E+01
  1.34807696E+02  1.45665480E+01  2.89684220E+01  3.55387560E+01  5.33397590E+01
  9.71646600E+00  1.49775000E+01 -2.01766180E+01 -2.60880770E+01 -2.20434000E-01
 -2.21646000E-01
ECP-CLP2                                   R   N=          16
  0.00000000E+00  0.00000000E+00  0.00000000E+00  0.00000000E+00  0.00000000E+00
  0.00000000E+00  0.00000000E+00  0.00000000E+00  0.00000000E+00  0.00000000E+00
  0.00000000E+00  0.00000000E+00  0.00000000E+00  0.00000000E+00  0.00000000E+00
  0.00000000E+00
ECP-ZLP                                    R   N=          16
  1.00000000E+00  4.00333760E+01  1.73005760E+01  8.85172000E+00  1.57201410E+01
  1.52082220E+01  8.29418600E+00  7.75394900E+00  1.38177510E+01  1.35878050E+01
  6.94763000E+00  6.96009900E+00  1.85229500E+01  1.82510350E+01  7.55790100E+00
  7.59740400E+00
MxBond                                     I                2
NBond                                      I   N=           4
           2           0           1           1
IBond                                      I   N=           8
           3           4           0           0           1           0
           1           0
RBond                                      R   N=           8
  1.00000000E+00  1.00000000E+00  0.00000000E+00  0.00000000E+00  1.00000000E+00
  0.00000000E+00  1.00000000E+00  0.00000000E+00
Virial Ratio                               R      2.285031062991384E+00
SCF Energy                                 R     -8.296821245528890E+02
MP2 Energy                                 R     -8.303629184748446E+02
Total Energy                               R     -8.303629184748446E+02
Post-SCF wavefunction norm                 R      1.108356901263425E+00
RMS Density                                R      8.446814170795285E-09
Job Status                                 I                1
Nuclear derivative order                   I                0
External E-field                           R   N=          35
  0.00000000E+00  0.00000000E+00  0.00000000E+00  0.00000000E+00  0.00000000E+00
  0.00000000E+00  0.00000000E+00  0.00000000E+00  0.00000000E+00  0.00000000E+00
  0.00000000E+00  0.00000000E+00  0.00000000E+00  0.00000000E+00  0.00000000E+00
  0.00000000E+00  0.00000000E+00  0.00000000E+00  0.00000000E+00  0.00000000E+00
  0.00000000E+00  0.00000000E+00  0.00000000E+00  0.00000000E+00  0.00000000E+00
  0.00000000E+00  0.00000000E+00  0.00000000E+00  0.00000000E+00  0.00000000E+00
  0.00000000E+00  0.00000000E+00  0.00000000E+00  0.00000000E+00  0.00000000E+00
IOpCl                                      I                0
IROHF                                      I                0
Alpha Orbital Energies                     R   N=         174
 -1.04745470E+02 -2.04832403E+01 -1.04649930E+01 -7.93217014E+00 -7.92943486E+00
 -7.92930765E+00 -7.47357268E+00 -5.29937561E+00 -5.29876981E+00 -5.29869728E+00
 -2.02688231E+00 -2.02659153E+00 -2.02653923E+00 -2.02585262E+00 -2.02584986E+00
 -1.25089502E+00 -9.11268854E-01 -6.37799544E-01 -5.57587933E-01 -4.59928799E-01
 -4.51203875E-01 -3.22310393E-01 -2.96343598E-01 -1.56708845E-01 -1.48670115E-01
 -1.48198162E-01  1.50297430E-01  1.74712941E-01  2.15530063E-01  2.23909243E-01
  2.40664204E-01  2.51048857E-01  2.53320555E-01  2.72898721E-01  2.84397384E-01
  2.96732087E-01  3.09948101E-01  3.22031075E-01  3.44916963E-01  3.70931397E-01
  3.79879590E-01  3.83580454E-01  4.20981130E-01  4.33740923E-01  4.54410835E-01
  4.97734702E-01  5.15213774E-01  5.33598981E-01  5.43500535E-01  5.65215225E-01
  5.74082780E-01  5.85394254E-01  6.38187009E-01  6.51839602E-01  6.92480804E-01
  7.47896923E-01  7.58144623E-01  7.75170722E-01  7.78791365E-01  7.93301452E-01
  7.94759201E-01  8.01837028E-01  8.06165827E-01  8.26939807E-01  8.42477011E-01
  8.48861433E-01  8.74816500E-01  8.75839431E-01  8.81792737E-01  8.88105811E-01
  9.03480771E-01  9.28840014E-01  9.42015841E-01  9.62933455E-01  9.83573307E-01
  9.97616411E-01  1.02842435E+00  1.05125356E+00  1.07021509E+00  1.09784154E+00
  1.11625643E+00  1.15596977E+00  1.17349255E+00  1.19798881E+00  1.21476614E+00
  1.23199435E+00  1.26765527E+00  1.30635697E+00  1.35494904E+00  1.38288733E+00
  1.39615688E+00  1.42757259E+00  1.51684776E+00  1.54282414E+00  1.60536762E+00
  1.62032817E+00  1.65976589E+00  1.67577873E+00  1.71221345E+00  1.74085122E+00
  1.74937275E+00  1.74971238E+00  1.76802415E+00  1.77549849E+00  1.80060613E+00
  1.83906244E+00  1.86057134E+00  1.86496576E+00  1.91565133E+00  1.96438904E+00
  2.05334079E+00  2.05620878E+00  2.08862514E+00  2.12337929E+00  2.13610878E+00
  2.25108510E+00  2.38829742E+00  2.40545865E+00  2.49381300E+00  2.50884520E+00
  2.54510798E+00  2.58800570E+00  2.60915443E+00  2.63362426E+00  2.66789232E+00
  2.69121564E+00  2.70888329E+00  2.71953442E+00  2.75674239E+00  2.76167867E+00
  2.79522081E+00  2.96436015E+00  3.00476036E+00  3.08368722E+00  3.16073153E+00
  3.18589499E+00  3.20765734E+00  3.21964367E+00  3.23234360E+00  3.26498704E+00
  3.28854402E+00  3.34984348E+00  3.50092570E+00  3.52696172E+00  3.53470701E+00
  3.82335593E+00  3.90540808E+00  4.19410118E+00  4.32046765E+00  4.48670479E+00
  4.55248817E+00  4.62853702E+00  4.72231399E+00  4.94415579E+00  4.99411873E+00
  5.34110194E+00  5.39859254E+00  5.66719522E+00  6.37842545E+00  6.57482943E+00
  6.84834906E+00  6.88617874E+00  6.90075734E+00  6.97156102E+00  7.29702608E+00
  7.33761317E+00  7.34232701E+00  7.42004697E+00  7.52462955E+00  7.68548628E+00
  7.74263519E+00  8.34647600E+00  1.43934211E+01  5.92053046E+01
Alpha MO coefficients                      R   N=       30276
  5.76690062E-06  3.17494074E-05  1.63545299E-06 -1.42387978E-04 -8.63789409E-05
  8.28479877E-08  3.12619955E-06  6.74469865E-07 -2.04160793E-06 -9.27398560E-06
 -3.20811036E-06  4.86953438E-05 -1.54444899E-04  2.84887421E-06  1.40784206E-05
 -3.48929543E-05  4.21744413E-06 -2.04887257E-06  2.64093305E-07  8.59300773E-08
 -3.06490479E-06 -1.36380804E-06  1.35559662E-05 -9.19764917E-07 -6.50565413E-07
  2.10083242E-05  9.12675681E-06  2.64113766E-05  6.22510389E-06 -5.80753076E-06
  5.74451926E-05  1.18474048E-05 -2.20485251E-07 -1.32967103E-07  1.91017847E-07
 -5.50913423E-07  6.35981252E-07 -1.40768332E-06  8.51247452E-07  2.51321339E-07
 -2.59968004E-06  1.22011261E-05  2.65779586E-06 -2.70485775E-06 -5.56362440E-06
  9.57188904E-06 -5.19492943E-08  6.27097532E-08 -7.13529522E-07  1.66791266E-05
 -2.95951812E-05 -3.72603536E-06  2.00315038E-07  1.16604638E-07 -1.15731460E-07
 -1.15719406E-06  1.03058192E-06 -2.65424976E-07 -1.02261795E-06 -2.61547851E-07
  4.01649077E-07  2.02588764E-05 -2.92061555E-06 -3.92326967E-06  2.50641293E-06
 -1.22804310E-07  6.40192121E-07  8.67279108E-08  8.36828488E-08 -3.60822597E-08
 -2.49029461E-07  3.86997105E-08 -6.94704246E-07 -6.35738916E-07  1.26193394E-07
  1.64152823E-06 -2.98812850E-07  2.87329971E-06  2.92255575E-06 -4.23246301E-08
 -6.06819004E-06  8.54032603E-07  3.43056902E-06  1.30570255E-06 -9.86625215E-07
 -5.11675372E-06  1.72118734E-06  6.47733248E-08 -8.76914040E-09  8.46922756E-08
 -1.68117266E-07 -7.22418924E-07 -3.05085954E-07  1.95694996E-08  1.02351534E-06
 -1.77363512E-06  3.92332467E-08 -1.16902574E-06  1.41070190E-06  3.13248248E-06
 -7.22425719E-07  9.99534913E-01  1.95297442E-03  1.83533879E-04 -4.17055803E-04
  7.16111634E-05  7.59130149E-05  1.71963717E-05 -7.63219604E-05  1.70324576E-06
  3.56924832E-05 -1.34501086E-04  2.89075796E-06 -1.75391053E-05  7.22321102E-05
 -1.59868157E-06  6.44106854E-06 -5.70339470E-05 -2.87790586E-06  2.10504420E-06
 -1.19900408E-05 -1.14295078E-06 -3.77599146E-06  1.52301801E-07 -1.65939128E-07
 -5.27387701E-06 -3.35340746E-06 -2.82794914E-05  4.04522212E-07 -8.44989869E-07
 -4.37090982E-05 -2.34579005E-05 -2.44448972E-06 -3.16529016E-06  7.97979562E-07
 -8.89860529E-06 -2.42797604E-07 -6.11508717E-07 -1.63252833E-06  5.95549205E-06
  4.01315968E-07 -9.76542113E-07 -4.81274059E-06  4.38794831E-06  1.15938127E-06
 -4.29762613E-07  3.48279462E-06 -1.19777247E-06  1.96772983E-06 -3.89092903E-06
  6.78098880E-06 -9.80546007E-07 -1.91289694E-05  2.71682041E-05 -8.43711099E-06
  1.14173790E-06 -2.47927891E-06  3.04435519E-07 -9.96699767E-06  1.71158460E-05
 -1.62268279E-06  1.18926365E-05  1.95746645E-05 -2.69273798E-06 -5.43225546E-07
  1.54445973E-07 -7.74450818E-08 -1.17393674E-06 -9.66325375E-07 -9.22732067E-06
  3.23543995E-06 -1.58744139E-06  5.89103364E-06 -4.06720633E-06  9.76832554E-01
 -9.10987907E-03  4.33729165E-02  1.99734440E-03  7.46091465E-04  8.17429561E-04
  1.56238407E-03  6.55671215E-04 -9.14991981E-04 -1.20367657E-03 -6.42283320E-04
 -2.41576113E-04  6.58391599E-04 -3.39271237E-04 -1.11099136E-04  2.15693379E-04
 -5.49788676E-05  4.89684037E-05  2.31100339E-05 -9.57529565E-07  1.02046672E-04
  4.10993865E-05  3.13998600E-04 -3.78935746E-04 -1.68957098E-05  3.69988133E-05
  1.57419600E-04 -2.16873948E-04 -8.09627882E-05 -1.61655283E-05 -2.07785899E-04
 -1.68078015E-04  1.12397776E-05 -5.60281946E-07  1.67113399E-05 -3.84002858E-06
 -1.02084343E-05 -8.76289070E-06  8.32321844E-06  4.43459434E-05 -2.70930386E-05
 -4.23555327E-06 -1.02143177E-04 -2.80288228E-05 -8.09494586E-05 -5.30081250E-05
  3.15274377E-07  4.69225822E-06  1.18245528E-04 -1.59769715E-04 -1.67005041E-04
 -1.23828923E-04  3.78128745E-05  9.63636028E-07 -8.66713454E-06  2.60761851E-04
 -3.93487513E-07 -1.98993641E-05 -1.02348419E-04 -2.79405422E-06  3.00260443E-05
  9.50757411E-05  3.44262224E-05 -2.23230572E-04  2.21447877E-05 -1.67759095E-05
 -1.69780788E-05 -4.99809504E-06  5.24033478E-06  2.40582832E-07  3.10870152E-06
 -2.24591361E-06  2.55938499E-05 -4.17927286E-05 -8.22845342E-07 -1.26701502E-05
  1.14248085E-05  2.72613659E-06  1.81189763E-04  3.57812700E-07 -9.28876799E-05
 -3.09801686E-05 -6.85360188E-06  1.25586790E-04  1.00585487E-05 -3.18021330E-05
  8.74251365E-06 -5.99088658E-07 -2.20826730E-05 -4.60244440E-06  9.27727356E-06
  5.46206103E-06  8.13728374E-06  1.42386470E-06  8.21354878E-05  6.56291206E-05
  6.58635282E-06 -1.30777377E-04 -1.12980151E-05  2.78590051E-05  4.74618775E-06
  4.22232497E-06  7.04430046E-05  7.95723202E-05 -2.72696154E-04 -6.52401565E-05
 -5.91815219E-04 -3.61450565E-06 -6.18760033E-06 -1.97873583E-06  4.01734571E-05
 -5.33865956E-04 -3.40805647E-05 -3.60067682E-05  2.46416396E-04  9.19169298E-06
  1.77937387E-04  4.36579374E-04  1.02284405E-04 -1.54465374E-05  1.28164744E-04
  7.01041297E-06  1.41462413E-05 -4.62556850E-06  2.57753499E-07  9.40737535E-06
  1.06898816E-05 -2.94589499E-04  1.11408015E-05  2.11636818E-05 -4.38646994E-04
 -1.84145566E-04  1.22396797E-04  3.58541283E-05 -6.57173702E-05  3.18220654E-04
 -3.63481540E-05  1.11410330E-05 -2.88064484E-05  1.60199647E-04  3.88925271E-06
  8.45886429E-06 -1.22275659E-04  1.87235535E-04 -1.87065218E-05 -3.68166993E-05
  9.46603155E-05  1.15318179E-05 -2.16921290E-05 -7.01125940E-05  4.59538988E-05
  3.88107800E-04  1.53365657E-03 -8.47029548E-05  7.83267182E-05 -2.33555605E-04
  5.06002410E-05 -1.12458747E-04 -1.12829464E-03  1.94351802E-05 -3.41245408E-04
  4.36178434E-04 -2.23647724E-04  3.86320089E-04 -8.95700368E-06 -1.89306353E-05
 -3.24542129E-05 -4.24040299E-06 -6.59818504E-05 -2.80701852E-04  3.29280032E-04
  6.08052399E-06  6.74234541E-04  2.32739953E-05 -7.40702810E-05 -8.69825392E-05
 -1.05786598E-04  2.71129761E-03  2.09896822E-03 -2.24501942E-05  3.61201484E-05
 -1.08641164E-05 -6.20867202E-05  5.86780991E-04  5.97083884E-05 -5.48979543E-04
  2.57793051E-03  4.29266653E-05 -2.80794608E-04  8.86144199E-04 -9.66194746E-05
 -2.63509829E-05 -6.08040643E-06 -6.11074437E-06 -4.41952521E-05 -3.41229133E-05
 -1.86362262E-04  4.33091848E-05  4.85166544E-05 -2.59699014E-04 -3.99187816E-05
 -2.94431647E-04 -6.92107881E-05  1.42708598E-04 -7.34105067E-04  9.90238551E-05
 -2.67880969E-06  6.90438101E-06 -2.57888531E-05  1.35538758E-05 -7.97693465E-06
  4.71708441E-05 -3.93994892E-05 -6.43285456E-06  7.29338901E-06 -2.42287494E-05