title                                                                   
SP        RMP2-FC                                                     Gen                 
Number of atoms                            I                4
Info1-9                                    I   N=           9
         135         126           0           0           0         110
           1           2           1
Full Title                                 C   N=           1
title       
Route                                      C   N=           5
#p pop=NBO SP NoSymm mp2/gen Pseudo=read density=current    
Charge                                     I               -1
Multiplicity                               I                1
Number of electrons                        I               52
Number of alpha electrons                  I               26
Number of beta electrons                   I               26
Number of basis functions                  I              174
Number of independent functions            I              174
Number of point charges in /Mol/           I                0
Number of translation vectors              I                0
Atomic numbers                             I   N=           4
           8          53          17           1
Nuclear charges                            R   N=           4
  8.00000000E+00  2.50000000E+01  1.70000000E+01  1.00000000E+00
Current cartesian coordinates              R   N=          12
  0.00000000E+00  0.00000000E+00  0.00000000E+00  6.25933684E+00  0.00000000E+00
  0.00000000E+00 -7.30225624E-01  3.10228121E+00  0.00000000E+00  1.62304929E+00
  0.00000000E+00  9.37067942E-01
Number of symbols in /Mol/                 I                0
Force Field                                I                0
Atom Types                                 C   N=           4
                                                
Int Atom Types                             I   N=           4
           0           0           0           0
MM charges                                 R   N=           4
  0.00000000E+00  0.00000000E+00  0.00000000E+00  0.00000000E+00
Integer atomic weights                     I   N=           4
          16         127          35           1
Real atomic weights                        R   N=           4
  1.59949146E+01  1.26900400E+02  3.49688527E+01  1.00782504E+00
Atom fragment info                         I   N=           4
           0           0           0           0
Atom residue num                           I   N=           4
           0           0           0           0
Nuclear spins                              I   N=           4
           0           5           3           1
Nuclear ZEff                               R   N=           4
 -5.60000000E+00 -5.83000000E+03 -1.42400000E+01 -1.00000000E+00
Nuclear ZNuc                               R   N=           4
  8.00000000E+00  5.30000000E+01  1.70000000E+01  1.00000000E+00
Nuclear QMom                               R   N=           4
  0.00000000E+00 -7.10000000E+01 -8.16500000E+00  0.00000000E+00
Nuclear GFac                               R   N=           4
  0.00000000E+00  2.81328000E+00  8.21874000E-01  2.79284600E+00
MicOpt                                     I   N=           4
          -1          -1          -1          -1
Number of residues                         I                0
Number of secondary structures             I                0
Number of contracted shells                I               56
Number of primitive shells                 I              143
Pure/Cartesian d shells                    I                0
Pure/Cartesian f shells                    I                0
Highest angular momentum                   I                3
Largest degree of contraction              I               11
Shell types                                I   N=          56
           0           0           0           0           0           1
           1           1           1          -2          -2          -2
          -3          -3           0           0           0           0
           0           0           1           1           1           1
           1          -2          -2          -2          -2          -3
          -3           0           0           0           0           0
           0           1           1           1           1           1
          -2          -2          -2          -3          -3           0
           0           0           0           1           1           1
          -2          -2
Number of primitives per shell             I   N=          56
           7           6           1           1           1           3
           1           1           1           1           1           1
           1           1           9           8           1           1
           1           1           8           8           1           1
           1           9           1           1           1           1
           1          11           9           8           1           1
           1           6           6           1           1           1
           1           1           1           1           1           3
           1           1           1           1           1           1
           1           1
Shell to atom map                          I   N=          56
           1           1           1           1           1           1
           1           1           1           1           1           1
           1           1           2           2           2           2
           2           2           2           2           2           2
           2           2           2           2           2           2
           2           3           3           3           3           3
           3           3           3           3           3           3
           3           3           3           3           3           4
           4           4           4           4           4           4
           4           4
Primitive exponents                        R   N=         143
  1.53300000E+04  2.29900000E+03  5.22400000E+02  1.47300000E+02  4.75500000E+01
  1.67600000E+01  6.20700000E+00  5.22400000E+02  1.47300000E+02  4.75500000E+01
  1.67600000E+01  6.20700000E+00  6.88200000E-01  1.75200000E+00  2.38400000E-01
  7.37600000E-02  3.44600000E+01  7.74900000E+00  2.28000000E+00  7.15600000E-01
  2.14000000E-01  5.97400000E-02  2.31400000E+00  6.45000000E-01  2.14000000E-01
  1.42800000E+00  5.00000000E-01  5.54650000E+03  8.38214000E+02  1.82187000E+02
  3.12123000E+01  1.95314000E+01  8.24099000E+00  2.19455000E+00  1.10911000E+00
  8.10610000E-02  5.54650000E+03  8.38214000E+02  3.12123000E+01  1.95314000E+01
  8.24099000E+00  2.19455000E+00  1.10911000E+00  8.10610000E-02  3.74641000E-01
  1.77080000E-01  1.00100000E-01  4.12000000E-02  1.88988000E+02  2.12868000E+01
  1.00396000E+01  3.45180000E+00  1.97456000E+00  1.02420000E+00  4.49437000E-01
  7.34810000E-02  1.88988000E+02  1.00396000E+01  3.45180000E+00  1.97456000E+00
  1.02420000E+00  4.49437000E-01  1.86648000E-01  7.34810000E-02  5.98100000E-01
  9.61800000E-02  3.59000000E-02  1.32662000E+02  3.76054000E+01  1.03891000E+01
  6.49017000E+00  3.45451000E+00  1.84413000E+00  9.62478000E-01  4.72853000E-01
  1.93200000E-01  4.72853000E-01  1.93200000E-01  7.82000000E-02  4.06400000E-01
  1.84800000E-01  4.56100000E+05  6.83300000E+04  1.55500000E+04  4.40500000E+03
  1.43900000E+03  5.20400000E+02  2.03100000E+02  8.39600000E+01  3.62000000E+01
  1.58300000E+01  6.33400000E+00  4.40500000E+03  1.43900000E+03  5.20400000E+02
  2.03100000E+02  8.39600000E+01  3.62000000E+01  1.58300000E+01  6.33400000E+00
  2.69400000E+00  1.43900000E+03  2.03100000E+02  8.39600000E+01  3.62000000E+01
  1.58300000E+01  6.33400000E+00  2.69400000E+00  4.31300000E-01  9.76800000E-01
  1.62500000E-01  5.91000000E-02  6.63300000E+02  1.56800000E+02  4.99800000E+01
  1.84200000E+01  7.24000000E+00  2.92200000E+00  1.56800000E+02  4.99800000E+01
  1.84200000E+01  7.24000000E+00  2.92200000E+00  3.81800000E-01  1.02200000E+00
  1.30100000E-01  4.19000000E-02  1.04600000E+00  3.44000000E-01  1.35000000E-01
  7.06000000E-01  3.12000000E-01  3.38700000E+01  5.09500000E+00  1.15900000E+00
  3.25800000E-01  1.02700000E-01  2.52600000E-02  1.40700000E+00  3.88000000E-01
  1.02000000E-01  1.05700000E+00  2.47000000E-01
Contraction coefficients                   R   N=         143
  5.19808943E-04  4.02025621E-03  2.07128267E-02  8.10105536E-02  2.35962985E-01
  4.42653446E-01  3.57064423E-01 -4.42115008E-05 -1.22591041E-03 -1.05517725E-02
 -6.74452633E-02 -1.71198607E-01  1.07329856E+00  1.00000000E+00  1.00000000E+00
  1.00000000E+00  4.11634896E-02  2.57762836E-01  8.02419274E-01  1.00000000E+00
  1.00000000E+00  1.00000000E+00  1.00000000E+00  1.00000000E+00  1.00000000E+00
  1.00000000E+00  1.00000000E+00  1.58603022E-04  1.00211458E-03  2.83966410E-03
 -4.40310212E-02  2.38198152E-01 -7.63568980E-01  8.96516870E-01  4.68371203E-01
  2.16251781E-03 -2.17177846E-05 -2.59237305E-04 -1.50376554E-02  2.42214079E-02
  6.99888661E-02 -5.50491335E-01 -5.69654432E-01  3.76065139E-01  1.00000000E+00
  1.00000000E+00  1.00000000E+00  1.00000000E+00  5.85232173E-04  3.69335916E-02
 -2.35399435E-01  3.41625365E-01  5.34991615E-01  2.65244797E-01  2.54463150E-02
  3.82802808E-04 -6.76097015E-05  8.33123161E-03 -4.66496478E-02 -5.27406452E-02
 -2.91398344E-02  3.65650039E-01  5.48502805E-01  2.34644635E-01  1.00000000E+00
  1.00000000E+00  1.00000000E+00  5.72000072E-04  4.40200055E-03 -4.09220051E-02
  9.96610125E-02  3.22663040E-01  4.00343050E-01  2.68306034E-01  8.48470106E-02
  7.63200096E-03  1.00000000E+00  1.00000000E+00  1.00000000E+00  1.00000000E+00
  1.00000000E+00  4.93229477E-05  3.83207967E-04  2.00947816E-03  8.38950124E-03
  2.94843950E-02  8.78759948E-02  2.11589759E-01  3.65611554E-01  3.41246350E-01
  1.02162570E-01  2.14249949E-03 -2.21747925E-06 -1.71189708E-04 -1.27922846E-03
 -9.32956265E-03 -3.98910062E-02 -1.05536085E-01  9.36202446E-03  5.10511140E-01
  5.73150737E-01  4.03949245E-06  2.12481765E-04  8.59484452E-04  4.63248159E-03
  4.47343490E-04 -7.38438245E-02 -3.62271994E-01  1.16620337E+00  1.00000000E+00
  1.00000000E+00  1.00000000E+00  2.47206402E-03  1.97550234E-02  9.09917355E-02
  2.63187834E-01  4.49078073E-01  3.60183072E-01  3.03427809E-05 -1.22475826E-03
 -6.01429772E-03 -2.76401323E-02  4.35105612E-04  1.00307272E+00  1.00000000E+00
  1.00000000E+00  1.00000000E+00  1.00000000E+00  1.00000000E+00  1.00000000E+00
  1.00000000E+00  1.00000000E+00  2.54948632E-02  1.90362766E-01  8.52162022E-01
  1.00000000E+00  1.00000000E+00  1.00000000E+00  1.00000000E+00  1.00000000E+00
  1.00000000E+00  1.00000000E+00  1.00000000E+00
Coordinates of each shell                  R   N=         168
  0.00000000E+00  0.00000000E+00  0.00000000E+00  0.00000000E+00  0.00000000E+00
  0.00000000E+00  0.00000000E+00  0.00000000E+00  0.00000000E+00  0.00000000E+00
  0.00000000E+00  0.00000000E+00  0.00000000E+00  0.00000000E+00  0.00000000E+00
  0.00000000E+00  0.00000000E+00  0.00000000E+00  0.00000000E+00  0.00000000E+00
  0.00000000E+00  0.00000000E+00  0.00000000E+00  0.00000000E+00  0.00000000E+00
  0.00000000E+00  0.00000000E+00  0.00000000E+00  0.00000000E+00  0.00000000E+00
  0.00000000E+00  0.00000000E+00  0.00000000E+00  0.00000000E+00  0.00000000E+00
  0.00000000E+00  0.00000000E+00  0.00000000E+00  0.00000000E+00  0.00000000E+00
  0.00000000E+00  0.00000000E+00  6.25933684E+00  0.00000000E+00  0.00000000E+00
  6.25933684E+00  0.00000000E+00  0.00000000E+00  6.25933684E+00  0.00000000E+00
  0.00000000E+00  6.25933684E+00  0.00000000E+00  0.00000000E+00  6.25933684E+00
  0.00000000E+00  0.00000000E+00  6.25933684E+00  0.00000000E+00  0.00000000E+00
  6.25933684E+00  0.00000000E+00  0.00000000E+00  6.25933684E+00  0.00000000E+00
  0.00000000E+00  6.25933684E+00  0.00000000E+00  0.00000000E+00  6.25933684E+00
  0.00000000E+00  0.00000000E+00  6.25933684E+00  0.00000000E+00  0.00000000E+00
  6.25933684E+00  0.00000000E+00  0.00000000E+00  6.25933684E+00  0.00000000E+00
  0.00000000E+00  6.25933684E+00  0.00000000E+00  0.00000000E+00  6.25933684E+00
  0.00000000E+00  0.00000000E+00  6.25933684E+00  0.00000000E+00  0.00000000E+00
  6.25933684E+00  0.00000000E+00  0.00000000E+00 -7.30225624E-01  3.10228121E+00
  0.00000000E+00 -7.30225624E-01  3.10228121E+00  0.00000000E+00 -7.30225624E-01
  3.10228121E+00  0.00000000E+00 -7.30225624E-01  3.10228121E+00  0.00000000E+00
 -7.30225624E-01  3.10228121E+00  0.00000000E+00 -7.30225624E-01  3.10228121E+00
  0.00000000E+00 -7.30225624E-01  3.10228121E+00  0.00000000E+00 -7.30225624E-01
  3.10228121E+00  0.00000000E+00 -7.30225624E-01  3.10228121E+00  0.00000000E+00
 -7.30225624E-01  3.10228121E+00  0.00000000E+00 -7.30225624E-01  3.10228121E+00
  0.00000000E+00 -7.30225624E-01  3.10228121E+00  0.00000000E+00 -7.30225624E-01
  3.10228121E+00  0.00000000E+00 -7.30225624E-01  3.10228121E+00  0.00000000E+00
 -7.30225624E-01  3.10228121E+00  0.00000000E+00 -7.30225624E-01  3.10228121E+00
  0.00000000E+00  1.62304929E+00  0.00000000E+00  9.37067942E-01  1.62304929E+00
  0.00000000E+00  9.37067942E-01  1.62304929E+00  0.00000000E+00  9.37067942E-01
  1.62304929E+00  0.00000000E+00  9.37067942E-01  1.62304929E+00  0.00000000E+00
  9.37067942E-01  1.62304929E+00  0.00000000E+00  9.37067942E-01  1.62304929E+00
  0.00000000E+00  9.37067942E-01  1.62304929E+00  0.00000000E+00  9.37067942E-01
  1.62304929E+00  0.00000000E+00  9.37067942E-01
Num ILSW                                   I              100
ILSW                                       I   N=         100
           0           0           0           0           2           0
           0           0           0           0           0          -1
           5           0           0           0           0           0
           0           0           0           0           0           0
           1           1           0           0           0           0
           0           0      100000           0          -1           0
           0           0           0           0           0           0
           0           0           0           1           0           0
           0 -2000000000           1           0           0           0
           0           0           4          52           0           0
           0           0           0           0           0           0
           0           0           0           4           0           1
           0           0           0           0           0           0
           0           0           0           0           0           0
           0           0           0           0           0           0
           0           0           0           0           0           0
           0           0           0           0
Num RLSW                                   I               52
RLSW                                       R   N=          52
  1.00000000E+00  1.00000000E+00  1.00000000E+00  1.00000000E+00  1.00000000E+00
  0.00000000E+00  0.00000000E+00  1.00000000E+00  0.00000000E+00  0.00000000E+00
  0.00000000E+00  0.00000000E+00  1.00000000E+00  0.00000000E+00  0.00000000E+00
  0.00000000E+00  0.00000000E+00  1.00000000E+00  0.00000000E+00  0.00000000E+00
  0.00000000E+00  0.00000000E+00  1.00000000E+00  0.00000000E+00  0.00000000E+00
  0.00000000E+00  0.00000000E+00  1.00000000E+00  0.00000000E+00  0.00000000E+00
  0.00000000E+00  0.00000000E+00  1.00000000E+00  0.00000000E+00  0.00000000E+00
  0.00000000E+00  0.00000000E+00  0.00000000E+00  1.00000000E+00  1.00000000E+00
  0.00000000E+00  1.00000000E+00  0.00000000E+00  0.00000000E+00  0.00000000E+00
  0.00000000E+00  0.00000000E+00  0.00000000E+00  0.00000000E+00  0.00000000E+00
  0.00000000E+00  0.00000000E+00
ECP-MxAtEC                                 I           250000
ECP-MaxLECP                                I               10
ECP-MaxAtL                                 I          2250000
ECP-MxTECP                                 I         11250000
ECP-LenNCZ                                 I               16
ECP-KFirst                                 I   N=          40
           0           1           0           0           0           2
           0           0           0           5           0           0
           0           9           0           0           0          13
           0           0           0           0           0           0
           0           0           0           0           0           0
           0           0           0           0           0           0
           0           0           0           0
ECP-KLast                                  I   N=          40
           0           1           0           0           0           4
           0           0           0           8           0           0
           0          12           0           0           0          16
           0           0           0           0           0           0
           0           0           0           0           0           0
           0           0           0           0           0           0
           0           0           0           0
ECP-LMax                                   I   N=           4
           0           4           0           0
ECP-LPSkip                                 I   N=           4
           1           0           1           1
ECP-RNFroz                                 R   N=           4
  0.00000000E+00  2.80000000E+01  0.00000000E+00  0.00000000E+00
ECP-NLP                                    I   N=          16
           2           2           2           2           2           2
           2           2           2           2           2           2
           2           2           2           2
ECP-CLP1                                   R   N=          16
  0.00000000E+00  4.99896490E+01  2.81006556E+02  6.14167390E+01  6.74162390E+01
  1.34807696E+02  1.45665480E+01  2.89684220E+01  3.55387560E+01  5.33397590E+01
  9.71646600E+00  1.49775000E+01 -2.01766180E+01 -2.60880770E+01 -2.20434000E-01
 -2.21646000E-01
ECP-CLP2                                   R   N=          16
  0.00000000E+00  0.00000000E+00  0.00000000E+00  0.00000000E+00  0.00000000E+00
  0.00000000E+00  0.00000000E+00  0.00000000E+00  0.00000000E+00  0.00000000E+00
  0.00000000E+00  0.00000000E+00  0.00000000E+00  0.00000000E+00  0.00000000E+00
  0.00000000E+00
ECP-ZLP                                    R   N=          16
  1.00000000E+00  4.00333760E+01  1.73005760E+01  8.85172000E+00  1.57201410E+01
  1.52082220E+01  8.29418600E+00  7.75394900E+00  1.38177510E+01  1.35878050E+01
  6.94763000E+00  6.96009900E+00  1.85229500E+01  1.82510350E+01  7.55790100E+00
  7.59740400E+00
MxBond                                     I                2
NBond                                      I   N=           4
           2           0           1           1
IBond                                      I   N=           8
           3           4           0           0           1           0
           1           0
RBond                                      R   N=           8
  1.00000000E+00  1.00000000E+00  0.00000000E+00  0.00000000E+00  1.00000000E+00
  0.00000000E+00  1.00000000E+00  0.00000000E+00
Virial Ratio                               R      2.285022879931666E+00
SCF Energy                                 R     -8.296806488056002E+02
MP2 Energy                                 R     -8.303607925245228E+02
Total Energy                               R     -8.303607925245228E+02
Post-SCF wavefunction norm                 R      1.108277367983933E+00
RMS Density                                R      8.361725048715812E-09
Job Status                                 I                1
Nuclear derivative order                   I                0
External E-field                           R   N=          35
  0.00000000E+00  0.00000000E+00  0.00000000E+00  0.00000000E+00  0.00000000E+00
  0.00000000E+00  0.00000000E+00  0.00000000E+00  0.00000000E+00  0.00000000E+00
  0.00000000E+00  0.00000000E+00  0.00000000E+00  0.00000000E+00  0.00000000E+00
  0.00000000E+00  0.00000000E+00  0.00000000E+00  0.00000000E+00  0.00000000E+00
  0.00000000E+00  0.00000000E+00  0.00000000E+00  0.00000000E+00  0.00000000E+00
  0.00000000E+00  0.00000000E+00  0.00000000E+00  0.00000000E+00  0.00000000E+00
  0.00000000E+00  0.00000000E+00  0.00000000E+00  0.00000000E+00  0.00000000E+00
IOpCl                                      I                0
IROHF                                      I                0
Alpha Orbital Energies                     R   N=         174
 -1.04746975E+02 -2.04860168E+01 -1.04665246E+01 -7.93370463E+00 -7.93095595E+00
 -7.93082127E+00 -7.47164430E+00 -5.29742996E+00 -5.29685868E+00 -5.29675616E+00
 -2.02491199E+00 -2.02466664E+00 -2.02458633E+00 -2.02392841E+00 -2.02392308E+00
 -1.25425412E+00 -9.13055329E-01 -6.35164150E-01 -5.60628103E-01 -4.62210041E-01
 -4.53388030E-01 -3.24059179E-01 -2.98100054E-01 -1.54022333E-01 -1.46813213E-01
 -1.46163247E-01  1.49298013E-01  1.73906434E-01  2.15396701E-01  2.23354470E-01
  2.40986395E-01  2.51493408E-01  2.53719534E-01  2.71558212E-01  2.80515678E-01
  2.96485695E-01  3.10583888E-01  3.21600792E-01  3.43579879E-01  3.70680021E-01
  3.80303257E-01  3.84162458E-01  4.21168229E-01  4.34730755E-01  4.55026857E-01
  4.96389932E-01  5.09579650E-01  5.32418418E-01  5.41640514E-01  5.65989038E-01
  5.72554117E-01  5.84201488E-01  6.36588091E-01  6.46463646E-01  6.79269941E-01
  7.45839072E-01  7.56614265E-01  7.77935804E-01  7.81013539E-01  7.94504563E-01
  7.96475180E-01  7.99742934E-01  8.06705857E-01  8.23323669E-01  8.40887966E-01
  8.43846353E-01  8.76184020E-01  8.77790582E-01  8.87421638E-01  8.88361382E-01
  9.03702885E-01  9.27523340E-01  9.38655785E-01  9.61556311E-01  9.83660751E-01
  9.95273959E-01  1.02058998E+00  1.05098512E+00  1.06716517E+00  1.09689959E+00
  1.11193798E+00  1.14703541E+00  1.16280364E+00  1.19463919E+00  1.21468420E+00
  1.23367237E+00  1.28060025E+00  1.31210971E+00  1.33947381E+00  1.37575171E+00
  1.38675689E+00  1.42394640E+00  1.51331467E+00  1.53227537E+00  1.59995907E+00
  1.62131866E+00  1.65041483E+00  1.67364075E+00  1.70528142E+00  1.73432844E+00
  1.75115511E+00  1.75133736E+00  1.77017050E+00  1.77739477E+00  1.80287046E+00
  1.83912228E+00  1.85526267E+00  1.86445484E+00  1.91541474E+00  1.96305067E+00
  2.05263947E+00  2.05778150E+00  2.08382625E+00  2.12002337E+00  2.13100067E+00
  2.25552712E+00  2.36105295E+00  2.40348814E+00  2.49259250E+00  2.50653719E+00
  2.53632753E+00  2.58510099E+00  2.60688773E+00  2.62998415E+00  2.66644095E+00
  2.68854217E+00  2.70416870E+00  2.71873428E+00  2.75766963E+00  2.76406790E+00
  2.79424929E+00  2.95030755E+00  2.99132290E+00  3.08336543E+00  3.16177106E+00
  3.18457830E+00  3.20561023E+00  3.22058051E+00  3.22389074E+00  3.25272827E+00
  3.28470763E+00  3.34354250E+00  3.49484304E+00  3.52658030E+00  3.53445588E+00
  3.82550859E+00  3.90579806E+00  4.09813383E+00  4.32612221E+00  4.47542011E+00
  4.54077270E+00  4.61330297E+00  4.71434234E+00  4.92519235E+00  4.98674831E+00
  5.33838585E+00  5.40719693E+00  5.66975289E+00  6.36985820E+00  6.58515406E+00
  6.84741373E+00  6.88479877E+00  6.89849433E+00  6.96907950E+00  7.30276254E+00
  7.33787469E+00  7.34461369E+00  7.42341215E+00  7.50895818E+00  7.67885674E+00
  7.73038495E+00  8.35222491E+00  1.44062372E+01  5.92040032E+01
Alpha MO coefficients                      R   N=       30276
  5.96692665E-06  3.27058691E-05  1.41119605E-06 -1.38563055E-04 -8.22941293E-05
 -3.49252353E-08  3.16727033E-06  6.74007980E-07 -1.15694837E-06 -9.45332777E-06
 -3.09908849E-06  4.90915404E-05 -1.52692023E-04  4.12183548E-06  1.45267813E-05
 -3.33614477E-05  4.77713549E-06 -1.99270623E-06  2.64759119E-07  1.14216926E-07
 -3.03028604E-06 -1.36245625E-06  1.33155493E-05 -6.99532640E-07 -7.98825533E-07
  2.10433154E-05  9.16261789E-06  2.66207691E-05  7.43443524E-06 -6.97655674E-06
  5.67303149E-05  1.25077587E-05 -1.85877168E-07 -1.02227219E-07  3.38506801E-07
 -6.49637214E-07  7.33641830E-07 -1.31863676E-06  7.71002466E-07  1.59981379E-07
 -2.49470689E-06  1.15996874E-05  3.10551617E-06 -3.06332279E-06 -5.85807337E-06
  9.91203048E-06 -6.20264668E-08  6.75600494E-08 -9.75189489E-07  1.61308962E-05
 -2.59702007E-05 -4.39366337E-06 -5.13662841E-08  7.94967730E-08 -1.62156816E-08
 -2.71792984E-06  7.01046792E-07  2.21280260E-07 -4.02574243E-07 -1.83852797E-07
  1.56377510E-07  1.89512506E-05 -2.01537564E-06 -3.91177905E-06  2.74735561E-06
 -2.01410019E-07  6.26787641E-07  8.56593826E-08  7.56449592E-08 -3.36163166E-08
 -2.79027425E-07 -2.11314129E-08 -6.83221661E-07 -5.71749759E-07  1.12635481E-07
  1.77149918E-06 -1.31042868E-08  2.44352069E-06  2.48978533E-06 -1.41136217E-08
 -5.59252799E-06  3.01107739E-07  3.25138135E-06  1.32584980E-06 -9.84050838E-07
 -4.78358219E-06  1.46417794E-06  5.76901486E-08  4.09405597E-09  1.41696576E-07
 -1.20648084E-07 -7.23900630E-07 -4.09507293E-07 -1.44667344E-07  8.40578253E-07
 -1.62577860E-06 -1.18844692E-07 -1.03306800E-06  1.39561841E-06  3.22209394E-06
 -2.07307999E-07  9.99534911E-01  1.95296647E-03  1.83549959E-04 -4.16946386E-04
  7.03153208E-05  7.39869395E-05  1.69281662E-05 -7.64707666E-05  1.95483251E-06
  3.51197484E-05 -1.34281550E-04  3.27556328E-06 -1.72581843E-05  7.22540441E-05
 -1.82430954E-06  6.99275594E-06 -5.56001833E-05 -2.94891966E-06  1.96576314E-06
 -1.18640549E-05 -1.22413356E-06 -3.78557801E-06  1.77331496E-07 -1.77560181E-07
 -5.36729790E-06 -3.35933216E-06 -2.80859455E-05  4.33760260E-07 -1.00655293E-06
 -4.34968994E-05 -2.32380596E-05 -2.71586549E-06 -3.34933189E-06  7.70598078E-07
 -8.12918846E-06 -2.82393588E-07 -6.43001772E-07 -1.49256423E-06  5.84585661E-06
  3.96370777E-07 -1.10430239E-06 -4.91961622E-06  4.51261157E-06  1.16035597E-06
 -7.43544952E-07  3.61718106E-06 -1.25780245E-06  2.18588455E-06 -3.60038452E-06
  6.45390510E-06 -8.28672331E-07 -2.05610855E-05  2.00143319E-05 -7.60535089E-06
  1.15510554E-06 -2.37971792E-06  3.78113842E-07 -8.92969800E-06  1.70205485E-05
 -1.18604699E-06  1.05144618E-05  1.76765573E-05 -2.75787467E-06 -6.00071468E-07
  7.21681562E-08 -9.95456433E-08 -1.33034280E-06 -9.21972789E-07 -7.57556607E-06
  3.17184205E-06 -1.53895403E-06  4.83783322E-06 -4.02965469E-06  9.76837856E-01
 -9.08173390E-03  4.33711622E-02  2.13916961E-03  6.19544610E-04  7.62211015E-04
  1.55516117E-03  7.71619478E-04 -8.46587478E-04 -1.20348365E-03 -7.31355489E-04
 -2.71390281E-04  7.35820348E-04 -3.26030761E-04 -1.17963015E-04  1.95608606E-04
 -7.70609293E-05  5.10902010E-05  2.56727909E-05  7.05776552E-08  1.02137235E-04
  4.17148495E-05  2.58819266E-04 -4.22314199E-04 -2.08285660E-05  5.86546429E-05
  1.62482611E-04 -2.16954642E-04 -8.05595771E-05  1.38277983E-06 -2.30570296E-04
 -1.81413968E-04  1.07067533E-05 -6.24237697E-06  1.49308932E-05 -3.81666860E-06
 -1.21462286E-05 -1.04599872E-05  9.13802934E-06  4.28902591E-05 -4.65966577E-05
 -1.01133600E-05 -1.12579247E-04 -2.98637218E-05 -6.45379164E-05 -5.14730228E-05
  1.23530969E-06  1.25906629E-06  6.79605686E-05 -2.27410308E-04  2.00502461E-04
 -1.06841574E-05  1.58717105E-05  1.00886685E-06 -4.10901936E-06  1.43854727E-04
  4.98960000E-07  2.16838165E-06 -4.25081735E-05 -2.86647367E-06  1.74659319E-05
 -1.58027000E-04  3.17081335E-05 -1.63591140E-04 -5.89786439E-06 -1.63823748E-05
 -1.07287113E-05 -5.05616784E-06  4.94231995E-06  1.89030316E-07  2.71735991E-06
 -2.07600988E-06  3.00114110E-05 -3.66162262E-05 -5.45094139E-07 -1.85081761E-05
  1.05526031E-05 -5.11992330E-05  1.35135688E-04 -2.13623290E-07  3.63041279E-06
 -2.93440433E-05 -4.58772640E-05  9.21270821E-05  1.06846528E-05  3.40610484E-05
  1.07489341E-05 -7.19150438E-07 -1.96688138E-05 -5.48009878E-06  1.21891330E-05
  5.41198545E-06 -1.92191244E-07  2.25901921E-06  6.12430541E-05  9.21633210E-05
  8.42208758E-06 -1.10064007E-04 -1.06927106E-05  6.09211764E-07  1.77545632E-06
  4.12535000E-06  6.82875208E-05  7.60900597E-05 -2.66118570E-04 -1.32187150E-04
 -5.52652648E-04 -4.42060079E-06 -4.24974259E-06 -2.39602869E-06  3.06608178E-05
 -5.02199337E-04 -4.06577784E-05 -3.28600701E-05  2.38867024E-04  1.11374705E-05
  1.91786510E-04  4.80115766E-04  1.03385172E-04 -1.81946639E-05  1.19948077E-04
  1.38650334E-05  1.38245416E-05 -3.61588460E-06  3.63714724E-07  1.06082025E-05
  1.08978147E-05 -2.85549120E-04  6.98342498E-06  2.49925298E-05 -4.29313060E-04
 -1.83369244E-04  1.31296466E-04  4.64686301E-05 -6.18387632E-05  3.41086970E-04
 -3.21174916E-05  1.12596641E-05 -3.07376552E-05  1.59707511E-04  2.95714099E-06
  8.57001283E-06 -1.23215583E-04  1.86294579E-04 -1.70129656E-05 -3.09954688E-05
  9.07680471E-05  1.53347842E-05 -2.19669831E-05 -7.06501161E-05  4.31923626E-05
  4.06934439E-04  1.62354559E-03 -4.93911909E-04  4.13694919E-05 -2.30115588E-04
  5.30545135E-05 -1.33248194E-04 -1.03256880E-03  5.11391698E-06 -4.31697079E-04
  9.39526068E-05 -2.38398135E-04  4.31884996E-04 -1.38257643E-05 -2.51580923E-05
 -3.86813360E-05  2.22031472E-07 -6.29308089E-05 -1.74245590E-04  3.91545453E-04
  1.03691540E-05  5.10895969E-04  3.61760261E-05 -7.60663589E-05 -9.81184897E-05
 -1.04323604E-04  2.62046617E-03  1.95901662E-03 -2.09638691E-05  3.55669025E-05
 -1.13655089E-05 -7.77845364E-05  5.90488381E-04  5.93234723E-05 -5.90601526E-04
  2.55208612E-03  2.58060942E-05 -3.04597735E-04  8.41792441E-04 -1.11948847E-04
 -2.79229655E-05 -6.09058015E-06 -7.27280267E-06 -4.45698361E-05 -3.37496062E-05
 -1.75892984E-04  4.14919317E-05  5.68785999E-05 -2.62994568E-04 -4.44573493E-05
 -2.93430041E-04 -8.92946511E-05  1.72049342E-04 -7.30893621E-04  6.87125371E-05
 -3.39188387E-06  8.45411879E-06 -2.77132674E-05  1.53830369E-05 -9.67951204E-06
  4.48929433E-05 -3.81262309E-05 -1.29674677E-06  1.03811098E-05 -5.57132399E-06