title                                                                   
SP        RMP2-FC                                                     Gen                 
Number of atoms                            I                4
Info1-9                                    I   N=           9
         135         126           0           0           0         110
           1           2           1
Full Title                                 C   N=           1
title       
Route                                      C   N=           5
#p pop=NBO SP NoSymm mp2/gen Pseudo=read density=current    
Charge                                     I               -1
Multiplicity                               I                1
Number of electrons                        I               52
Number of alpha electrons                  I               26
Number of beta electrons                   I               26
Number of basis functions                  I              174
Number of independent functions            I              174
Number of point charges in /Mol/           I                0
Number of translation vectors              I                0
Atomic numbers                             I   N=           4
           8          53          17           1
Nuclear charges                            R   N=           4
  8.00000000E+00  2.50000000E+01  1.70000000E+01  1.00000000E+00
Current cartesian coordinates              R   N=          12
  0.00000000E+00  0.00000000E+00  0.00000000E+00  6.25933684E+00  0.00000000E+00
  0.00000000E+00 -7.30225624E-01  3.10228121E+00  0.00000000E+00  1.77501587E+00
  0.00000000E+00  6.46052944E-01
Number of symbols in /Mol/                 I                0
Force Field                                I                0
Atom Types                                 C   N=           4
                                                
Int Atom Types                             I   N=           4
           0           0           0           0
MM charges                                 R   N=           4
  0.00000000E+00  0.00000000E+00  0.00000000E+00  0.00000000E+00
Integer atomic weights                     I   N=           4
          16         127          35           1
Real atomic weights                        R   N=           4
  1.59949146E+01  1.26900400E+02  3.49688527E+01  1.00782504E+00
Atom fragment info                         I   N=           4
           0           0           0           0
Atom residue num                           I   N=           4
           0           0           0           0
Nuclear spins                              I   N=           4
           0           5           3           1
Nuclear ZEff                               R   N=           4
 -5.60000000E+00 -5.83000000E+03 -1.42400000E+01 -1.00000000E+00
Nuclear ZNuc                               R   N=           4
  8.00000000E+00  5.30000000E+01  1.70000000E+01  1.00000000E+00
Nuclear QMom                               R   N=           4
  0.00000000E+00 -7.10000000E+01 -8.16500000E+00  0.00000000E+00
Nuclear GFac                               R   N=           4
  0.00000000E+00  2.81328000E+00  8.21874000E-01  2.79284600E+00
MicOpt                                     I   N=           4
          -1          -1          -1          -1
Number of residues                         I                0
Number of secondary structures             I                0
Number of contracted shells                I               56
Number of primitive shells                 I              143
Pure/Cartesian d shells                    I                0
Pure/Cartesian f shells                    I                0
Highest angular momentum                   I                3
Largest degree of contraction              I               11
Shell types                                I   N=          56
           0           0           0           0           0           1
           1           1           1          -2          -2          -2
          -3          -3           0           0           0           0
           0           0           1           1           1           1
           1          -2          -2          -2          -2          -3
          -3           0           0           0           0           0
           0           1           1           1           1           1
          -2          -2          -2          -3          -3           0
           0           0           0           1           1           1
          -2          -2
Number of primitives per shell             I   N=          56
           7           6           1           1           1           3
           1           1           1           1           1           1
           1           1           9           8           1           1
           1           1           8           8           1           1
           1           9           1           1           1           1
           1          11           9           8           1           1
           1           6           6           1           1           1
           1           1           1           1           1           3
           1           1           1           1           1           1
           1           1
Shell to atom map                          I   N=          56
           1           1           1           1           1           1
           1           1           1           1           1           1
           1           1           2           2           2           2
           2           2           2           2           2           2
           2           2           2           2           2           2
           2           3           3           3           3           3
           3           3           3           3           3           3
           3           3           3           3           3           4
           4           4           4           4           4           4
           4           4
Primitive exponents                        R   N=         143
  1.53300000E+04  2.29900000E+03  5.22400000E+02  1.47300000E+02  4.75500000E+01
  1.67600000E+01  6.20700000E+00  5.22400000E+02  1.47300000E+02  4.75500000E+01
  1.67600000E+01  6.20700000E+00  6.88200000E-01  1.75200000E+00  2.38400000E-01
  7.37600000E-02  3.44600000E+01  7.74900000E+00  2.28000000E+00  7.15600000E-01
  2.14000000E-01  5.97400000E-02  2.31400000E+00  6.45000000E-01  2.14000000E-01
  1.42800000E+00  5.00000000E-01  5.54650000E+03  8.38214000E+02  1.82187000E+02
  3.12123000E+01  1.95314000E+01  8.24099000E+00  2.19455000E+00  1.10911000E+00
  8.10610000E-02  5.54650000E+03  8.38214000E+02  3.12123000E+01  1.95314000E+01
  8.24099000E+00  2.19455000E+00  1.10911000E+00  8.10610000E-02  3.74641000E-01
  1.77080000E-01  1.00100000E-01  4.12000000E-02  1.88988000E+02  2.12868000E+01
  1.00396000E+01  3.45180000E+00  1.97456000E+00  1.02420000E+00  4.49437000E-01
  7.34810000E-02  1.88988000E+02  1.00396000E+01  3.45180000E+00  1.97456000E+00
  1.02420000E+00  4.49437000E-01  1.86648000E-01  7.34810000E-02  5.98100000E-01
  9.61800000E-02  3.59000000E-02  1.32662000E+02  3.76054000E+01  1.03891000E+01
  6.49017000E+00  3.45451000E+00  1.84413000E+00  9.62478000E-01  4.72853000E-01
  1.93200000E-01  4.72853000E-01  1.93200000E-01  7.82000000E-02  4.06400000E-01
  1.84800000E-01  4.56100000E+05  6.83300000E+04  1.55500000E+04  4.40500000E+03
  1.43900000E+03  5.20400000E+02  2.03100000E+02  8.39600000E+01  3.62000000E+01
  1.58300000E+01  6.33400000E+00  4.40500000E+03  1.43900000E+03  5.20400000E+02
  2.03100000E+02  8.39600000E+01  3.62000000E+01  1.58300000E+01  6.33400000E+00
  2.69400000E+00  1.43900000E+03  2.03100000E+02  8.39600000E+01  3.62000000E+01
  1.58300000E+01  6.33400000E+00  2.69400000E+00  4.31300000E-01  9.76800000E-01
  1.62500000E-01  5.91000000E-02  6.63300000E+02  1.56800000E+02  4.99800000E+01
  1.84200000E+01  7.24000000E+00  2.92200000E+00  1.56800000E+02  4.99800000E+01
  1.84200000E+01  7.24000000E+00  2.92200000E+00  3.81800000E-01  1.02200000E+00
  1.30100000E-01  4.19000000E-02  1.04600000E+00  3.44000000E-01  1.35000000E-01
  7.06000000E-01  3.12000000E-01  3.38700000E+01  5.09500000E+00  1.15900000E+00
  3.25800000E-01  1.02700000E-01  2.52600000E-02  1.40700000E+00  3.88000000E-01
  1.02000000E-01  1.05700000E+00  2.47000000E-01
Contraction coefficients                   R   N=         143
  5.19808943E-04  4.02025621E-03  2.07128267E-02  8.10105536E-02  2.35962985E-01
  4.42653446E-01  3.57064423E-01 -4.42115008E-05 -1.22591041E-03 -1.05517725E-02
 -6.74452633E-02 -1.71198607E-01  1.07329856E+00  1.00000000E+00  1.00000000E+00
  1.00000000E+00  4.11634896E-02  2.57762836E-01  8.02419274E-01  1.00000000E+00
  1.00000000E+00  1.00000000E+00  1.00000000E+00  1.00000000E+00  1.00000000E+00
  1.00000000E+00  1.00000000E+00  1.58603022E-04  1.00211458E-03  2.83966410E-03
 -4.40310212E-02  2.38198152E-01 -7.63568980E-01  8.96516870E-01  4.68371203E-01
  2.16251781E-03 -2.17177846E-05 -2.59237305E-04 -1.50376554E-02  2.42214079E-02
  6.99888661E-02 -5.50491335E-01 -5.69654432E-01  3.76065139E-01  1.00000000E+00
  1.00000000E+00  1.00000000E+00  1.00000000E+00  5.85232173E-04  3.69335916E-02
 -2.35399435E-01  3.41625365E-01  5.34991615E-01  2.65244797E-01  2.54463150E-02
  3.82802808E-04 -6.76097015E-05  8.33123161E-03 -4.66496478E-02 -5.27406452E-02
 -2.91398344E-02  3.65650039E-01  5.48502805E-01  2.34644635E-01  1.00000000E+00
  1.00000000E+00  1.00000000E+00  5.72000072E-04  4.40200055E-03 -4.09220051E-02
  9.96610125E-02  3.22663040E-01  4.00343050E-01  2.68306034E-01  8.48470106E-02
  7.63200096E-03  1.00000000E+00  1.00000000E+00  1.00000000E+00  1.00000000E+00
  1.00000000E+00  4.93229477E-05  3.83207967E-04  2.00947816E-03  8.38950124E-03
  2.94843950E-02  8.78759948E-02  2.11589759E-01  3.65611554E-01  3.41246350E-01
  1.02162570E-01  2.14249949E-03 -2.21747925E-06 -1.71189708E-04 -1.27922846E-03
 -9.32956265E-03 -3.98910062E-02 -1.05536085E-01  9.36202446E-03  5.10511140E-01
  5.73150737E-01  4.03949245E-06  2.12481765E-04  8.59484452E-04  4.63248159E-03
  4.47343490E-04 -7.38438245E-02 -3.62271994E-01  1.16620337E+00  1.00000000E+00
  1.00000000E+00  1.00000000E+00  2.47206402E-03  1.97550234E-02  9.09917355E-02
  2.63187834E-01  4.49078073E-01  3.60183072E-01  3.03427809E-05 -1.22475826E-03
 -6.01429772E-03 -2.76401323E-02  4.35105612E-04  1.00307272E+00  1.00000000E+00
  1.00000000E+00  1.00000000E+00  1.00000000E+00  1.00000000E+00  1.00000000E+00
  1.00000000E+00  1.00000000E+00  2.54948632E-02  1.90362766E-01  8.52162022E-01
  1.00000000E+00  1.00000000E+00  1.00000000E+00  1.00000000E+00  1.00000000E+00
  1.00000000E+00  1.00000000E+00  1.00000000E+00
Coordinates of each shell                  R   N=         168
  0.00000000E+00  0.00000000E+00  0.00000000E+00  0.00000000E+00  0.00000000E+00
  0.00000000E+00  0.00000000E+00  0.00000000E+00  0.00000000E+00  0.00000000E+00
  0.00000000E+00  0.00000000E+00  0.00000000E+00  0.00000000E+00  0.00000000E+00
  0.00000000E+00  0.00000000E+00  0.00000000E+00  0.00000000E+00  0.00000000E+00
  0.00000000E+00  0.00000000E+00  0.00000000E+00  0.00000000E+00  0.00000000E+00
  0.00000000E+00  0.00000000E+00  0.00000000E+00  0.00000000E+00  0.00000000E+00
  0.00000000E+00  0.00000000E+00  0.00000000E+00  0.00000000E+00  0.00000000E+00
  0.00000000E+00  0.00000000E+00  0.00000000E+00  0.00000000E+00  0.00000000E+00
  0.00000000E+00  0.00000000E+00  6.25933684E+00  0.00000000E+00  0.00000000E+00
  6.25933684E+00  0.00000000E+00  0.00000000E+00  6.25933684E+00  0.00000000E+00
  0.00000000E+00  6.25933684E+00  0.00000000E+00  0.00000000E+00  6.25933684E+00
  0.00000000E+00  0.00000000E+00  6.25933684E+00  0.00000000E+00  0.00000000E+00
  6.25933684E+00  0.00000000E+00  0.00000000E+00  6.25933684E+00  0.00000000E+00
  0.00000000E+00  6.25933684E+00  0.00000000E+00  0.00000000E+00  6.25933684E+00
  0.00000000E+00  0.00000000E+00  6.25933684E+00  0.00000000E+00  0.00000000E+00
  6.25933684E+00  0.00000000E+00  0.00000000E+00  6.25933684E+00  0.00000000E+00
  0.00000000E+00  6.25933684E+00  0.00000000E+00  0.00000000E+00  6.25933684E+00
  0.00000000E+00  0.00000000E+00  6.25933684E+00  0.00000000E+00  0.00000000E+00
  6.25933684E+00  0.00000000E+00  0.00000000E+00 -7.30225624E-01  3.10228121E+00
  0.00000000E+00 -7.30225624E-01  3.10228121E+00  0.00000000E+00 -7.30225624E-01
  3.10228121E+00  0.00000000E+00 -7.30225624E-01  3.10228121E+00  0.00000000E+00
 -7.30225624E-01  3.10228121E+00  0.00000000E+00 -7.30225624E-01  3.10228121E+00
  0.00000000E+00 -7.30225624E-01  3.10228121E+00  0.00000000E+00 -7.30225624E-01
  3.10228121E+00  0.00000000E+00 -7.30225624E-01  3.10228121E+00  0.00000000E+00
 -7.30225624E-01  3.10228121E+00  0.00000000E+00 -7.30225624E-01  3.10228121E+00
  0.00000000E+00 -7.30225624E-01  3.10228121E+00  0.00000000E+00 -7.30225624E-01
  3.10228121E+00  0.00000000E+00 -7.30225624E-01  3.10228121E+00  0.00000000E+00
 -7.30225624E-01  3.10228121E+00  0.00000000E+00 -7.30225624E-01  3.10228121E+00
  0.00000000E+00  1.77501587E+00  0.00000000E+00  6.46052944E-01  1.77501587E+00
  0.00000000E+00  6.46052944E-01  1.77501587E+00  0.00000000E+00  6.46052944E-01
  1.77501587E+00  0.00000000E+00  6.46052944E-01  1.77501587E+00  0.00000000E+00
  6.46052944E-01  1.77501587E+00  0.00000000E+00  6.46052944E-01  1.77501587E+00
  0.00000000E+00  6.46052944E-01  1.77501587E+00  0.00000000E+00  6.46052944E-01
  1.77501587E+00  0.00000000E+00  6.46052944E-01
Num ILSW                                   I              100
ILSW                                       I   N=         100
           0           0           0           0           2           0
           0           0           0           0           0          -1
           5           0           0           0           0           0
           0           0           0           0           0           0
           1           1           0           0           0           0
           0           0      100000           0          -1           0
           0           0           0           0           0           0
           0           0           0           1           0           0
           0 -2000000000           1           0           0           0
           0           0           4          52           0           0
           0           0           0           0           0           0
           0           0           0           4           0           1
           0           0           0           0           0           0
           0           0           0           0           0           0
           0           0           0           0           0           0
           0           0           0           0           0           0
           0           0           0           0
Num RLSW                                   I               52
RLSW                                       R   N=          52
  1.00000000E+00  1.00000000E+00  1.00000000E+00  1.00000000E+00  1.00000000E+00
  0.00000000E+00  0.00000000E+00  1.00000000E+00  0.00000000E+00  0.00000000E+00
  0.00000000E+00  0.00000000E+00  1.00000000E+00  0.00000000E+00  0.00000000E+00
  0.00000000E+00  0.00000000E+00  1.00000000E+00  0.00000000E+00  0.00000000E+00
  0.00000000E+00  0.00000000E+00  1.00000000E+00  0.00000000E+00  0.00000000E+00
  0.00000000E+00  0.00000000E+00  1.00000000E+00  0.00000000E+00  0.00000000E+00
  0.00000000E+00  0.00000000E+00  1.00000000E+00  0.00000000E+00  0.00000000E+00
  0.00000000E+00  0.00000000E+00  0.00000000E+00  1.00000000E+00  1.00000000E+00
  0.00000000E+00  1.00000000E+00  0.00000000E+00  0.00000000E+00  0.00000000E+00
  0.00000000E+00  0.00000000E+00  0.00000000E+00  0.00000000E+00  0.00000000E+00
  0.00000000E+00  0.00000000E+00
ECP-MxAtEC                                 I           250000
ECP-MaxLECP                                I               10
ECP-MaxAtL                                 I          2250000
ECP-MxTECP                                 I         11250000
ECP-LenNCZ                                 I               16
ECP-KFirst                                 I   N=          40
           0           1           0           0           0           2
           0           0           0           5           0           0
           0           9           0           0           0          13
           0           0           0           0           0           0
           0           0           0           0           0           0
           0           0           0           0           0           0
           0           0           0           0
ECP-KLast                                  I   N=          40
           0           1           0           0           0           4
           0           0           0           8           0           0
           0          12           0           0           0          16
           0           0           0           0           0           0
           0           0           0           0           0           0
           0           0           0           0           0           0
           0           0           0           0
ECP-LMax                                   I   N=           4
           0           4           0           0
ECP-LPSkip                                 I   N=           4
           1           0           1           1
ECP-RNFroz                                 R   N=           4
  0.00000000E+00  2.80000000E+01  0.00000000E+00  0.00000000E+00
ECP-NLP                                    I   N=          16
           2           2           2           2           2           2
           2           2           2           2           2           2
           2           2           2           2
ECP-CLP1                                   R   N=          16
  0.00000000E+00  4.99896490E+01  2.81006556E+02  6.14167390E+01  6.74162390E+01
  1.34807696E+02  1.45665480E+01  2.89684220E+01  3.55387560E+01  5.33397590E+01
  9.71646600E+00  1.49775000E+01 -2.01766180E+01 -2.60880770E+01 -2.20434000E-01
 -2.21646000E-01
ECP-CLP2                                   R   N=          16
  0.00000000E+00  0.00000000E+00  0.00000000E+00  0.00000000E+00  0.00000000E+00
  0.00000000E+00  0.00000000E+00  0.00000000E+00  0.00000000E+00  0.00000000E+00
  0.00000000E+00  0.00000000E+00  0.00000000E+00  0.00000000E+00  0.00000000E+00
  0.00000000E+00
ECP-ZLP                                    R   N=          16
  1.00000000E+00  4.00333760E+01  1.73005760E+01  8.85172000E+00  1.57201410E+01
  1.52082220E+01  8.29418600E+00  7.75394900E+00  1.38177510E+01  1.35878050E+01
  6.94763000E+00  6.96009900E+00  1.85229500E+01  1.82510350E+01  7.55790100E+00
  7.59740400E+00
MxBond                                     I                2
NBond                                      I   N=           4
           2           0           1           1
IBond                                      I   N=           8
           3           4           0           0           1           0
           1           0
RBond                                      R   N=           8
  1.00000000E+00  1.00000000E+00  0.00000000E+00  0.00000000E+00  1.00000000E+00
  0.00000000E+00  1.00000000E+00  0.00000000E+00
Virial Ratio                               R      2.285037841838125E+00
SCF Energy                                 R     -8.296833598727067E+02
MP2 Energy                                 R     -8.303647860670847E+02
Total Energy                               R     -8.303647860670847E+02
Post-SCF wavefunction norm                 R      1.108434692473955E+00
RMS Density                                R      8.458567498199570E-09
Job Status                                 I                1
Nuclear derivative order                   I                0
External E-field                           R   N=          35
  0.00000000E+00  0.00000000E+00  0.00000000E+00  0.00000000E+00  0.00000000E+00
  0.00000000E+00  0.00000000E+00  0.00000000E+00  0.00000000E+00  0.00000000E+00
  0.00000000E+00  0.00000000E+00  0.00000000E+00  0.00000000E+00  0.00000000E+00
  0.00000000E+00  0.00000000E+00  0.00000000E+00  0.00000000E+00  0.00000000E+00
  0.00000000E+00  0.00000000E+00  0.00000000E+00  0.00000000E+00  0.00000000E+00
  0.00000000E+00  0.00000000E+00  0.00000000E+00  0.00000000E+00  0.00000000E+00
  0.00000000E+00  0.00000000E+00  0.00000000E+00  0.00000000E+00  0.00000000E+00
IOpCl                                      I                0
IROHF                                      I                0
Alpha Orbital Energies                     R   N=         174
 -1.04744060E+02 -2.04806794E+01 -1.04635595E+01 -7.93073383E+00 -7.92801135E+00
 -7.92789082E+00 -7.47531072E+00 -5.30112841E+00 -5.30049281E+00 -5.30044833E+00
 -2.02866281E+00 -2.02832542E+00 -2.02829674E+00 -2.02758969E+00 -2.02758858E+00
 -1.24780101E+00 -9.09577833E-01 -6.40218417E-01 -5.54778909E-01 -4.57803859E-01
 -4.49176278E-01 -3.20702630E-01 -2.94692779E-01 -1.59154361E-01 -1.50345016E-01
 -1.50041237E-01  1.51119020E-01  1.75415982E-01  2.15550542E-01  2.24574305E-01
  2.40443693E-01  2.50603112E-01  2.52977860E-01  2.74066183E-01  2.88701121E-01
  2.97026740E-01  3.09223434E-01  3.21337083E-01  3.46015654E-01  3.71621222E-01
  3.79554180E-01  3.83510151E-01  4.20759002E-01  4.32260535E-01  4.53676585E-01
  4.99011474E-01  5.20442607E-01  5.35098580E-01  5.45565400E-01  5.64001606E-01
  5.74702034E-01  5.86295718E-01  6.39537400E-01  6.55383999E-01  7.07302556E-01
  7.49790705E-01  7.59750546E-01  7.72836166E-01  7.76504968E-01  7.92091924E-01
  7.93282410E-01  8.00819633E-01  8.10365485E-01  8.31683598E-01  8.40706400E-01
  8.54344288E-01  8.69416790E-01  8.74841606E-01  8.79832963E-01  8.87987950E-01
  9.02885615E-01  9.28933108E-01  9.46610051E-01  9.65264979E-01  9.81747094E-01
  1.00013241E+00  1.03764804E+00  1.05486501E+00  1.07351689E+00  1.09821003E+00
  1.12023574E+00  1.16018355E+00  1.18221444E+00  1.20194875E+00  1.22048360E+00
  1.22814125E+00  1.25680396E+00  1.29799071E+00  1.36792663E+00  1.38259647E+00
  1.41760694E+00  1.43154859E+00  1.52086321E+00  1.55439306E+00  1.60557493E+00
  1.61602519E+00  1.66622019E+00  1.67720627E+00  1.71913425E+00  1.74267938E+00
  1.74754165E+00  1.74823158E+00  1.76611255E+00  1.77440801E+00  1.79861605E+00
  1.84253664E+00  1.85723665E+00  1.87592465E+00  1.91237883E+00  1.96533670E+00
  2.05356693E+00  2.05471684E+00  2.09672873E+00  2.12715595E+00  2.14151604E+00
  2.25182588E+00  2.39474593E+00  2.43217776E+00  2.49490647E+00  2.51342719E+00
  2.55049599E+00  2.59159318E+00  2.60840536E+00  2.63871003E+00  2.67070721E+00
  2.69451524E+00  2.71233180E+00  2.72131138E+00  2.75676249E+00  2.76406635E+00
  2.79985682E+00  2.97843872E+00  3.01484889E+00  3.08420894E+00  3.16135038E+00
  3.18880003E+00  3.20886959E+00  3.21926950E+00  3.24522114E+00  3.27442075E+00
  3.29517978E+00  3.35613480E+00  3.50687833E+00  3.52836437E+00  3.53526986E+00
  3.82099320E+00  3.90809487E+00  4.27858207E+00  4.31566354E+00  4.49337784E+00
  4.56381632E+00  4.63479513E+00  4.73209371E+00  4.95997384E+00  5.01258825E+00
  5.34333629E+00  5.39508649E+00  5.66340980E+00  6.38704877E+00  6.56710698E+00
  6.84612015E+00  6.88770875E+00  6.90262609E+00  6.97268016E+00  7.29227871E+00
  7.33753441E+00  7.34082984E+00  7.41977696E+00  7.53369553E+00  7.69596045E+00
  7.75484855E+00  8.34143397E+00  1.44175087E+01  5.92066770E+01
Alpha MO coefficients                      R   N=       30276
  5.56382591E-06  3.07867395E-05  1.86683359E-06 -1.46541206E-04 -9.02206855E-05
  2.13432235E-07  3.07962203E-06  6.37922789E-07 -2.97761452E-06 -9.06682765E-06
 -3.09426297E-06  4.77809913E-05 -1.55959499E-04  1.74173590E-06  1.35763191E-05
 -3.63539550E-05  3.60406617E-06 -2.11277072E-06  2.50224405E-07  5.77481408E-08
 -3.09426521E-06 -1.37607816E-06  1.38749080E-05 -1.02524702E-06 -4.90430219E-07
  2.09371155E-05  9.14882581E-06  2.63959566E-05  4.90276125E-06 -4.58486319E-06
  5.79193523E-05  1.13227627E-05 -2.37869923E-07 -1.90392722E-07  6.98969156E-08
 -4.36220739E-07  5.12601158E-07 -1.47920392E-06  9.16769234E-07  3.24447672E-07
 -2.60533648E-06  1.27159863E-05  2.15013304E-06 -2.22739969E-06 -5.33056318E-06
  9.30078290E-06 -4.61144697E-08  6.58806884E-08 -2.77264565E-07  1.69202139E-05
 -3.36319994E-05 -3.23433328E-06  5.45570661E-07  1.47871135E-07 -2.00331152E-07
  9.37832219E-07  1.34054395E-06 -7.07864975E-07 -1.86013912E-06 -3.22541198E-07
  6.02353920E-07  2.17624306E-05 -3.87950808E-06 -3.73861870E-06  2.29245804E-06
 -2.85159512E-08  5.94902330E-07  9.05130347E-08  8.31307241E-08 -3.53003031E-08
 -2.14353063E-07  1.00228603E-07 -7.28135863E-07 -6.43883140E-07  1.27753220E-07
  1.49550088E-06 -5.99890963E-07  3.49604057E-06  3.15176736E-06 -6.31411410E-08
 -6.71149747E-06  1.46605130E-06  3.63775254E-06  1.25364524E-06 -9.28631739E-07
 -5.50032067E-06  1.98804974E-06  7.45245315E-08 -4.35548679E-08  2.61405194E-08
 -2.05321372E-07 -6.72020176E-07 -1.64342357E-07  1.79702656E-07  1.13850796E-06
 -2.03175953E-06  2.09343930E-07 -1.23679575E-06  1.33119488E-06  3.04181397E-06
 -1.26827493E-06  9.99534914E-01  1.95301900E-03  1.83580858E-04 -4.17205490E-04
  7.28162305E-05  7.75169889E-05  1.74355314E-05 -7.61827873E-05  1.41473043E-06
  3.63073992E-05 -1.34761478E-04  2.44611411E-06 -1.78228744E-05  7.22289411E-05
 -1.34102807E-06  5.74949661E-06 -5.82901558E-05 -2.64461862E-06  2.22821243E-06
 -1.20555842E-05 -1.03411764E-06 -3.76297732E-06  1.19449646E-07 -1.44043774E-07
 -5.19172879E-06 -3.33895577E-06 -2.84824494E-05  3.72974907E-07 -6.89500906E-07
 -4.39023474E-05 -2.37043292E-05 -2.14409269E-06 -2.82981020E-06  7.77469754E-07
 -9.64947315E-06 -1.20622415E-07 -5.49735002E-07 -1.77324211E-06  6.05203677E-06
  3.70390486E-07 -8.16903296E-07 -4.71586404E-06  4.27454883E-06  1.07441396E-06
 -1.17512479E-07  3.37121282E-06 -1.06355407E-06  1.67193552E-06 -4.16816278E-06
  7.08135207E-06 -1.14309364E-06 -1.73765800E-05  3.52343786E-05 -9.16957098E-06
  1.13640970E-06 -2.55220283E-06  2.44905001E-07 -1.12256471E-05  1.71160514E-05
 -1.88775710E-06  1.37417267E-05  2.15180015E-05 -2.54611665E-06 -5.19868043E-07
  2.06740613E-07 -5.04714848E-08 -1.02733059E-06 -1.00326275E-06 -1.09115877E-05
  3.10681650E-06 -1.52954460E-06  7.13159304E-06 -3.97541728E-06  9.76825408E-01
 -9.14831844E-03  4.33762755E-02  1.81304387E-03  8.51739012E-04  8.63156078E-04
  1.56795335E-03  5.34621034E-04 -9.82032715E-04 -1.20093863E-03 -5.45905426E-04
 -2.28848840E-04  5.53226961E-04 -3.30254343E-04 -1.05306014E-04  2.27058107E-04
 -3.02526988E-05  4.64496519E-05  2.05122755E-05 -1.69051196E-06  1.01499635E-04
  4.06176462E-05  3.65894951E-04 -3.25617723E-04 -1.22789907E-05  2.00620264E-05
  1.52853710E-04 -1.99850061E-04 -7.98999327E-05 -3.01974424E-05 -1.87495803E-04
 -1.47721938E-04  9.51927691E-06  4.04939270E-06  1.77528848E-05 -2.85722796E-06
 -8.02600772E-06 -5.96793129E-06  7.64662318E-06  4.39586578E-05 -7.02903605E-06
  3.29534832E-06 -8.83500818E-05 -2.50157772E-05 -9.98610259E-05 -5.32941793E-05
 -2.89784241E-07  7.64412714E-06  1.72791380E-04 -8.28094993E-05 -6.37206996E-04
 -2.60332669E-04  6.47666940E-05  1.08175716E-06 -1.19695402E-05  4.12886169E-04
 -6.96489551E-07 -3.91906836E-05 -1.73533804E-04 -3.17330882E-06  3.84517984E-05
  4.09921979E-04  3.77423229E-05 -2.63606165E-04  5.56776401E-05 -1.72062313E-05
 -2.18061856E-05 -4.92562003E-06  4.97448476E-06  2.71093362E-07  3.78948596E-06
 -2.42773796E-06  2.07142145E-05 -4.21137445E-05 -1.04538665E-06 -8.41773040E-06
  1.25382551E-05  7.18487429E-05  2.08148414E-04  1.02606252E-06 -2.05999287E-04
 -3.37753110E-05  4.48207275E-05  1.48807404E-04  8.97360065E-06 -1.12848418E-04
  6.04937582E-06 -3.25946617E-07 -2.52243902E-05 -3.61305730E-06  6.23831911E-06
  5.08469876E-06  1.81526389E-05  6.20677177E-07  9.43097085E-05  2.91980637E-05
  4.20902211E-06 -1.39324841E-04 -1.12592117E-05  5.68480385E-05  8.93755674E-06
  4.15732360E-06  7.04014844E-05  7.68745022E-05 -2.79289426E-04  4.41782903E-05
 -6.08792820E-04 -2.59684976E-06 -8.59253212E-06 -1.65191433E-06  5.22950851E-05
 -5.73437967E-04 -2.83276107E-05 -3.99716584E-05  2.55843931E-04  7.62747805E-06
  1.65869771E-04  3.60696687E-04  9.97700936E-05 -9.17403377E-06  1.34438870E-04
  3.45819729E-07  1.47490633E-05 -5.00649462E-06  4.44355954E-09  8.25808881E-06
  1.03862715E-05 -3.06967115E-04  1.30666733E-05  1.76854743E-05 -4.52442104E-04
 -1.85340549E-04  1.10150860E-04  2.72166583E-05 -6.73431803E-05  2.85394796E-04
 -4.33593011E-05  1.03393336E-05 -2.68538189E-05  1.60672100E-04  4.60561749E-06
  8.21304502E-06 -1.21207746E-04  1.88624487E-04 -1.85517975E-05 -4.28317118E-05
  1.00196632E-04  7.37480768E-06 -2.05790551E-05 -6.99814390E-05  5.03583918E-05
  3.68059744E-04  1.45878804E-03  4.40083351E-04  1.19770096E-04 -2.36161118E-04
  4.82465554E-05 -9.05820299E-05 -1.21537438E-03  3.14294961E-05 -2.62942787E-04
  8.66949933E-04 -2.11874785E-04  3.18593561E-04 -4.45829102E-06 -1.28309176E-05
 -2.61200051E-05 -8.24581619E-06 -6.81086178E-05 -3.85058172E-04  2.60690259E-04
  3.86248545E-06  8.47196982E-04  8.00613115E-06 -7.21134255E-05 -7.62733834E-05
 -1.07360519E-04  2.80462157E-03  2.23476923E-03 -2.40906765E-05  3.68091539E-05
 -9.85396760E-06 -4.60674122E-05  5.82507135E-04  5.59552975E-05 -4.97871398E-04
  2.59505281E-03  5.24159109E-05 -2.55663019E-04  9.28811954E-04 -8.02153468E-05
 -2.46996008E-05 -5.70598174E-06 -4.85336130E-06 -4.39547881E-05 -3.41963447E-05
 -1.97688010E-04  4.17767500E-05  3.91428135E-05 -2.55602312E-04 -3.75540336E-05
 -2.98368049E-04 -4.93829262E-05  1.11588259E-04 -7.32297209E-04  1.26196249E-04
 -1.80879578E-06  5.98150227E-06 -2.43921074E-05  1.11716374E-05 -6.03540264E-06
  4.92005778E-05 -4.04788149E-05 -9.80029140E-06  2.02937980E-06 -4.00488783E-05