 Entering Gaussian System, Link 0=g16
 Input=ihocl_20_sp.gjf
 Output=ihocl_20_sp.log
 Initial command:
 /sw/contrib/gaussian/g16/B01/g16/l1.exe "/scr/Gau-158005.inp" -scrdir="/scr/"
 Entering Link 1 = /sw/contrib/gaussian/g16/B01/g16/l1.exe PID=    158006.
  
 Copyright (c) 1988-2017, Gaussian, Inc.  All Rights Reserved.
  
 This is part of the Gaussian(R) 16 program.  It is based on
 the Gaussian(R) 09 system (copyright 2009, Gaussian, Inc.),
 the Gaussian(R) 03 system (copyright 2003, Gaussian, Inc.),
 the Gaussian(R) 98 system (copyright 1998, Gaussian, Inc.),
 the Gaussian(R) 94 system (copyright 1995, Gaussian, Inc.),
 the Gaussian 92(TM) system (copyright 1992, Gaussian, Inc.),
 the Gaussian 90(TM) system (copyright 1990, Gaussian, Inc.),
 the Gaussian 88(TM) system (copyright 1988, Gaussian, Inc.),
 the Gaussian 86(TM) system (copyright 1986, Carnegie Mellon
 University), and the Gaussian 82(TM) system (copyright 1983,
 Carnegie Mellon University). Gaussian is a federally registered
 trademark of Gaussian, Inc.
  
 This software contains proprietary and confidential information,
 including trade secrets, belonging to Gaussian, Inc.
  
 This software is provided under written license and may be
 used, copied, transmitted, or stored only in accord with that
 written license.
  
 The following legend is applicable only to US Government
 contracts under FAR:
  
                    RESTRICTED RIGHTS LEGEND
  
 Use, reproduction and disclosure by the US Government is
 subject to restrictions as set forth in subparagraphs (a)
 and (c) of the Commercial Computer Software - Restricted
 Rights clause in FAR 52.227-19.
  
 Gaussian, Inc.
 340 Quinnipiac St., Bldg. 40, Wallingford CT 06492
  
  
 ---------------------------------------------------------------
 Warning -- This program may not be used in any manner that
 competes with the business of Gaussian, Inc. or will provide
 assistance to any competitor of Gaussian, Inc.  The licensee
 of this program is prohibited from giving any competitor of
 Gaussian, Inc. access to this program.  By using this program,
 the user acknowledges that Gaussian, Inc. is engaged in the
 business of creating and licensing software in the field of
 computational chemistry and represents and warrants to the
 licensee that it is not a competitor of Gaussian, Inc. and that
 it will not use this program in any manner prohibited above.
 ---------------------------------------------------------------
  

 Cite this work as:
 Gaussian 16, Revision B.01,
 M. J. Frisch, G. W. Trucks, H. B. Schlegel, G. E. Scuseria, 
 M. A. Robb, J. R. Cheeseman, G. Scalmani, V. Barone, 
 G. A. Petersson, H. Nakatsuji, X. Li, M. Caricato, A. V. Marenich, 
 J. Bloino, B. G. Janesko, R. Gomperts, B. Mennucci, H. P. Hratchian, 
 J. V. Ortiz, A. F. Izmaylov, J. L. Sonnenberg, D. Williams-Young, 
 F. Ding, F. Lipparini, F. Egidi, J. Goings, B. Peng, A. Petrone, 
 T. Henderson, D. Ranasinghe, V. G. Zakrzewski, J. Gao, N. Rega, 
 G. Zheng, W. Liang, M. Hada, M. Ehara, K. Toyota, R. Fukuda, 
 J. Hasegawa, M. Ishida, T. Nakajima, Y. Honda, O. Kitao, H. Nakai, 
 T. Vreven, K. Throssell, J. A. Montgomery, Jr., J. E. Peralta, 
 F. Ogliaro, M. J. Bearpark, J. J. Heyd, E. N. Brothers, K. N. Kudin, 
 V. N. Staroverov, T. A. Keith, R. Kobayashi, J. Normand, 
 K. Raghavachari, A. P. Rendell, J. C. Burant, S. S. Iyengar, 
 J. Tomasi, M. Cossi, J. M. Millam, M. Klene, C. Adamo, R. Cammi, 
 J. W. Ochterski, R. L. Martin, K. Morokuma, O. Farkas, 
 J. B. Foresman, and D. J. Fox, Gaussian, Inc., Wallingford CT, 2016.
 
 ******************************************
 Gaussian 16:  ES64L-G16RevB.01 20-Dec-2017
                28-Sep-2021 
 ******************************************
 %nproc=28
 Will use up to   28 processors via shared memory.
 %mem=120GB
 %chk=/gscratch/ilahie/mccoygrp/coire_hocl/ihocl/ihocl_20_sp.chk
 --------------------------------------------------------
 #p pop=NBO SP NoSymm mp2/gen Pseudo=read density=current
 --------------------------------------------------------
 1/30=1,38=1,172=1/1;
 2/12=2,15=1,17=6,18=5,40=1/2;
 3/5=7,11=9,16=1,17=8,25=1,30=1,71=1/1,2,3;
 4//1;
 5/5=2,38=5/2;
 8/6=4,10=1/1;
 9/15=1,16=-3/6;
 10/5=1,13=10,31=1/2;
 6/7=2,8=2,9=2,10=2,22=-1,40=1/1,7;
 99/5=1,9=1/99;
 Leave Link    1 at Tue Sep 28 09:16:11 2021, MaxMem= 16106127360 cpu:               0.8 elap:               0.0
 (Enter /sw/contrib/gaussian/g16/B01/g16/l101.exe)
 -----
 title
 -----
 Symbolic Z-matrix:
 Charge = -1 Multiplicity = 1
 O                     0.        0.        0. 
 I                     3.3123    0.        0. 
 Cl                   -0.38642   1.64166   0. 
 H                     0.9393    0.        0.34188 
 
 ITRead=  0  0  0  0
 MicOpt= -1 -1 -1 -1
 NAtoms=      4 NQM=        4 NQMF=       0 NMMI=      0 NMMIF=      0
                NMic=       0 NMicF=      0.
                    Isotopes and Nuclear Properties:
 (Nuclear quadrupole moments (NQMom) in fm**2, nuclear magnetic moments (NMagM)
  in nuclear magnetons)

  Atom         1           2           3           4
 IAtWgt=          16         127          35           1
 AtmWgt=  15.9949146 126.9004000  34.9688527   1.0078250
 NucSpn=           0           5           3           1
 AtZEff=  -0.0000000  -0.0000000  -0.0000000  -0.0000000
 NQMom=    0.0000000 -71.0000000  -8.1650000   0.0000000
 NMagM=    0.0000000   2.8132800   0.8218740   2.7928460
 AtZNuc=   8.0000000  53.0000000  17.0000000   1.0000000
 Leave Link  101 at Tue Sep 28 09:16:11 2021, MaxMem= 16106127360 cpu:               2.5 elap:               0.1
 (Enter /sw/contrib/gaussian/g16/B01/g16/l202.exe)
                          Input orientation:                          
 ---------------------------------------------------------------------
 Center     Atomic      Atomic             Coordinates (Angstroms)
 Number     Number       Type             X           Y           Z
 ---------------------------------------------------------------------
      1          8           0        0.000000    0.000000    0.000000
      2         53           0        3.312298    0.000000    0.000000
      3         17           0       -0.386419    1.641657    0.000000
      4          1           0        0.939298    0.000000    0.341876
 ---------------------------------------------------------------------
                    Distance matrix (angstroms):
                    1          2          3          4
     1  O    0.000000
     2  I    3.312298   0.000000
     3  Cl   1.686522   4.046671   0.000000
     4  H    0.999580   2.397501   2.137625   0.000000
 Symmetry turned off by external request.
 Stoichiometry    ClHIO(1-)
 Framework group  C1[X(ClHIO)]
 Deg. of freedom     6
 Full point group                 C1      NOp   1
 Rotational constants (GHZ):          21.6320915           0.9690914           0.9279272
 Leave Link  202 at Tue Sep 28 09:16:11 2021, MaxMem= 16106127360 cpu:               0.2 elap:               0.0
 (Enter /sw/contrib/gaussian/g16/B01/g16/l301.exe)
 General basis read from cards:  (5D, 7F)
 Centers:       4      1      3
 aug-cc-pVTZ
 ****
 Centers:       2
 S 11 1.00
     Exponent=  5.5465000000D+03 Coefficients=  1.5600000000D-04
     Exponent=  8.3821400000D+02 Coefficients=  9.8600000000D-04
     Exponent=  1.8218700000D+02 Coefficients=  2.7920000000D-03
     Exponent=  3.1212300000D+01 Coefficients= -4.3251000000D-02
     Exponent=  1.9531400000D+01 Coefficients=  2.3413400000D-01
     Exponent=  8.2409900000D+00 Coefficients= -7.5094300000D-01
     Exponent=  2.1945500000D+00 Coefficients=  8.8296800000D-01
     Exponent=  1.1091100000D+00 Coefficients=  4.6206100000D-01
     Exponent=  3.7464100000D-01 Coefficients=  2.2286000000D-02
     Exponent=  1.7708000000D-01 Coefficients= -4.3530000000D-03
     Exponent=  8.1061000000D-02 Coefficients=  1.1020000000D-03
 S 11 1.00
     Exponent=  5.5465000000D+03 Coefficients= -7.3000000000D-05
     Exponent=  8.3821400000D+02 Coefficients= -5.0800000000D-04
     Exponent=  1.8218700000D+02 Coefficients= -1.1580000000D-03
     Exponent=  3.1212300000D+01 Coefficients=  1.2193000000D-02
     Exponent=  1.9531400000D+01 Coefficients= -8.7854000000D-02
     Exponent=  8.2409900000D+00 Coefficients=  3.3820000000D-01
     Exponent=  2.1945500000D+00 Coefficients= -5.7655000000D-01
     Exponent=  1.1091100000D+00 Coefficients= -4.0929800000D-01
     Exponent=  3.7464100000D-01 Coefficients=  5.6745900000D-01
     Exponent=  1.7708000000D-01 Coefficients=  6.1248900000D-01
     Exponent=  8.1061000000D-02 Coefficients=  1.4323100000D-01
 S 1 1.00
     Exponent=  3.7464100000D-01 Coefficients=  1.0000000000D+00
 S 1 1.00
     Exponent=  1.7708000000D-01 Coefficients=  1.0000000000D+00
 S 1 1.00
     Exponent=  1.0010000000D-01 Coefficients=  1.0000000000D+00
 S 1 1.00
     Exponent=  4.1200000000D-02 Coefficients=  1.0000000000D+00
 P 9 1.00
     Exponent=  1.8898800000D+02 Coefficients=  5.8500000000D-04
     Exponent=  2.1286800000D+01 Coefficients=  3.6923000000D-02
     Exponent=  1.0039600000D+01 Coefficients= -2.3532400000D-01
     Exponent=  3.4518000000D+00 Coefficients=  3.4148300000D-01
     Exponent=  1.9745600000D+00 Coefficients=  5.3478800000D-01
     Exponent=  1.0242000000D+00 Coefficients=  2.6514100000D-01
     Exponent=  4.4943700000D-01 Coefficients=  2.5787000000D-02
     Exponent=  1.8664800000D-01 Coefficients=  5.2200000000D-04
     Exponent=  7.3481000000D-02 Coefficients=  6.0600000000D-04
 P 9 1.00
     Exponent=  1.8898800000D+02 Coefficients= -2.5600000000D-04
     Exponent=  2.1286800000D+01 Coefficients= -1.1682000000D-02
     Exponent=  1.0039600000D+01 Coefficients=  8.3192000000D-02
     Exponent=  3.4518000000D+00 Coefficients= -1.5697000000D-01
     Exponent=  1.9745600000D+00 Coefficients= -2.2451800000D-01
     Exponent=  1.0242000000D+00 Coefficients= -1.1445100000D-01
     Exponent=  4.4943700000D-01 Coefficients=  3.7535600000D-01
     Exponent=  1.8664800000D-01 Coefficients=  5.7513600000D-01
     Exponent=  7.3481000000D-02 Coefficients=  2.4591700000D-01
 P 1 1.00
     Exponent=  5.9810000000D-01 Coefficients=  1.0000000000D+00
 P 1 1.00
     Exponent=  9.6180000000D-02 Coefficients=  1.0000000000D+00
 P 1 1.00
     Exponent=  3.5900000000D-02 Coefficients=  1.0000000000D+00
 D 9 1.00
     Exponent=  1.3266200000D+02 Coefficients=  5.7200000000D-04
     Exponent=  3.7605400000D+01 Coefficients=  4.4020000000D-03
     Exponent=  1.0389100000D+01 Coefficients= -4.0922000000D-02
     Exponent=  6.4901700000D+00 Coefficients=  9.9661000000D-02
     Exponent=  3.4545100000D+00 Coefficients=  3.2266300000D-01
     Exponent=  1.8441300000D+00 Coefficients=  4.0034300000D-01
     Exponent=  9.6247800000D-01 Coefficients=  2.6830600000D-01
     Exponent=  4.7285300000D-01 Coefficients=  8.4847000000D-02
     Exponent=  1.9320000000D-01 Coefficients=  7.6320000000D-03
 D 1 1.00
     Exponent=  4.7285300000D-01 Coefficients=  1.0000000000D+00
 D 1 1.00
     Exponent=  1.9320000000D-01 Coefficients=  1.0000000000D+00
 D 1 1.00
     Exponent=  7.8200000000D-02 Coefficients=  1.0000000000D+00
 F 1 1.00
     Exponent=  4.0640000000D-01 Coefficients=  1.0000000000D+00
 F 1 1.00
     Exponent=  1.8480000000D-01 Coefficients=  1.0000000000D+00
 ****
 ======================================================================================================
                                       Pseudopotential Parameters
 ======================================================================================================
  Center     Atomic      Valence      Angular      Power
  Number     Number     Electrons     Momentum     of R      Exponent        Coefficient   SO-Coeffient
 ======================================================================================================
    1          8
                                   No pseudopotential on this center.
    2         53           25
                                      G and up 
                                                     2        1.0000000        0.00000000    0.00000000
                                      S - G
                                                     2       40.0333760       49.98964900    0.00000000
                                                     2       17.3005760      281.00655600    0.00000000
                                                     2        8.8517200       61.41673900    0.00000000
                                      P - G
                                                     2       15.7201410       67.41623900    0.00000000
                                                     2       15.2082220      134.80769600    0.00000000
                                                     2        8.2941860       14.56654800    0.00000000
                                                     2        7.7539490       28.96842200    0.00000000
                                      D - G
                                                     2       13.8177510       35.53875600    0.00000000
                                                     2       13.5878050       53.33975900    0.00000000
                                                     2        6.9476300        9.71646600    0.00000000
                                                     2        6.9600990       14.97750000    0.00000000
                                      F - G
                                                     2       18.5229500      -20.17661800    0.00000000
                                                     2       18.2510350      -26.08807700    0.00000000
                                                     2        7.5579010       -0.22043400    0.00000000
                                                     2        7.5974040       -0.22164600    0.00000000
    3         17
                                   No pseudopotential on this center.
    4          1
                                   No pseudopotential on this center.
 ======================================================================================================
 Ernie: Thresh=  0.10000D-02 Tol=  0.10000D-05 Strict=F.
 Ernie:  23 primitive shells out of 166 were deleted.
   174 basis functions,   383 primitive gaussians,   204 cartesian basis functions
    26 alpha electrons       26 beta electrons
       nuclear repulsion energy       144.1630142371 Hartrees.
 IExCor=    0 DFT=F Ex=HF Corr=None ExCW=0 ScaHFX=  1.000000
 ScaDFX=  1.000000  1.000000  1.000000  1.000000 ScalE2=  1.000000  1.000000
 IRadAn=      5 IRanWt=     -1 IRanGd=            0 ICorTp=0 IEmpDi=  4
 NAtoms=    4 NActive=    4 NUniq=    4 SFac= 1.00D+00 NAtFMM=   60 NAOKFM=F Big=F
 Integral buffers will be    131072 words long.
 Raffenetti 1 integral format.
 Two-electron integral symmetry is turned off.
 Leave Link  301 at Tue Sep 28 09:16:11 2021, MaxMem= 16106127360 cpu:               2.9 elap:               0.2
 (Enter /sw/contrib/gaussian/g16/B01/g16/l302.exe)
 NPDir=0 NMtPBC=     1 NCelOv=     1 NCel=       1 NClECP=     1 NCelD=      1
         NCelK=      1 NCelE2=     1 NClLst=     1 CellRange=     0.0.
 One-electron integrals computed using PRISM.
   1 Symmetry operations used in ECPInt.
 ECPInt:  NShTT=    1596 NPrTT=   10643 LenC2=    1597 LenP2D=    8415.
 LDataN:  DoStor=T MaxTD1= 7 Len=  274
 NBasis=   174 RedAO= T EigKep=  2.57D-04  NBF=   174
 NBsUse=   174 1.00D-06 EigRej= -1.00D+00 NBFU=   174
 Leave Link  302 at Tue Sep 28 09:16:11 2021, MaxMem= 16106127360 cpu:               6.0 elap:               0.2
 (Enter /sw/contrib/gaussian/g16/B01/g16/l303.exe)
 DipDrv:  MaxL=1.
 Leave Link  303 at Tue Sep 28 09:16:11 2021, MaxMem= 16106127360 cpu:               0.7 elap:               0.0
 (Enter /sw/contrib/gaussian/g16/B01/g16/l401.exe)
 ExpMin= 2.53D-02 ExpMax= 4.56D+05 ExpMxC= 1.44D+03 IAcc=3 IRadAn=         5 AccDes= 0.00D+00
 Harris functional with IExCor=  205 and IRadAn=       5 diagonalized for initial guess.
 HarFok:  IExCor=  205 AccDes= 0.00D+00 IRadAn=         5 IDoV= 1 UseB2=F ITyADJ=14
 ICtDFT=  3500011 ScaDFX=  1.000000  1.000000  1.000000  1.000000
 Defaulting to unpruned grid for atomic number  53.
 FoFCou: FMM=F IPFlag=           0 FMFlag=      100000 FMFlg1=           0
         NFxFlg=           0 DoJE=T BraDBF=F KetDBF=T FulRan=T
         wScrn=  0.000000 ICntrl=       500 IOpCl=  0 I1Cent=   200000004 NGrid=           0
         NMat0=    1 NMatS0=      1 NMatT0=    0 NMatD0=    1 NMtDS0=    0 NMtDT0=    0
 Symmetry not used in FoFCou.
 Harris En= -831.055674031721    
 JPrj=0 DoOrth=F DoCkMO=F.
 Leave Link  401 at Tue Sep 28 09:16:12 2021, MaxMem= 16106127360 cpu:               6.6 elap:               0.3
 (Enter /sw/contrib/gaussian/g16/B01/g16/l502.exe)
 Keep R1 ints in memory in canonical form, NReq=173964133.
 FoFCou: FMM=F IPFlag=           0 FMFlag=           0 FMFlg1=           0
         NFxFlg=           0 DoJE=F BraDBF=F KetDBF=F FulRan=T
         wScrn=  0.000000 ICntrl=       600 IOpCl=  0 I1Cent=           0 NGrid=           0
         NMat0=    1 NMatS0=  15225 NMatT0=    0 NMatD0=    1 NMtDS0=    0 NMtDT0=    0
 Symmetry not used in FoFCou.
 Two-electron integral symmetry not used.
 Closed shell SCF:
 Using DIIS extrapolation, IDIIS=  1040.
 NGot= 16106127360 LenX= 15990129197 LenY= 15990087140
 Requested convergence on RMS density matrix=1.00D-08 within 128 cycles.
 Requested convergence on MAX density matrix=1.00D-06.
 Requested convergence on             energy=1.00D-06.
 No special actions if energy rises.

 Cycle   1  Pass 1  IDiag  1:
 E= -829.531331319778    
 DIIS: error= 2.60D-02 at cycle   1 NSaved=   1.
 NSaved= 1 IEnMin= 1 EnMin= -829.531331319778     IErMin= 1 ErrMin= 2.60D-02
 ErrMax= 2.60D-02  0.00D+00 EMaxC= 1.00D-01 BMatC= 4.50D-01 BMatP= 4.50D-01
 IDIUse=3 WtCom= 7.40D-01 WtEn= 2.60D-01
 Coeff-Com:  0.100D+01
 Coeff-En:   0.100D+01
 Coeff:      0.100D+01
 Gap=     0.408 Goal=   None    Shift=    0.000
 GapD=    0.408 DampG=2.000 DampE=0.500 DampFc=1.0000 IDamp=-1.
 RMSDP=3.18D-03 MaxDP=9.92D-02              OVMax= 1.17D-01

 Cycle   2  Pass 1  IDiag  1:
 E= -829.648892593184     Delta-E=       -0.117561273407 Rises=F Damp=F
 DIIS: error= 1.08D-02 at cycle   2 NSaved=   2.
 NSaved= 2 IEnMin= 2 EnMin= -829.648892593184     IErMin= 2 ErrMin= 1.08D-02
 ErrMax= 1.08D-02  0.00D+00 EMaxC= 1.00D-01 BMatC= 5.20D-02 BMatP= 4.50D-01
 IDIUse=3 WtCom= 8.92D-01 WtEn= 1.08D-01
 Coeff-Com:  0.190D+00 0.810D+00
 Coeff-En:   0.000D+00 0.100D+01
 Coeff:      0.169D+00 0.831D+00
 Gap=     0.296 Goal=   None    Shift=    0.000
 RMSDP=1.40D-03 MaxDP=7.20D-02 DE=-1.18D-01 OVMax= 7.49D-02

 Cycle   3  Pass 1  IDiag  1:
 E= -829.675097611348     Delta-E=       -0.026205018164 Rises=F Damp=F
 DIIS: error= 4.89D-03 at cycle   3 NSaved=   3.
 NSaved= 3 IEnMin= 3 EnMin= -829.675097611348     IErMin= 3 ErrMin= 4.89D-03
 ErrMax= 4.89D-03  0.00D+00 EMaxC= 1.00D-01 BMatC= 1.16D-02 BMatP= 5.20D-02
 IDIUse=3 WtCom= 9.51D-01 WtEn= 4.89D-02
 Coeff-Com: -0.144D-02 0.312D+00 0.690D+00
 Coeff-En:   0.000D+00 0.751D-01 0.925D+00
 Coeff:     -0.137D-02 0.300D+00 0.701D+00
 Gap=     0.299 Goal=   None    Shift=    0.000
 RMSDP=3.85D-04 MaxDP=1.79D-02 DE=-2.62D-02 OVMax= 3.27D-02

 Cycle   4  Pass 1  IDiag  1:
 E= -829.683135929643     Delta-E=       -0.008038318295 Rises=F Damp=F
 DIIS: error= 8.43D-04 at cycle   4 NSaved=   4.
 NSaved= 4 IEnMin= 4 EnMin= -829.683135929643     IErMin= 4 ErrMin= 8.43D-04
 ErrMax= 8.43D-04  0.00D+00 EMaxC= 1.00D-01 BMatC= 1.84D-04 BMatP= 1.16D-02
 IDIUse=3 WtCom= 9.92D-01 WtEn= 8.43D-03
 Coeff-Com: -0.861D-02 0.175D-03 0.101D+00 0.907D+00
 Coeff-En:   0.000D+00 0.000D+00 0.000D+00 0.100D+01
 Coeff:     -0.854D-02 0.174D-03 0.100D+00 0.908D+00
 Gap=     0.302 Goal=   None    Shift=    0.000
 RMSDP=9.27D-05 MaxDP=6.15D-03 DE=-8.04D-03 OVMax= 3.32D-03

 Cycle   5  Pass 1  IDiag  1:
 E= -829.683322283478     Delta-E=       -0.000186353835 Rises=F Damp=F
 DIIS: error= 1.50D-04 at cycle   5 NSaved=   5.
 NSaved= 5 IEnMin= 5 EnMin= -829.683322283478     IErMin= 5 ErrMin= 1.50D-04
 ErrMax= 1.50D-04  0.00D+00 EMaxC= 1.00D-01 BMatC= 1.37D-05 BMatP= 1.84D-04
 IDIUse=3 WtCom= 9.98D-01 WtEn= 1.50D-03
 Coeff-Com:  0.168D-02-0.275D-01-0.583D-01-0.404D-01 0.112D+01
 Coeff-En:   0.000D+00 0.000D+00 0.000D+00 0.000D+00 0.100D+01
 Coeff:      0.167D-02-0.274D-01-0.582D-01-0.403D-01 0.112D+01
 Gap=     0.301 Goal=   None    Shift=    0.000
 RMSDP=4.52D-05 MaxDP=2.11D-03 DE=-1.86D-04 OVMax= 2.60D-03

 Cycle   6  Pass 1  IDiag  1:
 E= -829.683353703054     Delta-E=       -0.000031419576 Rises=F Damp=F
 DIIS: error= 7.16D-05 at cycle   6 NSaved=   6.
 NSaved= 6 IEnMin= 6 EnMin= -829.683353703054     IErMin= 6 ErrMin= 7.16D-05
 ErrMax= 7.16D-05  0.00D+00 EMaxC= 1.00D-01 BMatC= 1.69D-06 BMatP= 1.37D-05
 IDIUse=1 WtCom= 1.00D+00 WtEn= 0.00D+00
 Coeff-Com:  0.127D-03 0.801D-02 0.109D-01-0.980D-01-0.275D+00 0.135D+01
 Coeff:      0.127D-03 0.801D-02 0.109D-01-0.980D-01-0.275D+00 0.135D+01
 Gap=     0.301 Goal=   None    Shift=    0.000
 RMSDP=1.63D-05 MaxDP=6.57D-04 DE=-3.14D-05 OVMax= 1.32D-03

 Cycle   7  Pass 1  IDiag  1:
 E= -829.683359264329     Delta-E=       -0.000005561275 Rises=F Damp=F
 DIIS: error= 2.67D-05 at cycle   7 NSaved=   7.
 NSaved= 7 IEnMin= 7 EnMin= -829.683359264329     IErMin= 7 ErrMin= 2.67D-05
 ErrMax= 2.67D-05  0.00D+00 EMaxC= 1.00D-01 BMatC= 1.34D-07 BMatP= 1.69D-06
 IDIUse=1 WtCom= 1.00D+00 WtEn= 0.00D+00
 Coeff-Com: -0.146D-03 0.916D-03 0.394D-02 0.192D-01-0.654D-01-0.194D+00
 Coeff-Com:  0.124D+01
 Coeff:     -0.146D-03 0.916D-03 0.394D-02 0.192D-01-0.654D-01-0.194D+00
 Coeff:      0.124D+01
 Gap=     0.301 Goal=   None    Shift=    0.000
 RMSDP=4.97D-06 MaxDP=1.67D-04 DE=-5.56D-06 OVMax= 4.38D-04

 Cycle   8  Pass 1  IDiag  1:
 E= -829.683359800079     Delta-E=       -0.000000535750 Rises=F Damp=F
 DIIS: error= 9.58D-06 at cycle   8 NSaved=   8.
 NSaved= 8 IEnMin= 8 EnMin= -829.683359800079     IErMin= 8 ErrMin= 9.58D-06
 ErrMax= 9.58D-06  0.00D+00 EMaxC= 1.00D-01 BMatC= 1.84D-08 BMatP= 1.34D-07
 IDIUse=1 WtCom= 1.00D+00 WtEn= 0.00D+00
 Coeff-Com: -0.151D-04-0.117D-02-0.121D-02 0.143D-01 0.328D-01-0.190D+00
 Coeff-Com:  0.516D-01 0.109D+01
 Coeff:     -0.151D-04-0.117D-02-0.121D-02 0.143D-01 0.328D-01-0.190D+00
 Coeff:      0.516D-01 0.109D+01
 Gap=     0.301 Goal=   None    Shift=    0.000
 RMSDP=1.73D-06 MaxDP=4.53D-05 DE=-5.36D-07 OVMax= 1.67D-04

 Cycle   9  Pass 1  IDiag  1:
 E= -829.683359862555     Delta-E=       -0.000000062475 Rises=F Damp=F
 DIIS: error= 3.61D-06 at cycle   9 NSaved=   9.
 NSaved= 9 IEnMin= 9 EnMin= -829.683359862555     IErMin= 9 ErrMin= 3.61D-06
 ErrMax= 3.61D-06  0.00D+00 EMaxC= 1.00D-01 BMatC= 1.84D-09 BMatP= 1.84D-08
 IDIUse=1 WtCom= 1.00D+00 WtEn= 0.00D+00
 Coeff-Com:  0.161D-04 0.255D-03 0.178D-04-0.695D-02-0.294D-02 0.785D-01
 Coeff-Com: -0.118D+00-0.428D+00 0.148D+01
 Coeff:      0.161D-04 0.255D-03 0.178D-04-0.695D-02-0.294D-02 0.785D-01
 Coeff:     -0.118D+00-0.428D+00 0.148D+01
 Gap=     0.301 Goal=   None    Shift=    0.000
 RMSDP=7.77D-07 MaxDP=2.64D-05 DE=-6.25D-08 OVMax= 8.14D-05

 Cycle  10  Pass 1  IDiag  1:
 E= -829.683359871584     Delta-E=       -0.000000009029 Rises=F Damp=F
 DIIS: error= 1.29D-06 at cycle  10 NSaved=  10.
 NSaved=10 IEnMin=10 EnMin= -829.683359871584     IErMin=10 ErrMin= 1.29D-06
 ErrMax= 1.29D-06  0.00D+00 EMaxC= 1.00D-01 BMatC= 1.96D-10 BMatP= 1.84D-09
 IDIUse=1 WtCom= 1.00D+00 WtEn= 0.00D+00
 Coeff-Com: -0.271D-05 0.551D-04 0.101D-03 0.554D-03-0.273D-02-0.761D-03
 Coeff-Com:  0.268D-01-0.722D-02-0.368D+00 0.135D+01
 Coeff:     -0.271D-05 0.551D-04 0.101D-03 0.554D-03-0.273D-02-0.761D-03
 Coeff:      0.268D-01-0.722D-02-0.368D+00 0.135D+01
 Gap=     0.301 Goal=   None    Shift=    0.000
 RMSDP=2.43D-07 MaxDP=6.02D-06 DE=-9.03D-09 OVMax= 2.84D-05

 Cycle  11  Pass 1  IDiag  1:
 E= -829.683359872583     Delta-E=       -0.000000000999 Rises=F Damp=F
 DIIS: error= 5.58D-07 at cycle  11 NSaved=  11.
 NSaved=11 IEnMin=11 EnMin= -829.683359872583     IErMin=11 ErrMin= 5.58D-07
 ErrMax= 5.58D-07  0.00D+00 EMaxC= 1.00D-01 BMatC= 2.27D-11 BMatP= 1.96D-10
 IDIUse=1 WtCom= 1.00D+00 WtEn= 0.00D+00
 Coeff-Com: -0.213D-05-0.365D-04-0.953D-05 0.887D-03 0.481D-03-0.102D-01
 Coeff-Com:  0.136D-01 0.544D-01-0.157D+00-0.170D+00 0.127D+01
 Coeff:     -0.213D-05-0.365D-04-0.953D-05 0.887D-03 0.481D-03-0.102D-01
 Coeff:      0.136D-01 0.544D-01-0.157D+00-0.170D+00 0.127D+01
 Gap=     0.301 Goal=   None    Shift=    0.000
 RMSDP=9.33D-08 MaxDP=2.38D-06 DE=-9.99D-10 OVMax= 1.02D-05

 Cycle  12  Pass 1  IDiag  1:
 E= -829.683359872703     Delta-E=       -0.000000000120 Rises=F Damp=F
 DIIS: error= 1.47D-07 at cycle  12 NSaved=  12.
 NSaved=12 IEnMin=12 EnMin= -829.683359872703     IErMin=12 ErrMin= 1.47D-07
 ErrMax= 1.47D-07  0.00D+00 EMaxC= 1.00D-01 BMatC= 1.43D-12 BMatP= 2.27D-11
 IDIUse=1 WtCom= 1.00D+00 WtEn= 0.00D+00
 Coeff-Com:  0.371D-06-0.268D-05-0.948D-05-0.107D-03 0.239D-03 0.700D-03
 Coeff-Com: -0.308D-02-0.406D-02 0.419D-01-0.798D-01-0.158D+00 0.120D+01
 Coeff:      0.371D-06-0.268D-05-0.948D-05-0.107D-03 0.239D-03 0.700D-03
 Coeff:     -0.308D-02-0.406D-02 0.419D-01-0.798D-01-0.158D+00 0.120D+01
 Gap=     0.301 Goal=   None    Shift=    0.000
 RMSDP=2.60D-08 MaxDP=1.30D-06 DE=-1.20D-10 OVMax= 1.97D-06

 Cycle  13  Pass 1  IDiag  1:
 E= -829.683359872707     Delta-E=       -0.000000000004 Rises=F Damp=F
 DIIS: error= 4.09D-08 at cycle  13 NSaved=  13.
 NSaved=13 IEnMin=13 EnMin= -829.683359872707     IErMin=13 ErrMin= 4.09D-08
 ErrMax= 4.09D-08  0.00D+00 EMaxC= 1.00D-01 BMatC= 1.64D-13 BMatP= 1.43D-12
 IDIUse=1 WtCom= 1.00D+00 WtEn= 0.00D+00
 Coeff-Com:  0.172D-06 0.316D-05 0.639D-06-0.631D-04-0.553D-04 0.769D-03
 Coeff-Com: -0.834D-03-0.408D-02 0.866D-02 0.280D-01-0.115D+00-0.935D-01
 Coeff-Com:  0.118D+01
 Coeff:      0.172D-06 0.316D-05 0.639D-06-0.631D-04-0.553D-04 0.769D-03
 Coeff:     -0.834D-03-0.408D-02 0.866D-02 0.280D-01-0.115D+00-0.935D-01
 Coeff:      0.118D+01
 Gap=     0.301 Goal=   None    Shift=    0.000
 RMSDP=8.46D-09 MaxDP=5.20D-07 DE=-4.09D-12 OVMax= 5.48D-07

 SCF Done:  E(RHF) =  -829.683359873     A.U. after   13 cycles
            NFock= 13  Conv=0.85D-08     -V/T= 2.2850
 KE= 6.456489706839D+02 PE=-2.196687578475D+03 EE= 5.771922336816D+02
 Leave Link  502 at Tue Sep 28 09:16:15 2021, MaxMem= 16106127360 cpu:              29.8 elap:               3.4
 (Enter /sw/contrib/gaussian/g16/B01/g16/l801.exe)
 ExpMin= 2.53D-02 ExpMax= 4.56D+05 ExpMxC= 1.44D+03 IAcc=3 IRadAn=         5 AccDes= 0.00D+00
 HarFok:  IExCor=  205 AccDes= 0.00D+00 IRadAn=         5 IDoV=-2 UseB2=F ITyADJ=14
 ICtDFT= 12500011 ScaDFX=  1.000000  1.000000  1.000000  1.000000
 Defaulting to unpruned grid for atomic number  53.
 Largest valence mixing into a core orbital is  4.48D-04
 Largest core mixing into a valence orbital is  1.59D-04
 Range of M.O.s used for correlation:    11   174
 NBasis=   174 NAE=    26 NBE=    26 NFC=    10 NFV=     0
 NROrb=    164 NOA=    16 NOB=    16 NVA=   148 NVB=   148

 **** Warning!!: The largest alpha MO coefficient is  0.13480020D+02

 Leave Link  801 at Tue Sep 28 09:16:15 2021, MaxMem= 16106127360 cpu:               1.4 elap:               0.1
 (Enter /sw/contrib/gaussian/g16/B01/g16/l906.exe)
 Frozen-core derivative calculation, NFC=  10 NFV=   0.
 FulOut=F Deriv=T AODrv=F NAtomX=     4
   MMem=         130  MDisk=          16 MDiskD=          16
  W3Min=      922896 MinDsk=     1491158 NBas6D=         204
 NBas2D=       21411    NTT=       20910    LW2=    26219120
    MDV= 16105723225 MDiskM=      394699 NBas2p=       21407
 Fully in-core method, ICMem=   539779449.
 IMap=   1   2   3   4   5   6   7   8   9  10  11  12  13  14  15  16  17  18  19  20
 IMap=  21  22  23  24  25  26
 JobTyp=1 Pass  1 fully in-core, NPsUse= 28.
 Compute canonical integrals.
 FoFCou: FMM=F IPFlag=           0 FMFlag=           0 FMFlg1=           0
         NFxFlg=           0 DoJE=F BraDBF=F KetDBF=F FulRan=T
         wScrn=  0.000000 ICntrl=       600 IOpCl=  1 I1Cent=           0 NGrid=           0
         NMat0=    1 NMatS0=  21411 NMatT0=    0 NMatD0=    1 NMtDS0=    0 NMtDT0=    0
 Symmetry not used in FoFCou.
 Spin components of T(2) and E(2):
     alpha-alpha T2 =       0.3138705936D-01 E2=     -0.9148219308D-01
     alpha-beta  T2 =       0.1658533488D+00 E2=     -0.4984618082D+00
     beta-beta   T2 =       0.3138705936D-01 E2=     -0.9148219308D-01
 The integrals were generated   1 times.
 ANorm=    0.1108434692D+01
 E2 =    -0.6814261944D+00 EUMP2 =    -0.83036478606708D+03
 Leave Link  906 at Tue Sep 28 09:16:21 2021, MaxMem= 16106127360 cpu:             169.2 elap:               6.1
 (Enter /sw/contrib/gaussian/g16/B01/g16/l1002.exe)
 Minotr:  Closed shell wavefunction.
          Computing MP2/KS-MP2 derivatives.
          Using Z-Vector for PSCF gradient.
          Skipping F1 and S1 gradient terms here.
          Frozen-core window.
          Direct CPHF calculation.
          Differentiating once with respect to electric field.
                with respect to dipole field.
          Electric field/nuclear overlap derivatives assumed to be zero.
          Requested convergence is 1.0D-10 RMS, and 1.0D-09 maximum.
          NewPWx=F KeepS1=T KeepF1=T KeepIn=T MapXYZ=F SortEE=F KeepMc=T.
 Keep R1 ints in memory in canonical form, NReq=173968657.
 FoFCou: FMM=F IPFlag=           0 FMFlag=           0 FMFlg1=           0
         NFxFlg=           0 DoJE=F BraDBF=F KetDBF=F FulRan=T
         wScrn=  0.000000 ICntrl=       600 IOpCl=  0 I1Cent=           0 NGrid=           0
         NMat0=    1 NMatS0=  15225 NMatT0=    0 NMatD0=    1 NMtDS0=    0 NMtDT0=    0
 Symmetry not used in FoFCou.
 Two-electron integral symmetry not used.
          MDV=   16106127360 using IRadAn=       5.
          Solving linear equations separately, MaxMat=       0.
          There are     1 degrees of freedom in the 1st order CPHF.  IDoFFX=0 NUNeed=     1.
 LinEq1:  Iter=  0 NonCon=     1 RMS=2.88D-03 Max=4.46D-02 NDo=     1
 AX will form     1 AO Fock derivatives at one time.
 LinEq1:  Iter=  1 NonCon=     1 RMS=4.52D-04 Max=4.12D-03 NDo=     1
 LinEq1:  Iter=  2 NonCon=     1 RMS=2.02D-04 Max=3.42D-03 NDo=     1
 LinEq1:  Iter=  3 NonCon=     1 RMS=6.15D-05 Max=9.35D-04 NDo=     1
 LinEq1:  Iter=  4 NonCon=     1 RMS=2.88D-05 Max=7.69D-04 NDo=     1
 LinEq1:  Iter=  5 NonCon=     1 RMS=8.42D-06 Max=1.39D-04 NDo=     1
 LinEq1:  Iter=  6 NonCon=     1 RMS=2.41D-06 Max=5.23D-05 NDo=     1
 LinEq1:  Iter=  7 NonCon=     1 RMS=7.04D-07 Max=1.51D-05 NDo=     1
 LinEq1:  Iter=  8 NonCon=     1 RMS=1.72D-07 Max=2.50D-06 NDo=     1
 LinEq1:  Iter=  9 NonCon=     1 RMS=5.48D-08 Max=7.40D-07 NDo=     1
 LinEq1:  Iter= 10 NonCon=     1 RMS=1.47D-08 Max=2.20D-07 NDo=     1
 LinEq1:  Iter= 11 NonCon=     1 RMS=3.31D-09 Max=7.11D-08 NDo=     1
 LinEq1:  Iter= 12 NonCon=     1 RMS=8.69D-10 Max=1.77D-08 NDo=     1
 LinEq1:  Iter= 13 NonCon=     1 RMS=2.84D-10 Max=3.87D-09 NDo=     1
 LinEq1:  Iter= 14 NonCon=     0 RMS=6.78D-11 Max=8.77D-10 NDo=     1
 Linear equations converged to 1.000D-10 1.000D-09 after    14 iterations.
 End of Minotr F.D. properties file   721 does not exist.
 End of Minotr F.D. properties file   722 does not exist.
 End of Minotr F.D. properties file   788 does not exist.
 Leave Link 1002 at Tue Sep 28 09:16:25 2021, MaxMem= 16106127360 cpu:              35.3 elap:               4.0
 (Enter /sw/contrib/gaussian/g16/B01/g16/l601.exe)
 Copying SCF densities to generalized density rwf, IOpCl= 0 IROHF=0.

 **********************************************************************

            Population analysis using the MP2 Density.

 **********************************************************************

 Alpha  occ. eigenvalues -- -104.74406 -20.48068 -10.46356  -7.93073  -7.92801
 Alpha  occ. eigenvalues --   -7.92789  -7.47531  -5.30113  -5.30049  -5.30045
 Alpha  occ. eigenvalues --   -2.02866  -2.02833  -2.02830  -2.02759  -2.02759
 Alpha  occ. eigenvalues --   -1.24780  -0.90958  -0.64022  -0.55478  -0.45780
 Alpha  occ. eigenvalues --   -0.44918  -0.32070  -0.29469  -0.15915  -0.15035
 Alpha  occ. eigenvalues --   -0.15004
 Alpha virt. eigenvalues --    0.15112   0.17542   0.21555   0.22457   0.24044
 Alpha virt. eigenvalues --    0.25060   0.25298   0.27407   0.28870   0.29703
 Alpha virt. eigenvalues --    0.30922   0.32134   0.34602   0.37162   0.37955
 Alpha virt. eigenvalues --    0.38351   0.42076   0.43226   0.45368   0.49901
 Alpha virt. eigenvalues --    0.52044   0.53510   0.54557   0.56400   0.57470
 Alpha virt. eigenvalues --    0.58630   0.63954   0.65538   0.70730   0.74979
 Alpha virt. eigenvalues --    0.75975   0.77284   0.77650   0.79209   0.79328
 Alpha virt. eigenvalues --    0.80082   0.81037   0.83168   0.84071   0.85434
 Alpha virt. eigenvalues --    0.86942   0.87484   0.87983   0.88799   0.90289
 Alpha virt. eigenvalues --    0.92893   0.94661   0.96526   0.98175   1.00013
 Alpha virt. eigenvalues --    1.03765   1.05487   1.07352   1.09821   1.12024
 Alpha virt. eigenvalues --    1.16018   1.18221   1.20195   1.22048   1.22814
 Alpha virt. eigenvalues --    1.25680   1.29799   1.36793   1.38260   1.41761
 Alpha virt. eigenvalues --    1.43155   1.52086   1.55439   1.60557   1.61603
 Alpha virt. eigenvalues --    1.66622   1.67721   1.71913   1.74268   1.74754
 Alpha virt. eigenvalues --    1.74823   1.76611   1.77441   1.79862   1.84254
 Alpha virt. eigenvalues --    1.85724   1.87592   1.91238   1.96534   2.05357
 Alpha virt. eigenvalues --    2.05472   2.09673   2.12716   2.14152   2.25183
 Alpha virt. eigenvalues --    2.39475   2.43218   2.49491   2.51343   2.55050
 Alpha virt. eigenvalues --    2.59159   2.60841   2.63871   2.67071   2.69452
 Alpha virt. eigenvalues --    2.71233   2.72131   2.75676   2.76407   2.79986
 Alpha virt. eigenvalues --    2.97844   3.01485   3.08421   3.16135   3.18880
 Alpha virt. eigenvalues --    3.20887   3.21927   3.24522   3.27442   3.29518
 Alpha virt. eigenvalues --    3.35613   3.50688   3.52836   3.53527   3.82099
 Alpha virt. eigenvalues --    3.90809   4.27858   4.31566   4.49338   4.56382
 Alpha virt. eigenvalues --    4.63480   4.73209   4.95997   5.01259   5.34334
 Alpha virt. eigenvalues --    5.39509   5.66341   6.38705   6.56711   6.84612
 Alpha virt. eigenvalues --    6.88771   6.90263   6.97268   7.29228   7.33753
 Alpha virt. eigenvalues --    7.34083   7.41978   7.53370   7.69596   7.75485
 Alpha virt. eigenvalues --    8.34143  14.41751  59.20668
          Condensed to atoms (all electrons):
               1          2          3          4
     1  O    8.621890  -0.069925  -0.121722   0.021468
     2  I   -0.069925  25.858041   0.007041   0.059574
     3  Cl  -0.121722   0.007041  17.053601  -0.000235
     4  H    0.021468   0.059574  -0.000235   0.674068
 Mulliken charges:
               1
     1  O   -0.451710
     2  I   -0.854731
     3  Cl   0.061316
     4  H    0.245126
 Sum of Mulliken charges =  -1.00000
 Mulliken charges with hydrogens summed into heavy atoms:
               1
     1  O   -0.206585
     2  I   -0.854731
     3  Cl   0.061316
 Electronic spatial extent (au):  <R**2>=           1307.2305
 Charge=             -1.0000 electrons
 Dipole moment (field-independent basis, Debye):
    X=            -12.1476    Y=             -0.5015    Z=              0.2096  Tot=             12.1598
 Quadrupole moment (field-independent basis, Debye-Ang):
   XX=            -97.4123   YY=            -53.2149   ZZ=            -53.1516
   XY=              0.3912   XZ=             -0.0394   YZ=             -0.1042
 Traceless Quadrupole moment (field-independent basis, Debye-Ang):
   XX=            -29.4860   YY=             14.7114   ZZ=             14.7747
   XY=              0.3912   XZ=             -0.0394   YZ=             -0.1042
 Octapole moment (field-independent basis, Debye-Ang**2):
  XXX=           -462.9449  YYY=            -61.9262  ZZZ=             -1.4564  XYY=           -106.2862
  XXY=            -21.4689  XXZ=             -2.6381  XZZ=           -105.4623  YZZ=            -22.1692
  YYZ=             -0.6876  XYZ=              0.0681
 Hexadecapole moment (field-independent basis, Debye-Ang**3):
 XXXX=          -2764.5047 YYYY=           -282.4270 ZZZZ=            -88.4697 XXXY=             28.4395
 XXXZ=            -11.4742 YYYX=             21.5775 YYYZ=             -0.5116 ZZZX=             -2.5892
 ZZZY=             -0.1630 XXYY=           -432.8869 XXZZ=           -397.4116 YYZZ=            -66.4785
 XXYZ=             -0.1050 YYXZ=             -0.6795 ZZXY=              9.1581
 N-N= 1.441630142371D+02 E-N=-2.196240873330D+03  KE= 6.460255397907D+02
 No NMR shielding tensors so no spin-rotation constants.
 Leave Link  601 at Tue Sep 28 09:16:26 2021, MaxMem= 16106127360 cpu:               3.9 elap:               0.2
 (Enter /sw/contrib/gaussian/g16/B01/g16/l607.exe)
 ******************************Gaussian NBO Version 3.1******************************
             N A T U R A L   A T O M I C   O R B I T A L   A N D
          N A T U R A L   B O N D   O R B I T A L   A N A L Y S I S
 ******************************Gaussian NBO Version 3.1******************************
       /RESON  / : Allow strongly delocalized NBO set

 Analyzing the MP2 density

 Job title: title                                                           

 Storage needed:     91686 in NPA,    121697 in NBO (********** available)
 GSVD:  LWork=        2436 too small for GESVD, short by       52200 words or       52200 for optimal perf.


 NATURAL POPULATIONS:  Natural atomic orbital occupancies 
                                                          
   NAO  Atom  No  lang   Type(AO)    Occupancy
 --------------------------------------------
     1    O    1  S      Cor( 1S)     1.99971
     2    O    1  S      Val( 2S)     1.79098
     3    O    1  S      Ryd( 3S)     0.00942
     4    O    1  S      Ryd( 4S)     0.00114
     5    O    1  S      Ryd( 5S)     0.00020
     6    O    1  px     Val( 2p)     1.66465
     7    O    1  px     Ryd( 3p)     0.01200
     8    O    1  px     Ryd( 4p)     0.00074
     9    O    1  px     Ryd( 5p)     0.00048
    10    O    1  py     Val( 2p)     1.27290
    11    O    1  py     Ryd( 3p)     0.00777
    12    O    1  py     Ryd( 4p)     0.00062
    13    O    1  py     Ryd( 5p)     0.00035
    14    O    1  pz     Val( 2p)     1.91072
    15    O    1  pz     Ryd( 3p)     0.01894
    16    O    1  pz     Ryd( 4p)     0.00068
    17    O    1  pz     Ryd( 5p)     0.00021
    18    O    1  dxy    Ryd( 3d)     0.00940
    19    O    1  dxy    Ryd( 4d)     0.00047
    20    O    1  dxy    Ryd( 5d)     0.00016
    21    O    1  dxz    Ryd( 3d)     0.00917
    22    O    1  dxz    Ryd( 4d)     0.00058
    23    O    1  dxz    Ryd( 5d)     0.00023
    24    O    1  dyz    Ryd( 3d)     0.00945
    25    O    1  dyz    Ryd( 4d)     0.00058
    26    O    1  dyz    Ryd( 5d)     0.00011
    27    O    1  dx2y2  Ryd( 3d)     0.01195
    28    O    1  dx2y2  Ryd( 4d)     0.00038
    29    O    1  dx2y2  Ryd( 5d)     0.00016
    30    O    1  dz2    Ryd( 3d)     0.00918
    31    O    1  dz2    Ryd( 4d)     0.00057
    32    O    1  dz2    Ryd( 5d)     0.00019
    33    O    1  f(0)   Ryd( 4f)     0.00068
    34    O    1  f(0)   Ryd( 5f)     0.00011
    35    O    1  f(C1)  Ryd( 4f)     0.00061
    36    O    1  f(C1)  Ryd( 5f)     0.00011
    37    O    1  f(S1)  Ryd( 4f)     0.00064
    38    O    1  f(S1)  Ryd( 5f)     0.00011
    39    O    1  f(C2)  Ryd( 4f)     0.00059
    40    O    1  f(C2)  Ryd( 5f)     0.00013
    41    O    1  f(S2)  Ryd( 4f)     0.00058
    42    O    1  f(S2)  Ryd( 5f)     0.00012
    43    O    1  f(C3)  Ryd( 4f)     0.00057
    44    O    1  f(C3)  Ryd( 5f)     0.00015
    45    O    1  f(S3)  Ryd( 4f)     0.00057
    46    O    1  f(S3)  Ryd( 5f)     0.00012

    47    I    2  S      Cor( 4S)     1.99991
    48    I    2  S      Val( 5S)     1.97235
    49    I    2  S      Ryd( 6S)     0.00239
    50    I    2  S      Ryd( 7S)     0.00054
    51    I    2  S      Ryd( 8S)     0.00015
    52    I    2  S      Ryd( 9S)     0.00001
    53    I    2  px     Cor( 4p)     1.99990
    54    I    2  px     Val( 5p)     1.87606
    55    I    2  px     Ryd( 6p)     0.00935
    56    I    2  px     Ryd( 7p)     0.00064
    57    I    2  px     Ryd( 8p)     0.00015
    58    I    2  py     Cor( 4p)     2.00004
    59    I    2  py     Val( 5p)     1.95088
    60    I    2  py     Ryd( 6p)     0.01069
    61    I    2  py     Ryd( 7p)     0.00074
    62    I    2  py     Ryd( 8p)     0.00010
    63    I    2  pz     Cor( 4p)     2.00004
    64    I    2  pz     Val( 5p)     1.94773
    65    I    2  pz     Ryd( 6p)     0.01068
    66    I    2  pz     Ryd( 7p)     0.00073
    67    I    2  pz     Ryd( 8p)     0.00010
    68    I    2  dxy    Cor( 4d)     1.99674
    69    I    2  dxy    Ryd( 5d)     0.02033
    70    I    2  dxy    Ryd( 6d)     0.00134
    71    I    2  dxy    Ryd( 7d)     0.00022
    72    I    2  dxz    Cor( 4d)     1.99673
    73    I    2  dxz    Ryd( 5d)     0.02047
    74    I    2  dxz    Ryd( 6d)     0.00139
    75    I    2  dxz    Ryd( 7d)     0.00019
    76    I    2  dyz    Cor( 4d)     1.99678
    77    I    2  dyz    Ryd( 5d)     0.02014
    78    I    2  dyz    Ryd( 6d)     0.00165
    79    I    2  dyz    Ryd( 7d)     0.00019
    80    I    2  dx2y2  Cor( 4d)     1.99665
    81    I    2  dx2y2  Ryd( 5d)     0.01972
    82    I    2  dx2y2  Ryd( 6d)     0.00159
    83    I    2  dx2y2  Ryd( 7d)     0.00022
    84    I    2  dz2    Cor( 4d)     1.99674
    85    I    2  dz2    Ryd( 5d)     0.01998
    86    I    2  dz2    Ryd( 6d)     0.00161
    87    I    2  dz2    Ryd( 7d)     0.00017
    88    I    2  f(0)   Ryd( 4f)     0.00273
    89    I    2  f(0)   Ryd( 5f)     0.00044
    90    I    2  f(C1)  Ryd( 4f)     0.00274
    91    I    2  f(C1)  Ryd( 5f)     0.00046
    92    I    2  f(S1)  Ryd( 4f)     0.00275
    93    I    2  f(S1)  Ryd( 5f)     0.00043
    94    I    2  f(C2)  Ryd( 4f)     0.00271
    95    I    2  f(C2)  Ryd( 5f)     0.00044
    96    I    2  f(S2)  Ryd( 4f)     0.00278
    97    I    2  f(S2)  Ryd( 5f)     0.00044
    98    I    2  f(C3)  Ryd( 4f)     0.00276
    99    I    2  f(C3)  Ryd( 5f)     0.00046
   100    I    2  f(S3)  Ryd( 4f)     0.00265
   101    I    2  f(S3)  Ryd( 5f)     0.00044

   102   Cl    3  S      Cor( 1S)     2.00000
   103   Cl    3  S      Cor( 2S)     1.99979
   104   Cl    3  S      Val( 3S)     1.88329
   105   Cl    3  S      Ryd( 4S)     0.00764
   106   Cl    3  S      Ryd( 5S)     0.00053
   107   Cl    3  S      Ryd( 6S)     0.00018
   108   Cl    3  px     Cor( 2p)     2.00003
   109   Cl    3  px     Val( 3p)     1.89199
   110   Cl    3  px     Ryd( 4p)     0.00946
   111   Cl    3  px     Ryd( 5p)     0.00054
   112   Cl    3  px     Ryd( 6p)     0.00010
   113   Cl    3  py     Cor( 2p)     1.99996
   114   Cl    3  py     Val( 3p)     0.96086
   115   Cl    3  py     Ryd( 4p)     0.00684
   116   Cl    3  py     Ryd( 5p)     0.00052
   117   Cl    3  py     Ryd( 6p)     0.00024
   118   Cl    3  pz     Cor( 2p)     2.00003
   119   Cl    3  pz     Val( 3p)     1.95457
   120   Cl    3  pz     Ryd( 4p)     0.01038
   121   Cl    3  pz     Ryd( 5p)     0.00065
   122   Cl    3  pz     Ryd( 6p)     0.00003
   123   Cl    3  dxy    Ryd( 3d)     0.01747
   124   Cl    3  dxy    Ryd( 4d)     0.00065
   125   Cl    3  dxy    Ryd( 5d)     0.00025
   126   Cl    3  dxz    Ryd( 3d)     0.01714
   127   Cl    3  dxz    Ryd( 4d)     0.00076
   128   Cl    3  dxz    Ryd( 5d)     0.00018
   129   Cl    3  dyz    Ryd( 3d)     0.02012
   130   Cl    3  dyz    Ryd( 4d)     0.00094
   131   Cl    3  dyz    Ryd( 5d)     0.00035
   132   Cl    3  dx2y2  Ryd( 3d)     0.01816
   133   Cl    3  dx2y2  Ryd( 4d)     0.00062
   134   Cl    3  dx2y2  Ryd( 5d)     0.00024
   135   Cl    3  dz2    Ryd( 3d)     0.01747
   136   Cl    3  dz2    Ryd( 4d)     0.00062
   137   Cl    3  dz2    Ryd( 5d)     0.00016
   138   Cl    3  f(0)   Ryd( 4f)     0.00131
   139   Cl    3  f(0)   Ryd( 5f)     0.00013
   140   Cl    3  f(C1)  Ryd( 4f)     0.00128
   141   Cl    3  f(C1)  Ryd( 5f)     0.00013
   142   Cl    3  f(S1)  Ryd( 4f)     0.00143
   143   Cl    3  f(S1)  Ryd( 5f)     0.00014
   144   Cl    3  f(C2)  Ryd( 4f)     0.00129
   145   Cl    3  f(C2)  Ryd( 5f)     0.00013
   146   Cl    3  f(S2)  Ryd( 4f)     0.00123
   147   Cl    3  f(S2)  Ryd( 5f)     0.00013
   148   Cl    3  f(C3)  Ryd( 4f)     0.00140
   149   Cl    3  f(C3)  Ryd( 5f)     0.00013
   150   Cl    3  f(S3)  Ryd( 4f)     0.00144
   151   Cl    3  f(S3)  Ryd( 5f)     0.00014

   152    H    4  S      Val( 1S)     0.49159
   153    H    4  S      Ryd( 2S)     0.00864
   154    H    4  S      Ryd( 3S)     0.00038
   155    H    4  S      Ryd( 4S)     0.00014
   156    H    4  px     Ryd( 2p)     0.00569
   157    H    4  px     Ryd( 3p)     0.00088
   158    H    4  px     Ryd( 4p)     0.00035
   159    H    4  py     Ryd( 2p)     0.00370
   160    H    4  py     Ryd( 3p)     0.00045
   161    H    4  py     Ryd( 4p)     0.00011
   162    H    4  pz     Ryd( 2p)     0.00492
   163    H    4  pz     Ryd( 3p)     0.00047
   164    H    4  pz     Ryd( 4p)     0.00018
   165    H    4  dxy    Ryd( 3d)     0.00032
   166    H    4  dxy    Ryd( 4d)     0.00009
   167    H    4  dxz    Ryd( 3d)     0.00040
   168    H    4  dxz    Ryd( 4d)     0.00011
   169    H    4  dyz    Ryd( 3d)     0.00022
   170    H    4  dyz    Ryd( 4d)     0.00006
   171    H    4  dx2y2  Ryd( 3d)     0.00028
   172    H    4  dx2y2  Ryd( 4d)     0.00012
   173    H    4  dz2    Ryd( 3d)     0.00030
   174    H    4  dz2    Ryd( 4d)     0.00009

 [ 28 electrons found in the effective core potential]

 WARNING:  5 low occupancy (<1.9990e) core orbitals found on  I    2


 Summary of Natural Population Analysis:                  
                                                          
                                       Natural Population 
                Natural  -----------------------------------------------
    Atom  No    Charge         Core      Valence    Rydberg      Total
 -----------------------------------------------------------------------
      O    1   -0.74917      1.99971     6.63925    0.11022     8.74917
      I    2   -0.89825     45.98352     7.74702    0.16770    53.89825
     Cl    3    0.16692      9.99981     6.69071    0.14255    16.83308
      H    4    0.48050      0.00000     0.49159    0.02791     0.51950
 =======================================================================
   * Total *   -1.00000     57.98304    21.56857    0.44839    80.00000

                                 Natural Population      
 --------------------------------------------------------
   Effective Core            28.00000
   Core                      29.98304 ( 99.9435% of  30)
   Valence                   21.56857 ( 98.0389% of  22)
   Natural Minimal Basis     79.55161 ( 99.4395% of  80)
   Natural Rydberg Basis      0.44839 (  0.5605% of  80)
 --------------------------------------------------------

    Atom  No          Natural Electron Configuration
 ----------------------------------------------------------------------------
      O    1      [core]2S( 1.79)2p( 4.85)3S( 0.01)3p( 0.04)3d( 0.05)
      I    2      [core]5S( 1.97)5p( 5.77)4f( 0.02)5d( 0.10)6p( 0.03)6d( 0.01)
     Cl    3      [core]3S( 1.88)3p( 4.81)4S( 0.01)3d( 0.09)4p( 0.03)4f( 0.01)
      H    4            1S( 0.49)2S( 0.01)2p( 0.01)


 NATURAL BOND ORBITAL ANALYSIS:

                       Occupancies       Lewis Structure    Low   High
           Occ.    -------------------  -----------------   occ   occ
  Cycle   Thresh.   Lewis   Non-Lewis     CR  BD  3C  LP    (L)   (NL)   Dev
 =============================================================================
   1(1)    1.90    79.43934   0.56066     15   2   0   9     1      0    0.12
   2(2)    1.90    79.43934   0.56066     15   2   0   9     1      0    0.12
   3(1)    1.80    79.43934   0.56066     15   2   0   9     0      0    0.12
   4(2)    1.80    79.43934   0.56066     15   2   0   9     0      0    0.12
   5(1)    1.70    79.43934   0.56066     15   2   0   9     0      0    0.12
   6(2)    1.70    79.43934   0.56066     15   2   0   9     0      0    0.12
   7(1)    1.60    79.43934   0.56066     15   2   0   9     0      0    0.12
   8(2)    1.60    79.43934   0.56066     15   2   0   9     0      0    0.12
   9(1)    1.50    79.04729   0.95271     15   1   0  10     0      1    0.59
  10(2)    1.50    79.04729   0.95271     15   1   0  10     0      1    0.59
  11(1)    1.90    79.43934   0.56066     15   2   0   9     1      0    0.12
 -----------------------------------------------------------------------------

 Structure accepted: RESONANCE keyword permits strongly delocalized structure

 WARNING:  5 low occupancy (<1.9990e) core orbitals found on  I    2

 --------------------------------------------------------
   Effective Core           28.00000
   Core                     29.98304 ( 99.943% of  30)
   Valence Lewis            21.45630 ( 97.529% of  22)
  ==================       ============================
   Total Lewis              79.43934 ( 99.299% of  80)
  -----------------------------------------------------
   Valence non-Lewis         0.15803 (  0.198% of  80)
   Rydberg non-Lewis         0.40263 (  0.503% of  80)
  ==================       ============================
   Total non-Lewis           0.56066 (  0.701% of  80)
 --------------------------------------------------------


       (Occupancy)   Bond orbital/ Coefficients/ Hybrids
 ---------------------------------------------------------------------------------
     1. (1.93929) BD ( 1) O   1 -Cl   3  
                ( 59.29%)   0.7700* O   1 s( 10.37%)p 8.59( 89.10%)d 0.05(  0.51%)
                                                  f 0.00(  0.02%)
                                            0.0003  0.3195 -0.0380 -0.0136 -0.0013
                                           -0.1955  0.0329  0.0068  0.0022  0.9222
                                           -0.0217 -0.0085 -0.0098  0.0190  0.0107
                                            0.0019 -0.0003 -0.0051 -0.0002 -0.0024
                                            0.0055  0.0006 -0.0009  0.0116  0.0016
                                           -0.0003 -0.0571 -0.0043 -0.0007 -0.0403
                                           -0.0033  0.0004 -0.0001  0.0001  0.0025
                                           -0.0001 -0.0100  0.0009 -0.0020  0.0012
                                            0.0036 -0.0008  0.0038  0.0018 -0.0051
                                            0.0005
                ( 40.71%)   0.6380*Cl   3 s(  8.35%)p10.83( 90.37%)d 0.14(  1.17%)
                                                  f 0.01(  0.11%)
                                           -0.0000  0.0005  0.2837 -0.0539 -0.0096
                                           -0.0031  0.0001  0.2274 -0.0130 -0.0053
                                            0.0016 -0.0004 -0.9206  0.0640  0.0128
                                           -0.0035  0.0000  0.0039  0.0001 -0.0013
                                            0.0005 -0.0508  0.0047 -0.0004  0.0049
                                            0.0001 -0.0007 -0.0062 -0.0008 -0.0006
                                           -0.0760  0.0091  0.0007 -0.0563  0.0056
                                            0.0008 -0.0006  0.0001 -0.0052  0.0009
                                            0.0203 -0.0029  0.0001 -0.0004 -0.0012
                                            0.0008 -0.0175  0.0020  0.0190 -0.0019
     2. (1.96410) BD ( 1) O   1 - H   4  
                ( 78.96%)   0.8886* O   1 s( 27.18%)p 2.66( 72.30%)d 0.02(  0.50%)
                                                  f 0.00(  0.01%)
                                            0.0003  0.5212 -0.0093 -0.0085  0.0017
                                            0.7903 -0.0110 -0.0068 -0.0045 -0.0175
                                            0.0162  0.0016  0.0019  0.3125 -0.0018
                                           -0.0028 -0.0027  0.0245  0.0046  0.0012
                                            0.0419  0.0026 -0.0009  0.0107  0.0019
                                            0.0002  0.0450  0.0032  0.0019 -0.0224
                                           -0.0006  0.0021 -0.0069  0.0000 -0.0046
                                            0.0002  0.0002  0.0002  0.0043  0.0015
                                            0.0003 -0.0007  0.0000  0.0028 -0.0018
                                           -0.0003
                ( 21.04%)   0.4587* H   4 s( 99.83%)p 0.00(  0.17%)d 0.00(  0.00%)
                                            0.9983  0.0402  0.0020 -0.0008  0.0096
                                           -0.0300 -0.0095  0.0143  0.0012 -0.0036
                                            0.0150 -0.0120 -0.0016  0.0009  0.0018
                                           -0.0002 -0.0004  0.0009  0.0009  0.0024
                                           -0.0008 -0.0018 -0.0022
     3. (1.99971) CR ( 1) O   1           s(100.00%)p 0.00(  0.00%)
                                            1.0000 -0.0004  0.0000  0.0000  0.0000
                                           -0.0001 -0.0000  0.0000  0.0000 -0.0002
                                            0.0000  0.0000  0.0000 -0.0000 -0.0000
                                            0.0000  0.0000 -0.0000 -0.0000 -0.0000
                                           -0.0000 -0.0000  0.0000 -0.0000 -0.0000
                                           -0.0000  0.0000  0.0000 -0.0000  0.0000
                                            0.0000 -0.0000  0.0000  0.0000  0.0000
                                            0.0000  0.0000 -0.0000 -0.0000 -0.0000
                                           -0.0000  0.0000 -0.0000 -0.0000  0.0000
                                           -0.0000
     4. (1.99990) CR ( 1) I   2           s(100.00%)
                                            1.0000 -0.0001  0.0000 -0.0000  0.0000
                                            0.0000 -0.0000 -0.0000  0.0000 -0.0000
                                            0.0000  0.0000  0.0000  0.0000  0.0000
                                            0.0000  0.0000  0.0000 -0.0000  0.0000
                                           -0.0000  0.0000 -0.0000  0.0000  0.0000
                                           -0.0000 -0.0000 -0.0000  0.0000 -0.0000
                                            0.0000 -0.0000  0.0000  0.0000 -0.0000
                                            0.0000  0.0000 -0.0000  0.0000 -0.0000
                                            0.0000 -0.0000  0.0000 -0.0000 -0.0000
                                           -0.0000 -0.0000  0.0000 -0.0000 -0.0000
                                           -0.0000  0.0000  0.0000  0.0000  0.0000
     5. (1.99990) CR ( 2) I   2           s(  0.00%)p 1.00(100.00%)
                                            0.0000  0.0001  0.0000  0.0000 -0.0000
                                           -0.0000 -1.0000  0.0000 -0.0000  0.0000
                                            0.0000  0.0000  0.0000  0.0000  0.0000
                                           -0.0000  0.0000  0.0001  0.0000  0.0000
                                           -0.0000 -0.0000 -0.0000 -0.0000  0.0000
                                            0.0000 -0.0000  0.0000  0.0000  0.0000
                                           -0.0000  0.0000 -0.0000 -0.0000 -0.0000
                                           -0.0000  0.0000  0.0000  0.0000 -0.0000
                                            0.0000 -0.0000 -0.0000 -0.0000 -0.0000
                                           -0.0000  0.0000  0.0000  0.0000 -0.0000
                                           -0.0000 -0.0000 -0.0000  0.0000 -0.0000
     6. (2.00004) CR ( 3) I   2           s(  0.00%)p 1.00(100.00%)
                                            0.0000 -0.0000  0.0000  0.0000 -0.0000
                                            0.0000 -0.0000  0.0000 -0.0000 -0.0000
                                            0.0000  1.0000 -0.0003 -0.0000 -0.0000
                                            0.0000 -0.0000 -0.0000 -0.0000  0.0000
                                           -0.0000 -0.0000  0.0000 -0.0000 -0.0000
                                           -0.0000  0.0000 -0.0000  0.0000  0.0000
                                           -0.0000  0.0000 -0.0000  0.0000 -0.0000
                                            0.0000 -0.0000 -0.0000 -0.0000  0.0000
                                           -0.0000  0.0000  0.0000 -0.0000 -0.0000
                                            0.0000  0.0000 -0.0000 -0.0000  0.0000
                                            0.0000  0.0000  0.0000 -0.0000 -0.0000
     7. (2.00004) CR ( 4) I   2           s(  0.00%)p 1.00(100.00%)
                                            0.0000  0.0000 -0.0000 -0.0000  0.0000
                                           -0.0000 -0.0000 -0.0000  0.0000  0.0000
                                           -0.0000 -0.0000  0.0000 -0.0000 -0.0000
                                            0.0000  1.0000 -0.0003 -0.0000 -0.0000
                                            0.0000  0.0000 -0.0000 -0.0000 -0.0000
                                           -0.0000  0.0000 -0.0000 -0.0000 -0.0000
                                            0.0000 -0.0000  0.0000 -0.0000  0.0000
                                           -0.0000 -0.0000  0.0000 -0.0000  0.0000
                                           -0.0000  0.0000  0.0000  0.0000  0.0000
                                            0.0000 -0.0000 -0.0000 -0.0000  0.0000
                                            0.0000 -0.0000 -0.0000  0.0000  0.0000
     8. (1.99674) CR ( 5) I   2           s(  0.00%)p 0.00(  0.00%)d 1.00(100.00%)
                                            0.0000  0.0000  0.0000  0.0000 -0.0000
                                            0.0000  0.0000  0.0000 -0.0000 -0.0000
                                            0.0000 -0.0000 -0.0000 -0.0000 -0.0000
                                            0.0000  0.0000  0.0000  0.0000  0.0000
                                           -0.0000  1.0000  0.0000 -0.0000 -0.0000
                                            0.0000 -0.0000 -0.0000  0.0000  0.0000
                                           -0.0000  0.0000 -0.0000  0.0000 -0.0000
                                            0.0000 -0.0000 -0.0000 -0.0000  0.0000
                                           -0.0000  0.0000  0.0000 -0.0000 -0.0000
                                            0.0000  0.0000 -0.0000 -0.0000  0.0000
                                            0.0000  0.0000  0.0000 -0.0000 -0.0000
     9. (1.99673) CR ( 6) I   2           s(  0.00%)p 0.00(  0.00%)d 1.00(100.00%)
                                           -0.0000 -0.0000 -0.0000 -0.0000  0.0000
                                           -0.0000 -0.0000 -0.0000  0.0000 -0.0000
                                           -0.0000 -0.0000 -0.0000 -0.0000 -0.0000
                                            0.0000 -0.0000 -0.0000 -0.0000 -0.0000
                                            0.0000  0.0000  0.0000  0.0000 -0.0000
                                            1.0000  0.0000 -0.0000 -0.0000  0.0000
                                            0.0000 -0.0000  0.0000  0.0000  0.0000
                                            0.0000 -0.0000 -0.0000 -0.0000  0.0000
                                           -0.0000  0.0000  0.0000  0.0000  0.0000
                                            0.0000  0.0000 -0.0000 -0.0000  0.0000
                                            0.0000 -0.0000  0.0000 -0.0000  0.0000
    10. (1.99678) CR ( 7) I   2           s(  0.00%)p 0.00(  0.00%)d 1.00(100.00%)
                                           -0.0000 -0.0000 -0.0000 -0.0000  0.0000
                                           -0.0000 -0.0000 -0.0000  0.0000  0.0000
                                           -0.0000  0.0000  0.0000  0.0000  0.0000
                                           -0.0000 -0.0000 -0.0000 -0.0000 -0.0000
                                            0.0000  0.0000 -0.0000  0.0000  0.0000
                                            0.0000  0.0000  0.0000 -0.0000  1.0000
                                            0.0000 -0.0000  0.0000 -0.0000  0.0000
                                           -0.0000  0.0000  0.0000  0.0000 -0.0000
                                            0.0000 -0.0000 -0.0000  0.0000  0.0000
                                           -0.0000 -0.0000  0.0000  0.0000 -0.0000
                                           -0.0000 -0.0000 -0.0000  0.0000  0.0000
    11. (1.99665) CR ( 8) I   2           s(  0.00%)p 0.00(  0.00%)d 1.00(100.00%)
                                            0.0000  0.0001 -0.0000  0.0000 -0.0000
                                           -0.0000  0.0000  0.0000 -0.0000  0.0000
                                           -0.0000  0.0000  0.0000  0.0000  0.0000
                                           -0.0000 -0.0000 -0.0000  0.0000 -0.0000
                                            0.0000  0.0000 -0.0000 -0.0000  0.0000
                                            0.0000  0.0000  0.0000  0.0000 -0.0000
                                            0.0000 -0.0000  0.0000  1.0000  0.0000
                                           -0.0000  0.0000  0.0000 -0.0000  0.0000
                                           -0.0000 -0.0000 -0.0000  0.0000  0.0000
                                           -0.0000  0.0000  0.0000  0.0000 -0.0000
                                            0.0000 -0.0000 -0.0000  0.0000  0.0000
    12. (1.99674) CR ( 9) I   2           s(  0.00%)p 0.00(  0.00%)d 1.00(100.00%)
                                           -0.0000 -0.0000  0.0000 -0.0000 -0.0000
                                            0.0000 -0.0000 -0.0000  0.0000 -0.0000
                                            0.0000 -0.0000 -0.0000 -0.0000 -0.0000
                                            0.0000  0.0000  0.0000  0.0000  0.0000
                                           -0.0000 -0.0000  0.0000  0.0000 -0.0000
                                           -0.0000 -0.0000 -0.0000  0.0000  0.0000
                                           -0.0000  0.0000 -0.0000  0.0000 -0.0000
                                            0.0000  0.0000  1.0000  0.0000 -0.0000
                                            0.0000 -0.0000 -0.0000 -0.0000 -0.0000
                                            0.0000 -0.0000  0.0000  0.0000  0.0000
                                           -0.0000  0.0000  0.0000 -0.0000 -0.0000
    13. (2.00000) CR ( 1)Cl   3           s(100.00%)
                                            1.0000  0.0000 -0.0000 -0.0000 -0.0000
                                           -0.0000  0.0000  0.0000 -0.0000 -0.0000
                                            0.0000 -0.0000 -0.0000  0.0000  0.0000
                                           -0.0000 -0.0000  0.0000  0.0000 -0.0000
                                            0.0000 -0.0000  0.0000 -0.0000  0.0000
                                           -0.0000 -0.0000 -0.0000 -0.0000 -0.0000
                                           -0.0000  0.0000  0.0000 -0.0000  0.0000
                                            0.0000 -0.0000  0.0000 -0.0000  0.0000
                                            0.0000 -0.0000 -0.0000 -0.0000 -0.0000
                                            0.0000 -0.0000  0.0000  0.0000 -0.0000
    14. (1.99979) CR ( 2)Cl   3           s(100.00%)p 0.00(  0.00%)
                                            0.0000  1.0000 -0.0004  0.0000  0.0000
                                            0.0000 -0.0000 -0.0001  0.0000  0.0000
                                           -0.0000  0.0000  0.0004 -0.0000 -0.0000
                                            0.0000 -0.0000 -0.0000 -0.0000  0.0000
                                           -0.0000  0.0000 -0.0000 -0.0000 -0.0000
                                           -0.0000  0.0000  0.0000  0.0000  0.0000
                                            0.0000 -0.0000 -0.0000  0.0000 -0.0000
                                           -0.0000  0.0000 -0.0000  0.0000 -0.0000
                                           -0.0000  0.0000 -0.0000  0.0000  0.0000
                                           -0.0000  0.0000 -0.0000 -0.0000  0.0000
    15. (2.00003) CR ( 3)Cl   3           s(  0.00%)p 1.00(100.00%)
                                            0.0000 -0.0000 -0.0000  0.0000  0.0000
                                            0.0000  1.0000  0.0001  0.0000  0.0000
                                           -0.0000  0.0000  0.0001 -0.0000 -0.0000
                                            0.0000 -0.0000 -0.0000  0.0000  0.0000
                                            0.0000  0.0000  0.0000  0.0000 -0.0000
                                            0.0000  0.0000  0.0000 -0.0000  0.0000
                                            0.0000 -0.0000 -0.0000  0.0000 -0.0000
                                           -0.0000 -0.0000  0.0000  0.0000 -0.0000
                                           -0.0000  0.0000  0.0000 -0.0000  0.0000
                                           -0.0000  0.0000 -0.0000 -0.0000  0.0000
    16. (1.99996) CR ( 4)Cl   3           s(  0.00%)p 1.00(100.00%)
                                           -0.0000  0.0000  0.0001 -0.0000 -0.0000
                                           -0.0000  0.0000  0.0002 -0.0000 -0.0000
                                            0.0000  1.0000 -0.0003  0.0000  0.0000
                                           -0.0000 -0.0000  0.0000  0.0000 -0.0000
                                            0.0000 -0.0000  0.0000  0.0000  0.0000
                                            0.0000 -0.0000 -0.0000 -0.0000 -0.0000
                                           -0.0000  0.0000 -0.0000 -0.0000  0.0000
                                            0.0000 -0.0000  0.0000 -0.0000  0.0000
                                            0.0000 -0.0000  0.0000 -0.0000 -0.0000
                                            0.0000 -0.0000  0.0000  0.0000 -0.0000
    17. (2.00003) CR ( 5)Cl   3           s(  0.00%)p 1.00(100.00%)
                                           -0.0000 -0.0000 -0.0000  0.0000  0.0000
                                           -0.0000 -0.0000  0.0000  0.0000 -0.0000
                                            0.0000 -0.0000  0.0000 -0.0000  0.0000
                                            0.0000  1.0000  0.0002  0.0000  0.0000
                                           -0.0000 -0.0000 -0.0000 -0.0000 -0.0000
                                           -0.0000 -0.0000  0.0000  0.0000  0.0000
                                            0.0000 -0.0000 -0.0000  0.0000  0.0000
                                            0.0000 -0.0000  0.0000  0.0000 -0.0000
                                           -0.0000  0.0000 -0.0000  0.0000 -0.0000
                                            0.0000 -0.0000  0.0000 -0.0000 -0.0000
    18. (1.96734) LP ( 1) O   1           s( 62.54%)p 0.60( 37.36%)d 0.00(  0.10%)
                                                  f 0.00(  0.00%)
                                            0.0002  0.7907  0.0123  0.0079 -0.0010
                                           -0.4370 -0.0069 -0.0042 -0.0013 -0.3609
                                           -0.0051 -0.0054 -0.0025 -0.2286 -0.0035
                                           -0.0022 -0.0007 -0.0246 -0.0021  0.0040
                                           -0.0109 -0.0006  0.0005 -0.0127 -0.0016
                                            0.0009 -0.0022  0.0004  0.0015  0.0065
                                            0.0004  0.0010  0.0026 -0.0004  0.0014
                                           -0.0004 -0.0001  0.0006  0.0008 -0.0007
                                           -0.0014  0.0005  0.0048 -0.0024 -0.0005
                                            0.0008
    19. (1.95275) LP ( 2) O   1           s(  0.02%)p99.99( 99.77%)d10.86(  0.19%)
                                                  f 0.81(  0.01%)
                                           -0.0000  0.0125  0.0040  0.0022 -0.0003
                                           -0.3741 -0.0081 -0.0017 -0.0018 -0.1023
                                           -0.0021 -0.0005 -0.0013  0.9203  0.0179
                                            0.0057  0.0065 -0.0151 -0.0010  0.0022
                                            0.0111 -0.0039 -0.0081  0.0317  0.0039
                                           -0.0024 -0.0043  0.0018  0.0034  0.0203
                                           -0.0004 -0.0048 -0.0074  0.0009  0.0066
                                           -0.0002  0.0008 -0.0003 -0.0048  0.0017
                                           -0.0032 -0.0000  0.0017 -0.0013  0.0019
                                           -0.0003
    20. (1.97840) LP ( 1) I   2           s( 94.59%)p 0.06(  5.41%)d 0.00(  0.00%)
                                                  f 0.00(  0.00%)
                                            0.0001  0.9726 -0.0001  0.0009 -0.0003
                                           -0.0001  0.0002  0.2279 -0.0008  0.0005
                                           -0.0000 -0.0000 -0.0060 -0.0000  0.0000
                                           -0.0001 -0.0000 -0.0465  0.0002 -0.0001
                                            0.0001 -0.0000  0.0000 -0.0001 -0.0000
                                            0.0000  0.0005  0.0002  0.0001  0.0000
                                           -0.0000  0.0000 -0.0000 -0.0001  0.0002
                                           -0.0004  0.0001  0.0000 -0.0001  0.0002
                                            0.0000 -0.0001 -0.0001  0.0002  0.0001
                                            0.0000  0.0000  0.0001  0.0002  0.0000
                                            0.0001 -0.0003 -0.0003 -0.0000 -0.0000
    21. (1.95119) LP ( 2) I   2           s(  0.00%)p 1.00( 99.99%)d 0.00(  0.01%)
                                                  f 0.00(  0.00%)
                                            0.0000  0.0032 -0.0006 -0.0015  0.0019
                                           -0.0003 -0.0001 -0.1930  0.0002  0.0004
                                           -0.0002  0.0001  0.3351  0.0008  0.0004
                                           -0.0000 -0.0003 -0.9221 -0.0021 -0.0014
                                            0.0004  0.0000 -0.0026  0.0002  0.0006
                                           -0.0000  0.0054 -0.0002 -0.0020 -0.0000
                                            0.0010 -0.0004  0.0002 -0.0000  0.0016
                                           -0.0002 -0.0006  0.0000 -0.0034  0.0011
                                           -0.0004  0.0013  0.0006  0.0021  0.0015
                                           -0.0002 -0.0001 -0.0019 -0.0007 -0.0004
                                           -0.0002 -0.0007 -0.0001  0.0010  0.0005
    22. (1.95106) LP ( 3) I   2           s(  0.00%)p 1.00( 99.99%)d 0.00(  0.01%)
                                                  f 0.00(  0.00%)
                                           -0.0000  0.0056  0.0000  0.0002  0.0000
                                           -0.0000  0.0000  0.0680  0.0000 -0.0000
                                            0.0000  0.0003  0.9421  0.0024  0.0013
                                           -0.0003  0.0001  0.3282  0.0008  0.0005
                                           -0.0000  0.0000 -0.0073  0.0006  0.0020
                                            0.0000 -0.0020  0.0003  0.0006 -0.0000
                                            0.0023 -0.0009  0.0006 -0.0000  0.0005
                                           -0.0006  0.0009 -0.0000  0.0014 -0.0005
                                            0.0003 -0.0005 -0.0003 -0.0007 -0.0005
                                           -0.0006 -0.0003  0.0008  0.0004 -0.0013
                                           -0.0010 -0.0000 -0.0002  0.0029  0.0013
    23. (1.86790) LP ( 4) I   2           s(  5.41%)p17.48( 94.53%)d 0.01(  0.05%)
                                                  f 0.00(  0.01%)
                                           -0.0000  0.2325  0.0005 -0.0039  0.0012
                                            0.0007  0.0000 -0.9516  0.0051  0.0029
                                           -0.0005  0.0000 -0.0021 -0.0001  0.0001
                                            0.0005 -0.0000  0.1992  0.0008 -0.0006
                                            0.0004  0.0000  0.0001  0.0003 -0.0003
                                           -0.0000 -0.0111  0.0022 -0.0003  0.0000
                                           -0.0001  0.0000  0.0000  0.0000  0.0166
                                           -0.0020 -0.0022  0.0000 -0.0090  0.0013
                                            0.0007 -0.0026 -0.0013  0.0038  0.0023
                                           -0.0000 -0.0001  0.0034  0.0017  0.0000
                                            0.0000 -0.0056 -0.0026  0.0000  0.0004
    24. (1.97363) LP ( 1)Cl   3           s( 91.70%)p 0.09(  8.28%)d 0.00(  0.02%)
                                                  f 0.00(  0.00%)
                                            0.0000  0.0003  0.9576  0.0061  0.0010
                                            0.0004 -0.0000 -0.0278  0.0003  0.0004
                                            0.0003  0.0000  0.2856 -0.0063 -0.0029
                                            0.0012 -0.0000  0.0202  0.0005  0.0001
                                            0.0000  0.0052  0.0002  0.0005  0.0004
                                            0.0001 -0.0002  0.0004  0.0004  0.0003
                                            0.0108 -0.0005 -0.0003  0.0078  0.0006
                                            0.0004 -0.0002  0.0001  0.0004  0.0001
                                           -0.0021 -0.0004  0.0000 -0.0001 -0.0004
                                            0.0002  0.0017  0.0002 -0.0030  0.0001
    25. (1.95614) LP ( 2)Cl   3           s(  0.01%)p 1.00( 99.94%)d 0.00(  0.04%)
                                                  f 0.00(  0.01%)
                                            0.0000  0.0000  0.0090 -0.0030 -0.0015
                                            0.0009 -0.0000  0.2601  0.0035  0.0014
                                           -0.0000 -0.0000  0.0632  0.0008 -0.0001
                                            0.0002  0.0002 -0.9631 -0.0144 -0.0047
                                            0.0021  0.0020  0.0040  0.0019  0.0047
                                            0.0069  0.0030 -0.0050 -0.0148 -0.0079
                                           -0.0016 -0.0025 -0.0015 -0.0005 -0.0003
                                           -0.0001  0.0050 -0.0006 -0.0014  0.0007
                                            0.0002 -0.0002  0.0056 -0.0008  0.0036
                                           -0.0009 -0.0013 -0.0000 -0.0017  0.0006
    26. (1.95451) LP ( 3)Cl   3           s(  0.20%)p99.99( 99.76%)d 0.18(  0.04%)
                                                  f 0.04(  0.01%)
                                            0.0000 -0.0000  0.0439  0.0052  0.0040
                                           -0.0017  0.0002 -0.9368 -0.0122 -0.0013
                                           -0.0001  0.0001 -0.2200 -0.0031 -0.0007
                                           -0.0007  0.0000 -0.2671 -0.0041 -0.0006
                                            0.0002  0.0054 -0.0101 -0.0056 -0.0006
                                            0.0012  0.0009  0.0016 -0.0031 -0.0020
                                            0.0055  0.0101  0.0062 -0.0007 -0.0026
                                           -0.0004  0.0019 -0.0004  0.0019 -0.0000
                                            0.0007  0.0003  0.0011  0.0002  0.0012
                                           -0.0003  0.0057 -0.0008  0.0064 -0.0009
    27. (0.01959) RY*( 1) O   1           s(  0.11%)p99.99( 98.41%)d12.66(  1.43%)
                                                  f 0.48(  0.05%)
                                           -0.0000  0.0000  0.0334  0.0032  0.0001
                                            0.0090 -0.3701  0.0143  0.0084  0.0042
                                           -0.1023  0.0037 -0.0011 -0.0228  0.9134
                                           -0.0379 -0.0058 -0.0409 -0.0086  0.0000
                                            0.0315 -0.0056 -0.0131  0.0870  0.0246
                                            0.0063 -0.0095  0.0040  0.0049  0.0544
                                            0.0045 -0.0040 -0.0108  0.0092  0.0060
                                           -0.0059  0.0021 -0.0011 -0.0102  0.0085
                                           -0.0030  0.0033  0.0061 -0.0045  0.0024
                                           -0.0028
    28. (0.01602) RY*( 2) O   1           s( 30.66%)p 2.18( 66.84%)d 0.07(  2.27%)
                                                  f 0.01(  0.24%)
                                           -0.0000  0.0025  0.5525 -0.0359 -0.0073
                                            0.0104 -0.5665  0.0006  0.0491  0.0398
                                           -0.4984 -0.0043  0.0325  0.0061 -0.3057
                                            0.0050  0.0201 -0.1166 -0.0240 -0.0090
                                           -0.0254  0.0041  0.0088 -0.0673 -0.0135
                                           -0.0055  0.0306  0.0058 -0.0012  0.0444
                                            0.0052  0.0000 -0.0038 -0.0000  0.0061
                                           -0.0054 -0.0074  0.0020  0.0208 -0.0100
                                           -0.0055  0.0035  0.0353 -0.0166 -0.0113
                                            0.0042
    29. (0.00802) RY*( 3) O   1           s( 16.41%)p 0.52(  8.50%)d 4.50( 73.77%)
                                                  f 0.08(  1.33%)
                                           -0.0000  0.0160  0.3993 -0.0638  0.0173
                                            0.0130  0.2564 -0.0195  0.0718 -0.0169
                                           -0.0712  0.0015  0.0455  0.0007  0.0778
                                           -0.0047  0.0063  0.6448  0.0035  0.0048
                                           -0.0523  0.0050 -0.0022  0.1629  0.0078
                                            0.0063 -0.4862 -0.0134 -0.0368  0.2335
                                           -0.0067  0.0069 -0.0068  0.0038  0.0077
                                           -0.0081 -0.0131  0.0092 -0.0259  0.0097
                                            0.0234 -0.0109 -0.0957  0.0374 -0.0253
                                            0.0133
    30. (0.00709) RY*( 4) O   1           s(  0.32%)p 0.98(  0.31%)d99.99( 97.64%)
                                                  f 5.47(  1.73%)
                                            0.0000  0.0033  0.0559 -0.0050 -0.0021
                                            0.0052  0.0136  0.0042  0.0024 -0.0016
                                           -0.0008  0.0033  0.0050 -0.0162 -0.0497
                                           -0.0094  0.0006 -0.0661  0.0082 -0.0012
                                           -0.4815  0.0243 -0.0075  0.8155 -0.0348
                                            0.0111  0.1909 -0.0137  0.0006 -0.1907
[...]
                                            0.0043 -0.0254  0.3754  0.0178 -0.0514
                                            0.0902 -0.1519 -0.0555  0.6223 -0.1208
                                           -0.0261  0.1235 -0.2523  0.2597 -0.1612
                                            0.3136  0.0907 -0.0403 -0.0688 -0.3354
                                            0.1169  0.0645 -0.0560
   159. (0.00030) RY*( 9) H   4           s(  5.59%)p11.40( 63.79%)d 5.47( 30.61%)
                                            0.0023 -0.0121  0.2283  0.0604 -0.0557
                                            0.2902  0.2144 -0.0013  0.1214 -0.0097
                                            0.1115 -0.6879  0.0647 -0.1192 -0.0065
                                           -0.3659  0.1347  0.2057 -0.0443 -0.2710
                                           -0.0694  0.0745  0.1084
   160. (0.00028) RY*(10) H   4           s(  2.48%)p 7.65( 18.95%)d31.72( 78.57%)
                                            0.0048  0.0120  0.1477  0.0527  0.0175
                                            0.1293 -0.1323  0.1182  0.0577  0.1040
                                           -0.0209  0.3455 -0.0839 -0.6385 -0.0077
                                           -0.0309  0.0331  0.5712 -0.0234  0.0133
                                            0.1077  0.1357 -0.1374
   161. (0.00025) RY*(11) H   4           s(  8.11%)p 7.32( 59.42%)d 4.00( 32.46%)
                                           -0.0211 -0.0885  0.2101 -0.1695 -0.0966
                                           -0.4695 -0.3704  0.0372  0.0808 -0.0099
                                            0.0192 -0.4366 -0.1680 -0.0714  0.0039
                                            0.1151  0.1311  0.0874 -0.0224  0.5157
                                            0.0479  0.1113  0.0168
   162. (0.00022) RY*(12) H   4           s(  0.35%)p35.86( 12.50%)d99.99( 87.15%)
                                           -0.0088  0.0122  0.0503 -0.0270  0.0139
                                           -0.2236 -0.1108 -0.0594 -0.0689 -0.1337
                                           -0.0832 -0.0727  0.1554  0.0718 -0.0126
                                            0.0952  0.0045  0.3988 -0.0355 -0.2091
                                           -0.0089 -0.8079 -0.0188
   163. (0.00016) RY*(13) H   4           s(  6.93%)p 0.52(  3.59%)d12.91( 89.48%)
                                           -0.0023 -0.0219  0.2579  0.0481 -0.0203
                                           -0.0553 -0.1250  0.0340 -0.0614  0.0714
                                           -0.0096 -0.0719  0.0385 -0.5681  0.0526
                                            0.0514  0.0425 -0.6553  0.0686 -0.2101
                                            0.0740 -0.2634 -0.1082
   164. (0.00013) RY*(14) H   4           s( 59.27%)p 0.14(  8.03%)d 0.55( 32.71%)
                                            0.0026  0.0166  0.3172  0.7013 -0.0070
                                            0.0513  0.2204  0.0287  0.1435  0.0145
                                           -0.0392  0.0694  0.0322  0.0176  0.0116
                                            0.0419 -0.1501 -0.0268 -0.0141  0.4435
                                           -0.2111 -0.1842  0.1619
   165. (0.00013) RY*(15) H   4           s(  1.85%)p23.72( 43.79%)d29.45( 54.37%)
                                           -0.0046 -0.0031  0.0584  0.1225  0.0268
                                           -0.0409 -0.1181  0.0062  0.0266 -0.1705
                                           -0.0175 -0.1902  0.5960  0.0030  0.1332
                                            0.2822 -0.5041  0.0750  0.0422 -0.0897
                                            0.1782  0.2777 -0.2605
   166. (0.00011) RY*(16) H   4           s(  1.03%)p44.97( 46.25%)d51.27( 52.72%)
                                            0.0013  0.0037  0.0994  0.0197  0.0163
                                           -0.0372 -0.0296 -0.0171 -0.1451  0.6464
                                            0.0059 -0.0653  0.1283  0.1039 -0.6896
                                            0.0442 -0.1179  0.0136 -0.1168 -0.0323
                                            0.0447  0.0032 -0.0903
   167. (0.00007) RY*(17) H   4           s( 50.97%)p 0.51( 25.76%)d 0.46( 23.27%)
   168. (0.00006) RY*(18) H   4           s(  0.00%)p 1.00(  1.50%)d65.89( 98.50%)
   169. (0.00005) RY*(19) H   4           s(  0.05%)p99.99( 25.16%)d99.99( 74.79%)
   170. (0.00005) RY*(20) H   4           s(  3.37%)p 8.70( 29.29%)d19.99( 67.34%)
   171. (0.00005) RY*(21) H   4           s(  3.58%)p 2.67(  9.57%)d24.25( 86.85%)
   172. (0.00003) RY*(22) H   4           s(  1.66%)p26.30( 43.75%)d32.81( 54.59%)
   173. (0.05909) BD*( 1) O   1 -Cl   3  
                ( 40.71%)   0.6380* O   1 s( 10.37%)p 8.59( 89.10%)d 0.05(  0.51%)
                                                  f 0.00(  0.02%)
                                           -0.0003 -0.3195  0.0380  0.0136  0.0013
                                            0.1955 -0.0329 -0.0068 -0.0022 -0.9222
                                            0.0217  0.0085  0.0098 -0.0190 -0.0107
                                           -0.0019  0.0003  0.0051  0.0002  0.0024
                                           -0.0055 -0.0006  0.0009 -0.0116 -0.0016
                                            0.0003  0.0571  0.0043  0.0007  0.0403
                                            0.0033 -0.0004  0.0001 -0.0001 -0.0025
                                            0.0001  0.0100 -0.0009  0.0020 -0.0012
                                           -0.0036  0.0008 -0.0038 -0.0018  0.0051
                                           -0.0005
                ( 59.29%)  -0.7700*Cl   3 s(  8.35%)p10.83( 90.37%)d 0.14(  1.17%)
                                                  f 0.01(  0.11%)
                                            0.0000 -0.0005 -0.2837  0.0539  0.0096
                                            0.0031 -0.0001 -0.2274  0.0130  0.0053
                                           -0.0016  0.0004  0.9206 -0.0640 -0.0128
                                            0.0035 -0.0000 -0.0039 -0.0001  0.0013
                                           -0.0005  0.0508 -0.0047  0.0004 -0.0049
                                           -0.0001  0.0007  0.0062  0.0008  0.0006
                                            0.0760 -0.0091 -0.0007  0.0563 -0.0056
                                           -0.0008  0.0006 -0.0001  0.0052 -0.0009
                                           -0.0203  0.0029 -0.0001  0.0004  0.0012
                                           -0.0008  0.0175 -0.0020 -0.0190  0.0019
   174. (0.09894) BD*( 1) O   1 - H   4  
                ( 21.04%)   0.4587* O   1 s( 27.18%)p 2.66( 72.30%)d 0.02(  0.50%)
                                                  f 0.00(  0.01%)
                                           -0.0003 -0.5212  0.0093  0.0085 -0.0017
                                           -0.7903  0.0110  0.0068  0.0045  0.0175
                                           -0.0162 -0.0016 -0.0019 -0.3125  0.0018
                                            0.0028  0.0027 -0.0245 -0.0046 -0.0012
                                           -0.0419 -0.0026  0.0009 -0.0107 -0.0019
                                           -0.0002 -0.0450 -0.0032 -0.0019  0.0224
                                            0.0006 -0.0021  0.0069 -0.0000  0.0046
                                           -0.0002 -0.0002 -0.0002 -0.0043 -0.0015
                                           -0.0003  0.0007 -0.0000 -0.0028  0.0018
                                            0.0003
                ( 78.96%)  -0.8886* H   4 s( 99.83%)p 0.00(  0.17%)d 0.00(  0.00%)
                                           -0.9983 -0.0402 -0.0020  0.0008 -0.0096
                                            0.0300  0.0095 -0.0143 -0.0012  0.0036
                                           -0.0150  0.0120  0.0016 -0.0009 -0.0018
                                            0.0002  0.0004 -0.0009 -0.0009 -0.0024
                                            0.0008  0.0018  0.0022


 NHO Directionality and "Bond Bending" (deviations from line of nuclear centers)

         [Thresholds for printing:  angular deviation  >  1.0 degree]
                                    hybrid p-character > 25.0%
                                    orbital occupancy  >  0.10e

                                Line of Centers        Hybrid 1              Hybrid 2
                                ---------------  -------------------   ------------------
                NBO               Theta   Phi    Theta   Phi    Dev    Theta   Phi    Dev
 ========================================================================================
     1. BD (   1) O   1 -Cl   3    90.0  103.2    88.0   99.9   3.9      --     --    --
     2. BD (   1) O   1 - H   4    70.0    0.0    68.3    0.2   1.7      --     --    --
    18. LP (   1) O   1             --     --    111.9  219.8   --       --     --    --
    19. LP (   2) O   1             --     --     22.8  195.4   --       --     --    --
    21. LP (   2) I   2             --     --    157.3  119.8   --       --     --    --
    22. LP (   3) I   2             --     --     70.8   85.9   --       --     --    --
    23. LP (   4) I   2             --     --     78.1  180.1   --       --     --    --
    25. LP (   2)Cl   3             --     --    164.5   13.6   --       --     --    --
    26. LP (   3)Cl   3             --     --    105.5  193.3   --       --     --    --


 Natural Bond Orbitals (Summary):

           NBO                  Occupancy  
 -----------------------------------------------
 Molecular unit  1  (HOCl)
     1. BD (   1) O   1 -Cl   3          1.93929
     2. BD (   1) O   1 - H   4          1.96410
     3. CR (   1) O   1                  1.99971
    13. CR (   1)Cl   3                  2.00000
    14. CR (   2)Cl   3                  1.99979
    15. CR (   3)Cl   3                  2.00003
    16. CR (   4)Cl   3                  1.99996
    17. CR (   5)Cl   3                  2.00003
    18. LP (   1) O   1                  1.96734
    19. LP (   2) O   1                  1.95275
    24. LP (   1)Cl   3                  1.97363
    25. LP (   2)Cl   3                  1.95614
    26. LP (   3)Cl   3                  1.95451
    27. RY*(   1) O   1                  0.01959
    28. RY*(   2) O   1                  0.01602
    29. RY*(   3) O   1                  0.00802
    30. RY*(   4) O   1                  0.00709
    31. RY*(   5) O   1                  0.00634
    32. RY*(   6) O   1                  0.00610
    33. RY*(   7) O   1                  0.00575
    34. RY*(   8) O   1                  0.00323
    35. RY*(   9) O   1                  0.00255
    36. RY*(  10) O   1                  0.00086
    37. RY*(  11) O   1                  0.00066
    38. RY*(  12) O   1                  0.00060
    39. RY*(  13) O   1                  0.00060
    40. RY*(  14) O   1                  0.00051
    41. RY*(  15) O   1                  0.00050
    42. RY*(  16) O   1                  0.00048
    43. RY*(  17) O   1                  0.00048
    44. RY*(  18) O   1                  0.00048
    45. RY*(  19) O   1                  0.00044
    46. RY*(  20) O   1                  0.00045
    47. RY*(  21) O   1                  0.00045
    48. RY*(  22) O   1                  0.00042
    49. RY*(  23) O   1                  0.00035
    50. RY*(  24) O   1                  0.00031
    51. RY*(  25) O   1                  0.00025
    52. RY*(  26) O   1                  0.00021
    53. RY*(  27) O   1                  0.00016
    54. RY*(  28) O   1                  0.00013
    55. RY*(  29) O   1                  0.00013
    56. RY*(  30) O   1                  0.00009
    57. RY*(  31) O   1                  0.00008
    58. RY*(  32) O   1                  0.00008
    59. RY*(  33) O   1                  0.00009
    60. RY*(  34) O   1                  0.00008
    61. RY*(  35) O   1                  0.00006
    62. RY*(  36) O   1                  0.00006
    63. RY*(  37) O   1                  0.00006
    64. RY*(  38) O   1                  0.00007
    65. RY*(  39) O   1                  0.00004
    66. RY*(  40) O   1                  0.00003
    67. RY*(  41) O   1                  0.00002
   110. RY*(   1)Cl   3                  0.02219
   111. RY*(   2)Cl   3                  0.01735
   112. RY*(   3)Cl   3                  0.01680
   113. RY*(   4)Cl   3                  0.01646
   114. RY*(   5)Cl   3                  0.01163
   115. RY*(   6)Cl   3                  0.00917
   116. RY*(   7)Cl   3                  0.00899
   117. RY*(   8)Cl   3                  0.00624
   118. RY*(   9)Cl   3                  0.00167
   119. RY*(  10)Cl   3                  0.00127
   120. RY*(  11)Cl   3                  0.00127
   121. RY*(  12)Cl   3                  0.00119
   122. RY*(  13)Cl   3                  0.00119
   123. RY*(  14)Cl   3                  0.00116
   124. RY*(  15)Cl   3                  0.00110
   125. RY*(  16)Cl   3                  0.00094
   126. RY*(  17)Cl   3                  0.00077
   127. RY*(  18)Cl   3                  0.00075
   128. RY*(  19)Cl   3                  0.00062
   129. RY*(  20)Cl   3                  0.00056
   130. RY*(  21)Cl   3                  0.00044
   131. RY*(  22)Cl   3                  0.00038
   132. RY*(  23)Cl   3                  0.00034
   133. RY*(  24)Cl   3                  0.00032
   134. RY*(  25)Cl   3                  0.00019
   135. RY*(  26)Cl   3                  0.00015
   136. RY*(  27)Cl   3                  0.00016
   137. RY*(  28)Cl   3                  0.00013
   138. RY*(  29)Cl   3                  0.00013
   139. RY*(  30)Cl   3                  0.00013
   140. RY*(  31)Cl   3                  0.00011
   141. RY*(  32)Cl   3                  0.00010
   142. RY*(  33)Cl   3                  0.00010
   143. RY*(  34)Cl   3                  0.00010
   144. RY*(  35)Cl   3                  0.00010
   145. RY*(  36)Cl   3                  0.00010
   146. RY*(  37)Cl   3                  0.00007
   147. RY*(  38)Cl   3                  0.00006
   148. RY*(  39)Cl   3                  0.00004
   149. RY*(  40)Cl   3                  0.00003
   150. RY*(  41)Cl   3                  0.00000
   151. RY*(   1) H   4                  0.01068
   152. RY*(   2) H   4                  0.00543
   153. RY*(   3) H   4                  0.00456
   154. RY*(   4) H   4                  0.00353
   155. RY*(   5) H   4                  0.00061
   156. RY*(   6) H   4                  0.00053
   157. RY*(   7) H   4                  0.00046
   158. RY*(   8) H   4                  0.00035
   159. RY*(   9) H   4                  0.00030
   160. RY*(  10) H   4                  0.00028
   161. RY*(  11) H   4                  0.00025
   162. RY*(  12) H   4                  0.00022
   163. RY*(  13) H   4                  0.00016
   164. RY*(  14) H   4                  0.00013
   165. RY*(  15) H   4                  0.00013
   166. RY*(  16) H   4                  0.00011
   167. RY*(  17) H   4                  0.00007
   168. RY*(  18) H   4                  0.00006
   169. RY*(  19) H   4                  0.00005
   170. RY*(  20) H   4                  0.00005
   171. RY*(  21) H   4                  0.00005
   172. RY*(  22) H   4                  0.00003
   173. BD*(   1) O   1 -Cl   3          0.05909
   174. BD*(   1) O   1 - H   4          0.09894
       -------------------------------
              Total Lewis   25.70727  ( 98.4887%)
        Valence non-Lewis    0.15803  (  0.6054%)
        Rydberg non-Lewis    0.23645  (  0.9059%)
       -------------------------------
            Total unit  1   26.10175  (100.0000%)
           Charge unit  1   -0.10175

 Molecular unit  2  (I)
     4. CR (   1) I   2                  1.99990
     5. CR (   2) I   2                  1.99990
     6. CR (   3) I   2                  2.00004
     7. CR (   4) I   2                  2.00004
     8. CR (   5) I   2                  1.99674
     9. CR (   6) I   2                  1.99673
    10. CR (   7) I   2                  1.99678
    11. CR (   8) I   2                  1.99665
    12. CR (   9) I   2                  1.99674
    20. LP (   1) I   2                  1.97840
    21. LP (   2) I   2                  1.95119
    22. LP (   3) I   2                  1.95106
    23. LP (   4) I   2                  1.86790
    68. RY*(   1) I   2                  0.02031
    69. RY*(   2) I   2                  0.02023
    70. RY*(   3) I   2                  0.02013
    71. RY*(   4) I   2                  0.02012
    72. RY*(   5) I   2                  0.01911
    73. RY*(   6) I   2                  0.01072
    74. RY*(   7) I   2                  0.01067
    75. RY*(   8) I   2                  0.00913
    76. RY*(   9) I   2                  0.00303
    77. RY*(  10) I   2                  0.00278
    78. RY*(  11) I   2                  0.00279
    79. RY*(  12) I   2                  0.00276
    80. RY*(  13) I   2                  0.00276
    81. RY*(  14) I   2                  0.00268
    82. RY*(  15) I   2                  0.00269
    83. RY*(  16) I   2                  0.00258
    84. RY*(  17) I   2                  0.00166
    85. RY*(  18) I   2                  0.00166
    86. RY*(  19) I   2                  0.00134
    87. RY*(  20) I   2                  0.00134
    88. RY*(  21) I   2                  0.00114
    89. RY*(  22) I   2                  0.00072
    90. RY*(  23) I   2                  0.00072
    91. RY*(  24) I   2                  0.00063
    92. RY*(  25) I   2                  0.00047
    93. RY*(  26) I   2                  0.00045
    94. RY*(  27) I   2                  0.00044
    95. RY*(  28) I   2                  0.00042
    96. RY*(  29) I   2                  0.00042
    97. RY*(  30) I   2                  0.00040
    98. RY*(  31) I   2                  0.00039
    99. RY*(  32) I   2                  0.00032
   100. RY*(  33) I   2                  0.00021
   101. RY*(  34) I   2                  0.00021
   102. RY*(  35) I   2                  0.00016
   103. RY*(  36) I   2                  0.00014
   104. RY*(  37) I   2                  0.00012
   105. RY*(  38) I   2                  0.00011
   106. RY*(  39) I   2                  0.00009
   107. RY*(  40) I   2                  0.00007
   108. RY*(  41) I   2                  0.00008
   109. RY*(  42) I   2                  0.00000
       -------------------------------
              Total Lewis   53.73207  ( 99.6917%)
        Valence non-Lewis    0.00000  (  0.0000%)
        Rydberg non-Lewis    0.16618  (  0.3083%)
       -------------------------------
            Total unit  2   53.89825  (100.0000%)
           Charge unit  2   -0.89825
 Leave Link  607 at Tue Sep 28 09:16:28 2021, MaxMem= 16106127360 cpu:              71.1 elap:               2.6
 (Enter /sw/contrib/gaussian/g16/B01/g16/l9999.exe)
 1\1\GINC-N2398\SP\RMP2-FC\Gen\Cl1H1I1O1(1-)\CGAVINH\28-Sep-2021\0\\#p 
 pop=NBO SP NoSymm mp2/gen Pseudo=read density=current\\title\\-1,1\O,0
 ,0.,0.,0.\I,0,3.31229841,0.,0.\Cl,0,-0.386418759,1.641656518,0.\H,0,0.
 93929795,0.,0.341876495\\Version=ES64L-G16RevB.01\HF=-829.6833599\MP2=
 -830.3647861\RMSD=8.459e-09\Dipole=-1.9195527,0.8368078,0.0951116\Quad
 rupole=-21.9221356,10.9375283,10.9846073,0.2908443,-0.0292848,-0.07748
 02\PG=C01 [X(Cl1H1I1O1)]\\@


 Until you make peace with who you are,
 you'll never be content with what you have.
                           -- Doris Mortman
 Job cpu time:       0 days  0 hours  5 minutes 32.6 seconds.
 Elapsed time:       0 days  0 hours  0 minutes 17.3 seconds.
 File lengths (MBytes):  RWF=     15 Int=      0 D2E=      0 Chk=      8 Scr=      1
 Normal termination of Gaussian 16 at Tue Sep 28 09:16:29 2021.
