title                                                                   
SP        RMP2-FC                                                     Gen                 
Number of atoms                            I                4
Info1-9                                    I   N=           9
         135         126           0           0           0         110
           1           2           1
Full Title                                 C   N=           1
title       
Route                                      C   N=           5
#p pop=NBO SP NoSymm mp2/gen Pseudo=read density=current    
Charge                                     I               -1
Multiplicity                               I                1
Number of electrons                        I               52
Number of alpha electrons                  I               26
Number of beta electrons                   I               26
Number of basis functions                  I              174
Number of independent functions            I              174
Number of point charges in /Mol/           I                0
Number of translation vectors              I                0
Atomic numbers                             I   N=           4
           8          53          17           1
Nuclear charges                            R   N=           4
  8.00000000E+00  2.50000000E+01  1.70000000E+01  1.00000000E+00
Current cartesian coordinates              R   N=          12
  0.00000000E+00  0.00000000E+00  0.00000000E+00  6.25933684E+00  0.00000000E+00
  0.00000000E+00 -7.30225624E-01  3.10228121E+00  0.00000000E+00  1.83082953E+00
  0.00000000E+00  4.90569293E-01
Number of symbols in /Mol/                 I                0
Force Field                                I                0
Atom Types                                 C   N=           4
                                                
Int Atom Types                             I   N=           4
           0           0           0           0
MM charges                                 R   N=           4
  0.00000000E+00  0.00000000E+00  0.00000000E+00  0.00000000E+00
Integer atomic weights                     I   N=           4
          16         127          35           1
Real atomic weights                        R   N=           4
  1.59949146E+01  1.26900400E+02  3.49688527E+01  1.00782504E+00
Atom fragment info                         I   N=           4
           0           0           0           0
Atom residue num                           I   N=           4
           0           0           0           0
Nuclear spins                              I   N=           4
           0           5           3           1
Nuclear ZEff                               R   N=           4
 -5.60000000E+00 -5.83000000E+03 -1.42400000E+01 -1.00000000E+00
Nuclear ZNuc                               R   N=           4
  8.00000000E+00  5.30000000E+01  1.70000000E+01  1.00000000E+00
Nuclear QMom                               R   N=           4
  0.00000000E+00 -7.10000000E+01 -8.16500000E+00  0.00000000E+00
Nuclear GFac                               R   N=           4
  0.00000000E+00  2.81328000E+00  8.21874000E-01  2.79284600E+00
MicOpt                                     I   N=           4
          -1          -1          -1          -1
Number of residues                         I                0
Number of secondary structures             I                0
Number of contracted shells                I               56
Number of primitive shells                 I              143
Pure/Cartesian d shells                    I                0
Pure/Cartesian f shells                    I                0
Highest angular momentum                   I                3
Largest degree of contraction              I               11
Shell types                                I   N=          56
           0           0           0           0           0           1
           1           1           1          -2          -2          -2
          -3          -3           0           0           0           0
           0           0           1           1           1           1
           1          -2          -2          -2          -2          -3
          -3           0           0           0           0           0
           0           1           1           1           1           1
          -2          -2          -2          -3          -3           0
           0           0           0           1           1           1
          -2          -2
Number of primitives per shell             I   N=          56
           7           6           1           1           1           3
           1           1           1           1           1           1
           1           1           9           8           1           1
           1           1           8           8           1           1
           1           9           1           1           1           1
           1          11           9           8           1           1
           1           6           6           1           1           1
           1           1           1           1           1           3
           1           1           1           1           1           1
           1           1
Shell to atom map                          I   N=          56
           1           1           1           1           1           1
           1           1           1           1           1           1
           1           1           2           2           2           2
           2           2           2           2           2           2
           2           2           2           2           2           2
           2           3           3           3           3           3
           3           3           3           3           3           3
           3           3           3           3           3           4
           4           4           4           4           4           4
           4           4
Primitive exponents                        R   N=         143
  1.53300000E+04  2.29900000E+03  5.22400000E+02  1.47300000E+02  4.75500000E+01
  1.67600000E+01  6.20700000E+00  5.22400000E+02  1.47300000E+02  4.75500000E+01
  1.67600000E+01  6.20700000E+00  6.88200000E-01  1.75200000E+00  2.38400000E-01
  7.37600000E-02  3.44600000E+01  7.74900000E+00  2.28000000E+00  7.15600000E-01
  2.14000000E-01  5.97400000E-02  2.31400000E+00  6.45000000E-01  2.14000000E-01
  1.42800000E+00  5.00000000E-01  5.54650000E+03  8.38214000E+02  1.82187000E+02
  3.12123000E+01  1.95314000E+01  8.24099000E+00  2.19455000E+00  1.10911000E+00
  8.10610000E-02  5.54650000E+03  8.38214000E+02  3.12123000E+01  1.95314000E+01
  8.24099000E+00  2.19455000E+00  1.10911000E+00  8.10610000E-02  3.74641000E-01
  1.77080000E-01  1.00100000E-01  4.12000000E-02  1.88988000E+02  2.12868000E+01
  1.00396000E+01  3.45180000E+00  1.97456000E+00  1.02420000E+00  4.49437000E-01
  7.34810000E-02  1.88988000E+02  1.00396000E+01  3.45180000E+00  1.97456000E+00
  1.02420000E+00  4.49437000E-01  1.86648000E-01  7.34810000E-02  5.98100000E-01
  9.61800000E-02  3.59000000E-02  1.32662000E+02  3.76054000E+01  1.03891000E+01
  6.49017000E+00  3.45451000E+00  1.84413000E+00  9.62478000E-01  4.72853000E-01
  1.93200000E-01  4.72853000E-01  1.93200000E-01  7.82000000E-02  4.06400000E-01
  1.84800000E-01  4.56100000E+05  6.83300000E+04  1.55500000E+04  4.40500000E+03
  1.43900000E+03  5.20400000E+02  2.03100000E+02  8.39600000E+01  3.62000000E+01
  1.58300000E+01  6.33400000E+00  4.40500000E+03  1.43900000E+03  5.20400000E+02
  2.03100000E+02  8.39600000E+01  3.62000000E+01  1.58300000E+01  6.33400000E+00
  2.69400000E+00  1.43900000E+03  2.03100000E+02  8.39600000E+01  3.62000000E+01
  1.58300000E+01  6.33400000E+00  2.69400000E+00  4.31300000E-01  9.76800000E-01
  1.62500000E-01  5.91000000E-02  6.63300000E+02  1.56800000E+02  4.99800000E+01
  1.84200000E+01  7.24000000E+00  2.92200000E+00  1.56800000E+02  4.99800000E+01
  1.84200000E+01  7.24000000E+00  2.92200000E+00  3.81800000E-01  1.02200000E+00
  1.30100000E-01  4.19000000E-02  1.04600000E+00  3.44000000E-01  1.35000000E-01
  7.06000000E-01  3.12000000E-01  3.38700000E+01  5.09500000E+00  1.15900000E+00
  3.25800000E-01  1.02700000E-01  2.52600000E-02  1.40700000E+00  3.88000000E-01
  1.02000000E-01  1.05700000E+00  2.47000000E-01
Contraction coefficients                   R   N=         143
  5.19808943E-04  4.02025621E-03  2.07128267E-02  8.10105536E-02  2.35962985E-01
  4.42653446E-01  3.57064423E-01 -4.42115008E-05 -1.22591041E-03 -1.05517725E-02
 -6.74452633E-02 -1.71198607E-01  1.07329856E+00  1.00000000E+00  1.00000000E+00
  1.00000000E+00  4.11634896E-02  2.57762836E-01  8.02419274E-01  1.00000000E+00
  1.00000000E+00  1.00000000E+00  1.00000000E+00  1.00000000E+00  1.00000000E+00
  1.00000000E+00  1.00000000E+00  1.58603022E-04  1.00211458E-03  2.83966410E-03
 -4.40310212E-02  2.38198152E-01 -7.63568980E-01  8.96516870E-01  4.68371203E-01
  2.16251781E-03 -2.17177846E-05 -2.59237305E-04 -1.50376554E-02  2.42214079E-02
  6.99888661E-02 -5.50491335E-01 -5.69654432E-01  3.76065139E-01  1.00000000E+00
  1.00000000E+00  1.00000000E+00  1.00000000E+00  5.85232173E-04  3.69335916E-02
 -2.35399435E-01  3.41625365E-01  5.34991615E-01  2.65244797E-01  2.54463150E-02
  3.82802808E-04 -6.76097015E-05  8.33123161E-03 -4.66496478E-02 -5.27406452E-02
 -2.91398344E-02  3.65650039E-01  5.48502805E-01  2.34644635E-01  1.00000000E+00
  1.00000000E+00  1.00000000E+00  5.72000072E-04  4.40200055E-03 -4.09220051E-02
  9.96610125E-02  3.22663040E-01  4.00343050E-01  2.68306034E-01  8.48470106E-02
  7.63200096E-03  1.00000000E+00  1.00000000E+00  1.00000000E+00  1.00000000E+00
  1.00000000E+00  4.93229477E-05  3.83207967E-04  2.00947816E-03  8.38950124E-03
  2.94843950E-02  8.78759948E-02  2.11589759E-01  3.65611554E-01  3.41246350E-01
  1.02162570E-01  2.14249949E-03 -2.21747925E-06 -1.71189708E-04 -1.27922846E-03
 -9.32956265E-03 -3.98910062E-02 -1.05536085E-01  9.36202446E-03  5.10511140E-01
  5.73150737E-01  4.03949245E-06  2.12481765E-04  8.59484452E-04  4.63248159E-03
  4.47343490E-04 -7.38438245E-02 -3.62271994E-01  1.16620337E+00  1.00000000E+00
  1.00000000E+00  1.00000000E+00  2.47206402E-03  1.97550234E-02  9.09917355E-02
  2.63187834E-01  4.49078073E-01  3.60183072E-01  3.03427809E-05 -1.22475826E-03
 -6.01429772E-03 -2.76401323E-02  4.35105612E-04  1.00307272E+00  1.00000000E+00
  1.00000000E+00  1.00000000E+00  1.00000000E+00  1.00000000E+00  1.00000000E+00
  1.00000000E+00  1.00000000E+00  2.54948632E-02  1.90362766E-01  8.52162022E-01
  1.00000000E+00  1.00000000E+00  1.00000000E+00  1.00000000E+00  1.00000000E+00
  1.00000000E+00  1.00000000E+00  1.00000000E+00
Coordinates of each shell                  R   N=         168
  0.00000000E+00  0.00000000E+00  0.00000000E+00  0.00000000E+00  0.00000000E+00
  0.00000000E+00  0.00000000E+00  0.00000000E+00  0.00000000E+00  0.00000000E+00
  0.00000000E+00  0.00000000E+00  0.00000000E+00  0.00000000E+00  0.00000000E+00
  0.00000000E+00  0.00000000E+00  0.00000000E+00  0.00000000E+00  0.00000000E+00
  0.00000000E+00  0.00000000E+00  0.00000000E+00  0.00000000E+00  0.00000000E+00
  0.00000000E+00  0.00000000E+00  0.00000000E+00  0.00000000E+00  0.00000000E+00
  0.00000000E+00  0.00000000E+00  0.00000000E+00  0.00000000E+00  0.00000000E+00
  0.00000000E+00  0.00000000E+00  0.00000000E+00  0.00000000E+00  0.00000000E+00
  0.00000000E+00  0.00000000E+00  6.25933684E+00  0.00000000E+00  0.00000000E+00
  6.25933684E+00  0.00000000E+00  0.00000000E+00  6.25933684E+00  0.00000000E+00
  0.00000000E+00  6.25933684E+00  0.00000000E+00  0.00000000E+00  6.25933684E+00
  0.00000000E+00  0.00000000E+00  6.25933684E+00  0.00000000E+00  0.00000000E+00
  6.25933684E+00  0.00000000E+00  0.00000000E+00  6.25933684E+00  0.00000000E+00
  0.00000000E+00  6.25933684E+00  0.00000000E+00  0.00000000E+00  6.25933684E+00
  0.00000000E+00  0.00000000E+00  6.25933684E+00  0.00000000E+00  0.00000000E+00
  6.25933684E+00  0.00000000E+00  0.00000000E+00  6.25933684E+00  0.00000000E+00
  0.00000000E+00  6.25933684E+00  0.00000000E+00  0.00000000E+00  6.25933684E+00
  0.00000000E+00  0.00000000E+00  6.25933684E+00  0.00000000E+00  0.00000000E+00
  6.25933684E+00  0.00000000E+00  0.00000000E+00 -7.30225624E-01  3.10228121E+00
  0.00000000E+00 -7.30225624E-01  3.10228121E+00  0.00000000E+00 -7.30225624E-01
  3.10228121E+00  0.00000000E+00 -7.30225624E-01  3.10228121E+00  0.00000000E+00
 -7.30225624E-01  3.10228121E+00  0.00000000E+00 -7.30225624E-01  3.10228121E+00
  0.00000000E+00 -7.30225624E-01  3.10228121E+00  0.00000000E+00 -7.30225624E-01
  3.10228121E+00  0.00000000E+00 -7.30225624E-01  3.10228121E+00  0.00000000E+00
 -7.30225624E-01  3.10228121E+00  0.00000000E+00 -7.30225624E-01  3.10228121E+00
  0.00000000E+00 -7.30225624E-01  3.10228121E+00  0.00000000E+00 -7.30225624E-01
  3.10228121E+00  0.00000000E+00 -7.30225624E-01  3.10228121E+00  0.00000000E+00
 -7.30225624E-01  3.10228121E+00  0.00000000E+00 -7.30225624E-01  3.10228121E+00
  0.00000000E+00  1.83082953E+00  0.00000000E+00  4.90569293E-01  1.83082953E+00
  0.00000000E+00  4.90569293E-01  1.83082953E+00  0.00000000E+00  4.90569293E-01
  1.83082953E+00  0.00000000E+00  4.90569293E-01  1.83082953E+00  0.00000000E+00
  4.90569293E-01  1.83082953E+00  0.00000000E+00  4.90569293E-01  1.83082953E+00
  0.00000000E+00  4.90569293E-01  1.83082953E+00  0.00000000E+00  4.90569293E-01
  1.83082953E+00  0.00000000E+00  4.90569293E-01
Num ILSW                                   I              100
ILSW                                       I   N=         100
           0           0           0           0           2           0
           0           0           0           0           0          -1
           5           0           0           0           0           0
           0           0           0           0           0           0
           1           1           0           0           0           0
           0           0      100000           0          -1           0
           0           0           0           0           0           0
           0           0           0           1           0           0
           0 -2000000000           1           0           0           0
           0           0           4          52           0           0
           0           0           0           0           0           0
           0           0           0           4           0           1
           0           0           0           0           0           0
           0           0           0           0           0           0
           0           0           0           0           0           0
           0           0           0           0           0           0
           0           0           0           0
Num RLSW                                   I               52
RLSW                                       R   N=          52
  1.00000000E+00  1.00000000E+00  1.00000000E+00  1.00000000E+00  1.00000000E+00
  0.00000000E+00  0.00000000E+00  1.00000000E+00  0.00000000E+00  0.00000000E+00
  0.00000000E+00  0.00000000E+00  1.00000000E+00  0.00000000E+00  0.00000000E+00
  0.00000000E+00  0.00000000E+00  1.00000000E+00  0.00000000E+00  0.00000000E+00
  0.00000000E+00  0.00000000E+00  1.00000000E+00  0.00000000E+00  0.00000000E+00
  0.00000000E+00  0.00000000E+00  1.00000000E+00  0.00000000E+00  0.00000000E+00
  0.00000000E+00  0.00000000E+00  1.00000000E+00  0.00000000E+00  0.00000000E+00
  0.00000000E+00  0.00000000E+00  0.00000000E+00  1.00000000E+00  1.00000000E+00
  0.00000000E+00  1.00000000E+00  0.00000000E+00  0.00000000E+00  0.00000000E+00
  0.00000000E+00  0.00000000E+00  0.00000000E+00  0.00000000E+00  0.00000000E+00
  0.00000000E+00  0.00000000E+00
ECP-MxAtEC                                 I           250000
ECP-MaxLECP                                I               10
ECP-MaxAtL                                 I          2250000
ECP-MxTECP                                 I         11250000
ECP-LenNCZ                                 I               16
ECP-KFirst                                 I   N=          40
           0           1           0           0           0           2
           0           0           0           5           0           0
           0           9           0           0           0          13
           0           0           0           0           0           0
           0           0           0           0           0           0
           0           0           0           0           0           0
           0           0           0           0
ECP-KLast                                  I   N=          40
           0           1           0           0           0           4
           0           0           0           8           0           0
           0          12           0           0           0          16
           0           0           0           0           0           0
           0           0           0           0           0           0
           0           0           0           0           0           0
           0           0           0           0
ECP-LMax                                   I   N=           4
           0           4           0           0
ECP-LPSkip                                 I   N=           4
           1           0           1           1
ECP-RNFroz                                 R   N=           4
  0.00000000E+00  2.80000000E+01  0.00000000E+00  0.00000000E+00
ECP-NLP                                    I   N=          16
           2           2           2           2           2           2
           2           2           2           2           2           2
           2           2           2           2
ECP-CLP1                                   R   N=          16
  0.00000000E+00  4.99896490E+01  2.81006556E+02  6.14167390E+01  6.74162390E+01
  1.34807696E+02  1.45665480E+01  2.89684220E+01  3.55387560E+01  5.33397590E+01
  9.71646600E+00  1.49775000E+01 -2.01766180E+01 -2.60880770E+01 -2.20434000E-01
 -2.21646000E-01
ECP-CLP2                                   R   N=          16
  0.00000000E+00  0.00000000E+00  0.00000000E+00  0.00000000E+00  0.00000000E+00
  0.00000000E+00  0.00000000E+00  0.00000000E+00  0.00000000E+00  0.00000000E+00
  0.00000000E+00  0.00000000E+00  0.00000000E+00  0.00000000E+00  0.00000000E+00
  0.00000000E+00
ECP-ZLP                                    R   N=          16
  1.00000000E+00  4.00333760E+01  1.73005760E+01  8.85172000E+00  1.57201410E+01
  1.52082220E+01  8.29418600E+00  7.75394900E+00  1.38177510E+01  1.35878050E+01
  6.94763000E+00  6.96009900E+00  1.85229500E+01  1.82510350E+01  7.55790100E+00
  7.59740400E+00
MxBond                                     I                2
NBond                                      I   N=           4
           2           0           1           1
IBond                                      I   N=           8
           3           4           0           0           1           0
           1           0
RBond                                      R   N=           8
  1.00000000E+00  1.00000000E+00  0.00000000E+00  0.00000000E+00  1.00000000E+00
  0.00000000E+00  1.00000000E+00  0.00000000E+00
Virial Ratio                               R      2.285043092498168E+00
SCF Energy                                 R     -8.296843318750014E+02
MP2 Energy                                 R     -8.303663275429143E+02
Total Energy                               R     -8.303663275429143E+02
Post-SCF wavefunction norm                 R      1.108504360903760E+00
RMS Density                                R      8.461206855311366E-09
Job Status                                 I                1
Nuclear derivative order                   I                0
External E-field                           R   N=          35
  0.00000000E+00  0.00000000E+00  0.00000000E+00  0.00000000E+00  0.00000000E+00
  0.00000000E+00  0.00000000E+00  0.00000000E+00  0.00000000E+00  0.00000000E+00
  0.00000000E+00  0.00000000E+00  0.00000000E+00  0.00000000E+00  0.00000000E+00
  0.00000000E+00  0.00000000E+00  0.00000000E+00  0.00000000E+00  0.00000000E+00
  0.00000000E+00  0.00000000E+00  0.00000000E+00  0.00000000E+00  0.00000000E+00
  0.00000000E+00  0.00000000E+00  0.00000000E+00  0.00000000E+00  0.00000000E+00
  0.00000000E+00  0.00000000E+00  0.00000000E+00  0.00000000E+00  0.00000000E+00
IOpCl                                      I                0
IROHF                                      I                0
Alpha Orbital Energies                     R   N=         174
 -1.04742831E+02 -2.04784762E+01 -1.04623114E+01 -7.92948312E+00 -7.92677203E+00
 -7.92665710E+00 -7.47677869E+00 -5.30260833E+00 -5.30194948E+00 -5.30192741E+00
 -2.03017050E+00 -2.02979086E+00 -2.02977731E+00 -2.02905906E+00 -2.02905880E+00
 -1.24514354E+00 -9.08094436E-01 -6.42295741E-01 -5.52362410E-01 -4.55958609E-01
 -4.47423910E-01 -3.19325651E-01 -2.93249514E-01 -1.61235361E-01 -1.51761737E-01
 -1.51605173E-01  1.51751546E-01  1.75977336E-01  2.15505039E-01  2.25263068E-01
  2.40303919E-01  2.50194674E-01  2.52703995E-01  2.75004568E-01  2.93032358E-01
  2.97609421E-01  3.08491668E-01  3.19676527E-01  3.46718620E-01  3.72561599E-01
  3.79284859E-01  3.84370787E-01  4.20482092E-01  4.30231555E-01  4.52784127E-01
  5.00302726E-01  5.24584156E-01  5.37219604E-01  5.47784216E-01  5.62431153E-01
  5.73949567E-01  5.87070004E-01  6.40672960E-01  6.57852182E-01  7.21006174E-01
  7.51388906E-01  7.61142861E-01  7.71088350E-01  7.74388863E-01  7.91373543E-01
  7.92149002E-01  8.00402617E-01  8.15416522E-01  8.36635475E-01  8.38302321E-01
  8.53796226E-01  8.67393261E-01  8.74275425E-01  8.80421378E-01  8.88653098E-01
  9.02001310E-01  9.29002302E-01  9.49175309E-01  9.70709247E-01  9.79473335E-01
  1.00291425E+00  1.04267684E+00  1.06516044E+00  1.07693965E+00  1.09859641E+00
  1.12348547E+00  1.15833632E+00  1.18809583E+00  1.20107962E+00  1.22356468E+00
  1.23189904E+00  1.25489433E+00  1.28924431E+00  1.37002157E+00  1.38916347E+00
  1.43361358E+00  1.44401488E+00  1.52615120E+00  1.56584679E+00  1.59613565E+00
  1.61279107E+00  1.66795257E+00  1.67961825E+00  1.72483860E+00  1.73786520E+00
  1.74492875E+00  1.74668215E+00  1.76407695E+00  1.77406141E+00  1.79839612E+00
  1.84907651E+00  1.85569194E+00  1.88695771E+00  1.90982302E+00  1.96637464E+00
  2.05312910E+00  2.05336350E+00  2.10241526E+00  2.13135619E+00  2.14812574E+00
  2.25972165E+00  2.39005371E+00  2.46711467E+00  2.49619642E+00  2.52118329E+00
  2.55362370E+00  2.59255903E+00  2.60509913E+00  2.64612869E+00  2.67443880E+00
  2.69700827E+00  2.71350909E+00  2.72450176E+00  2.75920493E+00  2.76965106E+00
  2.81212027E+00  2.99102763E+00  3.01715115E+00  3.08383558E+00  3.16565799E+00
  3.19326562E+00  3.20941698E+00  3.22163793E+00  3.26067829E+00  3.28061569E+00
  3.30296402E+00  3.36165586E+00  3.51270414E+00  3.53055113E+00  3.53606307E+00
  3.82054096E+00  3.91415073E+00  4.30399263E+00  4.35642583E+00  4.49676508E+00
  4.56341204E+00  4.63661642E+00  4.74311060E+00  4.97011107E+00  5.04440663E+00
  5.34260322E+00  5.39536904E+00  5.65905376E+00  6.39489006E+00  6.56463937E+00
  6.84125226E+00  6.88920112E+00  6.90370177E+00  6.97340123E+00  7.28800435E+00
  7.33716242E+00  7.34001693E+00  7.42260355E+00  7.53352754E+00  7.71170145E+00
  7.76674276E+00  8.33738238E+00  1.44790965E+01  5.92081688E+01
Alpha MO coefficients                      R   N=       30276
  5.37066254E-06  2.98790994E-05  2.09226985E-06 -1.50645122E-04 -9.34017574E-05
  3.44968349E-07  3.03191673E-06  5.54265673E-07 -3.88502883E-06 -8.85271346E-06
 -2.71433685E-06  4.64240520E-05 -1.57201235E-04  9.11073693E-07  1.30933068E-05
 -3.76432012E-05  2.92099990E-06 -2.18017122E-06  2.17620334E-07  3.29463004E-08
 -3.11661865E-06 -1.39584760E-06  1.42357501E-05 -9.83063461E-07 -3.34729801E-07
  2.08391489E-05  9.21273045E-06  2.65672031E-05  3.56437098E-06 -3.37478970E-06
  5.81080644E-05  1.09498467E-05 -2.27020407E-07 -2.67657400E-07 -1.90512149E-08
 -3.17100662E-07  3.77096623E-07 -1.52847068E-06  9.63930335E-07  3.47293793E-07
 -2.52184905E-06  1.31169909E-05  1.61130487E-06 -1.67948019E-06 -5.17771522E-06
  9.10951715E-06 -4.26556188E-08  7.28706089E-08  2.46877380E-07  1.70507273E-05
 -3.81224656E-05 -3.03018555E-06  9.45723946E-07  1.71347912E-07 -2.41089930E-07
  3.34342936E-06  1.60462693E-06 -9.62062749E-07 -2.82247683E-06 -3.63807697E-07
  6.86274360E-07  2.35968794E-05 -4.80368461E-06 -3.30356955E-06  2.14966413E-06
  7.10003015E-08  4.90959471E-07  9.62319089E-08  7.31924524E-08 -3.08467067E-08
 -1.79125832E-07  1.57604084E-07 -7.79549205E-07 -5.81077662E-07  1.14626851E-07
  1.35233913E-06 -8.86359311E-07  4.27722626E-06  3.02810588E-06 -7.05052176E-08
 -7.50286691E-06  2.07542873E-06  3.89413057E-06  1.13929183E-06 -7.96609126E-07
 -5.96782939E-06  2.24193827E-06  7.80012453E-08 -1.02011567E-07 -2.80122161E-08
 -2.13522062E-07 -5.68005687E-07 -3.53427406E-09  3.22202382E-07  1.12179239E-06
 -2.38421091E-06  3.73874709E-07 -1.18035296E-06  1.14070691E-06  2.97752334E-06
 -1.79176297E-06  9.99534916E-01  1.95308071E-03  1.83656941E-04 -4.17371586E-04
  7.39133626E-05  7.87252587E-05  1.76380546E-05 -7.60627020E-05  1.09342171E-06
  3.69247867E-05 -1.35037003E-04  1.92888813E-06 -1.80953565E-05  7.22427766E-05
 -1.04840484E-06  4.99009153E-06 -5.93416627E-05 -2.20668525E-06  2.33039625E-06
 -1.20606100E-05 -8.79484521E-07 -3.74725642E-06  8.41604421E-08 -1.14023555E-07
 -5.12617374E-06 -3.31764723E-06 -2.86836011E-05  3.23776176E-07 -5.32635323E-07
 -4.40622855E-05 -2.39589892E-05 -1.84806299E-06 -2.32292345E-06  6.78906942E-07
 -1.03437509E-05  6.24261733E-08 -4.53967477E-07 -1.90248757E-06  6.12995799E-06
  3.08245795E-07 -6.30688735E-07 -4.63524629E-06  4.17898230E-06  9.01824299E-07
  1.63802080E-07  3.29013582E-06 -8.63580865E-07  1.30757200E-06 -4.41108454E-06
  7.33745057E-06 -1.30533445E-06 -1.53819358E-05  4.36356391E-05 -9.74143421E-06
  1.12950949E-06 -2.60075613E-06  1.91621053E-07 -1.25755871E-05  1.70527990E-05
 -1.90806820E-06  1.62493966E-05  2.33487038E-05 -2.26671480E-06 -5.22249133E-07
  2.21168599E-07 -2.58047354E-08 -9.00809861E-07 -1.03230616E-06 -1.25131995E-05
  2.71570780E-06 -1.33711477E-06  8.46075665E-06 -3.79548858E-06  9.76817244E-01
 -9.19198820E-03  4.33812460E-02  1.61240902E-03  9.61991327E-04  8.99561705E-04
  1.57186158E-03  4.08313458E-04 -1.04536865E-03 -1.19571355E-03 -4.36152267E-04
 -2.43901741E-04  4.25406613E-04 -2.88117955E-04 -9.44268032E-05  2.28645012E-04
 -4.69817817E-06  4.32912787E-05  1.72603024E-05 -2.02452203E-06  1.00773568E-04
  4.02739083E-05  4.13891476E-04 -2.60805485E-04 -7.69307991E-06  7.01777699E-06
  1.48936755E-04 -1.63171301E-04 -7.39964074E-05 -3.79552807E-05 -1.78112131E-04
 -1.23098869E-04  6.37101745E-06  6.41507140E-06  1.80669685E-05 -1.41546568E-06
 -5.76437117E-06 -2.20352834E-06  7.09649484E-06  4.07993196E-05  1.45864519E-05
  1.20252609E-05 -7.12807057E-05 -2.08321665E-05 -1.21034962E-04 -5.25790599E-05
 -4.27136042E-07  9.49948320E-06  2.20050313E-04  2.09177329E-05 -1.20231571E-03
 -4.13255615E-04  9.25619494E-05  1.29963416E-06 -1.25010635E-05  5.75352727E-04
 -5.80670016E-07 -4.67150457E-05 -2.45426181E-04 -3.84169342E-06  3.89125477E-05
  7.82266259E-04  4.17932348E-05 -2.72531964E-04  9.43510793E-05 -1.75008035E-05
 -2.35666763E-05 -4.70109252E-06  4.32386120E-06  2.56588706E-07  4.33725200E-06
 -2.59481090E-06  1.52605120E-05 -3.78160188E-05 -1.07331813E-06 -4.51391594E-06
  1.37276245E-05  1.50224336E-04  2.05949322E-04  1.43318535E-06 -3.26855602E-04
 -3.74148387E-05  1.07463254E-04  1.53993885E-04  7.45685519E-06 -2.07190261E-04
  2.59058972E-06 -5.27215761E-07 -2.84364839E-05 -2.62100817E-06  4.19018033E-06
  4.24949601E-06  2.80876547E-05 -1.15389713E-07  9.38359785E-05 -1.36669561E-05
  1.51135351E-06 -1.31877642E-04 -1.01461024E-05  8.62495049E-05  1.40057677E-05
  3.90703215E-06  6.77890279E-05  6.71309028E-05 -2.85368636E-04  1.91483397E-04
 -6.02391307E-04 -1.41775044E-06 -1.13112375E-05 -1.35057155E-06  6.65389048E-05
 -6.18173085E-04 -2.26288764E-05 -4.45651231E-05  2.66601772E-04  6.17189085E-06
  1.58893179E-04  2.56035368E-04  9.20727242E-05 -6.48567257E-07  1.38820017E-04
 -5.18383903E-06  1.54890715E-05 -4.60368639E-06 -2.51009880E-07  7.33560599E-06
  1.00477306E-05 -3.21623488E-04  1.24617440E-05  1.40178459E-05 -4.69978670E-04
 -1.87309197E-04  9.43281288E-05  2.06106624E-05 -6.36759983E-05  2.45300697E-04
 -5.32250171E-05  8.59398319E-06 -2.53057318E-05  1.61014750E-04  4.86994383E-06
  7.49316032E-06 -1.20107731E-04  1.90415607E-04 -1.60528536E-05 -4.78794530E-05
  1.07237761E-04  3.29579238E-06 -1.82021233E-05 -7.04722131E-05  5.60545497E-05
  3.48642127E-04  1.42424628E-03  1.00678944E-03  1.61084924E-04 -2.38602828E-04
  4.61350664E-05 -6.78717409E-05 -1.29194735E-03  4.17392576E-05 -1.97693347E-04
  1.38784751E-03 -2.04474741E-04  2.37641590E-04 -7.41571663E-07 -7.22664015E-06
 -1.97527720E-05 -1.13217043E-05 -6.96208562E-05 -4.79349081E-04  1.90934073E-04
  3.02369130E-06  1.01079410E-03 -8.10252908E-06 -7.03306717E-05 -6.66690235E-05
 -1.08904485E-04  2.89182824E-03  2.35496728E-03 -2.57084355E-05  3.75413133E-05
 -8.23410796E-06 -3.11902949E-05  5.78181063E-04  4.76644328E-05 -4.43122136E-04
  2.60452301E-03  5.20585810E-05 -2.31739711E-04  9.66774287E-04 -6.26265251E-05
 -2.31070812E-05 -4.88273323E-06 -3.57299462E-06 -4.38424738E-05 -3.40495952E-05
 -2.08756258E-04  3.63291133E-05  2.92877676E-05 -2.51210096E-04 -3.68906735E-05
 -3.04365000E-04 -3.19805280E-05  8.08698144E-05 -7.26434553E-04  1.48992162E-04
 -1.01151043E-06  5.64826041E-06 -2.35607851E-05  8.46871896E-06 -4.11197198E-06
  5.08605395E-05 -4.12837371E-05 -1.07494594E-05 -4.49407316E-06 -5.22114815E-05